 
       ==============================================
       |                                            |
       |                 C R E S T                  |
       |                                            |
       |  Conformer-Rotamer Ensemble Sampling Tool  |
       |          based on the GFN methods          |
       |             P.Pracht, S.Grimme             |
       |          Universitaet Bonn, MCTC           |
       ==============================================
       Version 2.11.2, Fr 17. Dec 12:10:44 CEST 2021
  Using the xTB program. Compatible with xTB version 6.4.0
 
   Cite work conducted with this code as

   P. Pracht, F. Bohle, S. Grimme, PCCP, 2020, 22, 7169-7192.

   and  S. Grimme, JCTC, 2019, 15, 2847-2862.
 
   with help from:
   C.Bannwarth, F.Bohle, S.Ehlert, S.Grimme,
   C. Plett, P.Pracht, S. Spicher
 
   This program is distributed in the hope that it will be useful,
   but WITHOUT ANY WARRANTY; without even the implied warranty of
   MERCHANTABILITY or FITNESS FOR A PARTICULAR PURPOSE.

 Command line input:
 > crest 00203_r_0.xyz -T 28 -gfn2 -chrg 0 -uhf 0 -rthr 0.25 -shake 1 --mdlen 0.5

  -T 28 (CPUs/Threads selected)
  -gfn2 : Use of GFN2-xTB requested.
  -chrg 0
  -uhf 0
  -rthr 0.25
  --mdlen 0.5 (MD length in ps)
 
 -------------------------
 xTB Geometry Optimization
 -------------------------
 Geometry successfully optimized.
 
------------------------------------------------
Generating MTD length from a flexibility measure
------------------------------------------------
      -----------------------------------------------------------      
     |                   =====================                   |     
     |                           x T B                           |     
     |                   =====================                   |     
     |                         S. Grimme                         |     
     |          Mulliken Center for Theoretical Chemistry        |     
     |                    University of Bonn                     |     
      -----------------------------------------------------------      

   * xtb version 6.4.1 (afa7bdf) compiled by 'ehlert@majestix' on 2021-06-10

   xtb is free software: you can redistribute it and/or modify it under
   the terms of the GNU Lesser General Public License as published by
   the Free Software Foundation, either version 3 of the License, or
   (at your option) any later version.
   
   xtb is distributed in the hope that it will be useful,
   but WITHOUT ANY WARRANTY; without even the implied warranty of
   MERCHANTABILITY or FITNESS FOR A PARTICULAR PURPOSE.  See the
   GNU Lesser General Public License for more details.
   
   Cite this work as:
   * C. Bannwarth, E. Caldeweyher, S. Ehlert, A. Hansen, P. Pracht,
     J. Seibert, S. Spicher, S. Grimme, WIREs Comput. Mol. Sci., 2020, 11,
     e01493. DOI: 10.1002/wcms.1493
   
   for GFN2-xTB:
   * C. Bannwarth, S. Ehlert and S. Grimme., J. Chem. Theory Comput., 2019,
     15, 1652-1671. DOI: 10.1021/acs.jctc.8b01176
   for GFN1-xTB:
   * S. Grimme, C. Bannwarth, P. Shushkov, J. Chem. Theory Comput., 2017,
     13, 1989-2009. DOI: 10.1021/acs.jctc.7b00118
   for GFN0-xTB:
   * P. Pracht, E. Caldeweyher, S. Ehlert, S. Grimme, ChemRxiv, 2019, preprint.
     DOI: 10.26434/chemrxiv.8326202.v1
   for GFN-FF:
   * S. Spicher and S. Grimme, Angew. Chem. Int. Ed., 2020, 59, 15665-15673.
     DOI: 10.1002/anie.202004239
   
   for DFT-D4:
   * E. Caldeweyher, C. Bannwarth and S. Grimme, J. Chem. Phys., 2017,
     147, 034112. DOI: 10.1063/1.4993215
   * E. Caldeweyher, S. Ehlert, A. Hansen, H. Neugebauer, S. Spicher,
     C. Bannwarth and S. Grimme, J. Chem. Phys., 2019, 150, 154122.
     DOI: 10.1063/1.5090222
   * E. Caldeweyher, J.-M. Mewes, S. Ehlert and S. Grimme, Phys. Chem. Chem. Phys.
     2020, 22, 8499-8512. DOI: 10.1039/D0CP00502A
   
   for sTDA-xTB:
   * S. Grimme and C. Bannwarth, J. Chem. Phys., 2016, 145, 054103.
     DOI: 10.1063/1.4959605
   
   in the mass-spec context:
   * V. Asgeirsson, C. Bauer and S. Grimme, Chem. Sci., 2017, 8, 4879.
     DOI: 10.1039/c7sc00601b
   * J. Koopman and S. Grimme, ACS Omega 2019, 4, 12, 15120-15133.
     DOI: 10.1021/acsomega.9b02011
   
   for metadynamics refer to:
   * S. Grimme, J. Chem. Theory Comput., 2019, 155, 2847-2862
     DOI: 10.1021/acs.jctc.9b00143
   
   for SPH calculations refer to:
   * S. Spicher and S. Grimme, J. Chem. Theory Comput., 2021, 17, 1701-1714
     DOI: 10.1021/acs.jctc.0c01306
   
   with help from (in alphabetical order)
   P. Atkinson, C. Bannwarth, F. Bohle, G. Brandenburg, E. Caldeweyher
   M. Checinski, S. Dohm, S. Ehlert, S. Ehrlich, I. Gerasimov, J. Koopman
   C. Lavigne, S. Lehtola, F. März, M. Müller, F. Musil, H. Neugebauer
   J. Pisarek, C. Plett, P. Pracht, J. Seibert, P. Shushkov, S. Spicher
   M. Stahn, M. Steiner, T. Strunk, J. Stückrath, T. Rose, and J. Unsleber
   
 * started run on 2025/01/21 at 11:26:15.698     

           -------------------------------------------------
          |                Calculation Setup                |
           -------------------------------------------------

          program call               : xtb tmpcoord --gfn0 --sp
          hostname                   : node26
          coordinate file            : tmpcoord
          omp threads                :                    28
          number of atoms            :                    70
          number of electrons        :                   194
          charge                     :                     0
          spin                       :                   0.0
          first test random number   :      0.39547538040923

   ID    Z sym.   atoms
    1    8 o      1, 23
    2    6 c      2-22, 24-40
    3    1 h      41-70
########################################################################
[WARNING] Please study the warnings concerning your input carefully
-1- prog_main_parseArguments: The use of '--gfn0' is discouraged, please use '--gfn 0' next time
########################################################################

           -------------------------------------------------
          |                 G F N 0 - x T B                 |
           -------------------------------------------------

        Reference                      10.26434/chemrxiv.8326202.v1
      * Hamiltonian:
        H0-scaling (s, p, d)           2.000000    2.486800    2.270000
        zeta-weighting                 1.000000
      * Dispersion:
        s8                             2.850000
        a1                             0.800000
        a2                             4.600000
        s9                             0.000000
      * Repulsion:
        kExp                           1.500000
        rExp                           1.000000
      * Coulomb:
        alpha                          0.000000
        third order                    atomic
        anisotropic                    false
      * Polar bond correction:
        rad-shift                      0.053700
        strength                      -0.012900
        en-exp                         3.484700
        en-scale                       0.509700


          ...................................................
          :                      SETUP                      :
          :.................................................:
          :  # basis functions                 220          :
          :  # atomic orbitals                 220          :
          :  # shells                          140          :
          :  # electrons                       194          :
          :  electronic temp.          300.0000000     K    :
          :  accuracy                    1.0000000          :
          :  -> integral cutoff          0.2500000E+02      :
          :  -> integral neglect         0.1000000E-07      :
          ...................................................
  Checking positiv definite overlap ...  done.
 

         #    Occupation            Energy/Eh            Energy/eV
      -------------------------------------------------------------
         1        2.0000           -0.6945005             -18.8983
       ...           ...                  ...                  ...
        91        2.0000           -0.4370402             -11.8925
        92        2.0000           -0.4281671             -11.6510
        93        2.0000           -0.4276792             -11.6377
        94        2.0000           -0.4086083             -11.1188
        95        2.0000           -0.4077568             -11.0956
        96        2.0000           -0.3931936             -10.6993
        97        2.0000           -0.3920345             -10.6678 (HOMO)
        98                         -0.3021538              -8.2220 (LUMO)
        99                         -0.3016714              -8.2089
       100                         -0.2746438              -7.4734
       101                         -0.2743258              -7.4648
       102                         -0.2667299              -7.2581
       ...                                ...                  ...
       220                          0.6550268              17.8242
      -------------------------------------------------------------
                  HL-Gap            0.0898807 Eh            2.4458 eV
             Fermi-level            0.0000000 Eh            0.0000 eV

 EHT (total)                   0 d,  0 h,  0 min,  0.047 sec
 EHT setup                      ...        0 min,  0.001 sec (  2.353%)
 Coordination number            ...        0 min,  0.001 sec (  2.167%)
 EEQ model density              ...        0 min,  0.001 sec (  1.522%)
 D4 Dispersion                  ...        0 min,  0.003 sec (  5.873%)
 Integral evaluation            ...        0 min,  0.001 sec (  3.161%)
 Cholesky factorization         ...        0 min,  0.010 sec ( 21.665%)
 Zeroth order Hamiltonian       ...        0 min,  0.026 sec ( 55.551%)
 Gradient calculation           ...        0 min,  0.003 sec (  6.140%)

         :::::::::::::::::::::::::::::::::::::::::::::::::::::
         ::                     SUMMARY                     ::
         :::::::::::::::::::::::::::::::::::::::::::::::::::::
         :: total energy            -103.111172703842 Eh    ::
         :: gradient norm              0.043712829751 Eh/a0 ::
         :: HOMO-LUMO gap              2.445778402693 eV    ::
         ::.................................................::
         :: H0 energy               -104.795567687275 Eh    ::
         :: repulsion energy           1.871596448131 Eh    ::
         :: electrostat energy        -0.114553454354 Eh    ::
         :: -> Gsolv                   0.000000000000 Eh    ::
         ::    -> Gsasa                0.000000000000 Eh    ::
         ::    -> Gshift               0.000000000000 Eh    ::
         :: dispersion energy         -0.047450498965 Eh    ::
         :: short-range corr.         -0.025197511379 Eh    ::
         :: add. restraining           0.000000000000 Eh    ::
         :: total charge               0.000000000000 e     ::
         :::::::::::::::::::::::::::::::::::::::::::::::::::::

           -------------------------------------------------
          |                Property Printout                |
           -------------------------------------------------

    * Orbital Energies and Occupations

         #    Occupation            Energy/Eh            Energy/eV
      -------------------------------------------------------------
         1        2.0000           -0.6945005             -18.8983
       ...           ...                  ...                  ...
        85        2.0000           -0.4521289             -12.3031
        86        2.0000           -0.4490885             -12.2203
        87        2.0000           -0.4455195             -12.1232
        88        2.0000           -0.4421833             -12.0324
        89        2.0000           -0.4390804             -11.9480
        90        2.0000           -0.4370571             -11.8929
        91        2.0000           -0.4370402             -11.8925
        92        2.0000           -0.4281671             -11.6510
        93        2.0000           -0.4276792             -11.6377
        94        2.0000           -0.4086083             -11.1188
        95        2.0000           -0.4077568             -11.0956
        96        2.0000           -0.3931936             -10.6993
        97        2.0000           -0.3920345             -10.6678 (HOMO)
        98                         -0.3021538              -8.2220 (LUMO)
        99                         -0.3016714              -8.2089
       100                         -0.2746438              -7.4734
       101                         -0.2743258              -7.4648
       102                         -0.2667299              -7.2581
       103                         -0.2667287              -7.2581
       104                         -0.2554574              -6.9514
       105                         -0.2553589              -6.9487
       106                         -0.2331301              -6.3438
       107                         -0.2301846              -6.2636
       108                         -0.1863178              -5.0700
       ...                                ...                  ...
       220                          0.6550268              17.8242
      -------------------------------------------------------------
                  HL-Gap            0.0898807 Eh            2.4458 eV
             Fermi-level            0.0000000 Eh            0.0000 eV

     #   Z          covCN         q      C6AA      α(0)
     1   8 o        1.659    -0.560    24.040     6.632
     2   6 c        2.849     0.220    24.670     8.115
     3   6 c        2.970    -0.015    29.908     8.942
     4   6 c        2.978     0.090    27.393     8.558
     5   6 c        2.922    -0.097    32.071     9.258
     6   6 c        2.926    -0.124    32.832     9.367
     7   6 c        2.968     0.024    28.941     8.797
     8   6 c        3.865     0.007    22.866     6.884
     9   6 c        3.806    -0.189    27.081     7.499
    10   6 c        3.806    -0.187    27.018     7.490
    11   6 c        2.923    -0.109    32.403     9.306
    12   6 c        2.924    -0.133    33.092     9.404
    13   6 c        2.925    -0.200    35.058     9.679
    14   6 c        2.984     0.067    27.910     8.639
    15   6 c        2.919    -0.133    33.076     9.401
    16   6 c        2.916    -0.088    31.828     9.222
    17   6 c        2.917    -0.091    31.907     9.234
    18   6 c        2.917    -0.120    32.719     9.350
    19   6 c        2.988     0.034    28.688     8.759
    20   6 c        2.973    -0.093    31.947     9.242
    21   6 c        2.973    -0.093    31.947     9.242
    22   6 c        2.849     0.220    24.670     8.115
    23   8 o        1.659    -0.560    24.040     6.632
    24   6 c        2.970    -0.015    29.908     8.942
    25   6 c        2.978     0.090    27.393     8.558
    26   6 c        2.924    -0.133    33.092     9.404
    27   6 c        2.923    -0.109    32.403     9.306
    28   6 c        2.968     0.024    28.941     8.797
    29   6 c        3.865     0.007    22.866     6.884
    30   6 c        3.806    -0.187    27.018     7.490
    31   6 c        3.806    -0.189    27.081     7.499
    32   6 c        2.926    -0.124    32.832     9.367
    33   6 c        2.922    -0.097    32.071     9.258
    34   6 c        2.925    -0.200    35.058     9.679
    35   6 c        2.984     0.067    27.910     8.639
    36   6 c        2.919    -0.133    33.076     9.401
    37   6 c        2.916    -0.088    31.828     9.222
    38   6 c        2.917    -0.091    31.907     9.234
    39   6 c        2.917    -0.120    32.719     9.350
    40   6 c        2.988     0.034    28.688     8.759
    41   1 h        0.805     0.311     0.688     1.303
    42   1 h        0.926     0.135     1.499     1.915
    43   1 h        0.926     0.097     1.812     2.105
    44   1 h        0.925     0.056     2.247     2.344
    45   1 h        0.926     0.097     1.813     2.106
    46   1 h        0.926     0.093     1.854     2.129
    47   1 h        0.926     0.099     1.794     2.095
    48   1 h        0.926     0.093     1.849     2.127
    49   1 h        0.926     0.092     1.862     2.134
    50   1 h        0.926     0.103     1.760     2.075
    51   1 h        0.926     0.118     1.634     1.999
    52   1 h        0.926     0.099     1.798     2.097
    53   1 h        0.926     0.092     1.857     2.131
    54   1 h        0.926     0.095     1.835     2.119
    55   1 h        0.926     0.120     1.616     1.988
    56   1 h        0.805     0.311     0.688     1.303
    57   1 h        0.926     0.103     1.760     2.075
    58   1 h        0.926     0.092     1.862     2.134
    59   1 h        0.925     0.056     2.247     2.344
    60   1 h        0.926     0.099     1.795     2.095
    61   1 h        0.926     0.093     1.849     2.127
    62   1 h        0.926     0.097     1.813     2.106
    63   1 h        0.926     0.093     1.854     2.129
    64   1 h        0.926     0.097     1.812     2.105
    65   1 h        0.926     0.135     1.499     1.915
    66   1 h        0.926     0.118     1.634     1.999
    67   1 h        0.926     0.099     1.798     2.097
    68   1 h        0.926     0.092     1.857     2.131
    69   1 h        0.926     0.095     1.835     2.119
    70   1 h        0.926     0.120     1.616     1.988

 Mol. C6AA /au·bohr⁶  :      65964.881606
 Mol. C8AA /au·bohr⁸  :    1685301.749864
 Mol. α(0) /au        :        408.887770


Wiberg/Mayer (AO) data.
largest (>0.10) Wiberg bond orders for each atom

 ---------------------------------------------------------------------------
     #   Z sym  total        # sym  WBO       # sym  WBO       # sym  WBO
 ---------------------------------------------------------------------------
     1   8 o    2.315 --     2 c    1.135    41 h    0.967
     2   6 c    3.941 --    20 c    1.413     3 c    1.210     1 o    1.135
     3   6 c    3.976 --    13 c    1.518     2 c    1.210     4 c    1.039
     4   6 c    3.976 --     5 c    1.385    12 c    1.382     3 c    1.039
     5   6 c    3.984 --     6 c    1.458     4 c    1.385    42 h    0.968
                            11 c    0.105
     6   6 c    3.986 --     5 c    1.458     7 c    1.390    43 h    0.969
                            12 c    0.104
     7   6 c    3.972 --     6 c    1.390    11 c    1.388     8 c    1.046
     8   6 c    3.947 --     7 c    1.046    44 h    0.975     9 c    0.948
                            10 c    0.947
     9   6 c    3.948 --    10 c    1.002    46 h    0.981    45 h    0.978
                             8 c    0.948
    10   6 c    3.948 --     9 c    1.002    48 h    0.982    47 h    0.978
                             8 c    0.947
    11   6 c    3.987 --    12 c    1.460     7 c    1.388    49 h    0.968
                             5 c    0.105
    12   6 c    3.983 --    11 c    1.460     4 c    1.382    50 h    0.969
                             6 c    0.104
    13   6 c    3.984 --     3 c    1.518    14 c    1.271    51 h    0.965
    14   6 c    3.978 --    15 c    1.281    13 c    1.271    19 c    1.242
    15   6 c    3.979 --    16 c    1.550    14 c    1.281    52 h    0.969
                            18 c    0.115
    16   6 c    3.975 --    15 c    1.550    17 c    1.321    53 h    0.973
    17   6 c    3.982 --    18 c    1.554    16 c    1.321    54 h    0.973
    18   6 c    3.987 --    17 c    1.554    19 c    1.275    55 h    0.966
                            15 c    0.115
    19   6 c    3.976 --    18 c    1.275    20 c    1.250    14 c    1.242
    20   6 c    3.965 --     2 c    1.413    19 c    1.250    21 c    0.992
    21   6 c    3.965 --    22 c    1.413    40 c    1.250    20 c    0.992
    22   6 c    3.941 --    21 c    1.413    24 c    1.210    23 o    1.135
    23   8 o    2.315 --    22 c    1.135    56 h    0.967
    24   6 c    3.976 --    34 c    1.518    22 c    1.210    25 c    1.039
    25   6 c    3.976 --    33 c    1.385    26 c    1.382    24 c    1.039
    26   6 c    3.983 --    27 c    1.460    25 c    1.382    57 h    0.969
                            32 c    0.104
    27   6 c    3.987 --    26 c    1.460    28 c    1.388    58 h    0.968
                            33 c    0.105
    28   6 c    3.972 --    32 c    1.390    27 c    1.388    29 c    1.046
    29   6 c    3.947 --    28 c    1.046    59 h    0.975    31 c    0.948
                            30 c    0.947
    30   6 c    3.948 --    31 c    1.002    61 h    0.982    60 h    0.978
                            29 c    0.947
    31   6 c    3.948 --    30 c    1.002    63 h    0.981    62 h    0.978
                            29 c    0.948
    32   6 c    3.986 --    33 c    1.458    28 c    1.390    64 h    0.969
                            26 c    0.104
    33   6 c    3.984 --    32 c    1.458    25 c    1.385    65 h    0.968
                            27 c    0.105
    34   6 c    3.984 --    24 c    1.518    35 c    1.271    66 h    0.965
    35   6 c    3.978 --    36 c    1.281    34 c    1.271    40 c    1.242
    36   6 c    3.979 --    37 c    1.550    35 c    1.281    67 h    0.969
                            39 c    0.115
    37   6 c    3.975 --    36 c    1.550    38 c    1.321    68 h    0.973
    38   6 c    3.982 --    39 c    1.554    37 c    1.321    69 h    0.973
    39   6 c    3.987 --    38 c    1.554    40 c    1.275    70 h    0.966
                            36 c    0.115
    40   6 c    3.976 --    39 c    1.275    21 c    1.250    35 c    1.242
    41   1 h    0.989 --     1 o    0.967
    42   1 h    0.991 --     5 c    0.968
    43   1 h    0.978 --     6 c    0.969
    44   1 h    0.977 --     8 c    0.975
    45   1 h    0.980 --     9 c    0.978
    46   1 h    0.985 --     9 c    0.981
    47   1 h    0.980 --    10 c    0.978
    48   1 h    0.985 --    10 c    0.982
    49   1 h    0.973 --    11 c    0.968
    50   1 h    0.979 --    12 c    0.969
    51   1 h    0.973 --    13 c    0.965
    52   1 h    0.978 --    15 c    0.969
    53   1 h    0.983 --    16 c    0.973
    54   1 h    0.983 --    17 c    0.973
    55   1 h    0.981 --    18 c    0.966
    56   1 h    0.989 --    23 o    0.967
    57   1 h    0.979 --    26 c    0.969
    58   1 h    0.973 --    27 c    0.968
    59   1 h    0.977 --    29 c    0.975
    60   1 h    0.980 --    30 c    0.978
    61   1 h    0.985 --    30 c    0.982
    62   1 h    0.980 --    31 c    0.978
    63   1 h    0.985 --    31 c    0.981
    64   1 h    0.978 --    32 c    0.969
    65   1 h    0.991 --    33 c    0.968
    66   1 h    0.973 --    34 c    0.965
    67   1 h    0.978 --    36 c    0.969
    68   1 h    0.983 --    37 c    0.973
    69   1 h    0.983 --    38 c    0.973
    70   1 h    0.981 --    39 c    0.966
 ---------------------------------------------------------------------------

Topologies differ in total number of bonds
Writing topology from bond orders to xtbtopo.mol

 dipole moment from electron density (au)
     X       Y       Z   
  -0.0556   1.0687  -0.0595  total (Debye):    2.724


           -------------------------------------------------
          | TOTAL ENERGY             -103.111172703842 Eh   |
          | GRADIENT NORM               0.043712829751 Eh/α |
          | HOMO-LUMO GAP               2.445778402693 eV   |
           -------------------------------------------------

------------------------------------------------------------------------
 * finished run on 2025/01/21 at 11:26:15.861     
------------------------------------------------------------------------
 total:
 * wall-time:     0 d,  0 h,  0 min,  0.164 sec
 *  cpu-time:     0 d,  0 h,  0 min,  3.509 sec
 * ratio c/w:    21.450 speedup
 SCF:
 * wall-time:     0 d,  0 h,  0 min,  0.048 sec
 *  cpu-time:     0 d,  0 h,  0 min,  1.137 sec
 * ratio c/w:    23.888 speedup

 Calculating WBOs... done.
      -----------------------------------------------------------      
     |                   =====================                   |     
     |                           x T B                           |     
     |                   =====================                   |     
     |                         S. Grimme                         |     
     |          Mulliken Center for Theoretical Chemistry        |     
     |                    University of Bonn                     |     
      -----------------------------------------------------------      

   * xtb version 6.4.1 (afa7bdf) compiled by 'ehlert@majestix' on 2021-06-10

   xtb is free software: you can redistribute it and/or modify it under
   the terms of the GNU Lesser General Public License as published by
   the Free Software Foundation, either version 3 of the License, or
   (at your option) any later version.
   
   xtb is distributed in the hope that it will be useful,
   but WITHOUT ANY WARRANTY; without even the implied warranty of
   MERCHANTABILITY or FITNESS FOR A PARTICULAR PURPOSE.  See the
   GNU Lesser General Public License for more details.
   
   Cite this work as:
   * C. Bannwarth, E. Caldeweyher, S. Ehlert, A. Hansen, P. Pracht,
     J. Seibert, S. Spicher, S. Grimme, WIREs Comput. Mol. Sci., 2020, 11,
     e01493. DOI: 10.1002/wcms.1493
   
   for GFN2-xTB:
   * C. Bannwarth, S. Ehlert and S. Grimme., J. Chem. Theory Comput., 2019,
     15, 1652-1671. DOI: 10.1021/acs.jctc.8b01176
   for GFN1-xTB:
   * S. Grimme, C. Bannwarth, P. Shushkov, J. Chem. Theory Comput., 2017,
     13, 1989-2009. DOI: 10.1021/acs.jctc.7b00118
   for GFN0-xTB:
   * P. Pracht, E. Caldeweyher, S. Ehlert, S. Grimme, ChemRxiv, 2019, preprint.
     DOI: 10.26434/chemrxiv.8326202.v1
   for GFN-FF:
   * S. Spicher and S. Grimme, Angew. Chem. Int. Ed., 2020, 59, 15665-15673.
     DOI: 10.1002/anie.202004239
   
   for DFT-D4:
   * E. Caldeweyher, C. Bannwarth and S. Grimme, J. Chem. Phys., 2017,
     147, 034112. DOI: 10.1063/1.4993215
   * E. Caldeweyher, S. Ehlert, A. Hansen, H. Neugebauer, S. Spicher,
     C. Bannwarth and S. Grimme, J. Chem. Phys., 2019, 150, 154122.
     DOI: 10.1063/1.5090222
   * E. Caldeweyher, J.-M. Mewes, S. Ehlert and S. Grimme, Phys. Chem. Chem. Phys.
     2020, 22, 8499-8512. DOI: 10.1039/D0CP00502A
   
   for sTDA-xTB:
   * S. Grimme and C. Bannwarth, J. Chem. Phys., 2016, 145, 054103.
     DOI: 10.1063/1.4959605
   
   in the mass-spec context:
   * V. Asgeirsson, C. Bauer and S. Grimme, Chem. Sci., 2017, 8, 4879.
     DOI: 10.1039/c7sc00601b
   * J. Koopman and S. Grimme, ACS Omega 2019, 4, 12, 15120-15133.
     DOI: 10.1021/acsomega.9b02011
   
   for metadynamics refer to:
   * S. Grimme, J. Chem. Theory Comput., 2019, 155, 2847-2862
     DOI: 10.1021/acs.jctc.9b00143
   
   for SPH calculations refer to:
   * S. Spicher and S. Grimme, J. Chem. Theory Comput., 2021, 17, 1701-1714
     DOI: 10.1021/acs.jctc.0c01306
   
   with help from (in alphabetical order)
   P. Atkinson, C. Bannwarth, F. Bohle, G. Brandenburg, E. Caldeweyher
   M. Checinski, S. Dohm, S. Ehlert, S. Ehrlich, I. Gerasimov, J. Koopman
   C. Lavigne, S. Lehtola, F. März, M. Müller, F. Musil, H. Neugebauer
   J. Pisarek, C. Plett, P. Pracht, J. Seibert, P. Shushkov, S. Spicher
   M. Stahn, M. Steiner, T. Strunk, J. Stückrath, T. Rose, and J. Unsleber
   
 * started run on 2025/01/21 at 11:26:15.906     

           -------------------------------------------------
          |                Calculation Setup                |
           -------------------------------------------------

          program call               : xtb tmpcoord --gfnff --sp
          hostname                   : node26
          coordinate file            : tmpcoord
          omp threads                :                    28
          number of atoms            :                    70
          number of electrons        :                   194
          charge                     :                     0
          spin                       :                   0.0
          first test random number   :      0.09337948725431

   ID    Z sym.   atoms
    1    8 o      1, 23
    2    6 c      2-22, 24-40
    3    1 h      41-70
 
          ==================== Thresholds ====================
          CN  :   150.00000
          rep :   500.00000
          disp:  2500.00000
          HB1 :   250.00000
          HB2 :   450.00000
 
          Pauling EN used:
          Z : 1  EN :  2.20
          Z : 6  EN :  2.55
          Z : 8  EN :  3.44
          electric field strengths (au): 0.000
 
           ------------------------------------------------- 
          |           Force Field Initialization            |
           ------------------------------------------------- 
 
          distances ...
          ----------------------------------------
          generating topology and atomic info file ...
          pair mat ...
          computing topology distances matrix with Floyd-Warshall algo ...
          making topology EEQ charges ...
          #fragments for EEQ constrain: 1
          ----------------------------------------
          generating topology and atomic info file ...
          pair mat ...
          computing topology distances matrix with Floyd-Warshall algo ...
          making topology EEQ charges ...
          #fragments for EEQ constrain: 1
          rings ...
          # BATM   788
          # H in HB   20
          doing iterative Hueckel for 1 subsystem(s) ...
 
  atom   neighbors  erfCN metchar sp-hybrid imet pi  qest     coordinates
    1  o       2    1.92   0.00         3    0    1  -0.441   -2.651530    0.447334   -2.356592
    2  c       3    2.82   0.00         2    0    1   0.091   -3.038775   -1.054100   -0.306661
    3  c       3    2.81   0.00         2    0    1  -0.010   -5.476221   -1.061676    0.818178
    4  c       3    2.82   0.00         2    0    1  -0.003   -7.506256    0.550788   -0.182582
    5  c       3    2.82   0.00         2    0    1  -0.037   -7.097801    3.086875   -0.742558
    6  c       3    2.82   0.00         2    0    1  -0.008   -9.043007    4.575010   -1.640165
    7  c       3    2.81   0.00         2    0    1  -0.030  -11.451966    3.589598   -2.021880
    8  c       4    3.49   0.00         3    0    0  -0.027  -13.479037    5.239891   -3.004665
    9  c       4    3.49   0.00         3    0    0  -0.018  -16.182590    4.911643   -2.172402
   10  c       4    3.49   0.00         3    0    0  -0.018  -15.442537    4.236301   -4.807414
   11  c       3    2.82   0.00         2    0    1  -0.008  -11.852400    1.050762   -1.460598
   12  c       3    2.82   0.00         2    0    1  -0.037   -9.916061   -0.439922   -0.549857
   13  c       3    2.82   0.00         2    0    1  -0.026   -5.907034   -2.624422    2.843070
   14  c       3    2.83   0.00         2    0    1  -0.011   -4.012570   -4.198961    3.848560
   15  c       3    2.81   0.00         2    0    1  -0.027   -4.460218   -5.800647    5.929792
   16  c       3    2.81   0.00         2    0    1  -0.036   -2.582981   -7.309571    6.863283
   17  c       3    2.81   0.00         2    0    1  -0.029   -0.173851   -7.280813    5.756882
   18  c       3    2.81   0.00         2    0    1  -0.036    0.323720   -5.747432    3.738022
   19  c       3    2.83   0.00         2    0    1  -0.005   -1.576055   -4.173040    2.732351
   20  c       3    2.82   0.00         2    0    1   0.000   -1.134305   -2.570067    0.632500
   21  c       3    2.82   0.00         2    0    1   0.000    1.398252   -2.506802   -0.598312
   22  c       3    2.82   0.00         2    0    1   0.091    3.130310   -0.707501    0.156463
   23  o       2    1.92   0.00         3    0    1  -0.441    2.578111    0.963260    2.029992
   24  c       3    2.81   0.00         2    0    1  -0.010    5.561872   -0.587283   -0.974694
   25  c       3    2.82   0.00         2    0    1  -0.003    7.408496    1.327234   -0.170205
   26  c       3    2.82   0.00         2    0    1  -0.037    9.905735    0.637818    0.290305
   27  c       3    2.82   0.00         2    0    1  -0.008   11.672319    2.412334    1.019182
   28  c       3    2.81   0.00         2    0    1  -0.030   11.008264    4.942575    1.298473
   29  c       4    3.49   0.00         3    0    0  -0.027   12.848230    6.892242    2.080567
   30  c       4    3.49   0.00         3    0    0  -0.018   14.895079    6.302798    3.971431
   31  c       4    3.49   0.00         3    0    0  -0.018   15.575781    6.755374    1.273493
   32  c       3    2.82   0.00         2    0    1  -0.008    8.512483    5.625232    0.824264
   33  c       3    2.82   0.00         2    0    1  -0.037    6.736740    3.853770    0.108207
   34  c       3    2.82   0.00         2    0    1  -0.026    6.163592   -2.311363   -2.816826
   35  c       3    2.83   0.00         2    0    1  -0.011    4.447926   -4.174855   -3.631103
   36  c       3    2.81   0.00         2    0    1  -0.027    5.070741   -5.941892   -5.525040
   37  c       3    2.81   0.00         2    0    1  -0.036    3.365000   -7.730768   -6.275137
   38  c       3    2.81   0.00         2    0    1  -0.029    0.959514   -7.829160   -5.164814
   39  c       3    2.81   0.00         2    0    1  -0.036    0.294470   -6.141704   -3.325021
   40  c       3    2.83   0.00         2    0    1  -0.005    2.015440   -4.277796   -2.510562
   41  h       1    0.97   0.01         0    0    0   0.228   -0.973100    0.137298   -3.016109
   42  h       1    0.97   0.00         0    0    0   0.055   -5.251806    3.902773   -0.454829
   43  h       1    0.97   0.00         0    0    0   0.024   -8.690004    6.543879   -2.055617
   44  h       1    0.97   0.00         0    0    0   0.040  -12.865619    7.167629   -3.326820
   45  h       1    0.97   0.00         0    0    0   0.014  -16.601342    3.407964   -0.859668
   46  h       1    0.97   0.00         0    0    0   0.014  -17.300368    6.591760   -1.873283
   47  h       1    0.97   0.00         0    0    0   0.014  -15.344772    2.264332   -5.318576
   48  h       1    0.97   0.00         0    0    0   0.014  -16.047652    5.447701   -6.333231
   49  h       1    0.97   0.00         0    0    0   0.024  -13.693976    0.215791   -1.738960
   50  h       1    0.97   0.00         0    0    0   0.055  -10.261356   -2.413251   -0.151882
   51  h       1    0.97   0.00         0    0    0   0.048   -7.750785   -2.634097    3.720135
   52  h       1    0.97   0.00         0    0    0   0.042   -6.321305   -5.811636    6.770709
   53  h       1    0.97   0.00         0    0    0   0.051   -2.940156   -8.533817    8.456832
   54  h       1    0.97   0.00         0    0    0   0.047    1.291245   -8.483550    6.513569
   55  h       1    0.97   0.00         0    0    0   0.048    2.177626   -5.728715    2.882493
   56  h       1    0.97   0.01         0    0    0   0.228    0.936995    0.556169    2.729409
   57  h       1    0.97   0.00         0    0    0   0.055   10.455532   -1.321069    0.111073
   58  h       1    0.97   0.00         0    0    0   0.024   13.588791    1.808260    1.377379
   59  h       1    0.97   0.00         0    0    0   0.040   12.036868    8.769925    2.191194
   60  h       1    0.97   0.00         0    0    0   0.014   14.999088    4.400026    4.698167
   61  h       1    0.97   0.00         0    0    0   0.014   15.363187    7.731639    5.350220
   62  h       1    0.97   0.00         0    0    0   0.014   16.155087    5.167114    0.132660
   63  h       1    0.97   0.00         0    0    0   0.014   16.515355    8.498633    0.783664
   64  h       1    0.97   0.00         0    0    0   0.024    7.955381    7.580844    1.021417
   65  h       1    0.97   0.00         0    0    0   0.055    4.817898    4.437499   -0.257161
   66  h       1    0.97   0.00         0    0    0   0.048    8.003446   -2.227214   -3.698080
   67  h       1    0.97   0.00         0    0    0   0.042    6.927772   -5.853257   -6.370311
   68  h       1    0.97   0.00         0    0    0   0.051    3.855992   -9.080145   -7.725606
   69  h       1    0.97   0.00         0    0    0   0.047   -0.368981   -9.253207   -5.775425
   70  h       1    0.97   0.00         0    0    0   0.048   -1.556302   -6.220341   -2.466124
 
          #atoms :   70
          #bonds :   77
          #angl  :   134
          #tors  :   244
          #nmol  :   1
          #optfrag :   1
           ------------------------------------------------- 
          |                   G F N - F F                   |
          |          A general generic force-field          |
          |                  Version 1.0.3                  | 
           ------------------------------------------------- 
          nhb123   5482 494 0

 E+G (total)                   0 d,  0 h,  0 min,  0.004 sec
 distance/D3 list               ...        0 min,  0.000 sec (  0.853%)
 non bonded repulsion           ...        0 min,  0.000 sec (  7.000%)
 dCN                            ...        0 min,  0.000 sec (  5.485%)
 EEQ energy and q               ...        0 min,  0.000 sec ( 11.786%)
 D3                             ...        0 min,  0.000 sec ( 12.712%)
 EEQ gradient                   ...        0 min,  0.000 sec (  8.571%)
 bonds                          ...        0 min,  0.000 sec (  8.878%)
 bend and torsion               ...        0 min,  0.000 sec ( 12.584%)
 bonded ATM                     ...        0 min,  0.000 sec (  1.160%)
 HB/XB (incl list setup)        ...        0 min,  0.001 sec ( 25.609%)

         :::::::::::::::::::::::::::::::::::::::::::::::::::::
         ::                     SUMMARY                     ::
         :::::::::::::::::::::::::::::::::::::::::::::::::::::
         :: total energy             -14.450536941792 Eh    ::
         :: gradient norm              0.074993548191 Eh/a0 ::
         ::.................................................::
         :: bond energy              -15.374110355310 Eh    ::
         :: angle energy               0.098214050759 Eh    ::
         :: torsion energy             0.039234672073 Eh    ::
         :: repulsion energy           1.014201091616 Eh    ::
         :: electrostat energy        -0.141212938378 Eh    ::
         :: dispersion energy         -0.070478110635 Eh    ::
         :: HB energy                 -0.001350256294 Eh    ::
         :: XB energy                  0.000000000000 Eh    ::
         :: bonded atm energy         -0.015035095622 Eh    ::
         :: external energy            0.000000000000 Eh    ::
         :: add. restraining           0.000000000000 Eh    ::
         :: total charge               0.000000000000 e     ::
         :::::::::::::::::::::::::::::::::::::::::::::::::::::

           -------------------------------------------------
          |                Property Printout                |
           -------------------------------------------------

           -------------------------------------------------
          | TOTAL ENERGY              -14.450536941792 Eh   |
          | GRADIENT NORM               0.074993548191 Eh/α |
           -------------------------------------------------

------------------------------------------------------------------------
 * finished run on 2025/01/21 at 11:26:15.966     
------------------------------------------------------------------------
 total:
 * wall-time:     0 d,  0 h,  0 min,  0.060 sec
 *  cpu-time:     0 d,  0 h,  0 min,  1.129 sec
 * ratio c/w:    18.911 speedup
 SCF:
 * wall-time:     0 d,  0 h,  0 min,  0.006 sec
 *  cpu-time:     0 d,  0 h,  0 min,  0.154 sec
 * ratio c/w:    24.438 speedup

 Calculating NCI flexibility... done.
     covalent flexibility measure :   0.028
 non-covalent flexibility measure :   1.000
 flexibility measure :   0.098
 t(MTD) / ps set by command line  :     0.5
 t(MTD) / ps    :     0.5
 Σ(t(MTD)) / ps :     7.0 (14 MTDs)
 
-------------------------------------
Starting a trial MTD to test settings
-------------------------------------
 Estimated runtime for one MTD (0.5 ps) on a single thread: 2 min 29 sec
 Estimated runtime for a batch of 14 MTDs on 28 threads: 1 min 15 sec
 
 list of Vbias parameters applied:
$metadyn    0.00300   1.300
$metadyn    0.00150   1.300
$metadyn    0.00075   1.300
$metadyn    0.00300   0.780
$metadyn    0.00150   0.780
$metadyn    0.00075   0.780
$metadyn    0.00300   0.468
$metadyn    0.00150   0.468
$metadyn    0.00075   0.468
$metadyn    0.00300   0.281
$metadyn    0.00150   0.281
$metadyn    0.00075   0.281
$metadyn    0.00100   0.100
$metadyn    0.00500   0.800
 
*******************************************************************************************
**                        N E W    I T E R A T I O N    C Y C L E                        **
*******************************************************************************************
 
========================================
            MTD Iteration  1
========================================
 
     ========================================
     |         Meta-MD (MTD) Sampling       |
     ========================================
 
Starting Meta-MD   1 with the settings:
     MD time /ps        :     0.5
     dt /fs             :     1.5
     dumpstep(trj) /fs  :     100
     dumpstep(Vbias)/ps :     1.0
     Vbias factor k /Eh :  0.2100
     Vbias exp α /bohr⁻²:    1.30
Starting Meta-MD   7 with the settings:
     MD time /ps        :     0.5
     dt /fs             :     1.5
     dumpstep(trj) /fs  :     100
     dumpstep(Vbias)/ps :     1.0
     Vbias factor k /Eh :  0.2100
     Vbias exp α /bohr⁻²:    0.47
Starting Meta-MD   6 with the settings:
     MD time /ps        :     0.5
     dt /fs             :     1.5
     dumpstep(trj) /fs  :     100
     dumpstep(Vbias)/ps :     1.0
     Vbias factor k /Eh :  0.0525
     Vbias exp α /bohr⁻²:    0.78
Starting Meta-MD   2 with the settings:
     MD time /ps        :     0.5
     dt /fs             :     1.5
     dumpstep(trj) /fs  :     100
     dumpstep(Vbias)/ps :     1.0
     Vbias factor k /Eh :  0.1050
     Vbias exp α /bohr⁻²:    1.30
Starting Meta-MD   5 with the settings:
     MD time /ps        :     0.5
     dt /fs             :     1.5
     dumpstep(trj) /fs  :     100
     dumpstep(Vbias)/ps :     1.0
     Vbias factor k /Eh :  0.1050
     Vbias exp α /bohr⁻²:    0.78
Starting Meta-MD   8 with the settings:
     MD time /ps        :     0.5
     dt /fs             :     1.5
     dumpstep(trj) /fs  :     100
     dumpstep(Vbias)/ps :     1.0
     Vbias factor k /Eh :  0.1050
     Vbias exp α /bohr⁻²:    0.47
Starting Meta-MD   4 with the settings:
     MD time /ps        :     0.5
     dt /fs             :     1.5
     dumpstep(trj) /fs  :     100
     dumpstep(Vbias)/ps :     1.0
     Vbias factor k /Eh :  0.2100
     Vbias exp α /bohr⁻²:    0.78
Starting Meta-MD   9 with the settings:
     MD time /ps        :     0.5
     dt /fs             :     1.5
     dumpstep(trj) /fs  :     100
     dumpstep(Vbias)/ps :     1.0
     Vbias factor k /Eh :  0.0525
     Vbias exp α /bohr⁻²:    0.47
Starting Meta-MD  10 with the settings:
     MD time /ps        :     0.5
     dt /fs             :     1.5
     dumpstep(trj) /fs  :     100
     dumpstep(Vbias)/ps :     1.0
     Vbias factor k /Eh :  0.2100
     Vbias exp α /bohr⁻²:    0.28
Starting Meta-MD  11 with the settings:
     MD time /ps        :     0.5
     dt /fs             :     1.5
     dumpstep(trj) /fs  :     100
     dumpstep(Vbias)/ps :     1.0
     Vbias factor k /Eh :  0.1050
     Vbias exp α /bohr⁻²:    0.28
Starting Meta-MD  12 with the settings:
     MD time /ps        :     0.5
     dt /fs             :     1.5
     dumpstep(trj) /fs  :     100
     dumpstep(Vbias)/ps :     1.0
     Vbias factor k /Eh :  0.0525
     Vbias exp α /bohr⁻²:    0.28
Starting Meta-MD  14 with the settings:
     MD time /ps        :     0.5
     dt /fs             :     1.5
     dumpstep(trj) /fs  :     100
     dumpstep(Vbias)/ps :     1.0
     Vbias factor k /Eh :  0.3500
     Vbias exp α /bohr⁻²:    0.80
Starting Meta-MD  13 with the settings:
     MD time /ps        :     0.5
     dt /fs             :     1.5
     dumpstep(trj) /fs  :     100
     dumpstep(Vbias)/ps :     1.0
     Vbias factor k /Eh :  0.0700
     Vbias exp α /bohr⁻²:    0.10
Starting Meta-MD   3 with the settings:
     MD time /ps        :     0.5
     dt /fs             :     1.5
     dumpstep(trj) /fs  :     100
     dumpstep(Vbias)/ps :     1.0
     Vbias factor k /Eh :  0.0525
     Vbias exp α /bohr⁻²:    1.30
*Meta-MTD 8 finished*
*Meta-MTD 13 finished*
*Meta-MTD 12 finished*
*Meta-MTD 9 finished*
*Meta-MTD 7 finished*
*Meta-MTD 5 finished*
*Meta-MTD 1 finished*
*Meta-MTD 2 finished*
*Meta-MTD 4 finished*
*Meta-MTD 11 finished*
*Meta-MTD 3 finished*
*Meta-MTD 10 finished*
*Meta-MTD 6 finished*
*Meta-MTD 14 finished*
 
-----------------------
Multilevel Optimization
-----------------------
 
 -------------------------
 1. crude pre-optimization
 -------------------------
 Optimizing all 70 structures from file "crest_rotamers_0.xyz" ...
 1 2 3 4 5 6 7 8 9 10 11 12 13 14 15 16 17 18 19 20 21 22 23 24 25 26 27 28 29 30 31 32 33 34 35 36 37 38 39 40 41 42 43 44 45 46 47 48 49 50 51 52 53 54 55 56 57 58 59 60 61 62 63 64 65 66 67 68 69 70
 done.
 running RMSDs...
 done.
 E lowest :  -104.78188
 64 structures remain within    12.00 kcal/mol window
 
 -------------------------------------
 2. optimization with tight thresholds
 -------------------------------------
 Optimizing all 65 structures from file "crest_rotamers_1.xyz" ...
 1 2 3 4 5 6 7 8 9 10 11 12 13 14 15 16 17 18 19 20 21 22 23 24 25 26 27 28 29 30 31 32 33 34 35 36 37 38 39 40 41 42 43 44 45 46 47 48 49 50 51 52 53 54 55 56 57 58 59 60 61 62 63 64 65
 done.
 running RMSDs...
 done.
 E lowest :  -104.78285
 37 structures remain within     6.00 kcal/mol window
 
 
========================================
            MTD Iteration  2
========================================
 
     ========================================
     |         Meta-MD (MTD) Sampling       |
     ========================================
 
Starting Meta-MD   2 with the settings:
     MD time /ps        :     0.5
     dt /fs             :     1.5
     dumpstep(trj) /fs  :     100
     dumpstep(Vbias)/ps :     1.0
     Vbias factor k /Eh :  0.1050
     Vbias exp α /bohr⁻²:    1.30
Starting Meta-MD   3 with the settings:
     MD time /ps        :     0.5
     dt /fs             :     1.5
     dumpstep(trj) /fs  :     100
     dumpstep(Vbias)/ps :     1.0
     Vbias factor k /Eh :  0.0525
     Vbias exp α /bohr⁻²:    1.30
Starting Meta-MD   1 with the settings:
     MD time /ps        :     0.5
     dt /fs             :     1.5
     dumpstep(trj) /fs  :     100
     dumpstep(Vbias)/ps :     1.0
     Vbias factor k /Eh :  0.2100
     Vbias exp α /bohr⁻²:    1.30
Starting Meta-MD   4 with the settings:
     MD time /ps        :     0.5
     dt /fs             :     1.5
     dumpstep(trj) /fs  :     100
     dumpstep(Vbias)/ps :     1.0
     Vbias factor k /Eh :  0.2100
     Vbias exp α /bohr⁻²:    0.78
Starting Meta-MD   5 with the settings:
     MD time /ps        :     0.5
     dt /fs             :     1.5
     dumpstep(trj) /fs  :     100
     dumpstep(Vbias)/ps :     1.0
     Vbias factor k /Eh :  0.1050
     Vbias exp α /bohr⁻²:    0.78
Starting Meta-MD   6 with the settings:
     MD time /ps        :     0.5
     dt /fs             :     1.5
     dumpstep(trj) /fs  :     100
     dumpstep(Vbias)/ps :     1.0
     Vbias factor k /Eh :  0.0525
     Vbias exp α /bohr⁻²:    0.78
Starting Meta-MD   7 with the settings:
     MD time /ps        :     0.5
     dt /fs             :     1.5
     dumpstep(trj) /fs  :     100
     dumpstep(Vbias)/ps :     1.0
     Vbias factor k /Eh :  0.2100
     Vbias exp α /bohr⁻²:    0.47
Starting Meta-MD   8 with the settings:
     MD time /ps        :     0.5
     dt /fs             :     1.5
     dumpstep(trj) /fs  :     100
     dumpstep(Vbias)/ps :     1.0
     Vbias factor k /Eh :  0.1050
     Vbias exp α /bohr⁻²:    0.47
Starting Meta-MD   9 with the settings:
     MD time /ps        :     0.5
     dt /fs             :     1.5
     dumpstep(trj) /fs  :     100
     dumpstep(Vbias)/ps :     1.0
     Vbias factor k /Eh :  0.0525
     Vbias exp α /bohr⁻²:    0.47
Starting Meta-MD  10 with the settings:
     MD time /ps        :     0.5
     dt /fs             :     1.5
     dumpstep(trj) /fs  :     100
     dumpstep(Vbias)/ps :     1.0
     Vbias factor k /Eh :  0.2100
     Vbias exp α /bohr⁻²:    0.28
Starting Meta-MD  11 with the settings:
     MD time /ps        :     0.5
     dt /fs             :     1.5
     dumpstep(trj) /fs  :     100
     dumpstep(Vbias)/ps :     1.0
     Vbias factor k /Eh :  0.1050
     Vbias exp α /bohr⁻²:    0.28
Starting Meta-MD  12 with the settings:
     MD time /ps        :     0.5
     dt /fs             :     1.5
     dumpstep(trj) /fs  :     100
     dumpstep(Vbias)/ps :     1.0
     Vbias factor k /Eh :  0.0525
     Vbias exp α /bohr⁻²:    0.28
*Meta-MTD 5 finished*
*Meta-MTD 6 finished*
*Meta-MTD 12 finished*
*Meta-MTD 8 finished*
*Meta-MTD 7 finished*
*Meta-MTD 3 finished*
*Meta-MTD 11 finished*
*Meta-MTD 9 finished*
*Meta-MTD 10 finished*
*Meta-MTD 2 finished*
*Meta-MTD 1 finished*
*Meta-MTD 4 finished*
 
-----------------------
Multilevel Optimization
-----------------------
 
 -------------------------
 1. crude pre-optimization
 -------------------------
 Optimizing all 60 structures from file "crest_rotamers_0.xyz" ...
 1 2 3 4 5 6 7 8 9 10 11 12 13 14 15 16 17 18 19 20 21 22 23 24 25 26 27 28 29 30 31 32 33 34 35 36 37 38 39 40 41 42 43 44 45 46 47 48 49 50 51 52 53 54 55 56 57 58 59 60
 done.
 running RMSDs...
 done.
 E lowest :  -104.78184
 56 structures remain within    12.00 kcal/mol window
 
 -------------------------------------
 2. optimization with tight thresholds
 -------------------------------------
 Optimizing all 57 structures from file "crest_rotamers_1.xyz" ...
 1 2 3 4 5 6 7 8 9 10 11 12 13 14 15 16 17 18 19 20 21 22 23 24 25 26 27 28 29 30 31 32 33 34 35 36 37 38 39 40 41 42 43 44 45 46 47 48 49 50 51 52 53 54 55 56 57
 done.
 running RMSDs...
 done.
 E lowest :  -104.78287
 35 structures remain within     6.00 kcal/mol window
 
========================================
            MTD Iterations done         
========================================
 Collecting ensmbles.
 running RMSDs...
 done.
 E lowest :  -104.78287
 70 structures remain within     6.00 kcal/mol window
 
 -------------------------------
 Additional orientation sampling
 -------------------------------
 Optimizing all 130 structures from file "oh_ensemble.xyz" ...
 1 2 3 4 5 6 7 8 9 10 11 12 13 14 15 16 17 18 19 20 21 22 23 24 25 26 27 28 29 30 31 32 33 34 35 36 37 38 39 40 41 42 43 44 45 46 47 48 49 50 51 52 53 54 55 56 57 58 59 60 61 62 63 64 65 66 67 68 69 70 71 72 73 74 75 76 77 78 79 80 81 82 83 84 85 86 87 88 89 90 91 92 93 94 95 96 97 98 99 100 101 102 103 104 105 106 107 108 109 110 111 112 113 114 115 116 117 118 119 120 121 122 123 124 125 126 127 128 129 130
 done.
 running RMSDs...
 done.
 E lowest :  -104.78287
 168 structures remain within     6.00 kcal/mol window
 
-----------------------------------------------
Additional regular MDs on lowest 4 conformer(s)
-----------------------------------------------
Starting MD   1 with the settings:
     MD time /ps        :     0.2
     MD Temperature /K  :   400.0
     dt /fs             :     1.5
     dumpstep(trj) /fs  :     100
Starting MD   2 with the settings:
     MD time /ps        :     0.2
     MD Temperature /K  :   500.0
     dt /fs             :     1.5
     dumpstep(trj) /fs  :     100
Starting MD   3 with the settings:
     MD time /ps        :     0.2
     MD Temperature /K  :   400.0
     dt /fs             :     1.5
     dumpstep(trj) /fs  :     100
Starting MD   4 with the settings:
     MD time /ps        :     0.2
     MD Temperature /K  :   500.0
     dt /fs             :     1.5
     dumpstep(trj) /fs  :     100
Starting MD   5 with the settings:
     MD time /ps        :     0.2
     MD Temperature /K  :   400.0
     dt /fs             :     1.5
     dumpstep(trj) /fs  :     100
Starting MD   6 with the settings:
     MD time /ps        :     0.2
     MD Temperature /K  :   500.0
     dt /fs             :     1.5
     dumpstep(trj) /fs  :     100
Starting MD   7 with the settings:
     MD time /ps        :     0.2
     MD Temperature /K  :   400.0
     dt /fs             :     1.5
     dumpstep(trj) /fs  :     100
Starting MD   8 with the settings:
     MD time /ps        :     0.2
     MD Temperature /K  :   500.0
     dt /fs             :     1.5
     dumpstep(trj) /fs  :     100
*MD 3 finished*
*MD 4 finished*
*MD 7 finished*
*MD 1 finished*
*MD 5 finished*
*MD 2 finished*
*MD 8 finished*
*MD 6 finished*
 Appending file crest_rotamers_2.xyz with new structures
 
 -------------------------------------------
 Ensemble optimization with tight thresholds
 -------------------------------------------
 Optimizing all 184 structures from file "crest_rotamers_2.xyz" ...
 1 2 3 4 5 6 7 8 9 10 11 12 13 14 15 16 17 18 19 20 21 22 23 24 25 26 27 28 29 30 31 32 33 34 35 36 37 38 39 40 41 42 43 44 45 46 47 48 49 50 51 52 53 54 55 56 57 58 59 60 61 62 63 64 65 66 67 68 69 70 71 72 73 74 75 76 77 78 79 80 81 82 83 84 85 86 87 88 89 90 91 92 93 94 95 96 97 98 99 100 101 102 103 104 105 106 107 108 109 110 111 112 113 114 115 116 117 118 119 120 121 122 123 124 125 126 127 128 129 130 131 132 133 134 135 136 137 138 139 140 141 142 143 144 145 146 147 148 149 150 151 152 153 154 155 156 157 158 159 160 161 162 163 164 165 166 167 168 169 170 171 172 173 174 175 176 177 178 179 180 181 182 183 184
 done.
 running RMSDs...
 done.
 E lowest :  -104.78289
 169 structures remain within     6.00 kcal/mol window
 
 
     ========================================
     |        Structure Crossing (GC)       |
     ========================================
 =============================
  # threads =          28
 =============================
 input  file name : crest_rotamers_4.xyz
number of atoms                :    70
number of points on xyz files  :   169
conformer energy window  /kcal :    6.00
CN per atom difference cut-off :  0.3000
RMSD threshold                 :  0.5000
max. # of generated structures : 25
 reading xyz file ...
 # in E window                169
 generating pairs ...       14364
  60.4 % done
 generated pairs           :       11829
 number of clash discarded :        2367
 average rmsd w.r.t input  : 2.83632
 sd of ensemble            : 0.70430
 number of new structures      :           1
 removed identical structures  :          49
 writing            1  TMPCONF* dirs ...
 --------------------------
 GC: loose pre-optimization
 --------------------------
 Starting optimization of generated structures
 1 jobs to do.
 1 
 done.
 Now appending opt.xyz file with new structures
 running RMSDs...
 done.
 E lowest :  -104.78282
 1 structures remain within    10.00 kcal/mol window
 --------------------------------------
 GC: optimization with tight thresholds
 --------------------------------------
 Optimizing all 1 structures from file "crest_rotamers_1.xyz" ...
 1
 done.
 running RMSDs...
 done.
 E lowest :  -104.78289
 
 
   ================================================
   |           Final Geometry Optimization        |
   ================================================
 ------------------------------------------------
 Ensemble optimization with very tight thresholds
 ------------------------------------------------
 Optimizing all 169 structures from file "crest_rotamers_5.xyz" ...
 1 2 3 4 5 6 7 8 9 10 11 12 13 14 15 16 17 18 19 20 21 22 23 24 25 26 27 28 29 30 31 32 33 34 35 36 37 38 39 40 41 42 43 44 45 46 47 48 49 50 51 52 53 54 55 56 57 58 59 60 61 62 63 64 65 66 67 68 69 70 71 72 73 74 75 76 77 78 79 80 81 82 83 84 85 86 87 88 89 90 91 92 93 94 95 96 97 98 99 100 101 102 103 104 105 106 107 108 109 110 111 112 113 114 115 116 117 118 119 120 121 122 123 124 125 126 127 128 129 130 131 132 133 134 135 136 137 138 139 140 141 142 143 144 145 146 147 148 149 150 151 152 153 154 155 156 157 158 159 160 161 162 163 164 165 166 167 168 169
 done.
 running RMSDs...
 done.
 E lowest :  -104.78289
 169 structures remain within     6.00 kcal/mol window
 
 input  file name : crest_rotamers_6.xyz
 output file name : crest_rotamers_7.xyz
 number of atoms                :   70
 number of points on xyz files  :   169
 RMSD threshold                 :   0.2500
 Bconst threshold               :   0.0100
 population threshold           :   0.0500
 conformer energy window  /kcal :   6.0000
 # fragment in coord            :     1
 # bonds in reference structure :    77
   => # of C=C bonds :    12
 number of reliable points      :   169
 reference state Etot :  -104.782888620000
 number of doubles removed by rot/RMSD         :           0
 total number unique points considered further :         169
       Erel/kcal        Etot weight/tot  conformer     set   degen     origin
       1   0.000  -104.78289    0.02563    0.02563       1       1     md3
       2   0.010  -104.78287    0.02519    0.05021       2       2     mtd1
       3   0.014  -104.78287    0.02502                                mtd10
       4   0.044  -104.78282    0.02378    0.04750       3       2     md5
       5   0.046  -104.78282    0.02373                                md8
       6   0.109  -104.78271    0.02131    0.02131       4       1     mtd4
       7   0.110  -104.78271    0.02127    0.02127       5       1     md4
       8   0.112  -104.78271    0.02121    0.02121       6       1     mtd1
       9   0.120  -104.78270    0.02095    0.02095       7       1     mtd3
      10   0.127  -104.78269    0.02068    0.02068       8       1     mtd11
      11   0.128  -104.78269    0.02066    0.02066       9       1     mtd9
      12   0.137  -104.78267    0.02034    0.02034      10       1     mtd6
      13   0.143  -104.78266    0.02012    0.03949      11       2     mtd4
      14   0.166  -104.78262    0.01937                                mtd10
      15   0.176  -104.78261    0.01905    0.03849      12       2     mtd1
      16   0.164  -104.78263    0.01944                                mtd1
      17   0.169  -104.78262    0.01928    0.01928      13       1     mtd12
      18   0.208  -104.78256    0.01804    0.01804      14       1     mtd4
      19   0.212  -104.78255    0.01793    0.01793      15       1     mtd11
      20   0.262  -104.78247    0.01648    0.01648      16       1     mtd2
      21   0.262  -104.78247    0.01646    0.01646      17       1     mtd1
      22   0.263  -104.78247    0.01646    0.01646      18       1     mtd3
      23   0.271  -104.78246    0.01623    0.01623      19       1     mtd2
      24   0.292  -104.78242    0.01567    0.01567      20       1     mtd9
      25   0.304  -104.78240    0.01536    0.01536      21       1     mtd8
      26   0.318  -104.78238    0.01500    0.01500      22       1     mtd13
      27   0.325  -104.78237    0.01482    0.01482      23       1     mtd4
      28   0.339  -104.78235    0.01447    0.01447      24       1     mtd8
      29   0.340  -104.78235    0.01445    0.02874      25       2     mtd8
      30   0.346  -104.78234    0.01429                                mtd5
      31   0.355  -104.78232    0.01409    0.01409      26       1     mtd7
      32   0.362  -104.78231    0.01392    0.01392      27       1     mtd7
      33   0.378  -104.78229    0.01354    0.01354      28       1     mtd10
      34   0.386  -104.78227    0.01338    0.01338      29       1     mtd12
      35   0.472  -104.78214    0.01157    0.01157      30       1     mtd8
      36   0.478  -104.78213    0.01145    0.01145      31       1     mtd10
      37   0.517  -104.78207    0.01072    0.01072      32       1     mtd7
      38   0.638  -104.78187    0.00873    0.00873      33       1     hor
      39   0.655  -104.78185    0.00850    0.01679      34       2     hor
      40   0.669  -104.78182    0.00829                                hor
      41   0.678  -104.78181    0.00817    0.00817      35       1     hor
      42   0.692  -104.78179    0.00798    0.00798      36       1     hor
      43   0.702  -104.78177    0.00784    0.00784      37       1     hor
      44   0.661  -104.78184    0.00841    0.00841      38       1     hor
      45   0.734  -104.78172    0.00744    0.01465      39       2     hor
      46   0.752  -104.78169    0.00721                                hor
      47   0.755  -104.78169    0.00718    0.00718      40       1     hor
      48   0.751  -104.78169    0.00722    0.00722      41       1     hor
      49   0.760  -104.78168    0.00711    0.00711      42       1     hor
      50   0.767  -104.78167    0.00702    0.00702      43       1     hor
      51   0.769  -104.78166    0.00700    0.00700      44       1     hor
      52   0.770  -104.78166    0.00699    0.00699      45       1     hor
      53   0.775  -104.78165    0.00693    0.00693      46       1     hor
      54   0.785  -104.78164    0.00682    0.00682      47       1     hor
      55   0.797  -104.78162    0.00668    0.00668      48       1     hor
      56   0.798  -104.78162    0.00668    0.00668      49       1     hor
      57   0.802  -104.78161    0.00663    0.00663      50       1     hor
      58   0.808  -104.78160    0.00656    0.00656      51       1     hor
      59   0.812  -104.78159    0.00651    0.00651      52       1     hor
      60   0.814  -104.78159    0.00650    0.00650      53       1     hor
      61   0.821  -104.78158    0.00642    0.00642      54       1     hor
      62   0.837  -104.78155    0.00624    0.00624      55       1     hor
      63   0.859  -104.78152    0.00602    0.00602      56       1     hor
      64   0.860  -104.78152    0.00601    0.00601      57       1     hor
      65   0.877  -104.78149    0.00584    0.00584      58       1     hor
      66   0.892  -104.78147    0.00570    0.00570      59       1     hor
      67   0.894  -104.78146    0.00568    0.00568      60       1     hor
      68   0.906  -104.78145    0.00556    0.00556      61       1     hor
      69   0.911  -104.78144    0.00551    0.00551      62       1     hor
      70   0.915  -104.78143    0.00547    0.00547      63       1     hor
      71   0.929  -104.78141    0.00535    0.00535      64       1     hor
      72   0.950  -104.78138    0.00517    0.01030      65       2     hor
      73   0.953  -104.78137    0.00514                                hor
      74   0.955  -104.78137    0.00512    0.00512      66       1     hor
      75   0.961  -104.78136    0.00507    0.00507      67       1     hor
      76   0.964  -104.78135    0.00504    0.00504      68       1     hor
      77   0.979  -104.78133    0.00492    0.00492      69       1     hor
      78   1.470  -104.78055    0.00215    0.00215      70       1     mtd3
      79   1.475  -104.78054    0.00213    0.00213      71       1     mtd1
      80   1.491  -104.78051    0.00207    0.00207      72       1     mtd2
      81   1.505  -104.78049    0.00203    0.00203      73       1     mtd4
      82   1.531  -104.78045    0.00194    0.00194      74       1     mtd11
      83   1.537  -104.78044    0.00192    0.00192      75       1     mtd1
      84   1.558  -104.78041    0.00185    0.00185      76       1     mtd1
      85   1.567  -104.78039    0.00183    0.00364      77       2     mtd9
      86   1.569  -104.78039    0.00182                                mtd11
      87   1.586  -104.78036    0.00177    0.00177      78       1     mtd2
      88   1.595  -104.78035    0.00174    0.00174      79       1     mtd6
      89   1.598  -104.78034    0.00173    0.00173      80       1     mtd10
      90   1.667  -104.78023    0.00154    0.00154      81       1     mtd14
      91   1.700  -104.78018    0.00146    0.00146      82       1     mtd8
      92   1.740  -104.78012    0.00136    0.00136      83       1     mtd5
      93   1.752  -104.78010    0.00134    0.00134      84       1     mtd2
      94   1.756  -104.78009    0.00133    0.00133      85       1     mtd11
      95   1.758  -104.78009    0.00132    0.00132      86       1     mtd3
      96   1.769  -104.78007    0.00130    0.00130      87       1     mtd5
      97   1.779  -104.78005    0.00128    0.00128      88       1     mtd2
      98   1.790  -104.78004    0.00125    0.00125      89       1     mtd7
      99   1.795  -104.78003    0.00124    0.00124      90       1     mtd13
     100   1.807  -104.78001    0.00122    0.00122      91       1     mtd5
     101   1.809  -104.78001    0.00121    0.00121      92       1     mtd9
     102   1.816  -104.77999    0.00120    0.00120      93       1     mtd8
     103   1.833  -104.77997    0.00116    0.00116      94       1     mtd7
     104   1.850  -104.77994    0.00113    0.00113      95       1     mtd10
     105   1.865  -104.77992    0.00110    0.00110      96       1     mtd13
     106   1.896  -104.77987    0.00105    0.00105      97       1     mtd7
     107   1.973  -104.77974    0.00092    0.00092      98       1     mtd7
     108   2.065  -104.77960    0.00079    0.00079      99       1     hor
     109   2.069  -104.77959    0.00078    0.00078     100       1     hor
     110   2.079  -104.77958    0.00077    0.00153     101       2     hor
     111   2.085  -104.77957    0.00076                                hor
     112   2.120  -104.77951    0.00072    0.00072     102       1     hor
     113   2.122  -104.77951    0.00072    0.00072     103       1     hor
     114   2.137  -104.77948    0.00070    0.00070     104       1     hor
     115   2.171  -104.77943    0.00066    0.00066     105       1     hor
     116   2.182  -104.77941    0.00065    0.00065     106       1     hor
     117   2.182  -104.77941    0.00065    0.00065     107       1     hor
     118   2.187  -104.77940    0.00064    0.00064     108       1     hor
     119   2.193  -104.77939    0.00063    0.00063     109       1     hor
     120   2.195  -104.77939    0.00063    0.00063     110       1     hor
     121   2.205  -104.77937    0.00062    0.00062     111       1     hor
     122   2.206  -104.77937    0.00062    0.00062     112       1     hor
     123   2.222  -104.77935    0.00060    0.00121     113       2     hor
     124   2.225  -104.77934    0.00060                                hor
     125   2.227  -104.77934    0.00060    0.00060     114       1     hor
     126   2.228  -104.77934    0.00060    0.00060     115       1     hor
     127   2.235  -104.77933    0.00059    0.00118     116       2     hor
     128   2.240  -104.77932    0.00059                                hor
     129   2.241  -104.77932    0.00059    0.00059     117       1     hor
     130   2.247  -104.77931    0.00058    0.00058     118       1     hor
     131   2.252  -104.77930    0.00057    0.00057     119       1     hor
     132   2.268  -104.77928    0.00056    0.00056     120       1     hor
     133   2.280  -104.77926    0.00055    0.00055     121       1     hor
     134   2.282  -104.77925    0.00055    0.00055     122       1     hor
     135   2.285  -104.77925    0.00054    0.00054     123       1     hor
     136   2.298  -104.77923    0.00053    0.00053     124       1     hor
     137   2.300  -104.77922    0.00053    0.00053     125       1     hor
     138   2.300  -104.77922    0.00053    0.00053     126       1     hor
     139   2.313  -104.77920    0.00052    0.00052     127       1     hor
     140   2.316  -104.77920    0.00052    0.00103     128       2     hor
     141   2.320  -104.77919    0.00051                                hor
     142   2.338  -104.77916    0.00050    0.00099     129       2     hor
     143   2.338  -104.77916    0.00050                                hor
     144   2.341  -104.77916    0.00049    0.00049     130       1     hor
     145   2.316  -104.77920    0.00052    0.00052     131       1     hor
     146   2.344  -104.77915    0.00049    0.00049     132       1     hor
     147   2.347  -104.77915    0.00049    0.00049     133       1     hor
     148   2.352  -104.77914    0.00049    0.00049     134       1     hor
     149   2.334  -104.77917    0.00050    0.00050     135       1     hor
     150   2.363  -104.77912    0.00048    0.00048     136       1     hor
     151   2.374  -104.77911    0.00047    0.00047     137       1     hor
     152   2.376  -104.77910    0.00047    0.00047     138       1     hor
     153   2.380  -104.77910    0.00046    0.00046     139       1     hor
     154   2.394  -104.77907    0.00045    0.00090     140       2     hor
     155   2.401  -104.77906    0.00045                                hor
     156   2.399  -104.77907    0.00045    0.00045     141       1     hor
     157   2.407  -104.77905    0.00044    0.00044     142       1     hor
     158   2.415  -104.77904    0.00044    0.00044     143       1     hor
     159   2.468  -104.77896    0.00040    0.00040     144       1     hor
     160   2.483  -104.77893    0.00039    0.00039     145       1     hor
     161   2.935  -104.77821    0.00018    0.00018     146       1     mtd4
     162   3.238  -104.77773    0.00011    0.00011     147       1     mtd5
     163   3.261  -104.77769    0.00010    0.00010     148       1     mtd7
     164   3.263  -104.77769    0.00010    0.00010     149       1     mtd12
     165   3.625  -104.77711    0.00006    0.00006     150       1     hor
     166   3.659  -104.77706    0.00005    0.00005     151       1     hor
     167   3.746  -104.77692    0.00005    0.00009     152       2     hor
     168   3.750  -104.77691    0.00005                                hor
     169   3.759  -104.77690    0.00005    0.00005     153       1     hor
T /K                                  :   298.15
E lowest                              :  -104.78289
ensemble average energy (kcal)        :    0.487
ensemble entropy (J/mol K, cal/mol K) :   37.291    8.913
ensemble free energy (kcal/mol)       :   -2.657
population of lowest in %             :    2.563
 number of unique conformers for further calc          153
 list of relative energies saved as "crest.energies"
 
 -----------------
 Wall Time Summary
 -----------------
             test MD wall time :         0h : 0m :37s
                 MTD wall time :         0h : 1m : 9s
      multilevel OPT wall time :         0h : 1m :57s
                  MD wall time :         0h : 0m :30s
                  GC wall time :         0h : 0m : 1s
--------------------
Overall wall time  : 0h : 4m :25s
 
 CREST terminated normally.
