 
       ==============================================
       |                                            |
       |                 C R E S T                  |
       |                                            |
       |  Conformer-Rotamer Ensemble Sampling Tool  |
       |          based on the GFN methods          |
       |             P.Pracht, S.Grimme             |
       |          Universitaet Bonn, MCTC           |
       ==============================================
       Version 2.11.2, Fr 17. Dec 12:10:44 CEST 2021
  Using the xTB program. Compatible with xTB version 6.4.0
 
   Cite work conducted with this code as

   P. Pracht, F. Bohle, S. Grimme, PCCP, 2020, 22, 7169-7192.

   and  S. Grimme, JCTC, 2019, 15, 2847-2862.
 
   with help from:
   C.Bannwarth, F.Bohle, S.Ehlert, S.Grimme,
   C. Plett, P.Pracht, S. Spicher
 
   This program is distributed in the hope that it will be useful,
   but WITHOUT ANY WARRANTY; without even the implied warranty of
   MERCHANTABILITY or FITNESS FOR A PARTICULAR PURPOSE.

 Command line input:
 > crest 00214_r_0.xyz -T 28 -gfn2 -chrg 0 -uhf 0 -rthr 0.25 -shake 1 --mdlen 0.5

  -T 28 (CPUs/Threads selected)
  -gfn2 : Use of GFN2-xTB requested.
  -chrg 0
  -uhf 0
  -rthr 0.25
  --mdlen 0.5 (MD length in ps)
 
 -------------------------
 xTB Geometry Optimization
 -------------------------
 Geometry successfully optimized.
 
------------------------------------------------
Generating MTD length from a flexibility measure
------------------------------------------------
      -----------------------------------------------------------      
     |                   =====================                   |     
     |                           x T B                           |     
     |                   =====================                   |     
     |                         S. Grimme                         |     
     |          Mulliken Center for Theoretical Chemistry        |     
     |                    University of Bonn                     |     
      -----------------------------------------------------------      

   * xtb version 6.4.1 (afa7bdf) compiled by 'ehlert@majestix' on 2021-06-10

   xtb is free software: you can redistribute it and/or modify it under
   the terms of the GNU Lesser General Public License as published by
   the Free Software Foundation, either version 3 of the License, or
   (at your option) any later version.
   
   xtb is distributed in the hope that it will be useful,
   but WITHOUT ANY WARRANTY; without even the implied warranty of
   MERCHANTABILITY or FITNESS FOR A PARTICULAR PURPOSE.  See the
   GNU Lesser General Public License for more details.
   
   Cite this work as:
   * C. Bannwarth, E. Caldeweyher, S. Ehlert, A. Hansen, P. Pracht,
     J. Seibert, S. Spicher, S. Grimme, WIREs Comput. Mol. Sci., 2020, 11,
     e01493. DOI: 10.1002/wcms.1493
   
   for GFN2-xTB:
   * C. Bannwarth, S. Ehlert and S. Grimme., J. Chem. Theory Comput., 2019,
     15, 1652-1671. DOI: 10.1021/acs.jctc.8b01176
   for GFN1-xTB:
   * S. Grimme, C. Bannwarth, P. Shushkov, J. Chem. Theory Comput., 2017,
     13, 1989-2009. DOI: 10.1021/acs.jctc.7b00118
   for GFN0-xTB:
   * P. Pracht, E. Caldeweyher, S. Ehlert, S. Grimme, ChemRxiv, 2019, preprint.
     DOI: 10.26434/chemrxiv.8326202.v1
   for GFN-FF:
   * S. Spicher and S. Grimme, Angew. Chem. Int. Ed., 2020, 59, 15665-15673.
     DOI: 10.1002/anie.202004239
   
   for DFT-D4:
   * E. Caldeweyher, C. Bannwarth and S. Grimme, J. Chem. Phys., 2017,
     147, 034112. DOI: 10.1063/1.4993215
   * E. Caldeweyher, S. Ehlert, A. Hansen, H. Neugebauer, S. Spicher,
     C. Bannwarth and S. Grimme, J. Chem. Phys., 2019, 150, 154122.
     DOI: 10.1063/1.5090222
   * E. Caldeweyher, J.-M. Mewes, S. Ehlert and S. Grimme, Phys. Chem. Chem. Phys.
     2020, 22, 8499-8512. DOI: 10.1039/D0CP00502A
   
   for sTDA-xTB:
   * S. Grimme and C. Bannwarth, J. Chem. Phys., 2016, 145, 054103.
     DOI: 10.1063/1.4959605
   
   in the mass-spec context:
   * V. Asgeirsson, C. Bauer and S. Grimme, Chem. Sci., 2017, 8, 4879.
     DOI: 10.1039/c7sc00601b
   * J. Koopman and S. Grimme, ACS Omega 2019, 4, 12, 15120-15133.
     DOI: 10.1021/acsomega.9b02011
   
   for metadynamics refer to:
   * S. Grimme, J. Chem. Theory Comput., 2019, 155, 2847-2862
     DOI: 10.1021/acs.jctc.9b00143
   
   for SPH calculations refer to:
   * S. Spicher and S. Grimme, J. Chem. Theory Comput., 2021, 17, 1701-1714
     DOI: 10.1021/acs.jctc.0c01306
   
   with help from (in alphabetical order)
   P. Atkinson, C. Bannwarth, F. Bohle, G. Brandenburg, E. Caldeweyher
   M. Checinski, S. Dohm, S. Ehlert, S. Ehrlich, I. Gerasimov, J. Koopman
   C. Lavigne, S. Lehtola, F. März, M. Müller, F. Musil, H. Neugebauer
   J. Pisarek, C. Plett, P. Pracht, J. Seibert, P. Shushkov, S. Spicher
   M. Stahn, M. Steiner, T. Strunk, J. Stückrath, T. Rose, and J. Unsleber
   
 * started run on 2025/01/21 at 11:20:08.995     

           -------------------------------------------------
          |                Calculation Setup                |
           -------------------------------------------------

          program call               : xtb tmpcoord --gfn0 --sp
          hostname                   : node85
          coordinate file            : tmpcoord
          omp threads                :                    28
          number of atoms            :                    70
          number of electrons        :                   198
          charge                     :                     0
          spin                       :                   0.0
          first test random number   :      0.10948460842771

   ID    Z sym.   atoms
    1    6 c      1, 3-18, 20-25, 27-37, 39, 40
    2    8 o      2, 19, 26, 38
    3    1 h      41-70
########################################################################
[WARNING] Please study the warnings concerning your input carefully
-1- prog_main_parseArguments: The use of '--gfn0' is discouraged, please use '--gfn 0' next time
########################################################################

           -------------------------------------------------
          |                 G F N 0 - x T B                 |
           -------------------------------------------------

        Reference                      10.26434/chemrxiv.8326202.v1
      * Hamiltonian:
        H0-scaling (s, p, d)           2.000000    2.486800    2.270000
        zeta-weighting                 1.000000
      * Dispersion:
        s8                             2.850000
        a1                             0.800000
        a2                             4.600000
        s9                             0.000000
      * Repulsion:
        kExp                           1.500000
        rExp                           1.000000
      * Coulomb:
        alpha                          0.000000
        third order                    atomic
        anisotropic                    false
      * Polar bond correction:
        rad-shift                      0.053700
        strength                      -0.012900
        en-exp                         3.484700
        en-scale                       0.509700


          ...................................................
          :                      SETUP                      :
          :.................................................:
          :  # basis functions                 220          :
          :  # atomic orbitals                 220          :
          :  # shells                          140          :
          :  # electrons                       198          :
          :  electronic temp.          300.0000000     K    :
          :  accuracy                    1.0000000          :
          :  -> integral cutoff          0.2500000E+02      :
          :  -> integral neglect         0.1000000E-07      :
          ...................................................
  Checking positiv definite overlap ...  done.
 

         #    Occupation            Energy/Eh            Energy/eV
      -------------------------------------------------------------
         1        2.0000           -0.6944476             -18.8969
       ...           ...                  ...                  ...
        93        2.0000           -0.4327037             -11.7745
        94        2.0000           -0.4109632             -11.1829
        95        2.0000           -0.4105892             -11.1727
        96        2.0000           -0.4056706             -11.0389
        97        2.0000           -0.4055869             -11.0366
        98        2.0000           -0.3939761             -10.7206
        99        2.0000           -0.3912110             -10.6454 (HOMO)
       100                         -0.3025726              -8.2334 (LUMO)
       101                         -0.3011303              -8.1942
       102                         -0.2746966              -7.4749
       103                         -0.2743616              -7.4658
       104                         -0.2670017              -7.2655
       ...                                ...                  ...
       220                          0.6547945              17.8179
      -------------------------------------------------------------
                  HL-Gap            0.0886384 Eh            2.4120 eV
             Fermi-level            0.0000000 Eh            0.0000 eV

 EHT (total)                   0 d,  0 h,  0 min,  0.045 sec
 EHT setup                      ...        0 min,  0.001 sec (  2.466%)
 Coordination number            ...        0 min,  0.001 sec (  2.123%)
 EEQ model density              ...        0 min,  0.001 sec (  1.640%)
 D4 Dispersion                  ...        0 min,  0.003 sec (  5.901%)
 Integral evaluation            ...        0 min,  0.001 sec (  2.712%)
 Cholesky factorization         ...        0 min,  0.009 sec ( 21.011%)
 Zeroth order Hamiltonian       ...        0 min,  0.025 sec ( 56.346%)
 Gradient calculation           ...        0 min,  0.003 sec (  6.180%)

         :::::::::::::::::::::::::::::::::::::::::::::::::::::
         ::                     SUMMARY                     ::
         :::::::::::::::::::::::::::::::::::::::::::::::::::::
         :: total energy            -105.473777584460 Eh    ::
         :: gradient norm              0.045556312229 Eh/a0 ::
         :: HOMO-LUMO gap              2.411973313083 eV    ::
         ::.................................................::
         :: H0 energy               -106.985503514797 Eh    ::
         :: repulsion energy           1.778249478638 Eh    ::
         :: electrostat energy        -0.143682511919 Eh    ::
         :: -> Gsolv                   0.000000000000 Eh    ::
         ::    -> Gsasa                0.000000000000 Eh    ::
         ::    -> Gshift               0.000000000000 Eh    ::
         :: dispersion energy         -0.047416532183 Eh    ::
         :: short-range corr.         -0.075424504199 Eh    ::
         :: add. restraining           0.000000000000 Eh    ::
         :: total charge               0.000000000000 e     ::
         :::::::::::::::::::::::::::::::::::::::::::::::::::::

           -------------------------------------------------
          |                Property Printout                |
           -------------------------------------------------

    * Orbital Energies and Occupations

         #    Occupation            Energy/Eh            Energy/eV
      -------------------------------------------------------------
         1        2.0000           -0.6944476             -18.8969
       ...           ...                  ...                  ...
        87        2.0000           -0.4461772             -12.1411
        88        2.0000           -0.4425005             -12.0411
        89        2.0000           -0.4399128             -11.9706
        90        2.0000           -0.4370666             -11.8932
        91        2.0000           -0.4370462             -11.8926
        92        2.0000           -0.4347089             -11.8290
        93        2.0000           -0.4327037             -11.7745
        94        2.0000           -0.4109632             -11.1829
        95        2.0000           -0.4105892             -11.1727
        96        2.0000           -0.4056706             -11.0389
        97        2.0000           -0.4055869             -11.0366
        98        2.0000           -0.3939761             -10.7206
        99        2.0000           -0.3912110             -10.6454 (HOMO)
       100                         -0.3025726              -8.2334 (LUMO)
       101                         -0.3011303              -8.1942
       102                         -0.2746966              -7.4749
       103                         -0.2743616              -7.4658
       104                         -0.2670017              -7.2655
       105                         -0.2669780              -7.2648
       106                         -0.2557210              -6.9585
       107                         -0.2549206              -6.9367
       108                         -0.2328736              -6.3368
       109                         -0.2304774              -6.2716
       110                         -0.1853591              -5.0439
       ...                                ...                  ...
       220                          0.6547945              17.8179
      -------------------------------------------------------------
                  HL-Gap            0.0886384 Eh            2.4120 eV
             Fermi-level            0.0000000 Eh            0.0000 eV

     #   Z          covCN         q      C6AA      α(0)
     1   6 c        3.653    -0.074    24.808     7.231
     2   8 o        1.700    -0.356    19.837     6.026
     3   6 c        3.710     0.080    21.679     6.732
     4   6 c        2.968     0.009    29.296     8.850
     5   6 c        2.922    -0.130    32.991     9.390
     6   6 c        2.923    -0.094    31.989     9.246
     7   6 c        2.978     0.091    27.371     8.555
     8   6 c        2.970    -0.015    29.898     8.941
     9   6 c        2.925    -0.199    35.033     9.676
    10   6 c        2.984     0.068    27.884     8.635
    11   6 c        2.919    -0.132    33.048     9.397
    12   6 c        2.916    -0.087    31.792     9.217
    13   6 c        2.917    -0.090    31.894     9.232
    14   6 c        2.917    -0.119    32.696     9.347
    15   6 c        2.988     0.033    28.721     8.764
    16   6 c        2.973    -0.093    31.948     9.243
    17   6 c        2.973    -0.092    31.922     9.239
    18   6 c        2.850     0.222    24.622     8.107
    19   8 o        1.659    -0.558    23.985     6.625
    20   6 c        2.970    -0.015    29.904     8.942
    21   6 c        2.978     0.091    27.374     8.556
    22   6 c        2.923    -0.104    32.275     9.287
    23   6 c        2.923    -0.107    32.339     9.296
    24   6 c        2.968     0.010    29.274     8.847
    25   6 c        3.709     0.080    21.682     6.732
    26   8 o        1.701    -0.356    19.842     6.027
    27   6 c        3.653    -0.072    24.776     7.226
    28   6 c        2.922    -0.123    32.795     9.362
    29   6 c        2.925    -0.125    32.863     9.371
    30   6 c        2.925    -0.200    35.059     9.679
    31   6 c        2.984     0.069    27.876     8.634
    32   6 c        2.919    -0.132    33.057     9.399
    33   6 c        2.916    -0.087    31.800     9.218
    34   6 c        2.917    -0.090    31.872     9.228
    35   6 c        2.917    -0.119    32.695     9.347
    36   6 c        2.988     0.031    28.766     8.771
    37   6 c        2.849     0.221    24.655     8.112
    38   8 o        1.659    -0.559    24.024     6.630
    39   6 c        2.924    -0.137    33.194     9.418
    40   6 c        2.923    -0.099    32.141     9.268
    41   1 h        0.924     0.078     1.996     2.210
    42   1 h        0.924     0.094     1.845     2.124
    43   1 h        0.925     0.096     1.826     2.113
    44   1 h        0.923     0.048     2.340     2.392
    45   1 h        0.924     0.068     2.113     2.273
    46   1 h        0.926     0.099     1.792     2.094
    47   1 h        0.926     0.137     1.486     1.906
    48   1 h        0.926     0.120     1.614     1.987
    49   1 h        0.926     0.101     1.775     2.083
    50   1 h        0.926     0.095     1.833     2.117
    51   1 h        0.926     0.096     1.822     2.111
    52   1 h        0.926     0.118     1.629     1.996
    53   1 h        0.805     0.312     0.687     1.302
    54   1 h        0.926     0.134     1.502     1.916
    55   1 h        0.926     0.123     1.590     1.972
    56   1 h        0.923     0.047     2.355     2.400
    57   1 h        0.924     0.071     2.075     2.253
    58   1 h        0.923     0.076     2.026     2.226
    59   1 h        0.924     0.087     1.912     2.163
    60   1 h        0.925     0.094     1.837     2.120
    61   1 h        0.926     0.095     1.835     2.118
    62   1 h        0.926     0.105     1.742     2.064
    63   1 h        0.926     0.118     1.628     1.995
    64   1 h        0.926     0.100     1.782     2.088
    65   1 h        0.926     0.094     1.836     2.119
    66   1 h        0.926     0.097     1.815     2.107
    67   1 h        0.926     0.121     1.607     1.982
    68   1 h        0.805     0.314     0.681     1.296
    69   1 h        0.926     0.106     1.727     2.055
    70   1 h        0.926     0.118     1.627     1.994

 Mol. C6AA /au·bohr⁶  :      64895.100682
 Mol. C8AA /au·bohr⁸  :    1635485.974623
 Mol. α(0) /au        :        405.378329


Wiberg/Mayer (AO) data.
largest (>0.10) Wiberg bond orders for each atom

 ---------------------------------------------------------------------------
     #   Z sym  total        # sym  WBO       # sym  WBO       # sym  WBO
 ---------------------------------------------------------------------------
     1   6 c    3.953 --     2 o    0.998    43 h    0.981    42 h    0.978
                            41 h    0.977
     2   8 o    2.102 --     1 c    0.998     3 c    0.981
     3   6 c    3.958 --     4 c    0.997     2 o    0.981    44 h    0.967
                            45 h    0.961
     4   6 c    3.970 --     5 c    1.412    40 c    1.403     3 c    0.997
                             7 c    0.104
     5   6 c    3.987 --     6 c    1.449     4 c    1.412    46 h    0.969
                            39 c    0.107
     6   6 c    3.984 --     5 c    1.449     7 c    1.390    47 h    0.968
                            40 c    0.107
     7   6 c    3.977 --     6 c    1.390    39 c    1.384     8 c    1.037
                             4 c    0.104
     8   6 c    3.976 --     9 c    1.519    37 c    1.211     7 c    1.037
     9   6 c    3.985 --     8 c    1.519    10 c    1.271    48 h    0.965
    10   6 c    3.978 --    11 c    1.281     9 c    1.271    15 c    1.242
    11   6 c    3.979 --    12 c    1.550    10 c    1.281    49 h    0.969
                            14 c    0.115
    12   6 c    3.975 --    11 c    1.550    13 c    1.320    50 h    0.973
    13   6 c    3.982 --    14 c    1.554    12 c    1.320    51 h    0.973
    14   6 c    3.987 --    13 c    1.554    15 c    1.274    52 h    0.966
                            11 c    0.115
    15   6 c    3.977 --    14 c    1.274    16 c    1.250    10 c    1.242
    16   6 c    3.965 --    37 c    1.412    15 c    1.250    17 c    0.993
    17   6 c    3.965 --    18 c    1.411    36 c    1.251    16 c    0.993
    18   6 c    3.941 --    17 c    1.411    20 c    1.211    19 o    1.136
    19   8 o    2.318 --    18 c    1.136    53 h    0.967
    20   6 c    3.976 --    30 c    1.518    18 c    1.211    21 c    1.037
    21   6 c    3.977 --    29 c    1.388    22 c    1.385    20 c    1.037
                            24 c    0.103
    22   6 c    3.984 --    23 c    1.457    21 c    1.385    54 h    0.968
                            28 c    0.107
    23   6 c    3.988 --    22 c    1.457    24 c    1.404    55 h    0.969
                            29 c    0.107
    24   6 c    3.970 --    28 c    1.411    23 c    1.404    25 c    0.997
                            21 c    0.103
    25   6 c    3.957 --    24 c    0.997    26 o    0.982    56 h    0.967
                            57 h    0.961
    26   8 o    2.102 --    27 c    0.998    25 c    0.982
    27   6 c    3.953 --    26 o    0.998    60 h    0.981    59 h    0.978
                            58 h    0.977
    28   6 c    3.987 --    29 c    1.450    24 c    1.411    61 h    0.969
                            22 c    0.107
    29   6 c    3.983 --    28 c    1.450    21 c    1.388    62 h    0.969
                            23 c    0.107
    30   6 c    3.985 --    20 c    1.518    31 c    1.271    63 h    0.965
    31   6 c    3.978 --    32 c    1.281    30 c    1.271    36 c    1.241
    32   6 c    3.979 --    33 c    1.550    31 c    1.281    64 h    0.969
                            35 c    0.115
    33   6 c    3.975 --    32 c    1.550    34 c    1.320    65 h    0.973
    34   6 c    3.982 --    35 c    1.555    33 c    1.320    66 h    0.973
    35   6 c    3.987 --    34 c    1.555    36 c    1.274    67 h    0.967
                            32 c    0.115
    36   6 c    3.976 --    35 c    1.274    17 c    1.251    31 c    1.241
    37   6 c    3.941 --    16 c    1.412     8 c    1.211    38 o    1.135
    38   8 o    2.316 --    37 c    1.135    68 h    0.968
    39   6 c    3.983 --    40 c    1.458     7 c    1.384    69 h    0.969
                             5 c    0.107
    40   6 c    3.988 --    39 c    1.458     4 c    1.403    70 h    0.969
                             6 c    0.107
    41   1 h    0.987 --     1 c    0.977
    42   1 h    0.991 --     1 c    0.978
    43   1 h    1.002 --     1 c    0.981
    44   1 h    0.980 --     3 c    0.967
    45   1 h    1.004 --     3 c    0.961
    46   1 h    0.980 --     5 c    0.969
    47   1 h    0.991 --     6 c    0.968
    48   1 h    0.973 --     9 c    0.965
    49   1 h    0.978 --    11 c    0.969
    50   1 h    0.983 --    12 c    0.973
    51   1 h    0.983 --    13 c    0.973
    52   1 h    0.981 --    14 c    0.966
    53   1 h    0.988 --    19 o    0.967
    54   1 h    0.992 --    22 c    0.968
    55   1 h    0.986 --    23 c    0.969
    56   1 h    0.981 --    25 c    0.967
    57   1 h    1.004 --    25 c    0.961
    58   1 h    0.987 --    27 c    0.977
    59   1 h    0.991 --    27 c    0.978
    60   1 h    1.002 --    27 c    0.981
    61   1 h    0.980 --    28 c    0.969
    62   1 h    0.979 --    29 c    0.969
    63   1 h    0.973 --    30 c    0.965
    64   1 h    0.978 --    32 c    0.969
    65   1 h    0.983 --    33 c    0.973
    66   1 h    0.983 --    34 c    0.973
    67   1 h    0.981 --    35 c    0.967
    68   1 h    0.988 --    38 o    0.968
    69   1 h    0.979 --    39 c    0.969
    70   1 h    0.986 --    40 c    0.969
 ---------------------------------------------------------------------------

Topologies differ in total number of bonds
Writing topology from bond orders to xtbtopo.mol

 dipole moment from electron density (au)
     X       Y       Z   
  -0.3393   0.7170   0.7735  total (Debye):    2.816


           -------------------------------------------------
          | TOTAL ENERGY             -105.473777584460 Eh   |
          | GRADIENT NORM               0.045556312229 Eh/α |
          | HOMO-LUMO GAP               2.411973313083 eV   |
           -------------------------------------------------

------------------------------------------------------------------------
 * finished run on 2025/01/21 at 11:20:09.094     
------------------------------------------------------------------------
 total:
 * wall-time:     0 d,  0 h,  0 min,  0.099 sec
 *  cpu-time:     0 d,  0 h,  0 min,  1.999 sec
 * ratio c/w:    20.193 speedup
 SCF:
 * wall-time:     0 d,  0 h,  0 min,  0.046 sec
 *  cpu-time:     0 d,  0 h,  0 min,  1.101 sec
 * ratio c/w:    24.181 speedup

 Calculating WBOs... done.
      -----------------------------------------------------------      
     |                   =====================                   |     
     |                           x T B                           |     
     |                   =====================                   |     
     |                         S. Grimme                         |     
     |          Mulliken Center for Theoretical Chemistry        |     
     |                    University of Bonn                     |     
      -----------------------------------------------------------      

   * xtb version 6.4.1 (afa7bdf) compiled by 'ehlert@majestix' on 2021-06-10

   xtb is free software: you can redistribute it and/or modify it under
   the terms of the GNU Lesser General Public License as published by
   the Free Software Foundation, either version 3 of the License, or
   (at your option) any later version.
   
   xtb is distributed in the hope that it will be useful,
   but WITHOUT ANY WARRANTY; without even the implied warranty of
   MERCHANTABILITY or FITNESS FOR A PARTICULAR PURPOSE.  See the
   GNU Lesser General Public License for more details.
   
   Cite this work as:
   * C. Bannwarth, E. Caldeweyher, S. Ehlert, A. Hansen, P. Pracht,
     J. Seibert, S. Spicher, S. Grimme, WIREs Comput. Mol. Sci., 2020, 11,
     e01493. DOI: 10.1002/wcms.1493
   
   for GFN2-xTB:
   * C. Bannwarth, S. Ehlert and S. Grimme., J. Chem. Theory Comput., 2019,
     15, 1652-1671. DOI: 10.1021/acs.jctc.8b01176
   for GFN1-xTB:
   * S. Grimme, C. Bannwarth, P. Shushkov, J. Chem. Theory Comput., 2017,
     13, 1989-2009. DOI: 10.1021/acs.jctc.7b00118
   for GFN0-xTB:
   * P. Pracht, E. Caldeweyher, S. Ehlert, S. Grimme, ChemRxiv, 2019, preprint.
     DOI: 10.26434/chemrxiv.8326202.v1
   for GFN-FF:
   * S. Spicher and S. Grimme, Angew. Chem. Int. Ed., 2020, 59, 15665-15673.
     DOI: 10.1002/anie.202004239
   
   for DFT-D4:
   * E. Caldeweyher, C. Bannwarth and S. Grimme, J. Chem. Phys., 2017,
     147, 034112. DOI: 10.1063/1.4993215
   * E. Caldeweyher, S. Ehlert, A. Hansen, H. Neugebauer, S. Spicher,
     C. Bannwarth and S. Grimme, J. Chem. Phys., 2019, 150, 154122.
     DOI: 10.1063/1.5090222
   * E. Caldeweyher, J.-M. Mewes, S. Ehlert and S. Grimme, Phys. Chem. Chem. Phys.
     2020, 22, 8499-8512. DOI: 10.1039/D0CP00502A
   
   for sTDA-xTB:
   * S. Grimme and C. Bannwarth, J. Chem. Phys., 2016, 145, 054103.
     DOI: 10.1063/1.4959605
   
   in the mass-spec context:
   * V. Asgeirsson, C. Bauer and S. Grimme, Chem. Sci., 2017, 8, 4879.
     DOI: 10.1039/c7sc00601b
   * J. Koopman and S. Grimme, ACS Omega 2019, 4, 12, 15120-15133.
     DOI: 10.1021/acsomega.9b02011
   
   for metadynamics refer to:
   * S. Grimme, J. Chem. Theory Comput., 2019, 155, 2847-2862
     DOI: 10.1021/acs.jctc.9b00143
   
   for SPH calculations refer to:
   * S. Spicher and S. Grimme, J. Chem. Theory Comput., 2021, 17, 1701-1714
     DOI: 10.1021/acs.jctc.0c01306
   
   with help from (in alphabetical order)
   P. Atkinson, C. Bannwarth, F. Bohle, G. Brandenburg, E. Caldeweyher
   M. Checinski, S. Dohm, S. Ehlert, S. Ehrlich, I. Gerasimov, J. Koopman
   C. Lavigne, S. Lehtola, F. März, M. Müller, F. Musil, H. Neugebauer
   J. Pisarek, C. Plett, P. Pracht, J. Seibert, P. Shushkov, S. Spicher
   M. Stahn, M. Steiner, T. Strunk, J. Stückrath, T. Rose, and J. Unsleber
   
 * started run on 2025/01/21 at 11:20:09.145     

           -------------------------------------------------
          |                Calculation Setup                |
           -------------------------------------------------

          program call               : xtb tmpcoord --gfnff --sp
          hostname                   : node85
          coordinate file            : tmpcoord
          omp threads                :                    28
          number of atoms            :                    70
          number of electrons        :                   198
          charge                     :                     0
          spin                       :                   0.0
          first test random number   :      0.88263155008837

   ID    Z sym.   atoms
    1    6 c      1, 3-18, 20-25, 27-37, 39, 40
    2    8 o      2, 19, 26, 38
    3    1 h      41-70
 
          ==================== Thresholds ====================
          CN  :   150.00000
          rep :   500.00000
          disp:  2500.00000
          HB1 :   250.00000
          HB2 :   450.00000
 
          Pauling EN used:
          Z : 1  EN :  2.20
          Z : 6  EN :  2.55
          Z : 8  EN :  3.44
          electric field strengths (au): 0.000
 
           ------------------------------------------------- 
          |           Force Field Initialization            |
           ------------------------------------------------- 
 
          distances ...
          ----------------------------------------
          generating topology and atomic info file ...
          pair mat ...
          computing topology distances matrix with Floyd-Warshall algo ...
          making topology EEQ charges ...
          #fragments for EEQ constrain: 1
          ----------------------------------------
          generating topology and atomic info file ...
          pair mat ...
          computing topology distances matrix with Floyd-Warshall algo ...
          making topology EEQ charges ...
          #fragments for EEQ constrain: 1
          rings ...
          # BATM   768
          # H in HB   20
          doing iterative Hueckel for 1 subsystem(s) ...
 
  atom   neighbors  erfCN metchar sp-hybrid imet pi  qest     coordinates
    1  c       4    3.50   0.00         3    0    0   0.030   14.668505    5.598501    3.468545
    2  o       2    1.91   0.00         3    0    0  -0.340   15.673305    3.247541    4.186877
    3  c       4    3.51   0.00         3    0    0   0.052   13.953237    1.746226    5.564917
    4  c       3    2.81   0.00         2    0    1  -0.022   11.733754    0.842523    4.017270
    5  c       3    2.82   0.00         2    0    1  -0.004    9.283677    0.966876    4.943839
    6  c       3    2.82   0.00         2    0    1  -0.033    7.272320    0.122024    3.507989
    7  c       3    2.82   0.00         2    0    1  -0.002    7.669972   -0.859308    1.101774
    8  c       3    2.81   0.00         2    0    1  -0.012    5.554540   -1.822777   -0.424745
    9  c       3    2.82   0.00         2    0    1  -0.020    5.721980   -4.127524   -1.602012
   10  c       3    2.83   0.00         2    0    1  -0.003    3.728722   -5.122967   -3.056532
   11  c       3    2.81   0.00         2    0    1  -0.035    3.902120   -7.492271   -4.262400
   12  c       3    2.81   0.00         2    0    1  -0.035    1.935693   -8.407546   -5.665200
   13  c       3    2.81   0.00         2    0    1  -0.028   -0.290023   -6.990940   -5.926386
   14  c       3    2.81   0.00         2    0    1  -0.036   -0.521665   -4.688985   -4.776754
   15  c       3    2.83   0.00         2    0    1  -0.015    1.472446   -3.698723   -3.312030
   16  c       3    2.82   0.00         2    0    1   0.001    1.304040   -1.314033   -2.103077
   17  c       3    2.82   0.00         2    0    1   0.001   -1.050490    0.217099   -2.308917
   18  c       3    2.82   0.00         2    0    1   0.097   -3.002055   -0.244457   -0.639427
   19  o       2    1.92   0.00         3    0    1  -0.432   -2.797344   -2.046828    1.179233
   20  c       3    2.81   0.00         2    0    1  -0.012   -5.258022    1.205453   -0.738294
   21  c       3    2.82   0.00         2    0    1  -0.002   -7.321998    0.736768    1.065656
   22  c       3    2.82   0.00         2    0    1  -0.033   -8.184090   -1.699686    1.555919
   23  c       3    2.82   0.00         2    0    1  -0.004  -10.140575   -2.096082    3.235598
   24  c       3    2.81   0.00         2    0    1  -0.022  -11.288235   -0.076525    4.460274
   25  c       4    3.51   0.00         3    0    0   0.052  -13.418957   -0.555756    6.295338
   26  o       2    1.91   0.00         3    0    0  -0.340  -15.189247   -2.353545    5.433519
   27  c       4    3.50   0.00         3    0    0   0.030  -16.597076   -1.520620    3.341946
   28  c       3    2.82   0.00         2    0    1  -0.004  -10.441942    2.355564    3.962934
   29  c       3    2.82   0.00         2    0    1  -0.033   -8.478372    2.758463    2.289147
   30  c       3    2.82   0.00         2    0    1  -0.020   -5.467583    3.065855   -2.533297
   31  c       3    2.83   0.00         2    0    1  -0.003   -3.531971    3.565068   -4.289182
   32  c       3    2.81   0.00         2    0    1  -0.035   -3.766325    5.450606   -6.156681
   33  c       3    2.81   0.00         2    0    1  -0.035   -1.855719    5.888416   -7.838966
   34  c       3    2.81   0.00         2    0    1  -0.028    0.374110    4.458554   -7.727575
   35  c       3    2.81   0.00         2    0    1  -0.036    0.662167    2.615522   -5.940264
   36  c       3    2.83   0.00         2    0    1  -0.015   -1.276442    2.120574   -4.179558
   37  c       3    2.82   0.00         2    0    1   0.097    3.302682   -0.389919   -0.703475
   38  o       2    1.92   0.00         3    0    1  -0.432    3.187942    1.919823    0.417018
   39  c       3    2.82   0.00         2    0    1  -0.033   10.129073   -0.971270    0.169561
   40  c       3    2.82   0.00         2    0    1  -0.004   12.134182   -0.129727    1.610516
   41  h       1    0.97   0.00         0    0    0   0.038   14.097735    6.703046    5.129494
   42  h       1    0.97   0.00         0    0    0   0.038   13.028950    5.379354    2.221890
   43  h       1    0.97   0.00         0    0    0   0.038   16.165068    6.592522    2.467917
   44  h       1    0.97   0.01         0    0    0   0.047   13.273673    2.784994    7.235191
   45  h       1    0.97   0.00         0    0    0   0.047   15.062428    0.121539    6.208422
   46  h       1    0.97   0.00         0    0    0   0.033    8.944967    1.723691    6.810877
   47  h       1    0.97   0.00         0    0    0   0.060    5.381021    0.214095    4.263313
   48  h       1    0.97   0.00         0    0    0   0.055    7.422612   -5.236121   -1.385421
   49  h       1    0.97   0.00         0    0    0   0.047    5.625303   -8.568349   -4.056706
   50  h       1    0.97   0.00         0    0    0   0.055    2.082455  -10.223066   -6.585604
   51  h       1    0.97   0.00         0    0    0   0.053   -1.824895   -7.733015   -7.048413
   52  h       1    0.97   0.00         0    0    0   0.052   -2.231701   -3.592977   -4.987316
   53  h       1    0.97   0.01         0    0    0   0.221   -1.176337   -2.880296    1.017545
   54  h       1    0.97   0.00         0    0    0   0.060   -7.324116   -3.285934    0.607373
   55  h       1    0.97   0.00         0    0    0   0.033  -10.814401   -3.986741    3.607094
   56  h       1    0.97   0.01         0    0    0   0.047  -14.378539    1.235302    6.746383
   57  h       1    0.97   0.00         0    0    0   0.047  -12.661521   -1.353377    8.048764
   58  h       1    0.97   0.01         0    0    0   0.038  -17.643229    0.214083    3.790743
   59  h       1    0.97   0.00         0    0    0   0.038  -15.385258   -1.159554    1.700844
   60  h       1    0.97   0.00         0    0    0   0.038  -17.926859   -3.024644    2.895871
   61  h       1    0.97   0.00         0    0    0   0.033  -11.318377    3.945709    4.899895
   62  h       1    0.97   0.00         0    0    0   0.060   -7.814380    4.658314    1.943086
   63  h       1    0.97   0.00         0    0    0   0.055   -7.186919    4.161948   -2.637970
   64  h       1    0.97   0.00         0    0    0   0.047   -5.491765    6.540125   -6.232644
   65  h       1    0.97   0.00         0    0    0   0.055   -2.050202    7.333081   -9.267300
   66  h       1    0.97   0.00         0    0    0   0.053    1.866179    4.821920   -9.071642
   67  h       1    0.97   0.00         0    0    0   0.052    2.374809    1.506343   -5.861810
   68  h       1    0.97   0.01         0    0    0   0.221    1.618530    2.734992   -0.051016
   69  h       1    0.97   0.00         0    0    0   0.060   10.460246   -1.698616   -1.709424
   70  h       1    0.97   0.00         0    0    0   0.033   14.037994   -0.200902    0.877357
 
          #atoms :   70
          #bonds :   75
          #angl  :   124
          #tors  :   208
          #nmol  :   1
          #optfrag :   1
           ------------------------------------------------- 
          |                   G F N - F F                   |
          |          A general generic force-field          |
          |                  Version 1.0.3                  | 
           ------------------------------------------------- 
          nhb123   5600 517 0

 E+G (total)                   0 d,  0 h,  0 min,  0.004 sec
 distance/D3 list               ...        0 min,  0.000 sec (  0.622%)
 non bonded repulsion           ...        0 min,  0.000 sec (  8.428%)
 dCN                            ...        0 min,  0.000 sec (  5.298%)
 EEQ energy and q               ...        0 min,  0.000 sec ( 10.218%)
 D3                             ...        0 min,  0.000 sec ( 11.806%)
 EEQ gradient                   ...        0 min,  0.000 sec (  6.910%)
 bonds                          ...        0 min,  0.000 sec ( 10.241%)
 bend and torsion               ...        0 min,  0.001 sec ( 13.596%)
 bonded ATM                     ...        0 min,  0.000 sec (  1.440%)
 HB/XB (incl list setup)        ...        0 min,  0.001 sec ( 26.296%)

         :::::::::::::::::::::::::::::::::::::::::::::::::::::
         ::                     SUMMARY                     ::
         :::::::::::::::::::::::::::::::::::::::::::::::::::::
         :: total energy             -14.053547576733 Eh    ::
         :: gradient norm              0.057825395936 Eh/a0 ::
         ::.................................................::
         :: bond energy              -14.755558651985 Eh    ::
         :: angle energy               0.009720831028 Eh    ::
         :: torsion energy             0.019990371359 Eh    ::
         :: repulsion energy           0.988687302656 Eh    ::
         :: electrostat energy        -0.228508549484 Eh    ::
         :: dispersion energy         -0.069360185105 Eh    ::
         :: HB energy                 -0.001465278502 Eh    ::
         :: XB energy                  0.000000000000 Eh    ::
         :: bonded atm energy         -0.017053416701 Eh    ::
         :: external energy            0.000000000000 Eh    ::
         :: add. restraining           0.000000000000 Eh    ::
         :: total charge              -0.000000000000 e     ::
         :::::::::::::::::::::::::::::::::::::::::::::::::::::

           -------------------------------------------------
          |                Property Printout                |
           -------------------------------------------------

           -------------------------------------------------
          | TOTAL ENERGY              -14.053547576733 Eh   |
          | GRADIENT NORM               0.057825395936 Eh/α |
           -------------------------------------------------

------------------------------------------------------------------------
 * finished run on 2025/01/21 at 11:20:09.201     
------------------------------------------------------------------------
 total:
 * wall-time:     0 d,  0 h,  0 min,  0.055 sec
 *  cpu-time:     0 d,  0 h,  0 min,  0.880 sec
 * ratio c/w:    15.891 speedup
 SCF:
 * wall-time:     0 d,  0 h,  0 min,  0.007 sec
 *  cpu-time:     0 d,  0 h,  0 min,  0.154 sec
 * ratio c/w:    22.145 speedup

 Calculating NCI flexibility... done.
     covalent flexibility measure :   0.225
 non-covalent flexibility measure :   1.000
 flexibility measure :   0.350
 t(MTD) / ps set by command line  :     0.5
 t(MTD) / ps    :     0.5
 Σ(t(MTD)) / ps :     7.0 (14 MTDs)
 
-------------------------------------
Starting a trial MTD to test settings
-------------------------------------
 Estimated runtime for one MTD (0.5 ps) on a single thread: 2 min 32 sec
 Estimated runtime for a batch of 14 MTDs on 28 threads: 1 min 16 sec
 
 list of Vbias parameters applied:
$metadyn    0.00300   1.300
$metadyn    0.00150   1.300
$metadyn    0.00075   1.300
$metadyn    0.00300   0.780
$metadyn    0.00150   0.780
$metadyn    0.00075   0.780
$metadyn    0.00300   0.468
$metadyn    0.00150   0.468
$metadyn    0.00075   0.468
$metadyn    0.00300   0.281
$metadyn    0.00150   0.281
$metadyn    0.00075   0.281
$metadyn    0.00100   0.100
$metadyn    0.00500   0.800
 
*******************************************************************************************
**                        N E W    I T E R A T I O N    C Y C L E                        **
*******************************************************************************************
 
========================================
            MTD Iteration  1
========================================
 
     ========================================
     |         Meta-MD (MTD) Sampling       |
     ========================================
 
Starting Meta-MD  14 with the settings:
     MD time /ps        :     0.5
     dt /fs             :     1.5
     dumpstep(trj) /fs  :     100
     dumpstep(Vbias)/ps :     1.0
     Vbias factor k /Eh :  0.3500
     Vbias exp α /bohr⁻²:    0.80
Starting Meta-MD   8 with the settings:
     MD time /ps        :     0.5
     dt /fs             :     1.5
     dumpstep(trj) /fs  :     100
     dumpstep(Vbias)/ps :     1.0
     Vbias factor k /Eh :  0.1050
     Vbias exp α /bohr⁻²:    0.47
Starting Meta-MD   9 with the settings:
     MD time /ps        :     0.5
     dt /fs             :     1.5
     dumpstep(trj) /fs  :     100
     dumpstep(Vbias)/ps :     1.0
     Vbias factor k /Eh :  0.0525
     Vbias exp α /bohr⁻²:    0.47
Starting Meta-MD   4 with the settings:
     MD time /ps        :     0.5
     dt /fs             :     1.5
     dumpstep(trj) /fs  :     100
     dumpstep(Vbias)/ps :     1.0
     Vbias factor k /Eh :  0.2100
     Vbias exp α /bohr⁻²:    0.78
Starting Meta-MD  11 with the settings:
     MD time /ps        :     0.5
     dt /fs             :     1.5
     dumpstep(trj) /fs  :     100
     dumpstep(Vbias)/ps :     1.0
     Vbias factor k /Eh :  0.1050
     Vbias exp α /bohr⁻²:    0.28
Starting Meta-MD   6 with the settings:
     MD time /ps        :     0.5
     dt /fs             :     1.5
     dumpstep(trj) /fs  :     100
     dumpstep(Vbias)/ps :     1.0
     Vbias factor k /Eh :  0.0525
     Vbias exp α /bohr⁻²:    0.78
Starting Meta-MD  13 with the settings:
     MD time /ps        :     0.5
     dt /fs             :     1.5
     dumpstep(trj) /fs  :     100
     dumpstep(Vbias)/ps :     1.0
     Vbias factor k /Eh :  0.0700
     Vbias exp α /bohr⁻²:    0.10
Starting Meta-MD   3 with the settings:
     MD time /ps        :     0.5
     dt /fs             :     1.5
     dumpstep(trj) /fs  :     100
     dumpstep(Vbias)/ps :     1.0
     Vbias factor k /Eh :  0.0525
     Vbias exp α /bohr⁻²:    1.30
Starting Meta-MD   2 with the settings:
     MD time /ps        :     0.5
     dt /fs             :     1.5
     dumpstep(trj) /fs  :     100
     dumpstep(Vbias)/ps :     1.0
     Vbias factor k /Eh :  0.1050
     Vbias exp α /bohr⁻²:    1.30
Starting Meta-MD   5 with the settings:
     MD time /ps        :     0.5
     dt /fs             :     1.5
     dumpstep(trj) /fs  :     100
     dumpstep(Vbias)/ps :     1.0
     Vbias factor k /Eh :  0.1050
     Vbias exp α /bohr⁻²:    0.78
Starting Meta-MD   1 with the settings:
     MD time /ps        :     0.5
     dt /fs             :     1.5
     dumpstep(trj) /fs  :     100
     dumpstep(Vbias)/ps :     1.0
     Vbias factor k /Eh :  0.2100
     Vbias exp α /bohr⁻²:    1.30
Starting Meta-MD   7 with the settings:
     MD time /ps        :     0.5
     dt /fs             :     1.5
     dumpstep(trj) /fs  :     100
     dumpstep(Vbias)/ps :     1.0
     Vbias factor k /Eh :  0.2100
     Vbias exp α /bohr⁻²:    0.47
Starting Meta-MD  10 with the settings:
     MD time /ps        :     0.5
     dt /fs             :     1.5
     dumpstep(trj) /fs  :     100
     dumpstep(Vbias)/ps :     1.0
     Vbias factor k /Eh :  0.2100
     Vbias exp α /bohr⁻²:    0.28
Starting Meta-MD  12 with the settings:
     MD time /ps        :     0.5
     dt /fs             :     1.5
     dumpstep(trj) /fs  :     100
     dumpstep(Vbias)/ps :     1.0
     Vbias factor k /Eh :  0.0525
     Vbias exp α /bohr⁻²:    0.28
*Meta-MTD 3 finished*
*Meta-MTD 6 finished*
*Meta-MTD 2 finished*
*Meta-MTD 4 finished*
*Meta-MTD 9 finished*
*Meta-MTD 7 finished*
*Meta-MTD 13 finished*
*Meta-MTD 12 finished*
*Meta-MTD 11 finished*
*Meta-MTD 1 finished*
*Meta-MTD 14 finished*
*Meta-MTD 10 finished*
*Meta-MTD 8 finished*
*Meta-MTD 5 finished*
 
-----------------------
Multilevel Optimization
-----------------------
 
 -------------------------
 1. crude pre-optimization
 -------------------------
 Optimizing all 70 structures from file "crest_rotamers_0.xyz" ...
 1 2 3 4 5 6 7 8 9 10 11 12 13 14 15 16 17 18 19 20 21 22 23 24 25 26 27 28 29 30 31 32 33 34 35 36 37 38 39 40 41 42 43 44 45 46 47 48 49 50 51 52 53 54 55 56 57 58 59 60 61 62 63 64 65 66 67 68 69 70
 done.
 running RMSDs...
 done.
 E lowest :  -108.65537
 65 structures remain within    12.00 kcal/mol window
 
 -------------------------------------
 2. optimization with tight thresholds
 -------------------------------------
 Optimizing all 66 structures from file "crest_rotamers_1.xyz" ...
 1 2 3 4 5 6 7 8 9 10 11 12 13 14 15 16 17 18 19 20 21 22 23 24 25 26 27 28 29 30 31 32 33 34 35 36 37 38 39 40 41 42 43 44 45 46 47 48 49 50 51 52 53 54 55 56 57 58 59 60 61 62 63 64 65 66
 done.
 running RMSDs...
 done.
 E lowest :  -108.65663
 38 structures remain within     6.00 kcal/mol window
 
 
========================================
            MTD Iteration  2
========================================
 
     ========================================
     |         Meta-MD (MTD) Sampling       |
     ========================================
 
Starting Meta-MD   1 with the settings:
     MD time /ps        :     0.5
     dt /fs             :     1.5
     dumpstep(trj) /fs  :     100
     dumpstep(Vbias)/ps :     1.0
     Vbias factor k /Eh :  0.2100
     Vbias exp α /bohr⁻²:    1.30
Starting Meta-MD   2 with the settings:
     MD time /ps        :     0.5
     dt /fs             :     1.5
     dumpstep(trj) /fs  :     100
     dumpstep(Vbias)/ps :     1.0
     Vbias factor k /Eh :  0.1050
     Vbias exp α /bohr⁻²:    1.30
Starting Meta-MD   3 with the settings:
     MD time /ps        :     0.5
     dt /fs             :     1.5
     dumpstep(trj) /fs  :     100
     dumpstep(Vbias)/ps :     1.0
     Vbias factor k /Eh :  0.0525
     Vbias exp α /bohr⁻²:    1.30
Starting Meta-MD   4 with the settings:
     MD time /ps        :     0.5
     dt /fs             :     1.5
     dumpstep(trj) /fs  :     100
     dumpstep(Vbias)/ps :     1.0
     Vbias factor k /Eh :  0.2100
     Vbias exp α /bohr⁻²:    0.78
Starting Meta-MD   5 with the settings:
     MD time /ps        :     0.5
     dt /fs             :     1.5
     dumpstep(trj) /fs  :     100
     dumpstep(Vbias)/ps :     1.0
     Vbias factor k /Eh :  0.1050
     Vbias exp α /bohr⁻²:    0.78
Starting Meta-MD   6 with the settings:
     MD time /ps        :     0.5
     dt /fs             :     1.5
     dumpstep(trj) /fs  :     100
     dumpstep(Vbias)/ps :     1.0
     Vbias factor k /Eh :  0.0525
     Vbias exp α /bohr⁻²:    0.78
Starting Meta-MD   7 with the settings:
     MD time /ps        :     0.5
     dt /fs             :     1.5
     dumpstep(trj) /fs  :     100
     dumpstep(Vbias)/ps :     1.0
     Vbias factor k /Eh :  0.2100
     Vbias exp α /bohr⁻²:    0.47
Starting Meta-MD   8 with the settings:
     MD time /ps        :     0.5
     dt /fs             :     1.5
     dumpstep(trj) /fs  :     100
     dumpstep(Vbias)/ps :     1.0
     Vbias factor k /Eh :  0.1050
     Vbias exp α /bohr⁻²:    0.47
Starting Meta-MD   9 with the settings:
     MD time /ps        :     0.5
     dt /fs             :     1.5
     dumpstep(trj) /fs  :     100
     dumpstep(Vbias)/ps :     1.0
     Vbias factor k /Eh :  0.0525
     Vbias exp α /bohr⁻²:    0.47
Starting Meta-MD  10 with the settings:
     MD time /ps        :     0.5
     dt /fs             :     1.5
     dumpstep(trj) /fs  :     100
     dumpstep(Vbias)/ps :     1.0
     Vbias factor k /Eh :  0.2100
     Vbias exp α /bohr⁻²:    0.28
Starting Meta-MD  11 with the settings:
     MD time /ps        :     0.5
     dt /fs             :     1.5
     dumpstep(trj) /fs  :     100
     dumpstep(Vbias)/ps :     1.0
     Vbias factor k /Eh :  0.1050
     Vbias exp α /bohr⁻²:    0.28
Starting Meta-MD  12 with the settings:
     MD time /ps        :     0.5
     dt /fs             :     1.5
     dumpstep(trj) /fs  :     100
     dumpstep(Vbias)/ps :     1.0
     Vbias factor k /Eh :  0.0525
     Vbias exp α /bohr⁻²:    0.28
*Meta-MTD 3 finished*
*Meta-MTD 4 finished*
*Meta-MTD 2 finished*
*Meta-MTD 8 finished*
*Meta-MTD 9 finished*
*Meta-MTD 12 finished*
*Meta-MTD 1 finished*
*Meta-MTD 10 finished*
*Meta-MTD 11 finished*
*Meta-MTD 7 finished*
*Meta-MTD 6 finished*
*Meta-MTD 5 finished*
 
-----------------------
Multilevel Optimization
-----------------------
 
 -------------------------
 1. crude pre-optimization
 -------------------------
 Optimizing all 60 structures from file "crest_rotamers_0.xyz" ...
 1 2 3 4 5 6 7 8 9 10 11 12 13 14 15 16 17 18 19 20 21 22 23 24 25 26 27 28 29 30 31 32 33 34 35 36 37 38 39 40 41 42 43 44 45 46 47 48 49 50 51 52 53 54 55 56 57 58 59 60
 done.
 running RMSDs...
 done.
 E lowest :  -108.65551
 57 structures remain within    12.00 kcal/mol window
 
 -------------------------------------
 2. optimization with tight thresholds
 -------------------------------------
 Optimizing all 58 structures from file "crest_rotamers_1.xyz" ...
 1 2 3 4 5 6 7 8 9 10 11 12 13 14 15 16 17 18 19 20 21 22 23 24 25 26 27 28 29 30 31 32 33 34 35 36 37 38 39 40 41 42 43 44 45 46 47 48 49 50 51 52 53 54 55 56 57 58
 done.
 running RMSDs...
 done.
 E lowest :  -108.65665
 37 structures remain within     6.00 kcal/mol window
 
========================================
            MTD Iterations done         
========================================
 Collecting ensmbles.
 running RMSDs...
 done.
 E lowest :  -108.65665
 72 structures remain within     6.00 kcal/mol window
 
 -------------------------------
 Additional orientation sampling
 -------------------------------
 Optimizing all 130 structures from file "oh_ensemble.xyz" ...
 1 2 3 4 5 6 7 8 9 10 11 12 13 14 15 16 17 18 19 20 21 22 23 24 25 26 27 28 29 30 31 32 33 34 35 36 37 38 39 40 41 42 43 44 45 46 47 48 49 50 51 52 53 54 55 56 57 58 59 60 61 62 63 64 65 66 67 68 69 70 71 72 73 74 75 76 77 78 79 80 81 82 83 84 85 86 87 88 89 90 91 92 93 94 95 96 97 98 99 100 101 102 103 104 105 106 107 108 109 110 111 112 113 114 115 116 117 118 119 120 121 122 123 124 125 126 127 128 129 130
 done.
 running RMSDs...
 done.
 E lowest :  -108.65665
 190 structures remain within     6.00 kcal/mol window
 
-----------------------------------------------
Additional regular MDs on lowest 4 conformer(s)
-----------------------------------------------
Starting MD   1 with the settings:
     MD time /ps        :     0.2
     MD Temperature /K  :   400.0
     dt /fs             :     1.5
     dumpstep(trj) /fs  :     100
Starting MD   2 with the settings:
     MD time /ps        :     0.2
     MD Temperature /K  :   500.0
     dt /fs             :     1.5
     dumpstep(trj) /fs  :     100
Starting MD   3 with the settings:
     MD time /ps        :     0.2
     MD Temperature /K  :   400.0
     dt /fs             :     1.5
     dumpstep(trj) /fs  :     100
Starting MD   4 with the settings:
     MD time /ps        :     0.2
     MD Temperature /K  :   500.0
     dt /fs             :     1.5
     dumpstep(trj) /fs  :     100
Starting MD   5 with the settings:
     MD time /ps        :     0.2
     MD Temperature /K  :   400.0
     dt /fs             :     1.5
     dumpstep(trj) /fs  :     100
Starting MD   6 with the settings:
     MD time /ps        :     0.2
     MD Temperature /K  :   500.0
     dt /fs             :     1.5
     dumpstep(trj) /fs  :     100
Starting MD   7 with the settings:
     MD time /ps        :     0.2
     MD Temperature /K  :   400.0
     dt /fs             :     1.5
     dumpstep(trj) /fs  :     100
Starting MD   8 with the settings:
     MD time /ps        :     0.2
     MD Temperature /K  :   500.0
     dt /fs             :     1.5
     dumpstep(trj) /fs  :     100
*MD 7 finished*
*MD 4 finished*
*MD 8 finished*
*MD 5 finished*
*MD 1 finished*
*MD 3 finished*
*MD 2 finished*
*MD 6 finished*
 Appending file crest_rotamers_2.xyz with new structures
 
 -------------------------------------------
 Ensemble optimization with tight thresholds
 -------------------------------------------
 Optimizing all 206 structures from file "crest_rotamers_2.xyz" ...
 1 2 3 4 5 6 7 8 9 10 11 12 13 14 15 16 17 18 19 20 21 22 23 24 25 26 27 28 29 30 31 32 33 34 35 36 37 38 39 40 41 42 43 44 45 46 47 48 49 50 51 52 53 54 55 56 57 58 59 60 61 62 63 64 65 66 67 68 69 70 71 72 73 74 75 76 77 78 79 80 81 82 83 84 85 86 87 88 89 90 91 92 93 94 95 96 97 98 99 100 101 102 103 104 105 106 107 108 109 110 111 112 113 114 115 116 117 118 119 120 121 122 123 124 125 126 127 128 129 130 131 132 133 134 135 136 137 138 139 140 141 142 143 144 145 146 147 148 149 150 151 152 153 154 155 156 157 158 159 160 161 162 163 164 165 166 167 168 169 170 171 172 173 174 175 176 177 178 179 180 181 182 183 184 185 186 187 188 189 190 191 192 193 194 195 196 197 198 199 200 201 202 203 204 205 206
 done.
 running RMSDs...
 done.
 E lowest :  -108.65668
 195 structures remain within     6.00 kcal/mol window
 
 
     ========================================
     |        Structure Crossing (GC)       |
     ========================================
 =============================
  # threads =          28
 =============================
 input  file name : crest_rotamers_4.xyz
number of atoms                :    70
number of points on xyz files  :   195
conformer energy window  /kcal :    6.00
CN per atom difference cut-off :  0.3000
RMSD threshold                 :  0.5000
max. # of generated structures : 25
 reading xyz file ...
 # in E window                195
 generating pairs ...       19109
  35.4 % done
 generated pairs           :       15795
 number of clash discarded :        3120
 average rmsd w.r.t input  : 3.09240
 sd of ensemble            : 0.82212
 number of new structures      :           5
 removed identical structures  :          45
 writing            5  TMPCONF* dirs ...
 --------------------------
 GC: loose pre-optimization
 --------------------------
 Starting optimization of generated structures
 5 jobs to do.
 1 2 3 4 5 
 done.
 Now appending opt.xyz file with new structures
 running RMSDs...
 done.
 E lowest :  -108.65664
 5 structures remain within    10.00 kcal/mol window
 --------------------------------------
 GC: optimization with tight thresholds
 --------------------------------------
 Optimizing all 5 structures from file "crest_rotamers_1.xyz" ...
 1 2 3 4 5
 done.
 running RMSDs...
 done.
 E lowest :  -108.65668
 
 
   ================================================
   |           Final Geometry Optimization        |
   ================================================
 ------------------------------------------------
 Ensemble optimization with very tight thresholds
 ------------------------------------------------
 Optimizing all 198 structures from file "crest_rotamers_5.xyz" ...
 1 2 3 4 5 6 7 8 9 10 11 12 13 14 15 16 17 18 19 20 21 22 23 24 25 26 27 28 29 30 31 32 33 34 35 36 37 38 39 40 41 42 43 44 45 46 47 48 49 50 51 52 53 54 55 56 57 58 59 60 61 62 63 64 65 66 67 68 69 70 71 72 73 74 75 76 77 78 79 80 81 82 83 84 85 86 87 88 89 90 91 92 93 94 95 96 97 98 99 100 101 102 103 104 105 106 107 108 109 110 111 112 113 114 115 116 117 118 119 120 121 122 123 124 125 126 127 128 129 130 131 132 133 134 135 136 137 138 139 140 141 142 143 144 145 146 147 148 149 150 151 152 153 154 155 156 157 158 159 160 161 162 163 164 165 166 167 168 169 170 171 172 173 174 175 176 177 178 179 180 181 182 183 184 185 186 187 188 189 190 191 192 193 194 195 196 197 198
 done.
 running RMSDs...
 done.
 E lowest :  -108.65668
 198 structures remain within     6.00 kcal/mol window
 
 input  file name : crest_rotamers_6.xyz
 output file name : crest_rotamers_7.xyz
 number of atoms                :   70
 number of points on xyz files  :   198
 RMSD threshold                 :   0.2500
 Bconst threshold               :   0.0100
 population threshold           :   0.0500
 conformer energy window  /kcal :   6.0000
 # fragment in coord            :     1
 # bonds in reference structure :    75
   => # of C=C bonds :    12
 number of reliable points      :   198
 reference state Etot :  -108.656676690000
 number of doubles removed by rot/RMSD         :           0
 total number unique points considered further :         198
       Erel/kcal        Etot weight/tot  conformer     set   degen     origin
       1   0.000  -108.65668    0.02001    0.02001       1       1     md1
       2   0.000  -108.65668    0.01999    0.01999       2       1     gc
       3   0.020  -108.65664    0.01934    0.09568       3       5     mtd11
       4   0.022  -108.65664    0.01928                                md5
       5   0.023  -108.65664    0.01925                                mtd11
       6   0.024  -108.65664    0.01920                                md4
       7   0.043  -108.65661    0.01861                                md7
       8   0.046  -108.65660    0.01851    0.03681       4       2     md8
       9   0.053  -108.65659    0.01829                                md8
      10   0.071  -108.65656    0.01776    0.01776       5       1     mtd9
      11   0.077  -108.65655    0.01756    0.01756       6       1     md6
      12   0.078  -108.65655    0.01755    0.01755       7       1     mtd5
      13   0.078  -108.65655    0.01753    0.01753       8       1     mtd2
      14   0.080  -108.65655    0.01749    0.01749       9       1     mtd8
      15   0.084  -108.65654    0.01735    0.03456      10       2     mtd1
      16   0.089  -108.65653    0.01721                                mtd9
      17   0.118  -108.65649    0.01639    0.01639      11       1     mtd12
      18   0.121  -108.65648    0.01631    0.01631      12       1     mtd12
      19   0.122  -108.65648    0.01628    0.03235      13       2     mtd10
      20   0.130  -108.65647    0.01607                                mtd5
      21   0.158  -108.65642    0.01532    0.01532      14       1     mtd11
      22   0.160  -108.65642    0.01528    0.01528      15       1     mtd11
      23   0.166  -108.65641    0.01511    0.01511      16       1     mtd1
      24   0.169  -108.65641    0.01505    0.01505      17       1     mtd6
      25   0.128  -108.65647    0.01612    0.01612      18       1     mtd12
      26   0.173  -108.65640    0.01494    0.01494      19       1     mtd6
      27   0.174  -108.65640    0.01492    0.01492      20       1     mtd13
      28   0.178  -108.65639    0.01481    0.01481      21       1     mtd3
      29   0.187  -108.65638    0.01461    0.01461      22       1     mtd8
      30   0.191  -108.65637    0.01451    0.01451      23       1     mtd13
      31   0.196  -108.65636    0.01437    0.01437      24       1     mtd1
      32   0.208  -108.65634    0.01408    0.02791      25       2     mtd2
      33   0.219  -108.65633    0.01383                                mtd2
      34   0.229  -108.65631    0.01359    0.01359      26       1     mtd13
      35   0.233  -108.65631    0.01350    0.01350      27       1     mtd4
      36   0.246  -108.65629    0.01322    0.01322      28       1     input
      37   0.280  -108.65623    0.01248    0.01248      29       1     mtd9
      38   0.280  -108.65623    0.01248    0.01248      30       1     mtd11
      39   0.303  -108.65619    0.01199    0.01199      31       1     mtd11
      40   0.326  -108.65616    0.01155    0.01155      32       1     mtd1
      41   0.389  -108.65606    0.01038    0.01038      33       1     mtd3
      42   0.419  -108.65601    0.00987    0.00987      34       1     mtd1
      43   0.437  -108.65598    0.00957    0.00957      35       1     mtd3
      44   0.471  -108.65593    0.00904    0.00904      36       1     mtd10
      45   0.499  -108.65588    0.00863    0.00863      37       1     mtd12
      46   0.592  -108.65573    0.00737    0.00737      38       1     mtd3
      47   0.851  -108.65532    0.00476    0.00476      39       1     hor
      48   0.856  -108.65531    0.00472    0.00940      40       2     hor
      49   0.861  -108.65530    0.00468                                hor
      50   0.900  -108.65524    0.00438    0.00438      41       1     hor
      51   0.903  -108.65524    0.00436    0.00436      42       1     hor
      52   0.920  -108.65521    0.00424    0.00845      43       2     hor
      53   0.923  -108.65521    0.00422                                hor
      54   0.925  -108.65520    0.00420    0.00420      44       1     hor
      55   0.927  -108.65520    0.00419    0.00419      45       1     hor
      56   0.935  -108.65519    0.00413    0.00413      46       1     hor
      57   0.942  -108.65518    0.00408    0.00408      47       1     hor
      58   0.946  -108.65517    0.00406    0.00406      48       1     hor
      59   0.947  -108.65517    0.00405    0.00405      49       1     hor
      60   0.953  -108.65516    0.00401    0.00401      50       1     hor
      61   0.962  -108.65514    0.00395    0.00788      51       2     mtd14
      62   0.966  -108.65514    0.00393                                mtd14
      63   0.973  -108.65513    0.00388    0.00388      52       1     hor
      64   0.975  -108.65512    0.00387    0.00387      53       1     hor
      65   0.977  -108.65512    0.00385    0.00385      54       1     hor
      66   0.979  -108.65512    0.00384    0.00764      55       2     hor
      67   0.985  -108.65511    0.00380                                hor
      68   0.986  -108.65511    0.00379    0.00379      56       1     hor
      69   1.000  -108.65508    0.00371    0.00371      57       1     gc
      70   1.002  -108.65508    0.00369    0.00369      58       1     hor
      71   0.980  -108.65511    0.00383    0.00383      59       1     hor
      72   1.007  -108.65507    0.00366    0.00366      60       1     hor
      73   1.009  -108.65507    0.00365    0.00365      61       1     hor
      74   1.014  -108.65506    0.00362    0.00362      62       1     hor
      75   1.017  -108.65506    0.00360    0.00714      63       2     hor
      76   1.027  -108.65504    0.00354                                hor
      77   1.028  -108.65504    0.00354    0.00705      64       2     hor
      78   1.032  -108.65503    0.00351                                hor
      79   1.021  -108.65505    0.00358    0.00358      65       1     hor
      80   1.040  -108.65502    0.00346    0.00346      66       1     hor
      81   1.047  -108.65501    0.00342    0.00342      67       1     hor
      82   1.049  -108.65501    0.00341    0.00341      68       1     hor
      83   1.058  -108.65499    0.00336    0.00336      69       1     hor
      84   1.064  -108.65498    0.00333    0.00333      70       1     hor
      85   1.069  -108.65497    0.00330    0.00330      71       1     hor
      86   1.074  -108.65496    0.00327    0.00327      72       1     hor
      87   1.075  -108.65496    0.00327    0.00327      73       1     hor
      88   1.079  -108.65496    0.00325    0.00325      74       1     hor
      89   1.083  -108.65495    0.00322    0.00322      75       1     gc
      90   1.095  -108.65493    0.00316    0.00316      76       1     hor
      91   1.095  -108.65493    0.00316    0.00316      77       1     hor
      92   1.098  -108.65493    0.00314    0.00314      78       1     hor
      93   1.106  -108.65491    0.00310    0.00310      79       1     hor
      94   1.109  -108.65491    0.00308    0.00308      80       1     hor
      95   1.126  -108.65488    0.00300    0.00300      81       1     hor
      96   1.129  -108.65488    0.00298    0.00298      82       1     hor
      97   1.130  -108.65488    0.00298    0.00298      83       1     hor
      98   1.137  -108.65486    0.00294    0.00294      84       1     hor
      99   1.159  -108.65483    0.00283    0.00283      85       1     hor
     100   1.167  -108.65482    0.00280    0.00280      86       1     hor
     101   1.172  -108.65481    0.00277    0.00277      87       1     hor
     102   1.187  -108.65478    0.00270    0.00270      88       1     hor
     103   1.193  -108.65478    0.00268    0.00534      89       2     hor
     104   1.196  -108.65477    0.00266                                hor
     105   1.199  -108.65477    0.00265    0.00265      90       1     hor
     106   1.194  -108.65477    0.00267    0.00267      91       1     hor
     107   1.204  -108.65476    0.00263    0.00263      92       1     hor
     108   1.204  -108.65476    0.00263    0.00522      93       2     hor
     109   1.210  -108.65475    0.00260                                hor
     110   1.212  -108.65474    0.00259    0.00259      94       1     hor
     111   1.224  -108.65473    0.00254    0.00254      95       1     hor
     112   1.229  -108.65472    0.00252    0.00252      96       1     hor
     113   1.266  -108.65466    0.00237    0.00237      97       1     gc
     114   1.274  -108.65465    0.00233    0.00233      98       1     mtd7
     115   1.278  -108.65464    0.00232    0.00232      99       1     mtd5
     116   1.320  -108.65457    0.00216    0.00216     100       1     mtd6
     117   1.330  -108.65456    0.00212    0.00212     101       1     mtd4
     118   1.364  -108.65450    0.00201    0.00201     102       1     mtd5
     119   1.369  -108.65450    0.00199    0.00199     103       1     mtd4
     120   1.379  -108.65448    0.00195    0.00390     104       2     mtd4
     121   1.382  -108.65447    0.00194                                mtd11
     122   1.395  -108.65445    0.00190    0.00190     105       1     mtd10
     123   1.401  -108.65444    0.00188    0.00375     106       2     mtd6
     124   1.406  -108.65444    0.00187                                mtd6
     125   1.419  -108.65442    0.00183    0.00183     107       1     mtd7
     126   1.423  -108.65441    0.00182    0.00182     108       1     mtd4
     127   1.437  -108.65439    0.00177    0.00177     109       1     mtd7
     128   1.447  -108.65437    0.00174    0.00174     110       1     mtd7
     129   1.460  -108.65435    0.00170    0.00170     111       1     mtd5
     130   1.471  -108.65433    0.00167    0.00167     112       1     mtd8
     131   1.487  -108.65431    0.00163    0.00163     113       1     mtd7
     132   1.500  -108.65429    0.00160    0.00160     114       1     mtd8
     133   1.509  -108.65427    0.00157    0.00157     115       1     mtd10
     134   1.514  -108.65426    0.00156    0.00156     116       1     mtd7
     135   1.568  -108.65418    0.00142    0.00142     117       1     mtd9
     136   1.573  -108.65417    0.00141    0.00141     118       1     mtd14
     137   1.575  -108.65417    0.00141    0.00141     119       1     mtd10
     138   1.623  -108.65409    0.00130    0.00130     120       1     mtd10
     139   1.695  -108.65398    0.00115    0.00115     121       1     hor
     140   1.774  -108.65385    0.00101    0.00101     122       1     hor
     141   1.815  -108.65378    0.00094    0.00094     123       1     gc
     142   1.890  -108.65366    0.00083    0.00083     124       1     hor
     143   1.894  -108.65366    0.00082    0.00082     125       1     hor
     144   1.896  -108.65366    0.00082    0.00082     126       1     hor
     145   1.899  -108.65365    0.00081    0.00081     127       1     hor
     146   1.911  -108.65363    0.00080    0.00080     128       1     hor
     147   1.917  -108.65362    0.00079    0.00158     129       2     hor
     148   1.918  -108.65362    0.00079                                hor
     149   1.931  -108.65360    0.00077    0.00153     130       2     hor
     150   1.938  -108.65359    0.00076                                hor
     151   1.959  -108.65355    0.00074    0.00074     131       1     hor
     152   1.960  -108.65355    0.00073    0.00073     132       1     hor
     153   1.961  -108.65355    0.00073    0.00073     133       1     hor
     154   1.980  -108.65352    0.00071    0.00071     134       1     hor
     155   1.997  -108.65349    0.00069    0.00069     135       1     hor
     156   2.010  -108.65347    0.00068    0.00068     136       1     hor
     157   2.011  -108.65347    0.00067    0.00067     137       1     hor
     158   2.045  -108.65342    0.00064    0.00064     138       1     hor
     159   2.092  -108.65334    0.00059    0.00059     139       1     hor
     160   2.111  -108.65331    0.00057    0.00057     140       1     hor
     161   2.118  -108.65330    0.00056    0.00056     141       1     hor
     162   2.144  -108.65326    0.00054    0.00054     142       1     hor
     163   2.185  -108.65320    0.00050    0.00050     143       1     hor
     164   2.341  -108.65295    0.00039    0.00039     144       1     hor
     165   2.359  -108.65292    0.00037    0.00037     145       1     mtd14
     166   2.393  -108.65286    0.00035    0.00035     146       1     hor
     167   2.401  -108.65285    0.00035    0.00035     147       1     hor
     168   2.403  -108.65285    0.00035    0.00035     148       1     hor
     169   2.407  -108.65284    0.00035    0.00068     149       2     hor
     170   2.425  -108.65281    0.00034                                hor
     171   2.412  -108.65283    0.00034    0.00034     150       1     hor
     172   2.426  -108.65281    0.00033    0.00033     151       1     hor
     173   2.433  -108.65280    0.00033    0.00033     152       1     hor
     174   2.466  -108.65275    0.00031    0.00031     153       1     hor
     175   2.471  -108.65274    0.00031    0.00031     154       1     hor
     176   2.471  -108.65274    0.00031    0.00031     155       1     hor
     177   2.480  -108.65273    0.00031    0.00031     156       1     hor
     178   2.499  -108.65269    0.00030    0.00030     157       1     hor
     179   2.503  -108.65269    0.00029    0.00029     158       1     hor
     180   2.508  -108.65268    0.00029    0.00029     159       1     hor
     181   2.528  -108.65265    0.00028    0.00028     160       1     hor
     182   2.538  -108.65263    0.00028    0.00028     161       1     hor
     183   2.542  -108.65263    0.00028    0.00028     162       1     hor
     184   2.599  -108.65254    0.00025    0.00025     163       1     hor
     185   2.612  -108.65251    0.00024    0.00024     164       1     hor
     186   2.632  -108.65248    0.00024    0.00024     165       1     hor
     187   2.717  -108.65235    0.00020    0.00020     166       1     hor
     188   2.788  -108.65223    0.00018    0.00018     167       1     mtd7
     189   2.970  -108.65194    0.00013    0.00013     168       1     mtd2
     190   2.987  -108.65192    0.00013    0.00013     169       1     mtd2
     191   3.043  -108.65183    0.00012    0.00012     170       1     mtd2
     192   3.198  -108.65158    0.00009    0.00009     171       1     hor
     193   3.204  -108.65157    0.00009    0.00009     172       1     hor
     194   3.288  -108.65144    0.00008    0.00016     173       2     hor
     195   3.290  -108.65143    0.00008                                hor
     196   3.348  -108.65134    0.00007    0.00007     174       1     hor
     197   3.404  -108.65125    0.00006    0.00006     175       1     hor
     198   3.539  -108.65104    0.00005    0.00005     176       1     hor
T /K                                  :   298.15
E lowest                              :  -108.65668
ensemble average energy (kcal)        :    0.466
ensemble entropy (J/mol K, cal/mol K) :   39.057    9.335
ensemble free energy (kcal/mol)       :   -2.783
population of lowest in %             :    2.001
 number of unique conformers for further calc          176
 list of relative energies saved as "crest.energies"
 
 -----------------
 Wall Time Summary
 -----------------
             test MD wall time :         0h : 0m :37s
                 MTD wall time :         0h : 1m :12s
      multilevel OPT wall time :         0h : 2m : 9s
                  MD wall time :         0h : 0m :31s
                  GC wall time :         0h : 0m : 4s
--------------------
Overall wall time  : 0h : 4m :47s
 
 CREST terminated normally.
