 
       ==============================================
       |                                            |
       |                 C R E S T                  |
       |                                            |
       |  Conformer-Rotamer Ensemble Sampling Tool  |
       |          based on the GFN methods          |
       |             P.Pracht, S.Grimme             |
       |          Universitaet Bonn, MCTC           |
       ==============================================
       Version 2.11.2, Fr 17. Dec 12:10:44 CEST 2021
  Using the xTB program. Compatible with xTB version 6.4.0
 
   Cite work conducted with this code as

   P. Pracht, F. Bohle, S. Grimme, PCCP, 2020, 22, 7169-7192.

   and  S. Grimme, JCTC, 2019, 15, 2847-2862.
 
   with help from:
   C.Bannwarth, F.Bohle, S.Ehlert, S.Grimme,
   C. Plett, P.Pracht, S. Spicher
 
   This program is distributed in the hope that it will be useful,
   but WITHOUT ANY WARRANTY; without even the implied warranty of
   MERCHANTABILITY or FITNESS FOR A PARTICULAR PURPOSE.

 Command line input:
 > crest 00233_r_0.xyz -T 28 -gfn2 -chrg 0 -uhf 0 -rthr 0.25 -shake 1 --mdlen 0.5

  -T 28 (CPUs/Threads selected)
  -gfn2 : Use of GFN2-xTB requested.
  -chrg 0
  -uhf 0
  -rthr 0.25
  --mdlen 0.5 (MD length in ps)
 
 -------------------------
 xTB Geometry Optimization
 -------------------------
 Geometry successfully optimized.
 
------------------------------------------------
Generating MTD length from a flexibility measure
------------------------------------------------
      -----------------------------------------------------------      
     |                   =====================                   |     
     |                           x T B                           |     
     |                   =====================                   |     
     |                         S. Grimme                         |     
     |          Mulliken Center for Theoretical Chemistry        |     
     |                    University of Bonn                     |     
      -----------------------------------------------------------      

   * xtb version 6.4.1 (afa7bdf) compiled by 'ehlert@majestix' on 2021-06-10

   xtb is free software: you can redistribute it and/or modify it under
   the terms of the GNU Lesser General Public License as published by
   the Free Software Foundation, either version 3 of the License, or
   (at your option) any later version.
   
   xtb is distributed in the hope that it will be useful,
   but WITHOUT ANY WARRANTY; without even the implied warranty of
   MERCHANTABILITY or FITNESS FOR A PARTICULAR PURPOSE.  See the
   GNU Lesser General Public License for more details.
   
   Cite this work as:
   * C. Bannwarth, E. Caldeweyher, S. Ehlert, A. Hansen, P. Pracht,
     J. Seibert, S. Spicher, S. Grimme, WIREs Comput. Mol. Sci., 2020, 11,
     e01493. DOI: 10.1002/wcms.1493
   
   for GFN2-xTB:
   * C. Bannwarth, S. Ehlert and S. Grimme., J. Chem. Theory Comput., 2019,
     15, 1652-1671. DOI: 10.1021/acs.jctc.8b01176
   for GFN1-xTB:
   * S. Grimme, C. Bannwarth, P. Shushkov, J. Chem. Theory Comput., 2017,
     13, 1989-2009. DOI: 10.1021/acs.jctc.7b00118
   for GFN0-xTB:
   * P. Pracht, E. Caldeweyher, S. Ehlert, S. Grimme, ChemRxiv, 2019, preprint.
     DOI: 10.26434/chemrxiv.8326202.v1
   for GFN-FF:
   * S. Spicher and S. Grimme, Angew. Chem. Int. Ed., 2020, 59, 15665-15673.
     DOI: 10.1002/anie.202004239
   
   for DFT-D4:
   * E. Caldeweyher, C. Bannwarth and S. Grimme, J. Chem. Phys., 2017,
     147, 034112. DOI: 10.1063/1.4993215
   * E. Caldeweyher, S. Ehlert, A. Hansen, H. Neugebauer, S. Spicher,
     C. Bannwarth and S. Grimme, J. Chem. Phys., 2019, 150, 154122.
     DOI: 10.1063/1.5090222
   * E. Caldeweyher, J.-M. Mewes, S. Ehlert and S. Grimme, Phys. Chem. Chem. Phys.
     2020, 22, 8499-8512. DOI: 10.1039/D0CP00502A
   
   for sTDA-xTB:
   * S. Grimme and C. Bannwarth, J. Chem. Phys., 2016, 145, 054103.
     DOI: 10.1063/1.4959605
   
   in the mass-spec context:
   * V. Asgeirsson, C. Bauer and S. Grimme, Chem. Sci., 2017, 8, 4879.
     DOI: 10.1039/c7sc00601b
   * J. Koopman and S. Grimme, ACS Omega 2019, 4, 12, 15120-15133.
     DOI: 10.1021/acsomega.9b02011
   
   for metadynamics refer to:
   * S. Grimme, J. Chem. Theory Comput., 2019, 155, 2847-2862
     DOI: 10.1021/acs.jctc.9b00143
   
   for SPH calculations refer to:
   * S. Spicher and S. Grimme, J. Chem. Theory Comput., 2021, 17, 1701-1714
     DOI: 10.1021/acs.jctc.0c01306
   
   with help from (in alphabetical order)
   P. Atkinson, C. Bannwarth, F. Bohle, G. Brandenburg, E. Caldeweyher
   M. Checinski, S. Dohm, S. Ehlert, S. Ehrlich, I. Gerasimov, J. Koopman
   C. Lavigne, S. Lehtola, F. März, M. Müller, F. Musil, H. Neugebauer
   J. Pisarek, C. Plett, P. Pracht, J. Seibert, P. Shushkov, S. Spicher
   M. Stahn, M. Steiner, T. Strunk, J. Stückrath, T. Rose, and J. Unsleber
   
 * started run on 2025/01/21 at 11:45:31.513     

           -------------------------------------------------
          |                Calculation Setup                |
           -------------------------------------------------

          program call               : xtb tmpcoord --gfn0 --sp
          hostname                   : node2
          coordinate file            : tmpcoord
          omp threads                :                    28
          number of atoms            :                    74
          number of electrons        :                   218
          charge                     :                     0
          spin                       :                   0.0
          first test random number   :      0.33069573487581

   ID    Z sym.   atoms
    1    8 o      1, 10, 14, 25, 33, 37
    2    6 c      2-9, 11-13, 15-24, 26-32, 34-36, 38-44
    3    1 h      45-74
########################################################################
[WARNING] Please study the warnings concerning your input carefully
-1- prog_main_parseArguments: The use of '--gfn0' is discouraged, please use '--gfn 0' next time
########################################################################

           -------------------------------------------------
          |                 G F N 0 - x T B                 |
           -------------------------------------------------

        Reference                      10.26434/chemrxiv.8326202.v1
      * Hamiltonian:
        H0-scaling (s, p, d)           2.000000    2.486800    2.270000
        zeta-weighting                 1.000000
      * Dispersion:
        s8                             2.850000
        a1                             0.800000
        a2                             4.600000
        s9                             0.000000
      * Repulsion:
        kExp                           1.500000
        rExp                           1.000000
      * Coulomb:
        alpha                          0.000000
        third order                    atomic
        anisotropic                    false
      * Polar bond correction:
        rad-shift                      0.053700
        strength                      -0.012900
        en-exp                         3.484700
        en-scale                       0.509700


          ...................................................
          :                      SETUP                      :
          :.................................................:
          :  # basis functions                 236          :
          :  # atomic orbitals                 236          :
          :  # shells                          148          :
          :  # electrons                       218          :
          :  electronic temp.          300.0000000     K    :
          :  accuracy                    1.0000000          :
          :  -> integral cutoff          0.2500000E+02      :
          :  -> integral neglect         0.1000000E-07      :
          ...................................................
  Checking positiv definite overlap ...  done.
 

         #    Occupation            Energy/Eh            Energy/eV
      -------------------------------------------------------------
         1        2.0000           -0.6949234             -18.9098
       ...           ...                  ...                  ...
       103        2.0000           -0.4165623             -11.3352
       104        2.0000           -0.4088803             -11.1262
       105        2.0000           -0.4059602             -11.0467
       106        2.0000           -0.3940198             -10.7218
       107        2.0000           -0.3914836             -10.6528
       108        2.0000           -0.3840148             -10.4496
       109        2.0000           -0.3824584             -10.4072 (HOMO)
       110                         -0.3005025              -8.1771 (LUMO)
       111                         -0.2991424              -8.1401
       112                         -0.2702708              -7.3544
       113                         -0.2697212              -7.3395
       114                         -0.2609154              -7.0999
       ...                                ...                  ...
       236                          0.6548118              17.8183
      -------------------------------------------------------------
                  HL-Gap            0.0819560 Eh            2.2301 eV
             Fermi-level            0.0000000 Eh            0.0000 eV

 EHT (total)                   0 d,  0 h,  0 min,  0.047 sec
 EHT setup                      ...        0 min,  0.001 sec (  2.517%)
 Coordination number            ...        0 min,  0.001 sec (  2.242%)
 EEQ model density              ...        0 min,  0.001 sec (  1.747%)
 D4 Dispersion                  ...        0 min,  0.003 sec (  5.713%)
 Integral evaluation            ...        0 min,  0.001 sec (  2.686%)
 Cholesky factorization         ...        0 min,  0.008 sec ( 16.480%)
 Zeroth order Hamiltonian       ...        0 min,  0.029 sec ( 61.061%)
 Gradient calculation           ...        0 min,  0.003 sec (  5.989%)

         :::::::::::::::::::::::::::::::::::::::::::::::::::::
         ::                     SUMMARY                     ::
         :::::::::::::::::::::::::::::::::::::::::::::::::::::
         :: total energy            -116.204334053329 Eh    ::
         :: gradient norm              0.057068679412 Eh/a0 ::
         :: HOMO-LUMO gap              2.230135891276 eV    ::
         ::.................................................::
         :: H0 energy               -117.683337593320 Eh    ::
         :: repulsion energy           1.825445200591 Eh    ::
         :: electrostat energy        -0.168586393546 Eh    ::
         :: -> Gsolv                   0.000000000000 Eh    ::
         ::    -> Gsasa                0.000000000000 Eh    ::
         ::    -> Gshift               0.000000000000 Eh    ::
         :: dispersion energy         -0.051119758016 Eh    ::
         :: short-range corr.         -0.126735509038 Eh    ::
         :: add. restraining           0.000000000000 Eh    ::
         :: total charge              -0.000000000000 e     ::
         :::::::::::::::::::::::::::::::::::::::::::::::::::::

           -------------------------------------------------
          |                Property Printout                |
           -------------------------------------------------

    * Orbital Energies and Occupations

         #    Occupation            Energy/Eh            Energy/eV
      -------------------------------------------------------------
         1        2.0000           -0.6949234             -18.9098
       ...           ...                  ...                  ...
        97        2.0000           -0.4438384             -12.0775
        98        2.0000           -0.4406507             -11.9907
        99        2.0000           -0.4377925             -11.9129
       100        2.0000           -0.4316342             -11.7454
       101        2.0000           -0.4284008             -11.6574
       102        2.0000           -0.4171918             -11.3524
       103        2.0000           -0.4165623             -11.3352
       104        2.0000           -0.4088803             -11.1262
       105        2.0000           -0.4059602             -11.0467
       106        2.0000           -0.3940198             -10.7218
       107        2.0000           -0.3914836             -10.6528
       108        2.0000           -0.3840148             -10.4496
       109        2.0000           -0.3824584             -10.4072 (HOMO)
       110                         -0.3005025              -8.1771 (LUMO)
       111                         -0.2991424              -8.1401
       112                         -0.2702708              -7.3544
       113                         -0.2697212              -7.3395
       114                         -0.2609154              -7.0999
       115                         -0.2604165              -7.0863
       116                         -0.2494414              -6.7876
       117                         -0.2488933              -6.7727
       118                         -0.2316739              -6.3042
       119                         -0.2288430              -6.2271
       120                         -0.1842702              -5.0142
       ...                                ...                  ...
       236                          0.6548118              17.8183
      -------------------------------------------------------------
                  HL-Gap            0.0819560 Eh            2.2301 eV
             Fermi-level            0.0000000 Eh            0.0000 eV

     #   Z          covCN         q      C6AA      α(0)
     1   8 o        1.660    -0.528    23.315     6.532
     2   6 c        2.851     0.227    24.524     8.091
     3   6 c        2.971    -0.042    30.583     9.043
     4   6 c        2.975     0.053    28.252     8.692
     5   6 c        2.922    -0.162    33.911     9.520
     6   6 c        2.919    -0.148    33.502     9.462
     7   6 c        2.868     0.181    25.454     8.244
     8   6 c        2.867     0.184    25.385     8.233
     9   6 c        2.927    -0.190    34.744     9.636
    10   8 o        1.704    -0.379    20.263     6.090
    11   6 c        3.702     0.114    21.083     6.642
    12   6 c        3.798    -0.233    28.137     7.645
    13   6 c        3.703     0.115    21.073     6.640
    14   8 o        1.704    -0.379    20.270     6.091
    15   6 c        2.924    -0.178    34.404     9.589
    16   6 c        2.985     0.071    27.830     8.627
    17   6 c        2.919    -0.129    32.976     9.387
    18   6 c        2.915    -0.085    31.749     9.211
    19   6 c        2.916    -0.088    31.827     9.222
    20   6 c        2.918    -0.113    32.530     9.323
    21   6 c        2.989     0.021    28.992     8.805
    22   6 c        2.976    -0.004    29.625     8.900
    23   6 c        2.976    -0.004    29.627     8.900
    24   6 c        2.850     0.226    24.556     8.096
    25   8 o        1.659    -0.531    23.383     6.541
    26   6 c        2.971    -0.042    30.578     9.042
    27   6 c        2.975     0.052    28.261     8.693
    28   6 c        2.921    -0.162    33.912     9.520
    29   6 c        2.922    -0.145    33.432     9.452
    30   6 c        2.854     0.187    25.340     8.224
    31   6 c        2.852     0.190    25.275     8.214
    32   6 c        2.929    -0.185    34.618     9.619
    33   8 o        1.706    -0.373    20.149     6.073
    34   6 c        3.689     0.103    21.310     6.683
    35   6 c        3.799    -0.246    28.475     7.691
    36   6 c        3.690     0.103    21.300     6.681
    37   8 o        1.705    -0.374    20.179     6.078
    38   6 c        2.925    -0.178    34.390     9.587
    39   6 c        2.985     0.071    27.820     8.625
    40   6 c        2.919    -0.129    32.967     9.386
    41   6 c        2.915    -0.085    31.740     9.209
    42   6 c        2.916    -0.087    31.813     9.220
    43   6 c        2.918    -0.112    32.493     9.318
    44   6 c        2.989     0.023    28.949     8.798
    45   1 h        0.805     0.300     0.721     1.333
    46   1 h        0.926     0.132     1.520     1.928
    47   1 h        0.926     0.135     1.494     1.911
    48   1 h        0.926     0.141     1.452     1.885
    49   1 h        0.924     0.066     2.125     2.280
    50   1 h        0.924     0.058     2.224     2.332
    51   1 h        0.925     0.098     1.799     2.097
    52   1 h        0.925     0.098     1.801     2.098
    53   1 h        0.924     0.059     2.214     2.327
    54   1 h        0.924     0.067     2.117     2.275
    55   1 h        0.926     0.122     1.595     1.975
    56   1 h        0.926     0.103     1.761     2.075
    57   1 h        0.926     0.096     1.820     2.110
    58   1 h        0.926     0.097     1.810     2.104
    59   1 h        0.926     0.114     1.662     2.016
    60   1 h        0.805     0.301     0.719     1.332
    61   1 h        0.926     0.123     1.588     1.970
    62   1 h        0.926     0.135     1.496     1.913
    63   1 h        0.926     0.146     1.417     1.861
    64   1 h        0.923     0.052     2.291     2.367
    65   1 h        0.924     0.066     2.132     2.284
    66   1 h        0.924     0.140     1.458     1.889
    67   1 h        0.924     0.082     1.955     2.186
    68   1 h        0.924     0.065     2.138     2.287
    69   1 h        0.923     0.051     2.303     2.373
    70   1 h        0.926     0.124     1.580     1.966
    71   1 h        0.926     0.104     1.752     2.070
    72   1 h        0.926     0.097     1.816     2.107
    73   1 h        0.926     0.098     1.804     2.100
    74   1 h        0.926     0.116     1.649     2.008

 Mol. C6AA /au·bohr⁶  :      73789.454209
 Mol. C8AA /au·bohr⁸  :    1855141.691760
 Mol. α(0) /au        :        428.730950


Wiberg/Mayer (AO) data.
largest (>0.10) Wiberg bond orders for each atom

 ---------------------------------------------------------------------------
     #   Z sym  total        # sym  WBO       # sym  WBO       # sym  WBO
 ---------------------------------------------------------------------------
     1   8 o    2.304 --     2 c    1.132    45 h    0.965
     2   6 c    3.940 --    22 c    1.414     3 c    1.213     1 o    1.132
     3   6 c    3.974 --    15 c    1.517     2 c    1.213     4 c    1.031
     4   6 c    3.974 --     9 c    1.384     5 c    1.372     3 c    1.031
     5   6 c    3.979 --     6 c    1.434     4 c    1.372    46 h    0.968
     6   6 c    3.981 --     5 c    1.434     7 c    1.382    47 h    0.967
     7   6 c    3.940 --     6 c    1.382     8 c    1.292    14 o    1.066
     8   6 c    3.943 --     9 c    1.392     7 c    1.292    10 o    1.064
     9   6 c    3.977 --     8 c    1.392     4 c    1.384    48 h    0.964
    10   8 o    2.261 --     8 c    1.064    11 c    0.969
    11   6 c    3.952 --    12 c    1.000    50 h    0.975    49 h    0.973
                            10 o    0.969
    12   6 c    3.988 --    13 c    1.000    11 c    1.000    51 h    0.975
                            52 h    0.975
    13   6 c    3.952 --    12 c    1.000    53 h    0.975    54 h    0.973
                            14 o    0.970
    14   8 o    2.258 --     7 c    1.066    13 c    0.970
    15   6 c    3.982 --     3 c    1.517    16 c    1.275    55 h    0.965
    16   6 c    3.978 --    17 c    1.279    15 c    1.275    21 c    1.239
    17   6 c    3.980 --    18 c    1.553    16 c    1.279    56 h    0.969
                            20 c    0.115
    18   6 c    3.975 --    17 c    1.553    19 c    1.317    57 h    0.973
    19   6 c    3.983 --    20 c    1.558    18 c    1.317    58 h    0.972
    20   6 c    3.987 --    19 c    1.558    21 c    1.271    59 h    0.966
                            17 c    0.115
    21   6 c    3.977 --    20 c    1.271    22 c    1.260    16 c    1.239
    22   6 c    3.966 --     2 c    1.414    21 c    1.260    23 c    0.995
    23   6 c    3.966 --    24 c    1.415    44 c    1.259    22 c    0.995
    24   6 c    3.940 --    23 c    1.415    26 c    1.214    25 o    1.131
    25   8 o    2.303 --    24 c    1.131    60 h    0.966
    26   6 c    3.974 --    38 c    1.516    24 c    1.214    27 c    1.030
    27   6 c    3.974 --    32 c    1.395    28 c    1.365    26 c    1.030
    28   6 c    3.980 --    29 c    1.446    27 c    1.365    61 h    0.968
    29   6 c    3.982 --    28 c    1.446    30 c    1.372    62 h    0.967
    30   6 c    3.939 --    29 c    1.372    31 c    1.299    37 o    1.062
    31   6 c    3.942 --    32 c    1.381    30 c    1.299    33 o    1.061
    32   6 c    3.977 --    27 c    1.395    31 c    1.381    63 h    0.964
    33   8 o    2.262 --    31 c    1.061    34 c    0.967
    34   6 c    3.951 --    35 c    1.003    65 h    0.974    64 h    0.968
                            33 o    0.967
    35   6 c    3.988 --    36 c    1.003    34 c    1.003    67 h    0.972
                            66 h    0.971
    36   6 c    3.951 --    35 c    1.003    68 h    0.974    69 h    0.968
                            37 o    0.967
    37   8 o    2.258 --    30 c    1.062    36 c    0.967
    38   6 c    3.982 --    26 c    1.516    39 c    1.275    70 h    0.965
    39   6 c    3.978 --    40 c    1.279    38 c    1.275    44 c    1.239
    40   6 c    3.980 --    41 c    1.553    39 c    1.279    71 h    0.969
                            43 c    0.115
    41   6 c    3.975 --    40 c    1.553    42 c    1.317    72 h    0.973
    42   6 c    3.982 --    43 c    1.558    41 c    1.317    73 h    0.972
    43   6 c    3.987 --    42 c    1.558    44 c    1.271    74 h    0.966
                            40 c    0.115
    44   6 c    3.977 --    43 c    1.271    23 c    1.259    39 c    1.239
    45   1 h    0.988 --     1 o    0.965
    46   1 h    0.981 --     5 c    0.968
    47   1 h    0.987 --     6 c    0.967
    48   1 h    0.984 --     9 c    0.964
    49   1 h    0.987 --    11 c    0.973
    50   1 h    1.001 --    11 c    0.975
    51   1 h    0.983 --    12 c    0.975
    52   1 h    0.983 --    12 c    0.975
    53   1 h    1.001 --    13 c    0.975
    54   1 h    0.987 --    13 c    0.973
    55   1 h    0.974 --    15 c    0.965
    56   1 h    0.978 --    17 c    0.969
    57   1 h    0.983 --    18 c    0.973
    58   1 h    0.984 --    19 c    0.972
    59   1 h    0.980 --    20 c    0.966
    60   1 h    0.987 --    25 o    0.966
    61   1 h    0.981 --    28 c    0.968
    62   1 h    0.989 --    29 c    0.967
    63   1 h    0.986 --    32 c    0.964
    64   1 h    0.986 --    34 c    0.968
    65   1 h    1.002 --    34 c    0.974
    66   1 h    0.993 --    35 c    0.971
    67   1 h    0.979 --    35 c    0.972
    68   1 h    1.002 --    36 c    0.974
    69   1 h    0.986 --    36 c    0.968
    70   1 h    0.974 --    38 c    0.965
    71   1 h    0.978 --    40 c    0.969
    72   1 h    0.983 --    41 c    0.973
    73   1 h    0.984 --    42 c    0.972
    74   1 h    0.980 --    43 c    0.966
 ---------------------------------------------------------------------------

Topologies differ in total number of bonds
Writing topology from bond orders to xtbtopo.mol

 dipole moment from electron density (au)
     X       Y       Z   
  -0.0107   3.4608   0.3763  total (Debye):    8.848


           -------------------------------------------------
          | TOTAL ENERGY             -116.204334053329 Eh   |
          | GRADIENT NORM               0.057068679412 Eh/α |
          | HOMO-LUMO GAP               2.230135891276 eV   |
           -------------------------------------------------

------------------------------------------------------------------------
 * finished run on 2025/01/21 at 11:45:31.618     
------------------------------------------------------------------------
 total:
 * wall-time:     0 d,  0 h,  0 min,  0.105 sec
 *  cpu-time:     0 d,  0 h,  0 min,  2.098 sec
 * ratio c/w:    19.964 speedup
 SCF:
 * wall-time:     0 d,  0 h,  0 min,  0.048 sec
 *  cpu-time:     0 d,  0 h,  0 min,  1.128 sec
 * ratio c/w:    23.738 speedup

 Calculating WBOs... done.
      -----------------------------------------------------------      
     |                   =====================                   |     
     |                           x T B                           |     
     |                   =====================                   |     
     |                         S. Grimme                         |     
     |          Mulliken Center for Theoretical Chemistry        |     
     |                    University of Bonn                     |     
      -----------------------------------------------------------      

   * xtb version 6.4.1 (afa7bdf) compiled by 'ehlert@majestix' on 2021-06-10

   xtb is free software: you can redistribute it and/or modify it under
   the terms of the GNU Lesser General Public License as published by
   the Free Software Foundation, either version 3 of the License, or
   (at your option) any later version.
   
   xtb is distributed in the hope that it will be useful,
   but WITHOUT ANY WARRANTY; without even the implied warranty of
   MERCHANTABILITY or FITNESS FOR A PARTICULAR PURPOSE.  See the
   GNU Lesser General Public License for more details.
   
   Cite this work as:
   * C. Bannwarth, E. Caldeweyher, S. Ehlert, A. Hansen, P. Pracht,
     J. Seibert, S. Spicher, S. Grimme, WIREs Comput. Mol. Sci., 2020, 11,
     e01493. DOI: 10.1002/wcms.1493
   
   for GFN2-xTB:
   * C. Bannwarth, S. Ehlert and S. Grimme., J. Chem. Theory Comput., 2019,
     15, 1652-1671. DOI: 10.1021/acs.jctc.8b01176
   for GFN1-xTB:
   * S. Grimme, C. Bannwarth, P. Shushkov, J. Chem. Theory Comput., 2017,
     13, 1989-2009. DOI: 10.1021/acs.jctc.7b00118
   for GFN0-xTB:
   * P. Pracht, E. Caldeweyher, S. Ehlert, S. Grimme, ChemRxiv, 2019, preprint.
     DOI: 10.26434/chemrxiv.8326202.v1
   for GFN-FF:
   * S. Spicher and S. Grimme, Angew. Chem. Int. Ed., 2020, 59, 15665-15673.
     DOI: 10.1002/anie.202004239
   
   for DFT-D4:
   * E. Caldeweyher, C. Bannwarth and S. Grimme, J. Chem. Phys., 2017,
     147, 034112. DOI: 10.1063/1.4993215
   * E. Caldeweyher, S. Ehlert, A. Hansen, H. Neugebauer, S. Spicher,
     C. Bannwarth and S. Grimme, J. Chem. Phys., 2019, 150, 154122.
     DOI: 10.1063/1.5090222
   * E. Caldeweyher, J.-M. Mewes, S. Ehlert and S. Grimme, Phys. Chem. Chem. Phys.
     2020, 22, 8499-8512. DOI: 10.1039/D0CP00502A
   
   for sTDA-xTB:
   * S. Grimme and C. Bannwarth, J. Chem. Phys., 2016, 145, 054103.
     DOI: 10.1063/1.4959605
   
   in the mass-spec context:
   * V. Asgeirsson, C. Bauer and S. Grimme, Chem. Sci., 2017, 8, 4879.
     DOI: 10.1039/c7sc00601b
   * J. Koopman and S. Grimme, ACS Omega 2019, 4, 12, 15120-15133.
     DOI: 10.1021/acsomega.9b02011
   
   for metadynamics refer to:
   * S. Grimme, J. Chem. Theory Comput., 2019, 155, 2847-2862
     DOI: 10.1021/acs.jctc.9b00143
   
   for SPH calculations refer to:
   * S. Spicher and S. Grimme, J. Chem. Theory Comput., 2021, 17, 1701-1714
     DOI: 10.1021/acs.jctc.0c01306
   
   with help from (in alphabetical order)
   P. Atkinson, C. Bannwarth, F. Bohle, G. Brandenburg, E. Caldeweyher
   M. Checinski, S. Dohm, S. Ehlert, S. Ehrlich, I. Gerasimov, J. Koopman
   C. Lavigne, S. Lehtola, F. März, M. Müller, F. Musil, H. Neugebauer
   J. Pisarek, C. Plett, P. Pracht, J. Seibert, P. Shushkov, S. Spicher
   M. Stahn, M. Steiner, T. Strunk, J. Stückrath, T. Rose, and J. Unsleber
   
 * started run on 2025/01/21 at 11:45:31.665     

           -------------------------------------------------
          |                Calculation Setup                |
           -------------------------------------------------

          program call               : xtb tmpcoord --gfnff --sp
          hostname                   : node2
          coordinate file            : tmpcoord
          omp threads                :                    28
          number of atoms            :                    74
          number of electrons        :                   218
          charge                     :                     0
          spin                       :                   0.0
          first test random number   :      0.14849432167691

   ID    Z sym.   atoms
    1    8 o      1, 10, 14, 25, 33, 37
    2    6 c      2-9, 11-13, 15-24, 26-32, 34-36, 38-44
    3    1 h      45-74
 
          ==================== Thresholds ====================
          CN  :   150.00000
          rep :   500.00000
          disp:  2500.00000
          HB1 :   250.00000
          HB2 :   450.00000
 
          Pauling EN used:
          Z : 1  EN :  2.20
          Z : 6  EN :  2.55
          Z : 8  EN :  3.44
          electric field strengths (au): 0.000
 
           ------------------------------------------------- 
          |           Force Field Initialization            |
           ------------------------------------------------- 
 
          distances ...
          ----------------------------------------
          generating topology and atomic info file ...
          pair mat ...
          computing topology distances matrix with Floyd-Warshall algo ...
          making topology EEQ charges ...
          #fragments for EEQ constrain: 1
          ----------------------------------------
          generating topology and atomic info file ...
          pair mat ...
          computing topology distances matrix with Floyd-Warshall algo ...
          making topology EEQ charges ...
          #fragments for EEQ constrain: 1
          rings ...
          # BATM   880
          # H in HB   18
          doing iterative Hueckel for 1 subsystem(s) ...
 
  atom   neighbors  erfCN metchar sp-hybrid imet pi  qest     coordinates
    1  o       2    1.92   0.00         3    0    1  -0.453    2.067909    0.649718    1.707384
    2  c       3    2.82   0.00         2    0    1   0.096    2.961484   -0.869441   -0.165452
    3  c       3    2.81   0.00         2    0    1  -0.018    5.371065   -0.461762   -1.268420
    4  c       3    2.82   0.00         2    0    1   0.004    6.941748    1.693446   -0.456813
    5  c       3    2.82   0.00         2    0    1  -0.031    5.999317    4.155067   -0.448815
    6  c       3    2.81   0.00         2    0    1   0.006    7.489746    6.125518    0.386435
    7  c       3    2.83   0.00         2    0    1   0.076    9.955197    5.725321    1.205355
    8  c       3    2.83   0.00         2    0    1   0.119   10.967895    3.281405    1.058873
    9  c       3    2.82   0.00         2    0    1  -0.028    9.432377    1.303945    0.271021
   10  o       2    1.92   0.00         3    0    1  -0.357   13.423061    2.666505    1.639667
   11  c       4    3.50   0.00         3    0    0   0.044   15.255529    4.526035    1.073129
   12  c       4    3.48   0.00         3    0    0  -0.010   15.552874    6.497366    3.170085
   13  c       4    3.50   0.00         3    0    0   0.082   12.944395    7.324372    4.108410
   14  o       2    1.92   0.00         3    0    1  -0.349   11.222605    7.799032    2.121665
   15  c       3    2.82   0.00         2    0    1  -0.022    6.234629   -2.111644   -3.074428
   16  c       3    2.83   0.00         2    0    1  -0.022    4.776257   -4.178173   -3.889125
   17  c       3    2.81   0.00         2    0    1  -0.008    5.644523   -5.870981   -5.756284
   18  c       3    2.81   0.00         2    0    1  -0.026    4.190056   -7.866855   -6.508471
   19  c       3    2.81   0.00         2    0    1  -0.042    1.800049   -8.257252   -5.424701
   20  c       3    2.81   0.00         2    0    1  -0.041    0.903284   -6.650769   -3.612946
   21  c       3    2.83   0.00         2    0    1   0.013    2.358556   -4.570615   -2.796162
   22  c       3    2.82   0.00         2    0    1   0.017    1.490428   -2.886159   -0.915218
   23  c       3    2.82   0.00         2    0    1   0.017   -1.018822   -3.241994    0.278751
   24  c       3    2.82   0.00         2    0    1   0.096   -3.060653   -1.929691   -0.669901
   25  o       2    1.92   0.00         3    0    1  -0.453   -2.670203   -0.356412   -2.668411
   26  c       3    2.81   0.00         2    0    1  -0.018   -5.484515   -2.197895    0.443065
   27  c       3    2.82   0.00         2    0    1   0.004   -7.683352   -0.847747   -0.611859
   28  c       3    2.82   0.00         2    0    1  -0.031   -8.311565   -1.029091   -3.165437
   29  c       3    2.82   0.00         2    0    1   0.006  -10.400648    0.230260   -4.074985
   30  c       3    2.82   0.00         2    0    1   0.076  -11.950627    1.694534   -2.524920
   31  c       3    2.82   0.00         2    0    1   0.119  -11.339747    1.881666    0.047538
   32  c       3    2.82   0.00         2    0    1  -0.028   -9.211561    0.611197    0.936442
   33  o       2    1.92   0.00         3    0    1  -0.357  -12.705792    3.061314    1.913956
   34  c       4    3.49   0.00         3    0    0   0.044  -13.851181    5.418837    1.464990
   35  c       4    3.48   0.00         3    0    0  -0.010  -15.979714    5.352158   -0.477846
   36  c       4    3.49   0.00         3    0    0   0.082  -14.932097    5.086897   -3.150187
   37  o       2    1.92   0.00         3    0    1  -0.349  -14.042759    2.648750   -3.731906
   38  c       3    2.82   0.00         2    0    1  -0.022   -5.767187   -3.736501    2.512283
   39  c       3    2.83   0.00         2    0    1  -0.022   -3.724788   -5.103146    3.523441
   40  c       3    2.81   0.00         2    0    1  -0.008   -4.007310   -6.711431    5.630416
   41  c       3    2.81   0.00         2    0    1  -0.026   -1.993570   -8.028561    6.565748
   42  c       3    2.81   0.00         2    0    1  -0.042    0.393517   -7.795877    5.431658
   43  c       3    2.81   0.00         2    0    1  -0.041    0.730360   -6.253033    3.388632
   44  c       3    2.83   0.00         2    0    1   0.013   -1.310574   -4.864568    2.379675
   45  h       1    0.97   0.00         0    0    0   0.253    3.306130    1.942175    2.076582
   46  h       1    0.97   0.00         0    0    0   0.070    4.113576    4.536358   -1.132814
   47  h       1    0.97   0.00         0    0    0   0.040    6.771191    8.032305    0.445871
   48  h       1    0.97   0.00         0    0    0   0.074   10.239138   -0.568025    0.233722
   49  h       1    0.97   0.00         0    0    0   0.059   14.761103    5.468935   -0.707208
   50  h       1    0.97   0.00         0    0    0   0.059   17.025321    3.494575    0.802358
   51  h       1    0.97   0.00         0    0    0   0.037   16.593309    8.106311    2.413399
   52  h       1    0.97   0.00         0    0    0   0.037   16.601617    5.711836    4.759822
   53  h       1    0.97   0.00         0    0    0   0.030   13.087713    9.100749    5.153843
   54  h       1    0.97   0.00         0    0    0   0.030   12.165495    5.875708    5.372344
   55  h       1    0.97   0.00         0    0    0   0.063    8.065554   -1.797952   -3.923176
   56  h       1    0.97   0.00         0    0    0   0.045    7.487082   -5.555764   -6.580252
   57  h       1    0.97   0.00         0    0    0   0.049    4.865937   -9.157022   -7.939144
   58  h       1    0.97   0.00         0    0    0   0.060    0.672906   -9.845479   -6.037852
   59  h       1    0.97   0.00         0    0    0   0.045   -0.933107   -6.950620   -2.773677
   60  h       1    0.97   0.00         0    0    0   0.253   -4.237413    0.488193   -3.079515
   61  h       1    0.97   0.00         0    0    0   0.070   -7.216849   -2.208189   -4.422775
   62  h       1    0.97   0.00         0    0    0   0.040  -10.935971    0.076584   -6.036695
   63  h       1    0.97   0.00         0    0    0   0.074   -8.789066    0.782404    2.924317
   64  h       1    0.97   0.01         0    0    0   0.059  -12.418803    6.810756    0.878664
   65  h       1    0.97   0.00         0    0    0   0.059  -14.589743    5.972609    3.313263
   66  h       1    0.97   0.00         0    0    0   0.037  -17.232383    3.764196   -0.071308
   67  h       1    0.97   0.00         0    0    0   0.037  -17.059380    7.102445   -0.349930
   68  h       1    0.97   0.00         0    0    0   0.030  -16.424964    5.417498   -4.539438
   69  h       1    0.97   0.01         0    0    0   0.030  -13.423599    6.489931   -3.449357
   70  h       1    0.97   0.00         0    0    0   0.063   -7.613245   -3.940164    3.361496
   71  h       1    0.97   0.00         0    0    0   0.045   -5.852864   -6.880607    6.489655
   72  h       1    0.97   0.00         0    0    0   0.049   -2.221994   -9.257249    8.180210
   73  h       1    0.97   0.00         0    0    0   0.060    1.967351   -8.851954    6.191049
   74  h       1    0.97   0.00         0    0    0   0.045    2.565384   -6.073347    2.513127
 
          #atoms :   74
          #bonds :   81
          #angl  :   138
          #tors  :   244
          #nmol  :   1
          #optfrag :   1
           ------------------------------------------------- 
          |                   G F N - F F                   |
          |          A general generic force-field          |
          |                  Version 1.0.3                  | 
           ------------------------------------------------- 
          nhb123   5194 472 0

 E+G (total)                   0 d,  0 h,  0 min,  0.004 sec
 distance/D3 list               ...        0 min,  0.000 sec (  1.013%)
 non bonded repulsion           ...        0 min,  0.000 sec (  9.330%)
 dCN                            ...        0 min,  0.000 sec (  5.315%)
 EEQ energy and q               ...        0 min,  0.000 sec (  8.954%)
 D3                             ...        0 min,  0.000 sec ( 12.612%)
 EEQ gradient                   ...        0 min,  0.000 sec (  8.183%)
 bonds                          ...        0 min,  0.000 sec ( 11.892%)
 bend and torsion               ...        0 min,  0.000 sec ( 11.873%)
 bonded ATM                     ...        0 min,  0.000 sec (  1.874%)
 HB/XB (incl list setup)        ...        0 min,  0.001 sec ( 23.179%)

         :::::::::::::::::::::::::::::::::::::::::::::::::::::
         ::                     SUMMARY                     ::
         :::::::::::::::::::::::::::::::::::::::::::::::::::::
         :: total energy             -14.828386937269 Eh    ::
         :: gradient norm              0.080121164539 Eh/a0 ::
         ::.................................................::
         :: bond energy              -15.553475669406 Eh    ::
         :: angle energy               0.032579660347 Eh    ::
         :: torsion energy             0.033222116947 Eh    ::
         :: repulsion energy           1.063366233321 Eh    ::
         :: electrostat energy        -0.306687913090 Eh    ::
         :: dispersion energy         -0.074428699261 Eh    ::
         :: HB energy                 -0.001405029710 Eh    ::
         :: XB energy                  0.000000000000 Eh    ::
         :: bonded atm energy         -0.021557636417 Eh    ::
         :: external energy            0.000000000000 Eh    ::
         :: add. restraining           0.000000000000 Eh    ::
         :: total charge               0.000000000000 e     ::
         :::::::::::::::::::::::::::::::::::::::::::::::::::::

           -------------------------------------------------
          |                Property Printout                |
           -------------------------------------------------

           -------------------------------------------------
          | TOTAL ENERGY              -14.828386937269 Eh   |
          | GRADIENT NORM               0.080121164539 Eh/α |
           -------------------------------------------------

------------------------------------------------------------------------
 * finished run on 2025/01/21 at 11:45:31.723     
------------------------------------------------------------------------
 total:
 * wall-time:     0 d,  0 h,  0 min,  0.058 sec
 *  cpu-time:     0 d,  0 h,  0 min,  0.889 sec
 * ratio c/w:    15.369 speedup
 SCF:
 * wall-time:     0 d,  0 h,  0 min,  0.006 sec
 *  cpu-time:     0 d,  0 h,  0 min,  0.142 sec
 * ratio c/w:    22.965 speedup

 Calculating NCI flexibility... done.
     covalent flexibility measure :   0.070
 non-covalent flexibility measure :   1.000
 flexibility measure :   0.167
 t(MTD) / ps set by command line  :     0.5
 t(MTD) / ps    :     0.5
 Σ(t(MTD)) / ps :     7.0 (14 MTDs)
 
-------------------------------------
Starting a trial MTD to test settings
-------------------------------------
 Estimated runtime for one MTD (0.5 ps) on a single thread: 2 min 57 sec
 Estimated runtime for a batch of 14 MTDs on 28 threads: 1 min 29 sec
 
 list of Vbias parameters applied:
$metadyn    0.00300   1.300
$metadyn    0.00150   1.300
$metadyn    0.00075   1.300
$metadyn    0.00300   0.780
$metadyn    0.00150   0.780
$metadyn    0.00075   0.780
$metadyn    0.00300   0.468
$metadyn    0.00150   0.468
$metadyn    0.00075   0.468
$metadyn    0.00300   0.281
$metadyn    0.00150   0.281
$metadyn    0.00075   0.281
$metadyn    0.00100   0.100
$metadyn    0.00500   0.800
 
*******************************************************************************************
**                        N E W    I T E R A T I O N    C Y C L E                        **
*******************************************************************************************
 
========================================
            MTD Iteration  1
========================================
 
     ========================================
     |         Meta-MD (MTD) Sampling       |
     ========================================
 
Starting Meta-MD   6 with the settings:
     MD time /ps        :     0.5
     dt /fs             :     1.5
     dumpstep(trj) /fs  :     100
     dumpstep(Vbias)/ps :     1.0
     Vbias factor k /Eh :  0.0555
     Vbias exp α /bohr⁻²:    0.78
Starting Meta-MD   2 with the settings:
     MD time /ps        :     0.5
     dt /fs             :     1.5
     dumpstep(trj) /fs  :     100
     dumpstep(Vbias)/ps :     1.0
     Vbias factor k /Eh :  0.1110
     Vbias exp α /bohr⁻²:    1.30
Starting Meta-MD   4 with the settings:
     MD time /ps        :     0.5
     dt /fs             :     1.5
     dumpstep(trj) /fs  :     100
     dumpstep(Vbias)/ps :     1.0
     Vbias factor k /Eh :  0.2220
     Vbias exp α /bohr⁻²:    0.78
Starting Meta-MD   5 with the settings:
     MD time /ps        :     0.5
     dt /fs             :     1.5
     dumpstep(trj) /fs  :     100
     dumpstep(Vbias)/ps :     1.0
     Vbias factor k /Eh :  0.1110
     Vbias exp α /bohr⁻²:    0.78
Starting Meta-MD   3 with the settings:
     MD time /ps        :     0.5
     dt /fs             :     1.5
     dumpstep(trj) /fs  :     100
     dumpstep(Vbias)/ps :     1.0
     Vbias factor k /Eh :  0.0555
     Vbias exp α /bohr⁻²:    1.30
Starting Meta-MD  14 with the settings:
     MD time /ps        :     0.5
     dt /fs             :     1.5
     dumpstep(trj) /fs  :     100
     dumpstep(Vbias)/ps :     1.0
     Vbias factor k /Eh :  0.3700
     Vbias exp α /bohr⁻²:    0.80
Starting Meta-MD   7 with the settings:
     MD time /ps        :     0.5
     dt /fs             :     1.5
     dumpstep(trj) /fs  :     100
     dumpstep(Vbias)/ps :     1.0
     Vbias factor k /Eh :  0.2220
     Vbias exp α /bohr⁻²:    0.47
Starting Meta-MD   8 with the settings:
     MD time /ps        :     0.5
     dt /fs             :     1.5
     dumpstep(trj) /fs  :     100
     dumpstep(Vbias)/ps :     1.0
     Vbias factor k /Eh :  0.1110
     Vbias exp α /bohr⁻²:    0.47
Starting Meta-MD   9 with the settings:
     MD time /ps        :     0.5
     dt /fs             :     1.5
     dumpstep(trj) /fs  :     100
     dumpstep(Vbias)/ps :     1.0
     Vbias factor k /Eh :  0.0555
     Vbias exp α /bohr⁻²:    0.47
Starting Meta-MD  10 with the settings:
     MD time /ps        :     0.5
     dt /fs             :     1.5
     dumpstep(trj) /fs  :     100
     dumpstep(Vbias)/ps :     1.0
     Vbias factor k /Eh :  0.2220
     Vbias exp α /bohr⁻²:    0.28
Starting Meta-MD  11 with the settings:
     MD time /ps        :     0.5
     dt /fs             :     1.5
     dumpstep(trj) /fs  :     100
     dumpstep(Vbias)/ps :     1.0
     Vbias factor k /Eh :  0.1110
     Vbias exp α /bohr⁻²:    0.28
Starting Meta-MD   1 with the settings:
     MD time /ps        :     0.5
     dt /fs             :     1.5
     dumpstep(trj) /fs  :     100
     dumpstep(Vbias)/ps :     1.0
     Vbias factor k /Eh :  0.2220
     Vbias exp α /bohr⁻²:    1.30
Starting Meta-MD  12 with the settings:
     MD time /ps        :     0.5
     dt /fs             :     1.5
     dumpstep(trj) /fs  :     100
     dumpstep(Vbias)/ps :     1.0
     Vbias factor k /Eh :  0.0555
     Vbias exp α /bohr⁻²:    0.28
Starting Meta-MD  13 with the settings:
     MD time /ps        :     0.5
     dt /fs             :     1.5
     dumpstep(trj) /fs  :     100
     dumpstep(Vbias)/ps :     1.0
     Vbias factor k /Eh :  0.0740
     Vbias exp α /bohr⁻²:    0.10
*Meta-MTD 14 finished*
*Meta-MTD 8 finished*
*Meta-MTD 4 finished*
*Meta-MTD 13 finished*
*Meta-MTD 5 finished*
*Meta-MTD 6 finished*
*Meta-MTD 7 finished*
*Meta-MTD 9 finished*
*Meta-MTD 2 finished*
*Meta-MTD 12 finished*
*Meta-MTD 3 finished*
*Meta-MTD 11 finished*
*Meta-MTD 1 finished*
*Meta-MTD 10 finished*
 
-----------------------
Multilevel Optimization
-----------------------
 
 -------------------------
 1. crude pre-optimization
 -------------------------
 Optimizing all 70 structures from file "crest_rotamers_0.xyz" ...
 1 2 3 4 5 6 7 8 9 10 11 12 13 14 15 16 17 18 19 20 21 22 23 24 25 26 27 28 29 30 31 32 33 34 35 36 37 38 39 40 41 42 43 44 45 46 47 48 49 50 51 52 53 54 55 56 57 58 59 60 61 62 63 64 65 66 67 68 69 70
 done.
 running RMSDs...
 done.
 E lowest :  -121.10818
 58 structures remain within    12.00 kcal/mol window
 
 -------------------------------------
 2. optimization with tight thresholds
 -------------------------------------
 Optimizing all 59 structures from file "crest_rotamers_1.xyz" ...
 1 2 3 4 5 6 7 8 9 10 11 12 13 14 15 16 17 18 19 20 21 22 23 24 25 26 27 28 29 30 31 32 33 34 35 36 37 38 39 40 41 42 43 44 45 46 47 48 49 50 51 52 53 54 55 56 57 58 59
 done.
 running RMSDs...
 done.
 E lowest :  -121.11084
 31 structures remain within     6.00 kcal/mol window
 
 
========================================
            MTD Iteration  2
========================================
 
     ========================================
     |         Meta-MD (MTD) Sampling       |
     ========================================
 
Starting Meta-MD   1 with the settings:
     MD time /ps        :     0.5
     dt /fs             :     1.5
     dumpstep(trj) /fs  :     100
     dumpstep(Vbias)/ps :     1.0
     Vbias factor k /Eh :  0.2220
     Vbias exp α /bohr⁻²:    1.30
Starting Meta-MD   2 with the settings:
     MD time /ps        :     0.5
     dt /fs             :     1.5
     dumpstep(trj) /fs  :     100
     dumpstep(Vbias)/ps :     1.0
     Vbias factor k /Eh :  0.1110
     Vbias exp α /bohr⁻²:    1.30
Starting Meta-MD   3 with the settings:
     MD time /ps        :     0.5
     dt /fs             :     1.5
     dumpstep(trj) /fs  :     100
     dumpstep(Vbias)/ps :     1.0
     Vbias factor k /Eh :  0.0555
     Vbias exp α /bohr⁻²:    1.30
Starting Meta-MD   4 with the settings:
     MD time /ps        :     0.5
     dt /fs             :     1.5
     dumpstep(trj) /fs  :     100
     dumpstep(Vbias)/ps :     1.0
     Vbias factor k /Eh :  0.2220
     Vbias exp α /bohr⁻²:    0.78
Starting Meta-MD   5 with the settings:
     MD time /ps        :     0.5
     dt /fs             :     1.5
     dumpstep(trj) /fs  :     100
     dumpstep(Vbias)/ps :     1.0
     Vbias factor k /Eh :  0.1110
     Vbias exp α /bohr⁻²:    0.78
Starting Meta-MD   6 with the settings:
     MD time /ps        :     0.5
     dt /fs             :     1.5
     dumpstep(trj) /fs  :     100
     dumpstep(Vbias)/ps :     1.0
     Vbias factor k /Eh :  0.0555
     Vbias exp α /bohr⁻²:    0.78
Starting Meta-MD   7 with the settings:
     MD time /ps        :     0.5
     dt /fs             :     1.5
     dumpstep(trj) /fs  :     100
     dumpstep(Vbias)/ps :     1.0
     Vbias factor k /Eh :  0.2220
     Vbias exp α /bohr⁻²:    0.47
Starting Meta-MD   8 with the settings:
     MD time /ps        :     0.5
     dt /fs             :     1.5
     dumpstep(trj) /fs  :     100
     dumpstep(Vbias)/ps :     1.0
     Vbias factor k /Eh :  0.1110
     Vbias exp α /bohr⁻²:    0.47
Starting Meta-MD   9 with the settings:
     MD time /ps        :     0.5
     dt /fs             :     1.5
     dumpstep(trj) /fs  :     100
     dumpstep(Vbias)/ps :     1.0
     Vbias factor k /Eh :  0.0555
     Vbias exp α /bohr⁻²:    0.47
Starting Meta-MD  10 with the settings:
     MD time /ps        :     0.5
     dt /fs             :     1.5
     dumpstep(trj) /fs  :     100
     dumpstep(Vbias)/ps :     1.0
     Vbias factor k /Eh :  0.2220
     Vbias exp α /bohr⁻²:    0.28
Starting Meta-MD  11 with the settings:
     MD time /ps        :     0.5
     dt /fs             :     1.5
     dumpstep(trj) /fs  :     100
     dumpstep(Vbias)/ps :     1.0
     Vbias factor k /Eh :  0.1110
     Vbias exp α /bohr⁻²:    0.28
Starting Meta-MD  12 with the settings:
     MD time /ps        :     0.5
     dt /fs             :     1.5
     dumpstep(trj) /fs  :     100
     dumpstep(Vbias)/ps :     1.0
     Vbias factor k /Eh :  0.0555
     Vbias exp α /bohr⁻²:    0.28
*Meta-MTD 9 finished*
*Meta-MTD 12 finished*
*Meta-MTD 7 finished*
*Meta-MTD 5 finished*
*Meta-MTD 2 finished*
*Meta-MTD 10 finished*
*Meta-MTD 3 finished*
*Meta-MTD 11 finished*
*Meta-MTD 4 finished*
*Meta-MTD 6 finished*
*Meta-MTD 1 finished*
*Meta-MTD 8 finished*
 
-----------------------
Multilevel Optimization
-----------------------
 
 -------------------------
 1. crude pre-optimization
 -------------------------
 Optimizing all 60 structures from file "crest_rotamers_0.xyz" ...
 1 2 3 4 5 6 7 8 9 10 11 12 13 14 15 16 17 18 19 20 21 22 23 24 25 26 27 28 29 30 31 32 33 34 35 36 37 38 39 40 41 42 43 44 45 46 47 48 49 50 51 52 53 54 55 56 57 58 59 60
 done.
 running RMSDs...
 done.
 E lowest :  -121.11032
 54 structures remain within    12.00 kcal/mol window
 
 -------------------------------------
 2. optimization with tight thresholds
 -------------------------------------
 Optimizing all 55 structures from file "crest_rotamers_1.xyz" ...
 1 2 3 4 5 6 7 8 9 10 11 12 13 14 15 16 17 18 19 20 21 22 23 24 25 26 27 28 29 30 31 32 33 34 35 36 37 38 39 40 41 42 43 44 45 46 47 48 49 50 51 52 53 54 55
 done.
 running RMSDs...
 done.
 E lowest :  -121.11099
 32 structures remain within     6.00 kcal/mol window
 
 ...............................................
 A new lower conformer was found!
 Improved by    0.00016 Eh or    0.09924kcal/mol
 ...............................................
 
========================================
            MTD Iteration  3
========================================
 
     ========================================
     |         Meta-MD (MTD) Sampling       |
     ========================================
 
Starting Meta-MD   1 with the settings:
     MD time /ps        :     0.5
     dt /fs             :     1.5
     dumpstep(trj) /fs  :     100
     dumpstep(Vbias)/ps :     1.0
     Vbias factor k /Eh :  0.2220
     Vbias exp α /bohr⁻²:    1.30
Starting Meta-MD   2 with the settings:
     MD time /ps        :     0.5
     dt /fs             :     1.5
     dumpstep(trj) /fs  :     100
     dumpstep(Vbias)/ps :     1.0
     Vbias factor k /Eh :  0.1110
     Vbias exp α /bohr⁻²:    1.30
Starting Meta-MD   3 with the settings:
     MD time /ps        :     0.5
     dt /fs             :     1.5
     dumpstep(trj) /fs  :     100
     dumpstep(Vbias)/ps :     1.0
     Vbias factor k /Eh :  0.0555
     Vbias exp α /bohr⁻²:    1.30
Starting Meta-MD   4 with the settings:
     MD time /ps        :     0.5
     dt /fs             :     1.5
     dumpstep(trj) /fs  :     100
     dumpstep(Vbias)/ps :     1.0
     Vbias factor k /Eh :  0.2220
     Vbias exp α /bohr⁻²:    0.78
Starting Meta-MD   5 with the settings:
     MD time /ps        :     0.5
     dt /fs             :     1.5
     dumpstep(trj) /fs  :     100
     dumpstep(Vbias)/ps :     1.0
     Vbias factor k /Eh :  0.1110
     Vbias exp α /bohr⁻²:    0.78
Starting Meta-MD   6 with the settings:
     MD time /ps        :     0.5
     dt /fs             :     1.5
     dumpstep(trj) /fs  :     100
     dumpstep(Vbias)/ps :     1.0
     Vbias factor k /Eh :  0.0555
     Vbias exp α /bohr⁻²:    0.78
Starting Meta-MD   7 with the settings:
     MD time /ps        :     0.5
     dt /fs             :     1.5
     dumpstep(trj) /fs  :     100
     dumpstep(Vbias)/ps :     1.0
     Vbias factor k /Eh :  0.2220
     Vbias exp α /bohr⁻²:    0.47
Starting Meta-MD   8 with the settings:
     MD time /ps        :     0.5
     dt /fs             :     1.5
     dumpstep(trj) /fs  :     100
     dumpstep(Vbias)/ps :     1.0
     Vbias factor k /Eh :  0.1110
     Vbias exp α /bohr⁻²:    0.47
Starting Meta-MD   9 with the settings:
     MD time /ps        :     0.5
     dt /fs             :     1.5
     dumpstep(trj) /fs  :     100
     dumpstep(Vbias)/ps :     1.0
     Vbias factor k /Eh :  0.0555
     Vbias exp α /bohr⁻²:    0.47
Starting Meta-MD  10 with the settings:
     MD time /ps        :     0.5
     dt /fs             :     1.5
     dumpstep(trj) /fs  :     100
     dumpstep(Vbias)/ps :     1.0
     Vbias factor k /Eh :  0.2220
     Vbias exp α /bohr⁻²:    0.28
Starting Meta-MD  11 with the settings:
     MD time /ps        :     0.5
     dt /fs             :     1.5
     dumpstep(trj) /fs  :     100
     dumpstep(Vbias)/ps :     1.0
     Vbias factor k /Eh :  0.1110
     Vbias exp α /bohr⁻²:    0.28
Starting Meta-MD  12 with the settings:
     MD time /ps        :     0.5
     dt /fs             :     1.5
     dumpstep(trj) /fs  :     100
     dumpstep(Vbias)/ps :     1.0
     Vbias factor k /Eh :  0.0555
     Vbias exp α /bohr⁻²:    0.28
*Meta-MTD 12 finished*
*Meta-MTD 7 finished*
*Meta-MTD 3 finished*
*Meta-MTD 6 finished*
*Meta-MTD 2 finished*
*Meta-MTD 4 finished*
*Meta-MTD 9 finished*
*Meta-MTD 8 finished*
*Meta-MTD 11 finished*
*Meta-MTD 1 finished*
*Meta-MTD 5 finished*
*Meta-MTD 10 finished*
 
-----------------------
Multilevel Optimization
-----------------------
 
 -------------------------
 1. crude pre-optimization
 -------------------------
 Optimizing all 60 structures from file "crest_rotamers_0.xyz" ...
 1 2 3 4 5 6 7 8 9 10 11 12 13 14 15 16 17 18 19 20 21 22 23 24 25 26 27 28 29 30 31 32 33 34 35 36 37 38 39 40 41 42 43 44 45 46 47 48 49 50 51 52 53 54 55 56 57 58 59 60
 done.
 running RMSDs...
 done.
 E lowest :  -121.11031
 52 structures remain within    12.00 kcal/mol window
 
 -------------------------------------
 2. optimization with tight thresholds
 -------------------------------------
 Optimizing all 53 structures from file "crest_rotamers_1.xyz" ...
 1 2 3 4 5 6 7 8 9 10 11 12 13 14 15 16 17 18 19 20 21 22 23 24 25 26 27 28 29 30 31 32 33 34 35 36 37 38 39 40 41 42 43 44 45 46 47 48 49 50 51 52 53
 done.
 running RMSDs...
 done.
 E lowest :  -121.11123
 31 structures remain within     6.00 kcal/mol window
 
 ...............................................
 A new lower conformer was found!
 Improved by    0.00023 Eh or    0.14583kcal/mol
 ...............................................
 
========================================
            MTD Iteration  4
========================================
 
     ========================================
     |         Meta-MD (MTD) Sampling       |
     ========================================
 
Starting Meta-MD   1 with the settings:
     MD time /ps        :     0.5
     dt /fs             :     1.5
     dumpstep(trj) /fs  :     100
     dumpstep(Vbias)/ps :     1.0
     Vbias factor k /Eh :  0.2220
     Vbias exp α /bohr⁻²:    1.30
Starting Meta-MD   2 with the settings:
     MD time /ps        :     0.5
     dt /fs             :     1.5
     dumpstep(trj) /fs  :     100
     dumpstep(Vbias)/ps :     1.0
     Vbias factor k /Eh :  0.1110
     Vbias exp α /bohr⁻²:    1.30
Starting Meta-MD   3 with the settings:
     MD time /ps        :     0.5
     dt /fs             :     1.5
     dumpstep(trj) /fs  :     100
     dumpstep(Vbias)/ps :     1.0
     Vbias factor k /Eh :  0.0555
     Vbias exp α /bohr⁻²:    1.30
Starting Meta-MD   4 with the settings:
     MD time /ps        :     0.5
     dt /fs             :     1.5
     dumpstep(trj) /fs  :     100
     dumpstep(Vbias)/ps :     1.0
     Vbias factor k /Eh :  0.2220
     Vbias exp α /bohr⁻²:    0.78
Starting Meta-MD   5 with the settings:
     MD time /ps        :     0.5
     dt /fs             :     1.5
     dumpstep(trj) /fs  :     100
     dumpstep(Vbias)/ps :     1.0
     Vbias factor k /Eh :  0.1110
     Vbias exp α /bohr⁻²:    0.78
Starting Meta-MD   6 with the settings:
     MD time /ps        :     0.5
     dt /fs             :     1.5
     dumpstep(trj) /fs  :     100
     dumpstep(Vbias)/ps :     1.0
     Vbias factor k /Eh :  0.0555
     Vbias exp α /bohr⁻²:    0.78
Starting Meta-MD   7 with the settings:
     MD time /ps        :     0.5
     dt /fs             :     1.5
     dumpstep(trj) /fs  :     100
     dumpstep(Vbias)/ps :     1.0
     Vbias factor k /Eh :  0.2220
     Vbias exp α /bohr⁻²:    0.47
Starting Meta-MD   8 with the settings:
     MD time /ps        :     0.5
     dt /fs             :     1.5
     dumpstep(trj) /fs  :     100
     dumpstep(Vbias)/ps :     1.0
     Vbias factor k /Eh :  0.1110
     Vbias exp α /bohr⁻²:    0.47
Starting Meta-MD   9 with the settings:
     MD time /ps        :     0.5
     dt /fs             :     1.5
     dumpstep(trj) /fs  :     100
     dumpstep(Vbias)/ps :     1.0
     Vbias factor k /Eh :  0.0555
     Vbias exp α /bohr⁻²:    0.47
Starting Meta-MD  10 with the settings:
     MD time /ps        :     0.5
     dt /fs             :     1.5
     dumpstep(trj) /fs  :     100
     dumpstep(Vbias)/ps :     1.0
     Vbias factor k /Eh :  0.2220
     Vbias exp α /bohr⁻²:    0.28
Starting Meta-MD  11 with the settings:
     MD time /ps        :     0.5
     dt /fs             :     1.5
     dumpstep(trj) /fs  :     100
     dumpstep(Vbias)/ps :     1.0
     Vbias factor k /Eh :  0.1110
     Vbias exp α /bohr⁻²:    0.28
Starting Meta-MD  12 with the settings:
     MD time /ps        :     0.5
     dt /fs             :     1.5
     dumpstep(trj) /fs  :     100
     dumpstep(Vbias)/ps :     1.0
     Vbias factor k /Eh :  0.0555
     Vbias exp α /bohr⁻²:    0.28
*Meta-MTD 12 finished*
*Meta-MTD 1 finished*
*Meta-MTD 9 finished*
*Meta-MTD 3 finished*
*Meta-MTD 11 finished*
*Meta-MTD 6 finished*
*Meta-MTD 4 finished*
*Meta-MTD 7 finished*
*Meta-MTD 8 finished*
*Meta-MTD 5 finished*
*Meta-MTD 2 finished*
*Meta-MTD 10 finished*
 
-----------------------
Multilevel Optimization
-----------------------
 
 -------------------------
 1. crude pre-optimization
 -------------------------
 Optimizing all 60 structures from file "crest_rotamers_0.xyz" ...
 1 2 3 4 5 6 7 8 9 10 11 12 13 14 15 16 17 18 19 20 21 22 23 24 25 26 27 28 29 30 31 32 33 34 35 36 37 38 39 40 41 42 43 44 45 46 47 48 49 50 51 52 53 54 55 56 57 58 59 60
 done.
 running RMSDs...
 done.
 E lowest :  -121.11054
 56 structures remain within    12.00 kcal/mol window
 
 -------------------------------------
 2. optimization with tight thresholds
 -------------------------------------
 Optimizing all 57 structures from file "crest_rotamers_1.xyz" ...
 1 2 3 4 5 6 7 8 9 10 11 12 13 14 15 16 17 18 19 20 21 22 23 24 25 26 27 28 29 30 31 32 33 34 35 36 37 38 39 40 41 42 43 44 45 46 47 48 49 50 51 52 53 54 55 56 57
 done.
 running RMSDs...
 done.
 E lowest :  -121.11124
 30 structures remain within     6.00 kcal/mol window
 
========================================
            MTD Iterations done         
========================================
 Collecting ensmbles.
 running RMSDs...
 done.
 E lowest :  -121.11124
 109 structures remain within     6.00 kcal/mol window
 
 -------------------------------
 Additional orientation sampling
 -------------------------------
 Optimizing all 208 structures from file "oh_ensemble.xyz" ...
 1 2 3 4 5 6 7 8 9 10 11 12 13 14 15 16 17 18 19 20 21 22 23 24 25 26 27 28 29 30 31 32 33 34 35 36 37 38 39 40 41 42 43 44 45 46 47 48 49 50 51 52 53 54 55 56 57 58 59 60 61 62 63 64 65 66 67 68 69 70 71 72 73 74 75 76 77 78 79 80 81 82 83 84 85 86 87 88 89 90 91 92 93 94 95 96 97 98 99 100 101 102 103 104 105 106 107 108 109 110 111 112 113 114 115 116 117 118 119 120 121 122 123 124 125 126 127 128 129 130 131 132 133 134 135 136 137 138 139 140 141 142 143 144 145 146 147 148 149 150 151 152 153 154 155 156 157 158 159 160 161 162 163 164 165 166 167 168 169 170 171 172 173 174 175 176 177 178 179 180 181 182 183 184 185 186 187 188 189 190 191 192 193 194 195 196 197 198 199 200 201 202 203 204 205 206 207 208
 done.
 running RMSDs...
 done.
 E lowest :  -121.11204
 294 structures remain within     6.00 kcal/mol window
 
-----------------------------------------------
Additional regular MDs on lowest 4 conformer(s)
-----------------------------------------------
Starting MD   1 with the settings:
     MD time /ps        :     0.2
     MD Temperature /K  :   400.0
     dt /fs             :     1.5
     dumpstep(trj) /fs  :     100
Starting MD   2 with the settings:
     MD time /ps        :     0.2
     MD Temperature /K  :   500.0
     dt /fs             :     1.5
     dumpstep(trj) /fs  :     100
Starting MD   3 with the settings:
     MD time /ps        :     0.2
     MD Temperature /K  :   400.0
     dt /fs             :     1.5
     dumpstep(trj) /fs  :     100
Starting MD   4 with the settings:
     MD time /ps        :     0.2
     MD Temperature /K  :   500.0
     dt /fs             :     1.5
     dumpstep(trj) /fs  :     100
Starting MD   6 with the settings:
     MD time /ps        :     0.2
     MD Temperature /K  :   500.0
     dt /fs             :     1.5
     dumpstep(trj) /fs  :     100
Starting MD   5 with the settings:
     MD time /ps        :     0.2
     MD Temperature /K  :   400.0
     dt /fs             :     1.5
     dumpstep(trj) /fs  :     100
Starting MD   8 with the settings:
     MD time /ps        :     0.2
     MD Temperature /K  :   500.0
     dt /fs             :     1.5
     dumpstep(trj) /fs  :     100
Starting MD   7 with the settings:
     MD time /ps        :     0.2
     MD Temperature /K  :   400.0
     dt /fs             :     1.5
     dumpstep(trj) /fs  :     100
*MD 6 finished*
*MD 3 finished*
*MD 5 finished*
*MD 2 finished*
*MD 4 finished*
*MD 1 finished*
*MD 8 finished*
*MD 7 finished*
 Appending file crest_rotamers_2.xyz with new structures
 
 -------------------------------------------
 Ensemble optimization with tight thresholds
 -------------------------------------------
 Optimizing all 310 structures from file "crest_rotamers_2.xyz" ...
 1 2 3 4 5 6 7 8 9 10 11 12 13 14 15 16 17 18 19 20 21 22 23 24 25 26 27 28 29 30 31 32 33 34 35 36 37 38 39 40 41 42 43 44 45 46 47 48 49 50 51 52 53 54 55 56 57 58 59 60 61 62 63 64 65 66 67 68 69 70 71 72 73 74 75 76 77 78 79 80 81 82 83 84 85 86 87 88 89 90 91 92 93 94 95 96 97 98 99 100 101 102 103 104 105 106 107 108 109 110 111 112 113 114 115 116 117 118 119 120 121 122 123 124 125 126 127 128 129 130 131 132 133 134 135 136 137 138 139 140 141 142 143 144 145 146 147 148 149 150 151 152 153 154 155 156 157 158 159 160 161 162 163 164 165 166 167 168 169 170 171 172 173 174 175 176 177 178 179 180 181 182 183 184 185 186 187 188 189 190 191 192 193 194 195 196 197 198 199 200 201 202 203 204 205 206 207 208 209 210 211 212 213 214 215 216 217 218 219 220 221 222 223 224 225 226 227 228 229 230 231 232 233 234 235 236 237 238 239 240 241 242 243 244 245 246 247 248 249 250 251 252 253 254 255 256 257 258 259 260 261 262 263 264 265 266 267 268 269 270 271 272 273 274 275 276 277 278 279 280 281 282 283 284 285 286 287 288 289 290 291 292 293 294 295 296 297 298 299 300 301 302 303 304 305 306 307 308 309 310
 done.
 running RMSDs...
 done.
 E lowest :  -121.11210
 297 structures remain within     6.00 kcal/mol window
 
 ...............................................
 A new lower conformer was found!
 Improved by    0.00088 Eh or    0.54928kcal/mol
 ...............................................
 
*******************************************************************************************
**                        N E W    I T E R A T I O N    C Y C L E                        **
*******************************************************************************************
 
========================================
            MTD Iteration  1
========================================
 
     ========================================
     |         Meta-MD (MTD) Sampling       |
     ========================================
 
Starting Meta-MD   1 with the settings:
     MD time /ps        :     0.5
     dt /fs             :     1.5
     dumpstep(trj) /fs  :     100
     dumpstep(Vbias)/ps :     1.0
     Vbias factor k /Eh :  0.2220
     Vbias exp α /bohr⁻²:    1.30
Starting Meta-MD   2 with the settings:
     MD time /ps        :     0.5
     dt /fs             :     1.5
     dumpstep(trj) /fs  :     100
     dumpstep(Vbias)/ps :     1.0
     Vbias factor k /Eh :  0.1110
     Vbias exp α /bohr⁻²:    1.30
Starting Meta-MD   3 with the settings:
     MD time /ps        :     0.5
     dt /fs             :     1.5
     dumpstep(trj) /fs  :     100
     dumpstep(Vbias)/ps :     1.0
     Vbias factor k /Eh :  0.0555
     Vbias exp α /bohr⁻²:    1.30
Starting Meta-MD   5 with the settings:
     MD time /ps        :     0.5
     dt /fs             :     1.5
     dumpstep(trj) /fs  :     100
     dumpstep(Vbias)/ps :     1.0
     Vbias factor k /Eh :  0.1110
     Vbias exp α /bohr⁻²:    0.78
Starting Meta-MD   4 with the settings:
     MD time /ps        :     0.5
     dt /fs             :     1.5
     dumpstep(trj) /fs  :     100
     dumpstep(Vbias)/ps :     1.0
     Vbias factor k /Eh :  0.2220
     Vbias exp α /bohr⁻²:    0.78
Starting Meta-MD   6 with the settings:
     MD time /ps        :     0.5
     dt /fs             :     1.5
     dumpstep(trj) /fs  :     100
     dumpstep(Vbias)/ps :     1.0
     Vbias factor k /Eh :  0.0555
     Vbias exp α /bohr⁻²:    0.78
Starting Meta-MD   7 with the settings:
     MD time /ps        :     0.5
     dt /fs             :     1.5
     dumpstep(trj) /fs  :     100
     dumpstep(Vbias)/ps :     1.0
     Vbias factor k /Eh :  0.2220
     Vbias exp α /bohr⁻²:    0.47
Starting Meta-MD   8 with the settings:
     MD time /ps        :     0.5
     dt /fs             :     1.5
     dumpstep(trj) /fs  :     100
     dumpstep(Vbias)/ps :     1.0
     Vbias factor k /Eh :  0.1110
     Vbias exp α /bohr⁻²:    0.47
Starting Meta-MD  12 with the settings:
     MD time /ps        :     0.5
     dt /fs             :     1.5
     dumpstep(trj) /fs  :     100
     dumpstep(Vbias)/ps :     1.0
     Vbias factor k /Eh :  0.0555
     Vbias exp α /bohr⁻²:    0.28
Starting Meta-MD   9 with the settings:
     MD time /ps        :     0.5
     dt /fs             :     1.5
     dumpstep(trj) /fs  :     100
     dumpstep(Vbias)/ps :     1.0
     Vbias factor k /Eh :  0.0555
     Vbias exp α /bohr⁻²:    0.47
Starting Meta-MD  10 with the settings:
     MD time /ps        :     0.5
     dt /fs             :     1.5
     dumpstep(trj) /fs  :     100
     dumpstep(Vbias)/ps :     1.0
     Vbias factor k /Eh :  0.2220
     Vbias exp α /bohr⁻²:    0.28
Starting Meta-MD  11 with the settings:
     MD time /ps        :     0.5
     dt /fs             :     1.5
     dumpstep(trj) /fs  :     100
     dumpstep(Vbias)/ps :     1.0
     Vbias factor k /Eh :  0.1110
     Vbias exp α /bohr⁻²:    0.28
*Meta-MTD 6 finished*
*Meta-MTD 11 finished*
*Meta-MTD 3 finished*
*Meta-MTD 12 finished*
*Meta-MTD 5 finished*
*Meta-MTD 1 finished*
*Meta-MTD 4 finished*
*Meta-MTD 10 finished*
*Meta-MTD 9 finished*
*Meta-MTD 8 finished*
*Meta-MTD 7 finished*
*Meta-MTD 2 finished*
 
-----------------------
Multilevel Optimization
-----------------------
 
 -------------------------
 1. crude pre-optimization
 -------------------------
 Optimizing all 60 structures from file "crest_rotamers_0.xyz" ...
 1 2 3 4 5 6 7 8 9 10 11 12 13 14 15 16 17 18 19 20 21 22 23 24 25 26 27 28 29 30 31 32 33 34 35 36 37 38 39 40 41 42 43 44 45 46 47 48 49 50 51 52 53 54 55 56 57 58 59 60
 done.
 running RMSDs...
 done.
 E lowest :  -121.11105
 54 structures remain within    12.00 kcal/mol window
 
 -------------------------------------
 2. optimization with tight thresholds
 -------------------------------------
 Optimizing all 55 structures from file "crest_rotamers_1.xyz" ...
 1 2 3 4 5 6 7 8 9 10 11 12 13 14 15 16 17 18 19 20 21 22 23 24 25 26 27 28 29 30 31 32 33 34 35 36 37 38 39 40 41 42 43 44 45 46 47 48 49 50 51 52 53 54 55
 done.
 running RMSDs...
 done.
 E lowest :  -121.11219
 29 structures remain within     6.00 kcal/mol window
 
 ...............................................
 A new lower conformer was found!
 Improved by    0.00009 Eh or    0.05570kcal/mol
 ...............................................
 
========================================
            MTD Iteration  2
========================================
 
     ========================================
     |         Meta-MD (MTD) Sampling       |
     ========================================
 
Starting Meta-MD   1 with the settings:
     MD time /ps        :     0.5
     dt /fs             :     1.5
     dumpstep(trj) /fs  :     100
     dumpstep(Vbias)/ps :     1.0
     Vbias factor k /Eh :  0.2220
     Vbias exp α /bohr⁻²:    1.30
Starting Meta-MD   2 with the settings:
     MD time /ps        :     0.5
     dt /fs             :     1.5
     dumpstep(trj) /fs  :     100
     dumpstep(Vbias)/ps :     1.0
     Vbias factor k /Eh :  0.1110
     Vbias exp α /bohr⁻²:    1.30
Starting Meta-MD   4 with the settings:
     MD time /ps        :     0.5
     dt /fs             :     1.5
     dumpstep(trj) /fs  :     100
     dumpstep(Vbias)/ps :     1.0
     Vbias factor k /Eh :  0.2220
     Vbias exp α /bohr⁻²:    0.78
Starting Meta-MD   5 with the settings:
     MD time /ps        :     0.5
     dt /fs             :     1.5
     dumpstep(trj) /fs  :     100
     dumpstep(Vbias)/ps :     1.0
     Vbias factor k /Eh :  0.1110
     Vbias exp α /bohr⁻²:    0.78
Starting Meta-MD   3 with the settings:
     MD time /ps        :     0.5
     dt /fs             :     1.5
     dumpstep(trj) /fs  :     100
     dumpstep(Vbias)/ps :     1.0
     Vbias factor k /Eh :  0.0555
     Vbias exp α /bohr⁻²:    1.30
Starting Meta-MD   6 with the settings:
     MD time /ps        :     0.5
     dt /fs             :     1.5
     dumpstep(trj) /fs  :     100
     dumpstep(Vbias)/ps :     1.0
     Vbias factor k /Eh :  0.0555
     Vbias exp α /bohr⁻²:    0.78
Starting Meta-MD   7 with the settings:
     MD time /ps        :     0.5
     dt /fs             :     1.5
     dumpstep(trj) /fs  :     100
     dumpstep(Vbias)/ps :     1.0
     Vbias factor k /Eh :  0.2220
     Vbias exp α /bohr⁻²:    0.47
Starting Meta-MD   8 with the settings:
     MD time /ps        :     0.5
     dt /fs             :     1.5
     dumpstep(trj) /fs  :     100
     dumpstep(Vbias)/ps :     1.0
     Vbias factor k /Eh :  0.1110
     Vbias exp α /bohr⁻²:    0.47
Starting Meta-MD  12 with the settings:
     MD time /ps        :     0.5
     dt /fs             :     1.5
     dumpstep(trj) /fs  :     100
     dumpstep(Vbias)/ps :     1.0
     Vbias factor k /Eh :  0.0555
     Vbias exp α /bohr⁻²:    0.28
Starting Meta-MD   9 with the settings:
     MD time /ps        :     0.5
     dt /fs             :     1.5
     dumpstep(trj) /fs  :     100
     dumpstep(Vbias)/ps :     1.0
     Vbias factor k /Eh :  0.0555
     Vbias exp α /bohr⁻²:    0.47
Starting Meta-MD  10 with the settings:
     MD time /ps        :     0.5
     dt /fs             :     1.5
     dumpstep(trj) /fs  :     100
     dumpstep(Vbias)/ps :     1.0
     Vbias factor k /Eh :  0.2220
     Vbias exp α /bohr⁻²:    0.28
Starting Meta-MD  11 with the settings:
     MD time /ps        :     0.5
     dt /fs             :     1.5
     dumpstep(trj) /fs  :     100
     dumpstep(Vbias)/ps :     1.0
     Vbias factor k /Eh :  0.1110
     Vbias exp α /bohr⁻²:    0.28
*Meta-MTD 12 finished*
*Meta-MTD 10 finished*
*Meta-MTD 7 finished*
*Meta-MTD 9 finished*
*Meta-MTD 4 finished*
*Meta-MTD 2 finished*
*Meta-MTD 5 finished*
*Meta-MTD 11 finished*
*Meta-MTD 6 finished*
*Meta-MTD 3 finished*
*Meta-MTD 8 finished*
*Meta-MTD 1 finished*
 
-----------------------
Multilevel Optimization
-----------------------
 
 -------------------------
 1. crude pre-optimization
 -------------------------
 Optimizing all 60 structures from file "crest_rotamers_0.xyz" ...
 1 2 3 4 5 6 7 8 9 10 11 12 13 14 15 16 17 18 19 20 21 22 23 24 25 26 27 28 29 30 31 32 33 34 35 36 37 38 39 40 41 42 43 44 45 46 47 48 49 50 51 52 53 54 55 56 57 58 59 60
 done.
 running RMSDs...
 done.
 E lowest :  -121.11126
 53 structures remain within    12.00 kcal/mol window
 
 -------------------------------------
 2. optimization with tight thresholds
 -------------------------------------
 Optimizing all 54 structures from file "crest_rotamers_1.xyz" ...
 1 2 3 4 5 6 7 8 9 10 11 12 13 14 15 16 17 18 19 20 21 22 23 24 25 26 27 28 29 30 31 32 33 34 35 36 37 38 39 40 41 42 43 44 45 46 47 48 49 50 51 52 53 54
 done.
 running RMSDs...
 done.
 E lowest :  -121.11221
 30 structures remain within     6.00 kcal/mol window
 
========================================
            MTD Iterations done         
========================================
 Collecting ensmbles.
 running RMSDs...
 done.
 E lowest :  -121.11221
 56 structures remain within     6.00 kcal/mol window
 
 -------------------------------
 Additional orientation sampling
 -------------------------------
 Optimizing all 104 structures from file "oh_ensemble.xyz" ...
 1 2 3 4 5 6 7 8 9 10 11 12 13 14 15 16 17 18 19 20 21 22 23 24 25 26 27 28 29 30 31 32 33 34 35 36 37 38 39 40 41 42 43 44 45 46 47 48 49 50 51 52 53 54 55 56 57 58 59 60 61 62 63 64 65 66 67 68 69 70 71 72 73 74 75 76 77 78 79 80 81 82 83 84 85 86 87 88 89 90 91 92 93 94 95 96 97 98 99 100 101 102 103 104
 done.
 running RMSDs...
 done.
 E lowest :  -121.11221
 147 structures remain within     6.00 kcal/mol window
 
-----------------------------------------------
Additional regular MDs on lowest 4 conformer(s)
-----------------------------------------------
Starting MD   1 with the settings:
     MD time /ps        :     0.2
     MD Temperature /K  :   400.0
     dt /fs             :     1.5
     dumpstep(trj) /fs  :     100
Starting MD   2 with the settings:
     MD time /ps        :     0.2
     MD Temperature /K  :   500.0
     dt /fs             :     1.5
     dumpstep(trj) /fs  :     100
Starting MD   3 with the settings:
     MD time /ps        :     0.2
     MD Temperature /K  :   400.0
     dt /fs             :     1.5
     dumpstep(trj) /fs  :     100
Starting MD   4 with the settings:
     MD time /ps        :     0.2
     MD Temperature /K  :   500.0
     dt /fs             :     1.5
     dumpstep(trj) /fs  :     100
Starting MD   5 with the settings:
     MD time /ps        :     0.2
     MD Temperature /K  :   400.0
     dt /fs             :     1.5
     dumpstep(trj) /fs  :     100
Starting MD   6 with the settings:
     MD time /ps        :     0.2
     MD Temperature /K  :   500.0
     dt /fs             :     1.5
     dumpstep(trj) /fs  :     100
Starting MD   7 with the settings:
     MD time /ps        :     0.2
     MD Temperature /K  :   400.0
     dt /fs             :     1.5
     dumpstep(trj) /fs  :     100
Starting MD   8 with the settings:
     MD time /ps        :     0.2
     MD Temperature /K  :   500.0
     dt /fs             :     1.5
     dumpstep(trj) /fs  :     100
*MD 7 finished*
*MD 5 finished*
*MD 3 finished*
*MD 1 finished*
*MD 8 finished*
*MD 2 finished*
*MD 6 finished*
*MD 4 finished*
 Appending file crest_rotamers_2.xyz with new structures
 
 -------------------------------------------
 Ensemble optimization with tight thresholds
 -------------------------------------------
 Optimizing all 163 structures from file "crest_rotamers_2.xyz" ...
 1 2 3 4 5 6 7 8 9 10 11 12 13 14 15 16 17 18 19 20 21 22 23 24 25 26 27 28 29 30 31 32 33 34 35 36 37 38 39 40 41 42 43 44 45 46 47 48 49 50 51 52 53 54 55 56 57 58 59 60 61 62 63 64 65 66 67 68 69 70 71 72 73 74 75 76 77 78 79 80 81 82 83 84 85 86 87 88 89 90 91 92 93 94 95 96 97 98 99 100 101 102 103 104 105 106 107 108 109 110 111 112 113 114 115 116 117 118 119 120 121 122 123 124 125 126 127 128 129 130 131 132 133 134 135 136 137 138 139 140 141 142 143 144 145 146 147 148 149 150 151 152 153 154 155 156 157 158 159 160 161 162 163
 done.
 running RMSDs...
 done.
 E lowest :  -121.11221
 148 structures remain within     6.00 kcal/mol window
 
 
     ========================================
     |        Structure Crossing (GC)       |
     ========================================
 =============================
  # threads =          28
 =============================
 input  file name : crest_rotamers_4.xyz
number of atoms                :    74
number of points on xyz files  :   148
conformer energy window  /kcal :    6.00
CN per atom difference cut-off :  0.3000
RMSD threshold                 :  0.5000
max. # of generated structures : 25
 reading xyz file ...
 # in E window                148
 generating pairs ...       11025
  41.9 % done
 generated pairs           :         843
 number of clash discarded :       10035
 average rmsd w.r.t input  : 2.24146
 sd of ensemble            : 1.01496
 number of new structures      :           7
 removed identical structures  :          43
 writing            7  TMPCONF* dirs ...
 --------------------------
 GC: loose pre-optimization
 --------------------------
 Starting optimization of generated structures
 7 jobs to do.
 1 2 3 4 5 6 7 
 done.
 Now appending opt.xyz file with new structures
 running RMSDs...
 done.
 E lowest :  -121.11217
 7 structures remain within    10.00 kcal/mol window
 --------------------------------------
 GC: optimization with tight thresholds
 --------------------------------------
 Optimizing all 7 structures from file "crest_rotamers_1.xyz" ...
 1 2 3 4 5 6 7
 done.
 running RMSDs...
 done.
 E lowest :  -121.11221
 
 
   ================================================
   |           Final Geometry Optimization        |
   ================================================
 ------------------------------------------------
 Ensemble optimization with very tight thresholds
 ------------------------------------------------
 Optimizing all 154 structures from file "crest_rotamers_5.xyz" ...
 1 2 3 4 5 6 7 8 9 10 11 12 13 14 15 16 17 18 19 20 21 22 23 24 25 26 27 28 29 30 31 32 33 34 35 36 37 38 39 40 41 42 43 44 45 46 47 48 49 50 51 52 53 54 55 56 57 58 59 60 61 62 63 64 65 66 67 68 69 70 71 72 73 74 75 76 77 78 79 80 81 82 83 84 85 86 87 88 89 90 91 92 93 94 95 96 97 98 99 100 101 102 103 104 105 106 107 108 109 110 111 112 113 114 115 116 117 118 119 120 121 122 123 124 125 126 127 128 129 130 131 132 133 134 135 136 137 138 139 140 141 142 143 144 145 146 147 148 149 150 151 152 153 154
 done.
 running RMSDs...
 done.
 E lowest :  -121.11221
 154 structures remain within     6.00 kcal/mol window
 
 input  file name : crest_rotamers_6.xyz
 output file name : crest_rotamers_7.xyz
 number of atoms                :   74
 number of points on xyz files  :   154
 RMSD threshold                 :   0.2500
 Bconst threshold               :   0.0100
 population threshold           :   0.0500
 conformer energy window  /kcal :   6.0000
 # fragment in coord            :     1
 # bonds in reference structure :    81
   => # of C=C bonds :    10
 number of reliable points      :   154
 reference state Etot :  -121.112207790000
 number of doubles removed by rot/RMSD         :           0
 total number unique points considered further :         154
       Erel/kcal        Etot weight/tot  conformer     set   degen     origin
       1   0.000  -121.11221    0.07633    0.07633       1       1     md1
       2   0.062  -121.11211    0.06875    0.06875       2       1     mtd10
       3   0.138  -121.11199    0.06044    0.06044       3       1     mtd8
       4   0.185  -121.11191    0.05585    0.05585       4       1     gc
       5   0.263  -121.11179    0.04898    0.04898       5       1     md7
       6   0.386  -121.11159    0.03983    0.03983       6       1     mtd2
       7   0.491  -121.11143    0.03336    0.03336       7       1     mtd5
       8   0.507  -121.11140    0.03246    0.06252       8       2     mtd2
       9   0.553  -121.11133    0.03006                                mtd5
      10   0.708  -121.11108    0.02315    0.02315       9       1     hor
      11   0.740  -121.11103    0.02190    0.02190      10       1     hor
      12   0.753  -121.11101    0.02144    0.02144      11       1     gc
      13   0.768  -121.11098    0.02091    0.02091      12       1     hor
      14   0.773  -121.11098    0.02074    0.02074      13       1     hor
      15   0.800  -121.11093    0.01981    0.01981      14       1     hor
      16   0.807  -121.11092    0.01957    0.01957      15       1     hor
      17   0.852  -121.11085    0.01813    0.01813      16       1     hor
      18   0.943  -121.11071    0.01557    0.01557      17       1     hor
      19   0.949  -121.11070    0.01541    0.01541      18       1     hor
      20   0.981  -121.11064    0.01459    0.01459      19       1     gc
      21   1.086  -121.11048    0.01223    0.01223      20       1     gc
      22   1.138  -121.11039    0.01119    0.01119      21       1     mtd1
      23   1.197  -121.11030    0.01014    0.01948      22       2     mtd6
      24   1.246  -121.11022    0.00934                                mtd2
      25   1.246  -121.11022    0.00934    0.00934      23       1     mtd3
      26   1.288  -121.11015    0.00869    0.00869      24       1     mtd11
      27   1.310  -121.11012    0.00839    0.00839      25       1     mtd4
      28   1.319  -121.11011    0.00826    0.00826      26       1     mtd11
      29   1.321  -121.11010    0.00822    0.00822      27       1     gc
      30   1.339  -121.11007    0.00797    0.00797      28       1     mtd11
      31   1.345  -121.11006    0.00789    0.00789      29       1     mtd10
      32   1.383  -121.11000    0.00741    0.01480      30       2     mtd3
      33   1.384  -121.11000    0.00740                                mtd1
      34   1.406  -121.10997    0.00712    0.00712      31       1     mtd12
      35   1.422  -121.10994    0.00693    0.00693      32       1     mtd10
      36   1.461  -121.10988    0.00650    0.00650      33       1     mtd9
      37   1.462  -121.10988    0.00649    0.00649      34       1     mtd1
      38   1.465  -121.10987    0.00645    0.00645      35       1     mtd6
      39   1.486  -121.10984    0.00623    0.00623      36       1     mtd8
      40   1.500  -121.10982    0.00609    0.00609      37       1     mtd7
      41   1.515  -121.10979    0.00593    0.00593      38       1     mtd6
      42   1.583  -121.10968    0.00529    0.00529      39       1     mtd9
      43   1.590  -121.10967    0.00523    0.00523      40       1     mtd2
      44   1.610  -121.10964    0.00506    0.01007      41       2     mtd10
      45   1.614  -121.10964    0.00502                                mtd7
      46   1.665  -121.10955    0.00461    0.00461      42       1     mtd5
      47   1.696  -121.10951    0.00437    0.00437      43       1     mtd7
      48   1.699  -121.10950    0.00435    0.00435      44       1     mtd7
      49   1.732  -121.10945    0.00411    0.00411      45       1     mtd6
      50   1.818  -121.10931    0.00356    0.00709      46       2     hor
      51   1.823  -121.10930    0.00353                                hor
      52   1.885  -121.10920    0.00318    0.00318      47       1     mtd10
      53   1.898  -121.10918    0.00311    0.00311      48       1     hor
      54   1.908  -121.10917    0.00306    0.00306      49       1     hor
      55   1.984  -121.10905    0.00269    0.00269      50       1     hor
      56   1.990  -121.10904    0.00266    0.00266      51       1     hor
      57   1.991  -121.10903    0.00266    0.00266      52       1     mtd7
      58   1.993  -121.10903    0.00265    0.00265      53       1     hor
      59   2.001  -121.10902    0.00261    0.00515      54       2     hor
      60   2.019  -121.10899    0.00254                                hor
      61   2.019  -121.10899    0.00253    0.00253      55       1     hor
      62   2.021  -121.10899    0.00253    0.00253      56       1     hor
      63   2.033  -121.10897    0.00248    0.00494      57       2     hor
      64   2.036  -121.10896    0.00246                                hor
      65   2.044  -121.10895    0.00243    0.00243      58       1     hor
      66   2.005  -121.10901    0.00260    0.00499      59       2     hor
      67   2.054  -121.10893    0.00239                                hor
      68   2.050  -121.10894    0.00241    0.00241      60       1     hor
      69   2.054  -121.10893    0.00239    0.00239      61       1     hor
      70   2.062  -121.10892    0.00236    0.00236      62       1     hor
      71   2.077  -121.10890    0.00230    0.00230      63       1     hor
      72   2.077  -121.10890    0.00230    0.00682      64       3     hor
      73   2.093  -121.10887    0.00224                                hor
      74   2.082  -121.10889    0.00228                                mtd4
      75   2.092  -121.10887    0.00224    0.00224      65       1     hor
      76   2.110  -121.10885    0.00218    0.00218      66       1     hor
      77   2.116  -121.10884    0.00215    0.00215      67       1     hor
      78   2.128  -121.10882    0.00211    0.00622      68       3     hor
      79   2.145  -121.10879    0.00205                                hor
      80   2.144  -121.10879    0.00205                                hor
      81   2.144  -121.10879    0.00205    0.00205      69       1     hor
      82   2.148  -121.10878    0.00204    0.00204      70       1     hor
      83   2.169  -121.10875    0.00197    0.00197      71       1     hor
      84   2.169  -121.10875    0.00197    0.00197      72       1     hor
      85   2.183  -121.10873    0.00192    0.00192      73       1     hor
      86   2.184  -121.10873    0.00192    0.00192      74       1     hor
      87   2.206  -121.10869    0.00185    0.00185      75       1     hor
      88   2.212  -121.10868    0.00183    0.00183      76       1     hor
      89   2.213  -121.10868    0.00183    0.00357      77       2     hor
      90   2.242  -121.10864    0.00174                                hor
      91   2.248  -121.10862    0.00172    0.00172      78       1     hor
      92   2.265  -121.10860    0.00167    0.00167      79       1     hor
      93   2.276  -121.10858    0.00164    0.00164      80       1     hor
      94   2.280  -121.10857    0.00163    0.00163      81       1     mtd5
      95   2.282  -121.10857    0.00163    0.00163      82       1     hor
      96   2.336  -121.10849    0.00149    0.00149      83       1     hor
      97   2.351  -121.10846    0.00145    0.00145      84       1     mtd4
      98   2.467  -121.10828    0.00119    0.00119      85       1     mtd7
      99   2.500  -121.10822    0.00113    0.00113      86       1     mtd11
     100   2.545  -121.10815    0.00104    0.00104      87       1     md8
     101   2.555  -121.10814    0.00103    0.00103      88       1     hor
     102   2.581  -121.10809    0.00098    0.00098      89       1     mtd8
     103   2.609  -121.10805    0.00094    0.00094      90       1     mtd4
     104   2.616  -121.10804    0.00093    0.00093      91       1     mtd3
     105   2.634  -121.10801    0.00090    0.00090      92       1     mtd12
     106   2.691  -121.10792    0.00082    0.00082      93       1     mtd3
     107   2.697  -121.10791    0.00081    0.00081      94       1     mtd2
     108   2.748  -121.10783    0.00074    0.00074      95       1     mtd11
     109   2.761  -121.10781    0.00073    0.00073      96       1     mtd4
     110   2.790  -121.10776    0.00069    0.00069      97       1     hor
     111   2.797  -121.10775    0.00068    0.00068      98       1     hor
     112   2.851  -121.10766    0.00062    0.00062      99       1     hor
     113   2.865  -121.10764    0.00061    0.00061     100       1     mtd5
     114   2.865  -121.10764    0.00061    0.00061     101       1     mtd1
     115   2.892  -121.10760    0.00058    0.00058     102       1     hor
     116   2.900  -121.10759    0.00057    0.00057     103       1     hor
     117   2.901  -121.10758    0.00057    0.00057     104       1     mtd1
     118   2.911  -121.10757    0.00056    0.00056     105       1     mtd8
     119   2.974  -121.10747    0.00051    0.00051     106       1     mtd11
     120   2.987  -121.10745    0.00050    0.00050     107       1     hor
     121   2.990  -121.10744    0.00049    0.00049     108       1     hor
     122   3.013  -121.10741    0.00047    0.00047     109       1     hor
     123   3.094  -121.10728    0.00041    0.00041     110       1     hor
     124   3.120  -121.10724    0.00040    0.00040     111       1     hor
     125   3.126  -121.10723    0.00039    0.00039     112       1     hor
     126   3.129  -121.10722    0.00039    0.00039     113       1     hor
     127   3.161  -121.10717    0.00037    0.00037     114       1     hor
     128   3.210  -121.10709    0.00034    0.00034     115       1     hor
     129   3.238  -121.10705    0.00032    0.00065     116       2     hor
     130   3.240  -121.10704    0.00032                                hor
     131   3.239  -121.10705    0.00032    0.00032     117       1     hor
     132   3.276  -121.10699    0.00030    0.00030     118       1     hor
     133   3.279  -121.10698    0.00030    0.00030     119       1     hor
     134   3.279  -121.10698    0.00030    0.00030     120       1     hor
     135   3.289  -121.10697    0.00030    0.00030     121       1     hor
     136   3.290  -121.10697    0.00030    0.00030     122       1     hor
     137   3.356  -121.10686    0.00027    0.00027     123       1     mtd10
     138   3.382  -121.10682    0.00025    0.00025     124       1     hor
     139   3.387  -121.10681    0.00025    0.00025     125       1     hor
     140   3.390  -121.10681    0.00025    0.00025     126       1     hor
     141   3.392  -121.10680    0.00025    0.00025     127       1     hor
     142   3.439  -121.10673    0.00023    0.00023     128       1     hor
     143   3.445  -121.10672    0.00023    0.00023     129       1     hor
     144   3.455  -121.10670    0.00023    0.00045     130       2     hor
     145   3.457  -121.10670    0.00022                                hor
     146   3.478  -121.10667    0.00022    0.00022     131       1     hor
     147   3.480  -121.10666    0.00022    0.00022     132       1     hor
     148   3.510  -121.10661    0.00021    0.00021     133       1     hor
     149   3.536  -121.10657    0.00020    0.00020     134       1     hor
     150   3.561  -121.10653    0.00019    0.00019     135       1     gc
     151   3.573  -121.10651    0.00018    0.00018     136       1     hor
     152   3.585  -121.10649    0.00018    0.00018     137       1     hor
     153   3.593  -121.10648    0.00018    0.00018     138       1     hor
     154   3.606  -121.10646    0.00017    0.00017     139       1     hor
T /K                                  :   298.15
E lowest                              :  -121.11221
ensemble average energy (kcal)        :    0.863
ensemble entropy (J/mol K, cal/mol K) :   33.494    8.005
ensemble free energy (kcal/mol)       :   -2.387
population of lowest in %             :    7.633
 number of unique conformers for further calc          139
 list of relative energies saved as "crest.energies"
 
 -----------------
 Wall Time Summary
 -----------------
             test MD wall time :         0h : 0m :44s
                 MTD wall time :         0h : 4m : 6s
      multilevel OPT wall time :         0h : 6m :21s
                  MD wall time :         0h : 1m :16s
                  GC wall time :         0h : 0m :15s
--------------------
Overall wall time  : 0h :12m :58s
 
 CREST terminated normally.
