 
       ==============================================
       |                                            |
       |                 C R E S T                  |
       |                                            |
       |  Conformer-Rotamer Ensemble Sampling Tool  |
       |          based on the GFN methods          |
       |             P.Pracht, S.Grimme             |
       |          Universitaet Bonn, MCTC           |
       ==============================================
       Version 2.11.2, Fr 17. Dec 12:10:44 CEST 2021
  Using the xTB program. Compatible with xTB version 6.4.0
 
   Cite work conducted with this code as

   P. Pracht, F. Bohle, S. Grimme, PCCP, 2020, 22, 7169-7192.

   and  S. Grimme, JCTC, 2019, 15, 2847-2862.
 
   with help from:
   C.Bannwarth, F.Bohle, S.Ehlert, S.Grimme,
   C. Plett, P.Pracht, S. Spicher
 
   This program is distributed in the hope that it will be useful,
   but WITHOUT ANY WARRANTY; without even the implied warranty of
   MERCHANTABILITY or FITNESS FOR A PARTICULAR PURPOSE.

 Command line input:
 > crest 00133_r_0.xyz -T 28 -gfn2 -chrg 0 -uhf 0 -rthr 0.25 -shake 1 --mdlen 0.5

  -T 28 (CPUs/Threads selected)
  -gfn2 : Use of GFN2-xTB requested.
  -chrg 0
  -uhf 0
  -rthr 0.25
  --mdlen 0.5 (MD length in ps)
 
 -------------------------
 xTB Geometry Optimization
 -------------------------
 Geometry successfully optimized.
 
------------------------------------------------
Generating MTD length from a flexibility measure
------------------------------------------------
      -----------------------------------------------------------      
     |                   =====================                   |     
     |                           x T B                           |     
     |                   =====================                   |     
     |                         S. Grimme                         |     
     |          Mulliken Center for Theoretical Chemistry        |     
     |                    University of Bonn                     |     
      -----------------------------------------------------------      

   * xtb version 6.4.1 (afa7bdf) compiled by 'ehlert@majestix' on 2021-06-10

   xtb is free software: you can redistribute it and/or modify it under
   the terms of the GNU Lesser General Public License as published by
   the Free Software Foundation, either version 3 of the License, or
   (at your option) any later version.
   
   xtb is distributed in the hope that it will be useful,
   but WITHOUT ANY WARRANTY; without even the implied warranty of
   MERCHANTABILITY or FITNESS FOR A PARTICULAR PURPOSE.  See the
   GNU Lesser General Public License for more details.
   
   Cite this work as:
   * C. Bannwarth, E. Caldeweyher, S. Ehlert, A. Hansen, P. Pracht,
     J. Seibert, S. Spicher, S. Grimme, WIREs Comput. Mol. Sci., 2020, 11,
     e01493. DOI: 10.1002/wcms.1493
   
   for GFN2-xTB:
   * C. Bannwarth, S. Ehlert and S. Grimme., J. Chem. Theory Comput., 2019,
     15, 1652-1671. DOI: 10.1021/acs.jctc.8b01176
   for GFN1-xTB:
   * S. Grimme, C. Bannwarth, P. Shushkov, J. Chem. Theory Comput., 2017,
     13, 1989-2009. DOI: 10.1021/acs.jctc.7b00118
   for GFN0-xTB:
   * P. Pracht, E. Caldeweyher, S. Ehlert, S. Grimme, ChemRxiv, 2019, preprint.
     DOI: 10.26434/chemrxiv.8326202.v1
   for GFN-FF:
   * S. Spicher and S. Grimme, Angew. Chem. Int. Ed., 2020, 59, 15665-15673.
     DOI: 10.1002/anie.202004239
   
   for DFT-D4:
   * E. Caldeweyher, C. Bannwarth and S. Grimme, J. Chem. Phys., 2017,
     147, 034112. DOI: 10.1063/1.4993215
   * E. Caldeweyher, S. Ehlert, A. Hansen, H. Neugebauer, S. Spicher,
     C. Bannwarth and S. Grimme, J. Chem. Phys., 2019, 150, 154122.
     DOI: 10.1063/1.5090222
   * E. Caldeweyher, J.-M. Mewes, S. Ehlert and S. Grimme, Phys. Chem. Chem. Phys.
     2020, 22, 8499-8512. DOI: 10.1039/D0CP00502A
   
   for sTDA-xTB:
   * S. Grimme and C. Bannwarth, J. Chem. Phys., 2016, 145, 054103.
     DOI: 10.1063/1.4959605
   
   in the mass-spec context:
   * V. Asgeirsson, C. Bauer and S. Grimme, Chem. Sci., 2017, 8, 4879.
     DOI: 10.1039/c7sc00601b
   * J. Koopman and S. Grimme, ACS Omega 2019, 4, 12, 15120-15133.
     DOI: 10.1021/acsomega.9b02011
   
   for metadynamics refer to:
   * S. Grimme, J. Chem. Theory Comput., 2019, 155, 2847-2862
     DOI: 10.1021/acs.jctc.9b00143
   
   for SPH calculations refer to:
   * S. Spicher and S. Grimme, J. Chem. Theory Comput., 2021, 17, 1701-1714
     DOI: 10.1021/acs.jctc.0c01306
   
   with help from (in alphabetical order)
   P. Atkinson, C. Bannwarth, F. Bohle, G. Brandenburg, E. Caldeweyher
   M. Checinski, S. Dohm, S. Ehlert, S. Ehrlich, I. Gerasimov, J. Koopman
   C. Lavigne, S. Lehtola, F. März, M. Müller, F. Musil, H. Neugebauer
   J. Pisarek, C. Plett, P. Pracht, J. Seibert, P. Shushkov, S. Spicher
   M. Stahn, M. Steiner, T. Strunk, J. Stückrath, T. Rose, and J. Unsleber
   
 * started run on 2024/12/09 at 16:22:48.919     

           -------------------------------------------------
          |                Calculation Setup                |
           -------------------------------------------------

          program call               : xtb tmpcoord --gfn0 --sp
          hostname                   : node25
          coordinate file            : tmpcoord
          omp threads                :                    28
          number of atoms            :                    80
          number of electrons        :                   210
          charge                     :                     0
          spin                       :                   0.0
          first test random number   :      0.23130562420049

   ID    Z sym.   atoms
    1    6 c      1-20, 22-40, 42
    2    8 o      21, 41
    3    1 h      43-80
########################################################################
[WARNING] Please study the warnings concerning your input carefully
-1- prog_main_parseArguments: The use of '--gfn0' is discouraged, please use '--gfn 0' next time
########################################################################

           -------------------------------------------------
          |                 G F N 0 - x T B                 |
           -------------------------------------------------

        Reference                      10.26434/chemrxiv.8326202.v1
      * Hamiltonian:
        H0-scaling (s, p, d)           2.000000    2.486800    2.270000
        zeta-weighting                 1.000000
      * Dispersion:
        s8                             2.850000
        a1                             0.800000
        a2                             4.600000
        s9                             0.000000
      * Repulsion:
        kExp                           1.500000
        rExp                           1.000000
      * Coulomb:
        alpha                          0.000000
        third order                    atomic
        anisotropic                    false
      * Polar bond correction:
        rad-shift                      0.053700
        strength                      -0.012900
        en-exp                         3.484700
        en-scale                       0.509700


          ...................................................
          :                      SETUP                      :
          :.................................................:
          :  # basis functions                 244          :
          :  # atomic orbitals                 244          :
          :  # shells                          160          :
          :  # electrons                       210          :
          :  electronic temp.          300.0000000     K    :
          :  accuracy                    1.0000000          :
          :  -> integral cutoff          0.2500000E+02      :
          :  -> integral neglect         0.1000000E-07      :
          ...................................................
  Checking positiv definite overlap ...  done.
 

         #    Occupation            Energy/Eh            Energy/eV
      -------------------------------------------------------------
         1        2.0000           -0.6946081             -18.9012
       ...           ...                  ...                  ...
        99        2.0000           -0.4335915             -11.7986
       100        2.0000           -0.4310702             -11.7300
       101        2.0000           -0.4308287             -11.7234
       102        2.0000           -0.4125644             -11.2264
       103        2.0000           -0.4112567             -11.1909
       104        2.0000           -0.3956207             -10.7654
       105        2.0000           -0.3896291             -10.6023 (HOMO)
       106                         -0.3026347              -8.2351 (LUMO)
       107                         -0.3000019              -8.1635
       108                         -0.2740490              -7.4573
       109                         -0.2734856              -7.4419
       110                         -0.2683901              -7.3033
       ...                                ...                  ...
       244                          0.6556327              17.8407
      -------------------------------------------------------------
                  HL-Gap            0.0869944 Eh            2.3672 eV
             Fermi-level            0.0000000 Eh            0.0000 eV

 EHT (total)                   0 d,  0 h,  0 min,  0.046 sec
 EHT setup                      ...        0 min,  0.001 sec (  2.859%)
 Coordination number            ...        0 min,  0.001 sec (  2.407%)
 EEQ model density              ...        0 min,  0.001 sec (  2.045%)
 D4 Dispersion                  ...        0 min,  0.003 sec (  6.565%)
 Integral evaluation            ...        0 min,  0.001 sec (  3.015%)
 Cholesky factorization         ...        0 min,  0.008 sec ( 17.721%)
 Zeroth order Hamiltonian       ...        0 min,  0.026 sec ( 55.806%)
 Gradient calculation           ...        0 min,  0.004 sec (  7.961%)

         :::::::::::::::::::::::::::::::::::::::::::::::::::::
         ::                     SUMMARY                     ::
         :::::::::::::::::::::::::::::::::::::::::::::::::::::
         :: total energy            -111.895218063762 Eh    ::
         :: gradient norm              0.042709119066 Eh/a0 ::
         :: HOMO-LUMO gap              2.367237911153 eV    ::
         ::.................................................::
         :: H0 energy               -113.668880796363 Eh    ::
         :: repulsion energy           1.990436396514 Eh    ::
         :: electrostat energy        -0.136562354913 Eh    ::
         :: -> Gsolv                   0.000000000000 Eh    ::
         ::    -> Gsasa                0.000000000000 Eh    ::
         ::    -> Gshift               0.000000000000 Eh    ::
         :: dispersion energy         -0.054970412045 Eh    ::
         :: short-range corr.         -0.025240896955 Eh    ::
         :: add. restraining           0.000000000000 Eh    ::
         :: total charge              -0.000000000000 e     ::
         :::::::::::::::::::::::::::::::::::::::::::::::::::::

           -------------------------------------------------
          |                Property Printout                |
           -------------------------------------------------

    * Orbital Energies and Occupations

         #    Occupation            Energy/Eh            Energy/eV
      -------------------------------------------------------------
         1        2.0000           -0.6946081             -18.9012
       ...           ...                  ...                  ...
        93        2.0000           -0.4538783             -12.3507
        94        2.0000           -0.4488684             -12.2143
        95        2.0000           -0.4456489             -12.1267
        96        2.0000           -0.4434237             -12.0662
        97        2.0000           -0.4396869             -11.9645
        98        2.0000           -0.4371170             -11.8946
        99        2.0000           -0.4335915             -11.7986
       100        2.0000           -0.4310702             -11.7300
       101        2.0000           -0.4308287             -11.7234
       102        2.0000           -0.4125644             -11.2264
       103        2.0000           -0.4112567             -11.1909
       104        2.0000           -0.3956207             -10.7654
       105        2.0000           -0.3896291             -10.6023 (HOMO)
       106                         -0.3026347              -8.2351 (LUMO)
       107                         -0.3000019              -8.1635
       108                         -0.2740490              -7.4573
       109                         -0.2734856              -7.4419
       110                         -0.2683901              -7.3033
       111                         -0.2673284              -7.2744
       112                         -0.2564968              -6.9796
       113                         -0.2548352              -6.9344
       114                         -0.2347124              -6.3869
       115                         -0.2275096              -6.1909
       116                         -0.1855248              -5.0484
       ...                                ...                  ...
       244                          0.6556327              17.8407
      -------------------------------------------------------------
                  HL-Gap            0.0869944 Eh            2.3672 eV
             Fermi-level            0.0000000 Eh            0.0000 eV

     #   Z          covCN         q      C6AA      α(0)
     1   6 c        3.762    -0.423    33.417     8.340
     2   6 c        3.903     0.246    18.808     6.241
     3   6 c        3.762    -0.424    33.446     8.343
     4   6 c        3.761    -0.424    33.434     8.342
     5   6 c        2.973    -0.003    29.592     8.895
     6   6 c        2.925    -0.118    32.667     9.343
     7   6 c        2.918    -0.086    31.766     9.213
     8   6 c        2.925    -0.136    33.162     9.414
     9   6 c        2.977     0.093    27.323     8.548
    10   6 c        2.971    -0.016    29.928     8.946
    11   6 c        2.925    -0.199    35.020     9.674
    12   6 c        2.984     0.068    27.881     8.635
    13   6 c        2.920    -0.132    33.067     9.400
    14   6 c        2.915    -0.089    31.852     9.226
    15   6 c        2.917    -0.092    31.950     9.240
    16   6 c        2.918    -0.117    32.633     9.338
    17   6 c        2.989     0.036    28.648     8.753
    18   6 c        2.973    -0.039    30.509     9.032
    19   6 c        2.974    -0.059    31.044     9.111
    20   6 c        2.849     0.211    24.844     8.143
    21   8 o        1.659    -0.546    23.728     6.589
    22   6 c        2.971    -0.052    30.847     9.082
    23   6 c        2.977     0.060    28.087     8.666
    24   6 c        2.922    -0.153    33.659     9.484
    25   6 c        2.917    -0.084    31.711     9.205
    26   6 c        2.927    -0.116    32.592     9.333
    27   6 c        2.972     0.002    29.470     8.877
    28   6 c        3.903     0.245    18.826     6.244
    29   6 c        3.761    -0.424    33.451     8.344
    30   6 c        3.762    -0.419    33.299     8.325
    31   6 c        3.762    -0.419    33.282     8.323
    32   6 c        2.931    -0.151    33.589     9.475
    33   6 c        2.925    -0.184    34.568     9.611
    34   6 c        2.984     0.066    27.936     8.643
    35   6 c        2.919    -0.134    33.122     9.408
    36   6 c        2.916    -0.089    31.865     9.227
    37   6 c        2.917    -0.091    31.907     9.234
    38   6 c        2.918    -0.121    32.730     9.352
    39   6 c        2.988     0.018    29.069     8.817
    40   6 c        2.850     0.235    24.370     8.065
    41   8 o        1.659    -0.564    24.118     6.643
    42   6 c        2.933    -0.126    32.892     9.376
    43   1 h        0.925     0.133     1.510     1.922
    44   1 h        0.925     0.133     1.515     1.925
    45   1 h        0.925     0.127     1.554     1.950
    46   1 h        0.925     0.147     1.409     1.856
    47   1 h        0.925     0.140     1.458     1.888
    48   1 h        0.925     0.127     1.554     1.950
    49   1 h        0.925     0.127     1.560     1.953
    50   1 h        0.925     0.126     1.566     1.957
    51   1 h        0.925     0.126     1.563     1.955
    52   1 h        0.926     0.089     1.884     2.146
    53   1 h        0.926     0.088     1.898     2.155
    54   1 h        0.926     0.101     1.777     2.084
    55   1 h        0.926     0.116     1.642     2.004
    56   1 h        0.926     0.097     1.815     2.107
    57   1 h        0.926     0.090     1.883     2.146
    58   1 h        0.926     0.091     1.867     2.136
    59   1 h        0.926     0.117     1.637     2.001
    60   1 h        0.805     0.298     0.727     1.340
    61   1 h        0.925     0.110     1.697     2.037
    62   1 h        0.926     0.087     1.905     2.159
    63   1 h        0.926     0.083     1.951     2.185
    64   1 h        0.925     0.128     1.546     1.945
    65   1 h        0.925     0.126     1.565     1.956
    66   1 h        0.925     0.126     1.568     1.958
    67   1 h        0.925     0.125     1.573     1.961
    68   1 h        0.925     0.126     1.569     1.959
    69   1 h        0.925     0.133     1.511     1.923
    70   1 h        0.925     0.125     1.576     1.963
    71   1 h        0.925     0.125     1.570     1.959
    72   1 h        0.925     0.131     1.527     1.933
    73   1 h        0.926     0.103     1.760     2.075
    74   1 h        0.926     0.114     1.666     2.018
    75   1 h        0.926     0.095     1.830     2.116
    76   1 h        0.926     0.089     1.887     2.148
    77   1 h        0.926     0.092     1.863     2.135
    78   1 h        0.926     0.114     1.662     2.016
    79   1 h        0.805     0.313     0.684     1.299
    80   1 h        0.926     0.132     1.519     1.927

 Mol. C6AA /au·bohr⁶  :      77682.727020
 Mol. C8AA /au·bohr⁸  :    1957481.470854
 Mol. α(0) /au        :        441.645061


Wiberg/Mayer (AO) data.
largest (>0.10) Wiberg bond orders for each atom

 ---------------------------------------------------------------------------
     #   Z sym  total        # sym  WBO       # sym  WBO       # sym  WBO
 ---------------------------------------------------------------------------
     1   6 c    3.979 --     2 c    0.996    45 h    0.980    43 h    0.980
                            44 h    0.978
     2   6 c    3.987 --     4 c    1.008     1 c    0.996     3 c    0.995
                             5 c    0.990
     3   6 c    3.979 --     2 c    0.995    48 h    0.980    47 h    0.980
                            46 h    0.978
     4   6 c    3.979 --     2 c    1.008    50 h    0.980    49 h    0.980
                            51 h    0.979
     5   6 c    3.973 --     6 c    1.414    42 c    1.413     2 c    0.990
                             8 c    0.107
     6   6 c    3.983 --     7 c    1.430     5 c    1.414    52 h    0.969
                             9 c    0.103
     7   6 c    3.987 --     8 c    1.453     6 c    1.430    53 h    0.972
                            42 c    0.107
     8   6 c    3.983 --     7 c    1.453     9 c    1.380    54 h    0.969
                             5 c    0.107
     9   6 c    3.976 --    42 c    1.401     8 c    1.380    10 c    1.035
                             6 c    0.103
    10   6 c    3.976 --    11 c    1.519    40 c    1.212     9 c    1.035
    11   6 c    3.985 --    10 c    1.519    12 c    1.271    55 h    0.965
    12   6 c    3.978 --    13 c    1.281    11 c    1.271    17 c    1.241
    13   6 c    3.979 --    14 c    1.550    12 c    1.281    56 h    0.969
                            16 c    0.115
    14   6 c    3.975 --    13 c    1.550    15 c    1.320    57 h    0.973
    15   6 c    3.982 --    16 c    1.554    14 c    1.320    58 h    0.972
    16   6 c    3.987 --    15 c    1.554    17 c    1.274    59 h    0.966
                            13 c    0.115
    17   6 c    3.977 --    16 c    1.274    18 c    1.252    12 c    1.241
    18   6 c    3.965 --    40 c    1.418    17 c    1.252    19 c    0.998
    19   6 c    3.967 --    20 c    1.407    39 c    1.253    18 c    0.998
    20   6 c    3.940 --    19 c    1.407    22 c    1.213    21 o    1.132
    21   8 o    2.305 --    20 c    1.132    60 h    0.967
    22   6 c    3.975 --    33 c    1.520    20 c    1.213    23 c    1.029
    23   6 c    3.975 --    24 c    1.391    32 c    1.385    22 c    1.029
                            26 c    0.104
    24   6 c    3.983 --    25 c    1.431    23 c    1.391    61 h    0.969
                            27 c    0.106
    25   6 c    3.987 --    26 c    1.451    24 c    1.431    62 h    0.972
                            32 c    0.106
    26   6 c    3.984 --    25 c    1.451    27 c    1.395    63 h    0.968
                            23 c    0.104
    27   6 c    3.973 --    32 c    1.431    26 c    1.395    28 c    0.990
                            24 c    0.106
    28   6 c    3.987 --    29 c    1.008    30 c    0.995    31 c    0.995
                            27 c    0.990
    29   6 c    3.980 --    28 c    1.008    64 h    0.980    66 h    0.980
                            65 h    0.979
    30   6 c    3.979 --    28 c    0.995    67 h    0.980    69 h    0.980
                            68 h    0.978
    31   6 c    3.979 --    28 c    0.995    70 h    0.980    72 h    0.980
                            71 h    0.978
    32   6 c    3.983 --    27 c    1.431    23 c    1.385    73 h    0.965
                            25 c    0.106
    33   6 c    3.985 --    22 c    1.520    34 c    1.272    74 h    0.965
    34   6 c    3.978 --    35 c    1.280    33 c    1.272    39 c    1.242
    35   6 c    3.980 --    36 c    1.552    34 c    1.280    75 h    0.969
                            38 c    0.115
    36   6 c    3.975 --    35 c    1.552    37 c    1.319    76 h    0.973
    37   6 c    3.983 --    38 c    1.556    36 c    1.319    77 h    0.973
    38   6 c    3.987 --    37 c    1.556    39 c    1.273    78 h    0.966
                            35 c    0.115
    39   6 c    3.977 --    38 c    1.273    19 c    1.253    34 c    1.242
    40   6 c    3.942 --    18 c    1.418    10 c    1.212    41 o    1.132
    41   8 o    2.313 --    40 c    1.132    79 h    0.967
    42   6 c    3.983 --     5 c    1.413     9 c    1.401    80 h    0.963
                             7 c    0.107
    43   1 h    0.980 --     1 c    0.980
    44   1 h    0.976 --     1 c    0.978
    45   1 h    0.976 --     1 c    0.980
    46   1 h    0.976 --     3 c    0.978
    47   1 h    0.980 --     3 c    0.980
    48   1 h    0.976 --     3 c    0.980
    49   1 h    0.975 --     4 c    0.980
    50   1 h    0.975 --     4 c    0.980
    51   1 h    0.977 --     4 c    0.979
    52   1 h    0.975 --     6 c    0.969
    53   1 h    0.983 --     7 c    0.972
    54   1 h    0.979 --     8 c    0.969
    55   1 h    0.973 --    11 c    0.965
    56   1 h    0.978 --    13 c    0.969
    57   1 h    0.983 --    14 c    0.973
    58   1 h    0.983 --    15 c    0.972
    59   1 h    0.980 --    16 c    0.966
    60   1 h    0.986 --    21 o    0.967
    61   1 h    0.981 --    24 c    0.969
    62   1 h    0.983 --    25 c    0.972
    63   1 h    0.976 --    26 c    0.968
    64   1 h    0.975 --    29 c    0.980
    65   1 h    0.977 --    29 c    0.979
    66   1 h    0.975 --    29 c    0.980
    67   1 h    0.976 --    30 c    0.980
    68   1 h    0.976 --    30 c    0.978
    69   1 h    0.980 --    30 c    0.980
    70   1 h    0.976 --    31 c    0.980
    71   1 h    0.976 --    31 c    0.978
    72   1 h    0.980 --    31 c    0.980
    73   1 h    0.971 --    32 c    0.965
    74   1 h    0.974 --    33 c    0.965
    75   1 h    0.978 --    35 c    0.969
    76   1 h    0.983 --    36 c    0.973
    77   1 h    0.984 --    37 c    0.973
    78   1 h    0.980 --    38 c    0.966
    79   1 h    0.987 --    41 o    0.967
    80   1 h    0.983 --    42 c    0.963
 ---------------------------------------------------------------------------

Topologies differ in total number of bonds
Writing topology from bond orders to xtbtopo.mol

 dipole moment from electron density (au)
     X       Y       Z   
   1.0039   1.6473  -0.7437  total (Debye):    5.255


           -------------------------------------------------
          | TOTAL ENERGY             -111.895218063762 Eh   |
          | GRADIENT NORM               0.042709119066 Eh/α |
          | HOMO-LUMO GAP               2.367237911153 eV   |
           -------------------------------------------------

------------------------------------------------------------------------
 * finished run on 2024/12/09 at 16:22:49.015     
------------------------------------------------------------------------
 total:
 * wall-time:     0 d,  0 h,  0 min,  0.096 sec
 *  cpu-time:     0 d,  0 h,  0 min,  2.079 sec
 * ratio c/w:    21.746 speedup
 SCF:
 * wall-time:     0 d,  0 h,  0 min,  0.047 sec
 *  cpu-time:     0 d,  0 h,  0 min,  1.175 sec
 * ratio c/w:    25.051 speedup

 Calculating WBOs... done.
      -----------------------------------------------------------      
     |                   =====================                   |     
     |                           x T B                           |     
     |                   =====================                   |     
     |                         S. Grimme                         |     
     |          Mulliken Center for Theoretical Chemistry        |     
     |                    University of Bonn                     |     
      -----------------------------------------------------------      

   * xtb version 6.4.1 (afa7bdf) compiled by 'ehlert@majestix' on 2021-06-10

   xtb is free software: you can redistribute it and/or modify it under
   the terms of the GNU Lesser General Public License as published by
   the Free Software Foundation, either version 3 of the License, or
   (at your option) any later version.
   
   xtb is distributed in the hope that it will be useful,
   but WITHOUT ANY WARRANTY; without even the implied warranty of
   MERCHANTABILITY or FITNESS FOR A PARTICULAR PURPOSE.  See the
   GNU Lesser General Public License for more details.
   
   Cite this work as:
   * C. Bannwarth, E. Caldeweyher, S. Ehlert, A. Hansen, P. Pracht,
     J. Seibert, S. Spicher, S. Grimme, WIREs Comput. Mol. Sci., 2020, 11,
     e01493. DOI: 10.1002/wcms.1493
   
   for GFN2-xTB:
   * C. Bannwarth, S. Ehlert and S. Grimme., J. Chem. Theory Comput., 2019,
     15, 1652-1671. DOI: 10.1021/acs.jctc.8b01176
   for GFN1-xTB:
   * S. Grimme, C. Bannwarth, P. Shushkov, J. Chem. Theory Comput., 2017,
     13, 1989-2009. DOI: 10.1021/acs.jctc.7b00118
   for GFN0-xTB:
   * P. Pracht, E. Caldeweyher, S. Ehlert, S. Grimme, ChemRxiv, 2019, preprint.
     DOI: 10.26434/chemrxiv.8326202.v1
   for GFN-FF:
   * S. Spicher and S. Grimme, Angew. Chem. Int. Ed., 2020, 59, 15665-15673.
     DOI: 10.1002/anie.202004239
   
   for DFT-D4:
   * E. Caldeweyher, C. Bannwarth and S. Grimme, J. Chem. Phys., 2017,
     147, 034112. DOI: 10.1063/1.4993215
   * E. Caldeweyher, S. Ehlert, A. Hansen, H. Neugebauer, S. Spicher,
     C. Bannwarth and S. Grimme, J. Chem. Phys., 2019, 150, 154122.
     DOI: 10.1063/1.5090222
   * E. Caldeweyher, J.-M. Mewes, S. Ehlert and S. Grimme, Phys. Chem. Chem. Phys.
     2020, 22, 8499-8512. DOI: 10.1039/D0CP00502A
   
   for sTDA-xTB:
   * S. Grimme and C. Bannwarth, J. Chem. Phys., 2016, 145, 054103.
     DOI: 10.1063/1.4959605
   
   in the mass-spec context:
   * V. Asgeirsson, C. Bauer and S. Grimme, Chem. Sci., 2017, 8, 4879.
     DOI: 10.1039/c7sc00601b
   * J. Koopman and S. Grimme, ACS Omega 2019, 4, 12, 15120-15133.
     DOI: 10.1021/acsomega.9b02011
   
   for metadynamics refer to:
   * S. Grimme, J. Chem. Theory Comput., 2019, 155, 2847-2862
     DOI: 10.1021/acs.jctc.9b00143
   
   for SPH calculations refer to:
   * S. Spicher and S. Grimme, J. Chem. Theory Comput., 2021, 17, 1701-1714
     DOI: 10.1021/acs.jctc.0c01306
   
   with help from (in alphabetical order)
   P. Atkinson, C. Bannwarth, F. Bohle, G. Brandenburg, E. Caldeweyher
   M. Checinski, S. Dohm, S. Ehlert, S. Ehrlich, I. Gerasimov, J. Koopman
   C. Lavigne, S. Lehtola, F. März, M. Müller, F. Musil, H. Neugebauer
   J. Pisarek, C. Plett, P. Pracht, J. Seibert, P. Shushkov, S. Spicher
   M. Stahn, M. Steiner, T. Strunk, J. Stückrath, T. Rose, and J. Unsleber
   
 * started run on 2024/12/09 at 16:22:49.054     

           -------------------------------------------------
          |                Calculation Setup                |
           -------------------------------------------------

          program call               : xtb tmpcoord --gfnff --sp
          hostname                   : node25
          coordinate file            : tmpcoord
          omp threads                :                    28
          number of atoms            :                    80
          number of electrons        :                   210
          charge                     :                     0
          spin                       :                   0.0
          first test random number   :      0.10279166639656

   ID    Z sym.   atoms
    1    6 c      1-20, 22-40, 42
    2    8 o      21, 41
    3    1 h      43-80
 
          ==================== Thresholds ====================
          CN  :   150.00000
          rep :   500.00000
          disp:  2500.00000
          HB1 :   250.00000
          HB2 :   450.00000
 
          Pauling EN used:
          Z : 1  EN :  2.20
          Z : 6  EN :  2.55
          Z : 8  EN :  3.44
          electric field strengths (au): 0.000
 
           ------------------------------------------------- 
          |           Force Field Initialization            |
           ------------------------------------------------- 
 
          distances ...
          ----------------------------------------
          generating topology and atomic info file ...
          pair mat ...
          computing topology distances matrix with Floyd-Warshall algo ...
          making topology EEQ charges ...
          #fragments for EEQ constrain: 1
          ----------------------------------------
          generating topology and atomic info file ...
          pair mat ...
          computing topology distances matrix with Floyd-Warshall algo ...
          making topology EEQ charges ...
          #fragments for EEQ constrain: 1
          rings ...
          # BATM   988
          # H in HB   20
          doing iterative Hueckel for 1 subsystem(s) ...
 
  atom   neighbors  erfCN metchar sp-hybrid imet pi  qest     coordinates
    1  c       4    3.49   0.00         3    0    0  -0.074   -9.869472    6.665614    0.074478
    2  c       4    3.49   0.00         3    0    0  -0.010  -10.808210    4.733751   -1.875460
    3  c       4    3.49   0.00         3    0    0  -0.074   -9.019840    4.690253   -4.158865
    4  c       4    3.49   0.00         3    0    0  -0.074  -13.422011    5.574790   -2.787582
    5  c       3    2.82   0.00         2    0    1   0.004  -10.835347    2.121016   -0.677285
    6  c       3    2.82   0.00         2    0    1  -0.054  -13.004363    0.654014   -0.490463
    7  c       3    2.81   0.00         2    0    1  -0.008  -12.924987   -1.722520    0.605758
    8  c       3    2.82   0.00         2    0    1  -0.040  -10.686291   -2.683932    1.534690
    9  c       3    2.82   0.00         2    0    1  -0.004   -8.485865   -1.253072    1.363109
   10  c       3    2.82   0.00         2    0    1  -0.013   -6.091591   -2.254801    2.364465
   11  c       3    2.82   0.00         2    0    1  -0.025   -6.000553   -3.348809    4.712533
   12  c       3    2.83   0.00         2    0    1  -0.025   -3.746743   -4.337762    5.721644
   13  c       3    2.81   0.00         2    0    1  -0.013   -3.650882   -5.437784    8.146196
   14  c       3    2.81   0.00         2    0    1  -0.038   -1.439300   -6.389139    9.081318
   15  c       3    2.81   0.00         2    0    1  -0.033    0.775229   -6.276536    7.628732
   16  c       3    2.81   0.00         2    0    1  -0.037    0.745180   -5.221328    5.270721
   17  c       3    2.83   0.00         2    0    1   0.009   -1.508220   -4.228599    4.251734
   18  c       3    2.82   0.00         2    0    1   0.002   -1.613366   -3.127168    1.814984
   19  c       3    2.82   0.00         2    0    1   0.002    0.695436   -3.037372    0.219554
   20  c       3    2.82   0.00         2    0    1   0.092    2.035032   -0.804004    0.029046
   21  o       2    1.92   0.00         3    0    1  -0.457    1.155104    1.247558    1.309998
   22  c       3    2.81   0.00         2    0    1  -0.013    4.292580   -0.687000   -1.412376
   23  c       3    2.82   0.00         2    0    1  -0.004    5.760367    1.680332   -1.555453
   24  c       3    2.82   0.00         2    0    1  -0.040    4.654134    3.941300   -2.315001
   25  c       3    2.81   0.00         2    0    1  -0.008    6.111954    6.109412   -2.430656
   26  c       3    2.82   0.00         2    0    1  -0.054    8.642352    6.038961   -1.793155
   27  c       3    2.82   0.00         2    0    1   0.004    9.797924    3.795893   -1.035022
   28  c       4    3.49   0.00         3    0    0  -0.010   12.591822    3.794055   -0.365221
   29  c       4    3.49   0.00         3    0    0  -0.074   13.543223    1.185491    0.448554
   30  c       4    3.49   0.00         3    0    0  -0.074   13.041893    5.643202    1.824233
   31  c       4    3.49   0.00         3    0    0  -0.074   14.114184    4.629100   -2.689218
   32  c       3    2.82   0.00         2    0    1  -0.040    8.317300    1.637171   -0.930475
   33  c       3    2.82   0.00         2    0    1  -0.025    5.134043   -2.820771   -2.621892
   34  c       3    2.83   0.00         2    0    1  -0.025    3.795630   -5.114958   -2.508302
   35  c       3    2.81   0.00         2    0    1  -0.013    4.638135   -7.303397   -3.774467
   36  c       3    2.81   0.00         2    0    1  -0.038    3.304189   -9.508773   -3.625278
   37  c       3    2.81   0.00         2    0    1  -0.033    1.065772   -9.619141   -2.206585
   38  c       3    2.81   0.00         2    0    1  -0.037    0.198095   -7.531946   -0.957591
   39  c       3    2.83   0.00         2    0    1   0.009    1.537275   -5.229047   -1.067485
   40  c       3    2.82   0.00         2    0    1   0.092   -3.845349   -2.141575    0.902182
   41  o       2    1.92   0.00         3    0    1  -0.457   -3.986665   -1.117346   -1.453077
   42  c       3    2.82   0.00         2    0    1  -0.040   -8.593453    1.127761    0.267306
   43  h       1    0.97   0.00         0    0    0   0.036  -11.090313    6.655302    1.729242
   44  h       1    0.97   0.00         0    0    0   0.036   -7.955707    6.243564    0.684894
   45  h       1    0.97   0.00         0    0    0   0.036   -9.885172    8.555945   -0.735611
   46  h       1    0.97   0.00         0    0    0   0.036   -7.117490    4.156977   -3.602747
   47  h       1    0.97   0.00         0    0    0   0.036   -9.682303    3.328990   -5.550168
   48  h       1    0.97   0.00         0    0    0   0.036   -8.946814    6.546348   -5.041968
   49  h       1    0.97   0.00         0    0    0   0.036  -14.153135    4.295588   -4.220386
   50  h       1    0.97   0.00         0    0    0   0.036  -14.754657    5.670198   -1.225542
   51  h       1    0.97   0.00         0    0    0   0.036  -13.286560    7.449656   -3.622680
   52  h       1    0.97   0.00         0    0    0   0.031  -14.789533    1.334068   -1.197530
   53  h       1    0.97   0.00         0    0    0   0.016  -14.635589   -2.832744    0.724547
   54  h       1    0.97   0.00         0    0    0   0.050  -10.624291   -4.550447    2.359542
   55  h       1    0.97   0.00         0    0    0   0.039   -7.698638   -3.428724    5.844300
   56  h       1    0.97   0.00         0    0    0   0.034   -5.366090   -5.511299    9.253187
   57  h       1    0.97   0.00         0    0    0   0.045   -1.379182   -7.228966   10.941169
   58  h       1    0.97   0.00         0    0    0   0.041    2.512578   -7.031309    8.391148
   59  h       1    0.97   0.00         0    0    0   0.042    2.455429   -5.135502    4.159001
   60  h       1    0.97   0.00         0    0    0   0.240    2.339837    2.628428    1.134795
   61  h       1    0.97   0.00         0    0    0   0.050    2.691673    3.997778   -2.883007
   62  h       1    0.97   0.00         0    0    0   0.016    5.265322    7.866766   -3.032604
   63  h       1    0.97   0.00         0    0    0   0.031    9.725619    7.763450   -1.901550
   64  h       1    0.97   0.00         0    0    0   0.036   12.550527    0.522751    2.121878
   65  h       1    0.97   0.00         0    0    0   0.036   15.544967    1.299911    0.903933
   66  h       1    0.97   0.00         0    0    0   0.036   13.316767   -0.191180   -1.060640
   67  h       1    0.97   0.00         0    0    0   0.036   15.026962    5.634554    2.358350
   68  h       1    0.97   0.00         0    0    0   0.036   12.526178    7.561824    1.306485
   69  h       1    0.97   0.00         0    0    0   0.036   11.924767    5.093858    3.460981
   70  h       1    0.97   0.00         0    0    0   0.036   16.124604    4.610201   -2.260427
   71  h       1    0.97   0.00         0    0    0   0.036   13.601150    6.527184   -3.280449
   72  h       1    0.97   0.00         0    0    0   0.036   13.770864    3.349434   -4.261858
   73  h       1    0.97   0.00         0    0    0   0.050    9.106792   -0.144720   -0.338899
   74  h       1    0.97   0.00         0    0    0   0.039    6.853118   -2.734859   -3.721322
   75  h       1    0.97   0.00         0    0    0   0.034    6.361355   -7.197623   -4.865944
   76  h       1    0.97   0.00         0    0    0   0.045    3.959586  -11.178995   -4.598268
   77  h       1    0.97   0.00         0    0    0   0.041    0.028135  -11.373952   -2.110290
   78  h       1    0.97   0.00         0    0    0   0.042   -1.524252   -7.616087    0.133746
   79  h       1    0.97   0.00         0    0    0   0.240   -2.338157   -1.225122   -2.234393
   80  h       1    0.97   0.00         0    0    0   0.050   -6.873444    2.215670    0.174083
 
          #atoms :   80
          #bonds :   85
          #angl  :   146
          #tors  :   250
          #nmol  :   1
          #optfrag :   1
           ------------------------------------------------- 
          |                   G F N - F F                   |
          |          A general generic force-field          |
          |                  Version 1.0.3                  | 
           ------------------------------------------------- 
          nhb123   5397 493 0

 E+G (total)                   0 d,  0 h,  0 min,  0.004 sec
 distance/D3 list               ...        0 min,  0.000 sec (  0.793%)
 non bonded repulsion           ...        0 min,  0.000 sec (  7.624%)
 dCN                            ...        0 min,  0.000 sec (  5.333%)
 EEQ energy and q               ...        0 min,  0.000 sec ( 11.666%)
 D3                             ...        0 min,  0.001 sec ( 14.099%)
 EEQ gradient                   ...        0 min,  0.000 sec (  8.636%)
 bonds                          ...        0 min,  0.000 sec (  8.961%)
 bend and torsion               ...        0 min,  0.001 sec ( 12.809%)
 bonded ATM                     ...        0 min,  0.000 sec (  1.267%)
 HB/XB (incl list setup)        ...        0 min,  0.001 sec ( 23.208%)

         :::::::::::::::::::::::::::::::::::::::::::::::::::::
         ::                     SUMMARY                     ::
         :::::::::::::::::::::::::::::::::::::::::::::::::::::
         :: total energy             -15.564184303852 Eh    ::
         :: gradient norm              0.054712061458 Eh/a0 ::
         ::.................................................::
         :: bond energy              -16.460754823333 Eh    ::
         :: angle energy               0.004371296545 Eh    ::
         :: torsion energy             0.020552900585 Eh    ::
         :: repulsion energy           1.115402812129 Eh    ::
         :: electrostat energy        -0.143503670896 Eh    ::
         :: dispersion energy         -0.082011541909 Eh    ::
         :: HB energy                 -0.001285003642 Eh    ::
         :: XB energy                  0.000000000000 Eh    ::
         :: bonded atm energy         -0.016956273332 Eh    ::
         :: external energy            0.000000000000 Eh    ::
         :: add. restraining           0.000000000000 Eh    ::
         :: total charge               0.000000000000 e     ::
         :::::::::::::::::::::::::::::::::::::::::::::::::::::

           -------------------------------------------------
          |                Property Printout                |
           -------------------------------------------------

           -------------------------------------------------
          | TOTAL ENERGY              -15.564184303852 Eh   |
          | GRADIENT NORM               0.054712061458 Eh/α |
           -------------------------------------------------

------------------------------------------------------------------------
 * finished run on 2024/12/09 at 16:22:49.139     
------------------------------------------------------------------------
 total:
 * wall-time:     0 d,  0 h,  0 min,  0.085 sec
 *  cpu-time:     0 d,  0 h,  0 min,  1.749 sec
 * ratio c/w:    20.674 speedup
 SCF:
 * wall-time:     0 d,  0 h,  0 min,  0.007 sec
 *  cpu-time:     0 d,  0 h,  0 min,  0.164 sec
 * ratio c/w:    24.359 speedup

 Calculating NCI flexibility... done.
     covalent flexibility measure :   0.060
 non-covalent flexibility measure :   1.000
 flexibility measure :   0.152
 t(MTD) / ps set by command line  :     0.5
 t(MTD) / ps    :     0.5
 Σ(t(MTD)) / ps :     7.0 (14 MTDs)
 
-------------------------------------
Starting a trial MTD to test settings
-------------------------------------
 Estimated runtime for one MTD (0.5 ps) on a single thread: 3 min 5 sec
 Estimated runtime for a batch of 14 MTDs on 28 threads: 1 min 33 sec
 
 list of Vbias parameters applied:
$metadyn    0.00300   1.300
$metadyn    0.00150   1.300
$metadyn    0.00075   1.300
$metadyn    0.00300   0.780
$metadyn    0.00150   0.780
$metadyn    0.00075   0.780
$metadyn    0.00300   0.468
$metadyn    0.00150   0.468
$metadyn    0.00075   0.468
$metadyn    0.00300   0.281
$metadyn    0.00150   0.281
$metadyn    0.00075   0.281
$metadyn    0.00100   0.100
$metadyn    0.00500   0.800
 
*******************************************************************************************
**                        N E W    I T E R A T I O N    C Y C L E                        **
*******************************************************************************************
 
========================================
            MTD Iteration  1
========================================
 
     ========================================
     |         Meta-MD (MTD) Sampling       |
     ========================================
 
Starting Meta-MD   1 with the settings:
     MD time /ps        :     0.5
     dt /fs             :     1.5
     dumpstep(trj) /fs  :     100
     dumpstep(Vbias)/ps :     1.0
     Vbias factor k /Eh :  0.2400
     Vbias exp α /bohr⁻²:    1.30
Starting Meta-MD   2 with the settings:
     MD time /ps        :     0.5
     dt /fs             :     1.5
     dumpstep(trj) /fs  :     100
     dumpstep(Vbias)/ps :     1.0
     Vbias factor k /Eh :  0.1200
     Vbias exp α /bohr⁻²:    1.30
Starting Meta-MD  10 with the settings:
     MD time /ps        :     0.5
     dt /fs             :     1.5
     dumpstep(trj) /fs  :     100
     dumpstep(Vbias)/ps :     1.0
     Vbias factor k /Eh :  0.2400
     Vbias exp α /bohr⁻²:    0.28
Starting Meta-MD  14 with the settings:
     MD time /ps        :     0.5
     dt /fs             :     1.5
     dumpstep(trj) /fs  :     100
     dumpstep(Vbias)/ps :     1.0
     Vbias factor k /Eh :  0.4000
     Vbias exp α /bohr⁻²:    0.80
Starting Meta-MD   7 with the settings:
     MD time /ps        :     0.5
     dt /fs             :     1.5
     dumpstep(trj) /fs  :     100
     dumpstep(Vbias)/ps :     1.0
     Vbias factor k /Eh :  0.2400
     Vbias exp α /bohr⁻²:    0.47
Starting Meta-MD   8 with the settings:
     MD time /ps        :     0.5
     dt /fs             :     1.5
     dumpstep(trj) /fs  :     100
     dumpstep(Vbias)/ps :     1.0
     Vbias factor k /Eh :  0.1200
     Vbias exp α /bohr⁻²:    0.47
Starting Meta-MD   6 with the settings:
     MD time /ps        :     0.5
     dt /fs             :     1.5
     dumpstep(trj) /fs  :     100
     dumpstep(Vbias)/ps :     1.0
     Vbias factor k /Eh :  0.0600
     Vbias exp α /bohr⁻²:    0.78
Starting Meta-MD  11 with the settings:
     MD time /ps        :     0.5
     dt /fs             :     1.5
     dumpstep(trj) /fs  :     100
     dumpstep(Vbias)/ps :     1.0
     Vbias factor k /Eh :  0.1200
     Vbias exp α /bohr⁻²:    0.28
Starting Meta-MD   4 with the settings:
     MD time /ps        :     0.5
     dt /fs             :     1.5
     dumpstep(trj) /fs  :     100
     dumpstep(Vbias)/ps :     1.0
     Vbias factor k /Eh :  0.2400
     Vbias exp α /bohr⁻²:    0.78
Starting Meta-MD  13 with the settings:
     MD time /ps        :     0.5
     dt /fs             :     1.5
     dumpstep(trj) /fs  :     100
     dumpstep(Vbias)/ps :     1.0
     Vbias factor k /Eh :  0.0800
     Vbias exp α /bohr⁻²:    0.10
Starting Meta-MD   5 with the settings:
     MD time /ps        :     0.5
     dt /fs             :     1.5
     dumpstep(trj) /fs  :     100
     dumpstep(Vbias)/ps :     1.0
     Vbias factor k /Eh :  0.1200
     Vbias exp α /bohr⁻²:    0.78
Starting Meta-MD  12 with the settings:
     MD time /ps        :     0.5
     dt /fs             :     1.5
     dumpstep(trj) /fs  :     100
     dumpstep(Vbias)/ps :     1.0
     Vbias factor k /Eh :  0.0600
     Vbias exp α /bohr⁻²:    0.28
Starting Meta-MD   3 with the settings:
     MD time /ps        :     0.5
     dt /fs             :     1.5
     dumpstep(trj) /fs  :     100
     dumpstep(Vbias)/ps :     1.0
     Vbias factor k /Eh :  0.0600
     Vbias exp α /bohr⁻²:    1.30
Starting Meta-MD   9 with the settings:
     MD time /ps        :     0.5
     dt /fs             :     1.5
     dumpstep(trj) /fs  :     100
     dumpstep(Vbias)/ps :     1.0
     Vbias factor k /Eh :  0.0600
     Vbias exp α /bohr⁻²:    0.47
*Meta-MTD 10 finished*
*Meta-MTD 13 finished*
*Meta-MTD 9 finished*
*Meta-MTD 12 finished*
*Meta-MTD 4 finished*
*Meta-MTD 5 finished*
*Meta-MTD 3 finished*
*Meta-MTD 1 finished*
*Meta-MTD 7 finished*
*Meta-MTD 2 finished*
*Meta-MTD 6 finished*
*Meta-MTD 11 finished*
*Meta-MTD 14 finished*
*Meta-MTD 8 finished*
 
-----------------------
Multilevel Optimization
-----------------------
 
 -------------------------
 1. crude pre-optimization
 -------------------------
 Optimizing all 70 structures from file "crest_rotamers_0.xyz" ...
 1 2 3 4 5 6 7 8 9 10 11 12 13 14 15 16 17 18 19 20 21 22 23 24 25 26 27 28 29 30 31 32 33 34 35 36 37 38 39 40 41 42 43 44 45 46 47 48 49 50 51 52 53 54 55 56 57 58 59 60 61 62 63 64 65 66 67 68 69 70
 done.
 running RMSDs...
 done.
 E lowest :  -113.20910
 67 structures remain within    12.00 kcal/mol window
 
 -------------------------------------
 2. optimization with tight thresholds
 -------------------------------------
 Optimizing all 68 structures from file "crest_rotamers_1.xyz" ...
 1 2 3 4 5 6 7 8 9 10 11 12 13 14 15 16 17 18 19 20 21 22 23 24 25 26 27 28 29 30 31 32 33 34 35 36 37 38 39 40 41 42 43 44 45 46 47 48 49 50 51 52 53 54 55 56 57 58 59 60 61 62 63 64 65 66 67 68
 done.
 running RMSDs...
 done.
 E lowest :  -113.21004
 46 structures remain within     6.00 kcal/mol window
 
 
========================================
            MTD Iteration  2
========================================
 
     ========================================
     |         Meta-MD (MTD) Sampling       |
     ========================================
 
Starting Meta-MD   2 with the settings:
     MD time /ps        :     0.5
     dt /fs             :     1.5
     dumpstep(trj) /fs  :     100
     dumpstep(Vbias)/ps :     1.0
     Vbias factor k /Eh :  0.1200
     Vbias exp α /bohr⁻²:    1.30
Starting Meta-MD   3 with the settings:
     MD time /ps        :     0.5
     dt /fs             :     1.5
     dumpstep(trj) /fs  :     100
     dumpstep(Vbias)/ps :     1.0
     Vbias factor k /Eh :  0.0600
     Vbias exp α /bohr⁻²:    1.30
Starting Meta-MD   1 with the settings:
     MD time /ps        :     0.5
     dt /fs             :     1.5
     dumpstep(trj) /fs  :     100
     dumpstep(Vbias)/ps :     1.0
     Vbias factor k /Eh :  0.2400
     Vbias exp α /bohr⁻²:    1.30
Starting Meta-MD   4 with the settings:
     MD time /ps        :     0.5
     dt /fs             :     1.5
     dumpstep(trj) /fs  :     100
     dumpstep(Vbias)/ps :     1.0
     Vbias factor k /Eh :  0.2400
     Vbias exp α /bohr⁻²:    0.78
Starting Meta-MD   5 with the settings:
     MD time /ps        :     0.5
     dt /fs             :     1.5
     dumpstep(trj) /fs  :     100
     dumpstep(Vbias)/ps :     1.0
     Vbias factor k /Eh :  0.1200
     Vbias exp α /bohr⁻²:    0.78
Starting Meta-MD   6 with the settings:
     MD time /ps        :     0.5
     dt /fs             :     1.5
     dumpstep(trj) /fs  :     100
     dumpstep(Vbias)/ps :     1.0
     Vbias factor k /Eh :  0.0600
     Vbias exp α /bohr⁻²:    0.78
Starting Meta-MD   7 with the settings:
     MD time /ps        :     0.5
     dt /fs             :     1.5
     dumpstep(trj) /fs  :     100
     dumpstep(Vbias)/ps :     1.0
     Vbias factor k /Eh :  0.2400
     Vbias exp α /bohr⁻²:    0.47
Starting Meta-MD   8 with the settings:
     MD time /ps        :     0.5
     dt /fs             :     1.5
     dumpstep(trj) /fs  :     100
     dumpstep(Vbias)/ps :     1.0
     Vbias factor k /Eh :  0.1200
     Vbias exp α /bohr⁻²:    0.47
Starting Meta-MD   9 with the settings:
     MD time /ps        :     0.5
     dt /fs             :     1.5
     dumpstep(trj) /fs  :     100
     dumpstep(Vbias)/ps :     1.0
     Vbias factor k /Eh :  0.0600
     Vbias exp α /bohr⁻²:    0.47
Starting Meta-MD  10 with the settings:
     MD time /ps        :     0.5
     dt /fs             :     1.5
     dumpstep(trj) /fs  :     100
     dumpstep(Vbias)/ps :     1.0
     Vbias factor k /Eh :  0.2400
     Vbias exp α /bohr⁻²:    0.28
Starting Meta-MD  11 with the settings:
     MD time /ps        :     0.5
     dt /fs             :     1.5
     dumpstep(trj) /fs  :     100
     dumpstep(Vbias)/ps :     1.0
     Vbias factor k /Eh :  0.1200
     Vbias exp α /bohr⁻²:    0.28
Starting Meta-MD  12 with the settings:
     MD time /ps        :     0.5
     dt /fs             :     1.5
     dumpstep(trj) /fs  :     100
     dumpstep(Vbias)/ps :     1.0
     Vbias factor k /Eh :  0.0600
     Vbias exp α /bohr⁻²:    0.28
*Meta-MTD 1 finished*
*Meta-MTD 7 finished*
*Meta-MTD 12 finished*
*Meta-MTD 3 finished*
*Meta-MTD 9 finished*
*Meta-MTD 6 finished*
*Meta-MTD 5 finished*
*Meta-MTD 11 finished*
*Meta-MTD 2 finished*
*Meta-MTD 8 finished*
*Meta-MTD 4 finished*
*Meta-MTD 10 finished*
 
-----------------------
Multilevel Optimization
-----------------------
 
 -------------------------
 1. crude pre-optimization
 -------------------------
 Optimizing all 60 structures from file "crest_rotamers_0.xyz" ...
 1 2 3 4 5 6 7 8 9 10 11 12 13 14 15 16 17 18 19 20 21 22 23 24 25 26 27 28 29 30 31 32 33 34 35 36 37 38 39 40 41 42 43 44 45 46 47 48 49 50 51 52 53 54 55 56 57 58 59 60
 done.
 running RMSDs...
 done.
 E lowest :  -113.20947
 57 structures remain within    12.00 kcal/mol window
 
 -------------------------------------
 2. optimization with tight thresholds
 -------------------------------------
 Optimizing all 58 structures from file "crest_rotamers_1.xyz" ...
 1 2 3 4 5 6 7 8 9 10 11 12 13 14 15 16 17 18 19 20 21 22 23 24 25 26 27 28 29 30 31 32 33 34 35 36 37 38 39 40 41 42 43 44 45 46 47 48 49 50 51 52 53 54 55 56 57 58
 done.
 running RMSDs...
 done.
 E lowest :  -113.21004
 36 structures remain within     6.00 kcal/mol window
 
========================================
            MTD Iterations done         
========================================
 Collecting ensmbles.
 running RMSDs...
 done.
 E lowest :  -113.21004
 81 structures remain within     6.00 kcal/mol window
 
 -------------------------------
 Additional orientation sampling
 -------------------------------
 Optimizing all 110 structures from file "oh_ensemble.xyz" ...
 1 2 3 4 5 6 7 8 9 10 11 12 13 14 15 16 17 18 19 20 21 22 23 24 25 26 27 28 29 30 31 32 33 34 35 36 37 38 39 40 41 42 43 44 45 46 47 48 49 50 51 52 53 54 55 56 57 58 59 60 61 62 63 64 65 66 67 68 69 70 71 72 73 74 75 76 77 78 79 80 81 82 83 84 85 86 87 88 89 90 91 92 93 94 95 96 97 98 99 100 101 102 103 104 105 106 107 108 109 110
 done.
 running RMSDs...
 done.
 E lowest :  -113.21066
 190 structures remain within     6.00 kcal/mol window
 
-----------------------------------------------
Additional regular MDs on lowest 4 conformer(s)
-----------------------------------------------
Starting MD   1 with the settings:
     MD time /ps        :     0.2
     MD Temperature /K  :   400.0
     dt /fs             :     1.5
     dumpstep(trj) /fs  :     100
Starting MD   2 with the settings:
     MD time /ps        :     0.2
     MD Temperature /K  :   500.0
     dt /fs             :     1.5
     dumpstep(trj) /fs  :     100
Starting MD   3 with the settings:
     MD time /ps        :     0.2
     MD Temperature /K  :   400.0
     dt /fs             :     1.5
     dumpstep(trj) /fs  :     100
Starting MD   4 with the settings:
     MD time /ps        :     0.2
     MD Temperature /K  :   500.0
     dt /fs             :     1.5
     dumpstep(trj) /fs  :     100
Starting MD   5 with the settings:
     MD time /ps        :     0.2
     MD Temperature /K  :   400.0
     dt /fs             :     1.5
     dumpstep(trj) /fs  :     100
Starting MD   6 with the settings:
     MD time /ps        :     0.2
     MD Temperature /K  :   500.0
     dt /fs             :     1.5
     dumpstep(trj) /fs  :     100
Starting MD   8 with the settings:
     MD time /ps        :     0.2
     MD Temperature /K  :   500.0
     dt /fs             :     1.5
     dumpstep(trj) /fs  :     100
Starting MD   7 with the settings:
     MD time /ps        :     0.2
     MD Temperature /K  :   400.0
     dt /fs             :     1.5
     dumpstep(trj) /fs  :     100
*MD 5 finished*
*MD 1 finished*
*MD 7 finished*
*MD 2 finished*
*MD 3 finished*
*MD 4 finished*
*MD 6 finished*
*MD 8 finished*
 Appending file crest_rotamers_2.xyz with new structures
 
 -------------------------------------------
 Ensemble optimization with tight thresholds
 -------------------------------------------
 Optimizing all 206 structures from file "crest_rotamers_2.xyz" ...
 1 2 3 4 5 6 7 8 9 10 11 12 13 14 15 16 17 18 19 20 21 22 23 24 25 26 27 28 29 30 31 32 33 34 35 36 37 38 39 40 41 42 43 44 45 46 47 48 49 50 51 52 53 54 55 56 57 58 59 60 61 62 63 64 65 66 67 68 69 70 71 72 73 74 75 76 77 78 79 80 81 82 83 84 85 86 87 88 89 90 91 92 93 94 95 96 97 98 99 100 101 102 103 104 105 106 107 108 109 110 111 112 113 114 115 116 117 118 119 120 121 122 123 124 125 126 127 128 129 130 131 132 133 134 135 136 137 138 139 140 141 142 143 144 145 146 147 148 149 150 151 152 153 154 155 156 157 158 159 160 161 162 163 164 165 166 167 168 169 170 171 172 173 174 175 176 177 178 179 180 181 182 183 184 185 186 187 188 189 190 191 192 193 194 195 196 197 198 199 200 201 202 203 204 205 206
 done.
 running RMSDs...
 done.
 E lowest :  -113.21066
 194 structures remain within     6.00 kcal/mol window
 
 ...............................................
 A new lower conformer was found!
 Improved by    0.00062 Eh or    0.38744kcal/mol
 ...............................................
 
*******************************************************************************************
**                        N E W    I T E R A T I O N    C Y C L E                        **
*******************************************************************************************
 
========================================
            MTD Iteration  1
========================================
 
     ========================================
     |         Meta-MD (MTD) Sampling       |
     ========================================
 
Starting Meta-MD   1 with the settings:
     MD time /ps        :     0.5
     dt /fs             :     1.5
     dumpstep(trj) /fs  :     100
     dumpstep(Vbias)/ps :     1.0
     Vbias factor k /Eh :  0.2400
     Vbias exp α /bohr⁻²:    1.30
Starting Meta-MD   2 with the settings:
     MD time /ps        :     0.5
     dt /fs             :     1.5
     dumpstep(trj) /fs  :     100
     dumpstep(Vbias)/ps :     1.0
     Vbias factor k /Eh :  0.1200
     Vbias exp α /bohr⁻²:    1.30
Starting Meta-MD   3 with the settings:
     MD time /ps        :     0.5
     dt /fs             :     1.5
     dumpstep(trj) /fs  :     100
     dumpstep(Vbias)/ps :     1.0
     Vbias factor k /Eh :  0.0600
     Vbias exp α /bohr⁻²:    1.30
Starting Meta-MD   4 with the settings:
     MD time /ps        :     0.5
     dt /fs             :     1.5
     dumpstep(trj) /fs  :     100
     dumpstep(Vbias)/ps :     1.0
     Vbias factor k /Eh :  0.2400
     Vbias exp α /bohr⁻²:    0.78
Starting Meta-MD   5 with the settings:
     MD time /ps        :     0.5
     dt /fs             :     1.5
     dumpstep(trj) /fs  :     100
     dumpstep(Vbias)/ps :     1.0
     Vbias factor k /Eh :  0.1200
     Vbias exp α /bohr⁻²:    0.78
Starting Meta-MD   6 with the settings:
     MD time /ps        :     0.5
     dt /fs             :     1.5
     dumpstep(trj) /fs  :     100
     dumpstep(Vbias)/ps :     1.0
     Vbias factor k /Eh :  0.0600
     Vbias exp α /bohr⁻²:    0.78
Starting Meta-MD   7 with the settings:
     MD time /ps        :     0.5
     dt /fs             :     1.5
     dumpstep(trj) /fs  :     100
     dumpstep(Vbias)/ps :     1.0
     Vbias factor k /Eh :  0.2400
     Vbias exp α /bohr⁻²:    0.47
Starting Meta-MD   8 with the settings:
     MD time /ps        :     0.5
     dt /fs             :     1.5
     dumpstep(trj) /fs  :     100
     dumpstep(Vbias)/ps :     1.0
     Vbias factor k /Eh :  0.1200
     Vbias exp α /bohr⁻²:    0.47
Starting Meta-MD   9 with the settings:
     MD time /ps        :     0.5
     dt /fs             :     1.5
     dumpstep(trj) /fs  :     100
     dumpstep(Vbias)/ps :     1.0
     Vbias factor k /Eh :  0.0600
     Vbias exp α /bohr⁻²:    0.47
Starting Meta-MD  10 with the settings:
     MD time /ps        :     0.5
     dt /fs             :     1.5
     dumpstep(trj) /fs  :     100
     dumpstep(Vbias)/ps :     1.0
     Vbias factor k /Eh :  0.2400
     Vbias exp α /bohr⁻²:    0.28
Starting Meta-MD  11 with the settings:
     MD time /ps        :     0.5
     dt /fs             :     1.5
     dumpstep(trj) /fs  :     100
     dumpstep(Vbias)/ps :     1.0
     Vbias factor k /Eh :  0.1200
     Vbias exp α /bohr⁻²:    0.28
Starting Meta-MD  12 with the settings:
     MD time /ps        :     0.5
     dt /fs             :     1.5
     dumpstep(trj) /fs  :     100
     dumpstep(Vbias)/ps :     1.0
     Vbias factor k /Eh :  0.0600
     Vbias exp α /bohr⁻²:    0.28
*Meta-MTD 11 finished*
*Meta-MTD 3 finished*
*Meta-MTD 10 finished*
*Meta-MTD 9 finished*
*Meta-MTD 2 finished*
*Meta-MTD 6 finished*
*Meta-MTD 8 finished*
*Meta-MTD 1 finished*
*Meta-MTD 7 finished*
*Meta-MTD 12 finished*
*Meta-MTD 5 finished*
*Meta-MTD 4 finished*
 
-----------------------
Multilevel Optimization
-----------------------
 
 -------------------------
 1. crude pre-optimization
 -------------------------
 Optimizing all 60 structures from file "crest_rotamers_0.xyz" ...
 1 2 3 4 5 6 7 8 9 10 11 12 13 14 15 16 17 18 19 20 21 22 23 24 25 26 27 28 29 30 31 32 33 34 35 36 37 38 39 40 41 42 43 44 45 46 47 48 49 50 51 52 53 54 55 56 57 58 59 60
 done.
 running RMSDs...
 done.
 E lowest :  -113.20967
 57 structures remain within    12.00 kcal/mol window
 
 -------------------------------------
 2. optimization with tight thresholds
 -------------------------------------
 Optimizing all 58 structures from file "crest_rotamers_1.xyz" ...
 1 2 3 4 5 6 7 8 9 10 11 12 13 14 15 16 17 18 19 20 21 22 23 24 25 26 27 28 29 30 31 32 33 34 35 36 37 38 39 40 41 42 43 44 45 46 47 48 49 50 51 52 53 54 55 56 57 58
 done.
 running RMSDs...
 done.
 E lowest :  -113.21092
 42 structures remain within     6.00 kcal/mol window
 
 ...............................................
 A new lower conformer was found!
 Improved by    0.00026 Eh or    0.16026kcal/mol
 ...............................................
 
========================================
            MTD Iteration  2
========================================
 
     ========================================
     |         Meta-MD (MTD) Sampling       |
     ========================================
 
Starting Meta-MD   1 with the settings:
     MD time /ps        :     0.5
     dt /fs             :     1.5
     dumpstep(trj) /fs  :     100
     dumpstep(Vbias)/ps :     1.0
     Vbias factor k /Eh :  0.2400
     Vbias exp α /bohr⁻²:    1.30
Starting Meta-MD   2 with the settings:
     MD time /ps        :     0.5
     dt /fs             :     1.5
     dumpstep(trj) /fs  :     100
     dumpstep(Vbias)/ps :     1.0
     Vbias factor k /Eh :  0.1200
     Vbias exp α /bohr⁻²:    1.30
Starting Meta-MD   3 with the settings:
     MD time /ps        :     0.5
     dt /fs             :     1.5
     dumpstep(trj) /fs  :     100
     dumpstep(Vbias)/ps :     1.0
     Vbias factor k /Eh :  0.0600
     Vbias exp α /bohr⁻²:    1.30
Starting Meta-MD   4 with the settings:
     MD time /ps        :     0.5
     dt /fs             :     1.5
     dumpstep(trj) /fs  :     100
     dumpstep(Vbias)/ps :     1.0
     Vbias factor k /Eh :  0.2400
     Vbias exp α /bohr⁻²:    0.78
Starting Meta-MD   5 with the settings:
     MD time /ps        :     0.5
     dt /fs             :     1.5
     dumpstep(trj) /fs  :     100
     dumpstep(Vbias)/ps :     1.0
     Vbias factor k /Eh :  0.1200
     Vbias exp α /bohr⁻²:    0.78
Starting Meta-MD   6 with the settings:
     MD time /ps        :     0.5
     dt /fs             :     1.5
     dumpstep(trj) /fs  :     100
     dumpstep(Vbias)/ps :     1.0
     Vbias factor k /Eh :  0.0600
     Vbias exp α /bohr⁻²:    0.78
Starting Meta-MD   7 with the settings:
     MD time /ps        :     0.5
     dt /fs             :     1.5
     dumpstep(trj) /fs  :     100
     dumpstep(Vbias)/ps :     1.0
     Vbias factor k /Eh :  0.2400
     Vbias exp α /bohr⁻²:    0.47
Starting Meta-MD   8 with the settings:
     MD time /ps        :     0.5
     dt /fs             :     1.5
     dumpstep(trj) /fs  :     100
     dumpstep(Vbias)/ps :     1.0
     Vbias factor k /Eh :  0.1200
     Vbias exp α /bohr⁻²:    0.47
Starting Meta-MD   9 with the settings:
     MD time /ps        :     0.5
     dt /fs             :     1.5
     dumpstep(trj) /fs  :     100
     dumpstep(Vbias)/ps :     1.0
     Vbias factor k /Eh :  0.0600
     Vbias exp α /bohr⁻²:    0.47
Starting Meta-MD  10 with the settings:
     MD time /ps        :     0.5
     dt /fs             :     1.5
     dumpstep(trj) /fs  :     100
     dumpstep(Vbias)/ps :     1.0
     Vbias factor k /Eh :  0.2400
     Vbias exp α /bohr⁻²:    0.28
Starting Meta-MD  11 with the settings:
     MD time /ps        :     0.5
     dt /fs             :     1.5
     dumpstep(trj) /fs  :     100
     dumpstep(Vbias)/ps :     1.0
     Vbias factor k /Eh :  0.1200
     Vbias exp α /bohr⁻²:    0.28
Starting Meta-MD  12 with the settings:
     MD time /ps        :     0.5
     dt /fs             :     1.5
     dumpstep(trj) /fs  :     100
     dumpstep(Vbias)/ps :     1.0
     Vbias factor k /Eh :  0.0600
     Vbias exp α /bohr⁻²:    0.28
*Meta-MTD 4 finished*
*Meta-MTD 12 finished*
*Meta-MTD 10 finished*
*Meta-MTD 11 finished*
*Meta-MTD 1 finished*
*Meta-MTD 7 finished*
*Meta-MTD 6 finished*
*Meta-MTD 3 finished*
*Meta-MTD 8 finished*
*Meta-MTD 2 finished*
*Meta-MTD 9 finished*
*Meta-MTD 5 finished*
 
-----------------------
Multilevel Optimization
-----------------------
 
 -------------------------
 1. crude pre-optimization
 -------------------------
 Optimizing all 60 structures from file "crest_rotamers_0.xyz" ...
 1 2 3 4 5 6 7 8 9 10 11 12 13 14 15 16 17 18 19 20 21 22 23 24 25 26 27 28 29 30 31 32 33 34 35 36 37 38 39 40 41 42 43 44 45 46 47 48 49 50 51 52 53 54 55 56 57 58 59 60
 done.
 running RMSDs...
 done.
 E lowest :  -113.21024
 56 structures remain within    12.00 kcal/mol window
 
 -------------------------------------
 2. optimization with tight thresholds
 -------------------------------------
 Optimizing all 57 structures from file "crest_rotamers_1.xyz" ...
 1 2 3 4 5 6 7 8 9 10 11 12 13 14 15 16 17 18 19 20 21 22 23 24 25 26 27 28 29 30 31 32 33 34 35 36 37 38 39 40 41 42 43 44 45 46 47 48 49 50 51 52 53 54 55 56 57
 done.
 running RMSDs...
 done.
 E lowest :  -113.21094
 39 structures remain within     6.00 kcal/mol window
 
========================================
            MTD Iterations done         
========================================
 Collecting ensmbles.
 running RMSDs...
 done.
 E lowest :  -113.21094
 80 structures remain within     6.00 kcal/mol window
 
 -------------------------------
 Additional orientation sampling
 -------------------------------
 Optimizing all 98 structures from file "oh_ensemble.xyz" ...
 1 2 3 4 5 6 7 8 9 10 11 12 13 14 15 16 17 18 19 20 21 22 23 24 25 26 27 28 29 30 31 32 33 34 35 36 37 38 39 40 41 42 43 44 45 46 47 48 49 50 51 52 53 54 55 56 57 58 59 60 61 62 63 64 65 66 67 68 69 70 71 72 73 74 75 76 77 78 79 80 81 82 83 84 85 86 87 88 89 90 91 92 93 94 95 96 97 98
 done.
 running RMSDs...
 done.
 E lowest :  -113.21094
 168 structures remain within     6.00 kcal/mol window
 
-----------------------------------------------
Additional regular MDs on lowest 4 conformer(s)
-----------------------------------------------
Starting MD   1 with the settings:
     MD time /ps        :     0.2
     MD Temperature /K  :   400.0
     dt /fs             :     1.5
     dumpstep(trj) /fs  :     100
Starting MD   2 with the settings:
     MD time /ps        :     0.2
     MD Temperature /K  :   500.0
     dt /fs             :     1.5
     dumpstep(trj) /fs  :     100
Starting MD   3 with the settings:
     MD time /ps        :     0.2
     MD Temperature /K  :   400.0
     dt /fs             :     1.5
     dumpstep(trj) /fs  :     100
Starting MD   4 with the settings:
     MD time /ps        :     0.2
     MD Temperature /K  :   500.0
     dt /fs             :     1.5
     dumpstep(trj) /fs  :     100
Starting MD   5 with the settings:
     MD time /ps        :     0.2
     MD Temperature /K  :   400.0
     dt /fs             :     1.5
     dumpstep(trj) /fs  :     100
Starting MD   6 with the settings:
     MD time /ps        :     0.2
     MD Temperature /K  :   500.0
     dt /fs             :     1.5
     dumpstep(trj) /fs  :     100
Starting MD   7 with the settings:
     MD time /ps        :     0.2
     MD Temperature /K  :   400.0
     dt /fs             :     1.5
     dumpstep(trj) /fs  :     100
Starting MD   8 with the settings:
     MD time /ps        :     0.2
     MD Temperature /K  :   500.0
     dt /fs             :     1.5
     dumpstep(trj) /fs  :     100
*MD 7 finished*
*MD 3 finished*
*MD 6 finished*
*MD 5 finished*
*MD 1 finished*
*MD 8 finished*
*MD 2 finished*
*MD 4 finished*
 Appending file crest_rotamers_2.xyz with new structures
 
 -------------------------------------------
 Ensemble optimization with tight thresholds
 -------------------------------------------
 Optimizing all 184 structures from file "crest_rotamers_2.xyz" ...
 1 2 3 4 5 6 7 8 9 10 11 12 13 14 15 16 17 18 19 20 21 22 23 24 25 26 27 28 29 30 31 32 33 34 35 36 37 38 39 40 41 42 43 44 45 46 47 48 49 50 51 52 53 54 55 56 57 58 59 60 61 62 63 64 65 66 67 68 69 70 71 72 73 74 75 76 77 78 79 80 81 82 83 84 85 86 87 88 89 90 91 92 93 94 95 96 97 98 99 100 101 102 103 104 105 106 107 108 109 110 111 112 113 114 115 116 117 118 119 120 121 122 123 124 125 126 127 128 129 130 131 132 133 134 135 136 137 138 139 140 141 142 143 144 145 146 147 148 149 150 151 152 153 154 155 156 157 158 159 160 161 162 163 164 165 166 167 168 169 170 171 172 173 174 175 176 177 178 179 180 181 182 183 184
 done.
 running RMSDs...
 done.
 E lowest :  -113.21094
 172 structures remain within     6.00 kcal/mol window
 
 
     ========================================
     |        Structure Crossing (GC)       |
     ========================================
 =============================
  # threads =          28
 =============================
 input  file name : crest_rotamers_4.xyz
number of atoms                :    80
number of points on xyz files  :   172
conformer energy window  /kcal :    6.00
CN per atom difference cut-off :  0.3000
RMSD threshold                 :  0.5000
max. # of generated structures : 25
 reading xyz file ...
 # in E window                172
 generating pairs ...       14877
  82.6 % done
 generated pairs           :       11254
 number of clash discarded :        3452
 average rmsd w.r.t input  : 3.76395
 sd of ensemble            : 1.19664
 number of new structures      :           4
 removed identical structures  :          46
 writing            4  TMPCONF* dirs ...
 --------------------------
 GC: loose pre-optimization
 --------------------------
 Starting optimization of generated structures
 4 jobs to do.
 1 2 3 4 
 done.
 Now appending opt.xyz file with new structures
 running RMSDs...
 done.
 E lowest :  -113.21083
 4 structures remain within    10.00 kcal/mol window
 --------------------------------------
 GC: optimization with tight thresholds
 --------------------------------------
 Optimizing all 4 structures from file "crest_rotamers_1.xyz" ...
 1 2 3 4
 done.
 running RMSDs...
 done.
 E lowest :  -113.21094
 
 
   ================================================
   |           Final Geometry Optimization        |
   ================================================
 ------------------------------------------------
 Ensemble optimization with very tight thresholds
 ------------------------------------------------
 Optimizing all 174 structures from file "crest_rotamers_5.xyz" ...
 1 2 3 4 5 6 7 8 9 10 11 12 13 14 15 16 17 18 19 20 21 22 23 24 25 26 27 28 29 30 31 32 33 34 35 36 37 38 39 40 41 42 43 44 45 46 47 48 49 50 51 52 53 54 55 56 57 58 59 60 61 62 63 64 65 66 67 68 69 70 71 72 73 74 75 76 77 78 79 80 81 82 83 84 85 86 87 88 89 90 91 92 93 94 95 96 97 98 99 100 101 102 103 104 105 106 107 108 109 110 111 112 113 114 115 116 117 118 119 120 121 122 123 124 125 126 127 128 129 130 131 132 133 134 135 136 137 138 139 140 141 142 143 144 145 146 147 148 149 150 151 152 153 154 155 156 157 158 159 160 161 162 163 164 165 166 167 168 169 170 171 172 173 174
 done.
 running RMSDs...
 done.
 E lowest :  -113.21094
 172 structures remain within     6.00 kcal/mol window
 
 input  file name : crest_rotamers_6.xyz
 output file name : crest_rotamers_7.xyz
 number of atoms                :   80
 number of points on xyz files  :   174
 RMSD threshold                 :   0.2500
 Bconst threshold               :   0.0100
 population threshold           :   0.0500
 conformer energy window  /kcal :   6.0000
 # fragment in coord            :     1
 # bonds in reference structure :    85
   => # of C=C bonds :    10
 number of reliable points      :   174
 reference state Etot :  -113.210936280000
 number of doubles removed by rot/RMSD         :           2
 total number unique points considered further :         172
       Erel/kcal        Etot weight/tot  conformer     set   degen     origin
       1   0.000  -113.21094    0.01310    0.10205       1       8     mtd11
       2   0.001  -113.21093    0.01307                                md6
       3   0.029  -113.21089    0.01248                                md5
       4   0.031  -113.21089    0.01243                                md4
       5   0.005  -113.21093    0.01299                                mtd9
       6   0.015  -113.21091    0.01277                                md5
       7   0.023  -113.21090    0.01261                                mtd5
       8   0.023  -113.21090    0.01260                                md1
       9   0.038  -113.21088    0.01228    0.02485       2       2     mtd12
      10   0.024  -113.21090    0.01257                                md6
      11   0.031  -113.21089    0.01244    0.02457       3       2     mtd5
      12   0.046  -113.21086    0.01213                                mtd7
      13   0.048  -113.21086    0.01209    0.02416       4       2     mtd5
      14   0.048  -113.21086    0.01207                                mtd2
      15   0.049  -113.21086    0.01206    0.03653       5       3     mtd6
      16   0.057  -113.21085    0.01191                                mtd10
      17   0.025  -113.21090    0.01257                                mtd5
      18   0.046  -113.21086    0.01212    0.02372       6       2     md8
      19   0.072  -113.21082    0.01160                                mtd2
      20   0.082  -113.21080    0.01140    0.03328       7       3     mtd3
      21   0.102  -113.21077    0.01102                                mtd3
      22   0.111  -113.21076    0.01086                                mtd2
      23   0.141  -113.21071    0.01032    0.01032       8       1     mtd12
      24   0.172  -113.21066    0.00980    0.02928       9       3     input
      25   0.173  -113.21066    0.00978                                mtd11
      26   0.178  -113.21065    0.00970                                mtd7
      27   0.203  -113.21061    0.00930    0.02785      10       3     mtd12
      28   0.203  -113.21061    0.00930                                mtd6
      29   0.207  -113.21061    0.00925                                mtd3
      30   0.207  -113.21061    0.00924    0.00924      11       1     mtd5
      31   0.211  -113.21060    0.00918    0.01812      12       2     mtd10
      32   0.226  -113.21058    0.00895                                mtd10
      33   0.187  -113.21064    0.00955    0.01926      13       2     mtd6
      34   0.178  -113.21065    0.00971                                mtd3
      35   0.200  -113.21062    0.00935    0.02732      14       3     mtd3
      36   0.239  -113.21056    0.00876                                mtd10
      37   0.209  -113.21060    0.00921                                mtd8
      38   0.240  -113.21055    0.00874    0.00874      15       1     mtd11
      39   0.218  -113.21059    0.00906    0.00906      16       1     mtd11
      40   0.220  -113.21059    0.00904    0.00904      17       1     mtd2
      41   0.240  -113.21055    0.00874    0.00874      18       1     mtd5
      42   0.251  -113.21054    0.00858    0.00858      19       1     mtd5
      43   0.265  -113.21051    0.00838    0.00838      20       1     mtd11
      44   0.269  -113.21051    0.00832    0.00832      21       1     mtd10
      45   0.271  -113.21050    0.00829    0.00829      22       1     mtd5
      46   0.277  -113.21049    0.00821    0.00821      23       1     mtd12
      47   0.280  -113.21049    0.00817    0.00817      24       1     mtd10
      48   0.282  -113.21049    0.00814    0.01624      25       2     mtd6
      49   0.285  -113.21048    0.00810                                mtd7
      50   0.288  -113.21048    0.00805    0.00805      26       1     mtd4
      51   0.290  -113.21047    0.00803    0.00803      27       1     mtd6
      52   0.299  -113.21046    0.00791    0.00791      28       1     mtd4
      53   0.321  -113.21043    0.00763    0.02230      29       3     mtd6
      54   0.340  -113.21039    0.00738                                mtd7
      55   0.348  -113.21038    0.00729                                mtd8
      56   0.344  -113.21039    0.00733    0.01457      30       2     mtd4
      57   0.352  -113.21038    0.00724                                mtd12
      58   0.354  -113.21037    0.00720    0.01435      31       2     mtd4
      59   0.360  -113.21036    0.00714                                mtd7
      60   0.380  -113.21033    0.00691    0.01378      32       2     mtd7
      61   0.383  -113.21033    0.00687                                mtd8
      62   0.435  -113.21024    0.00629    0.01247      33       2     mtd2
      63   0.445  -113.21023    0.00618                                mtd1
      64   0.478  -113.21018    0.00585    0.00585      34       1     mtd4
      65   0.445  -113.21023    0.00618    0.00618      35       1     gc
      66   0.506  -113.21013    0.00558    0.01600      36       3     mtd8
      67   0.543  -113.21007    0.00524                                mtd8
      68   0.550  -113.21006    0.00518                                mtd8
      69   0.523  -113.21010    0.00542    0.00542      37       1     mtd12
      70   0.528  -113.21009    0.00538    0.00538      38       1     mtd4
      71   0.550  -113.21006    0.00518    0.01023      39       2     mtd9
      72   0.565  -113.21004    0.00505                                mtd1
      73   0.568  -113.21003    0.00502    0.00502      40       1     hor
      74   0.569  -113.21003    0.00502    0.00502      41       1     mtd10
      75   0.578  -113.21001    0.00494    0.01499      42       3     hor
      76   0.581  -113.21001    0.00492                                mtd1
      77   0.556  -113.21005    0.00513                                hor
      78   0.571  -113.21003    0.00500    0.00500      43       1     hor
      79   0.599  -113.20998    0.00477    0.00477      44       1     mtd1
      80   0.603  -113.20997    0.00474    0.00972      45       2     hor
      81   0.573  -113.21002    0.00498                                mtd9
      82   0.603  -113.20997    0.00473    0.00473      46       1     mtd11
      83   0.612  -113.20996    0.00467    0.00467      47       1     hor
      84   0.614  -113.20996    0.00465    0.00465      48       1     mtd2
      85   0.651  -113.20990    0.00437    0.01277      49       3     hor
      86   0.674  -113.20986    0.00420                                hor
      87   0.676  -113.20986    0.00419                                hor
      88   0.682  -113.20985    0.00415    0.00415      50       1     mtd11
      89   0.684  -113.20985    0.00414    0.00414      51       1     hor
      90   0.684  -113.20985    0.00414    0.00414      52       1     hor
      91   0.693  -113.20983    0.00407    0.00407      53       1     hor
      92   0.694  -113.20983    0.00406    0.00406      54       1     hor
      93   0.658  -113.20989    0.00432    0.00432      55       1     hor
      94   0.695  -113.20983    0.00406    0.00406      56       1     hor
      95   0.695  -113.20983    0.00406    0.00406      57       1     hor
      96   0.699  -113.20982    0.00403    0.00805      58       2     hor
      97   0.700  -113.20982    0.00402                                hor
      98   0.666  -113.20988    0.00426    0.00826      59       2     hor
      99   0.703  -113.20982    0.00400                                hor
     100   0.703  -113.20982    0.00401    0.00401      60       1     hor
     101   0.704  -113.20981    0.00400    0.00400      61       1     hor
     102   0.709  -113.20981    0.00396    0.00396      62       1     hor
     103   0.714  -113.20980    0.00393    0.00393      63       1     mtd1
     104   0.717  -113.20979    0.00391    0.00391      64       1     hor
     105   0.719  -113.20979    0.00390    0.00390      65       1     hor
     106   0.720  -113.20979    0.00389    0.00389      66       1     hor
     107   0.727  -113.20978    0.00384    0.00384      67       1     hor
     108   0.728  -113.20978    0.00384    0.00384      68       1     mtd1
     109   0.747  -113.20975    0.00372    0.00372      69       1     mtd10
     110   0.754  -113.20973    0.00367    0.00367      70       1     hor
     111   0.761  -113.20972    0.00363    0.00723      71       2     hor
     112   0.766  -113.20972    0.00360                                hor
     113   0.772  -113.20971    0.00356    0.00356      72       1     hor
     114   0.774  -113.20970    0.00355    0.00355      73       1     hor
     115   0.775  -113.20970    0.00354    0.00705      74       2     hor
     116   0.781  -113.20969    0.00351                                mtd1
     117   0.786  -113.20968    0.00348    0.00348      75       1     hor
     118   0.789  -113.20968    0.00346    0.00346      76       1     hor
     119   0.792  -113.20967    0.00345    0.00345      77       1     hor
     120   0.793  -113.20967    0.00344    0.00344      78       1     hor
     121   0.763  -113.20972    0.00362    0.00362      79       1     hor
     122   0.794  -113.20967    0.00343    0.00343      80       1     hor
     123   0.797  -113.20967    0.00342    0.00342      81       1     hor
     124   0.801  -113.20966    0.00339    0.00339      82       1     hor
     125   0.805  -113.20965    0.00337    0.00670      83       2     hor
     126   0.812  -113.20964    0.00333                                hor
     127   0.813  -113.20964    0.00332    0.00332      84       1     hor
     128   0.836  -113.20960    0.00320    0.00947      85       3     hor
     129   0.844  -113.20959    0.00315                                hor
     130   0.851  -113.20958    0.00312                                hor
     131   0.867  -113.20955    0.00304    0.00304      86       1     hor
     132   0.870  -113.20955    0.00302    0.00616      87       2     hor
     133   0.847  -113.20959    0.00314                                hor
     134   0.871  -113.20955    0.00302    0.00302      88       1     hor
     135   0.869  -113.20955    0.00302    0.00603      89       2     hor
     136   0.874  -113.20954    0.00300                                hor
     137   0.876  -113.20954    0.00299    0.00299      90       1     hor
     138   0.877  -113.20954    0.00298    0.00298      91       1     hor
     139   0.877  -113.20954    0.00298    0.00298      92       1     hor
     140   0.883  -113.20953    0.00296    0.00296      93       1     hor
     141   0.907  -113.20949    0.00284    0.00579      94       2     hor
     142   0.884  -113.20953    0.00295                                hor
     143   0.874  -113.20954    0.00300    0.00300      95       1     hor
     144   0.927  -113.20946    0.00275    0.00275      96       1     hor
     145   0.927  -113.20946    0.00274    0.00274      97       1     hor
     146   0.938  -113.20944    0.00269    0.00781      98       3     hor
     147   0.964  -113.20940    0.00258                                hor
     148   0.972  -113.20939    0.00254                                hor
     149   0.977  -113.20938    0.00252    0.00252      99       1     hor
     150   0.979  -113.20938    0.00252    0.00252     100       1     hor
     151   0.979  -113.20938    0.00251    0.00251     101       1     hor
     152   0.939  -113.20944    0.00269    0.00269     102       1     hor
     153   0.994  -113.20935    0.00245    0.00506     103       2     hor
     154   0.957  -113.20941    0.00261                                hor
     155   1.004  -113.20934    0.00241    0.00241     104       1     hor
     156   0.980  -113.20937    0.00251    0.00251     105       1     hor
     157   1.005  -113.20933    0.00241    0.00241     106       1     hor
     158   1.007  -113.20933    0.00240    0.00240     107       1     hor
     159   1.008  -113.20933    0.00239    0.00239     108       1     hor
     160   1.012  -113.20932    0.00238    0.00238     109       1     hor
     161   1.047  -113.20927    0.00224    0.00224     110       1     hor
     162   1.058  -113.20925    0.00220    0.00220     111       1     hor
     163   1.065  -113.20924    0.00218    0.00432     112       2     hor
     164   1.074  -113.20923    0.00214                                gc
     165   1.099  -113.20918    0.00205    0.00399     113       2     hor
     166   1.134  -113.20913    0.00194                                hor
     167   1.119  -113.20915    0.00198    0.00383     114       2     hor
     168   1.161  -113.20909    0.00185                                hor
     169   1.190  -113.20904    0.00176    0.00176     115       1     hor
     170   1.201  -113.20902    0.00173    0.00335     116       2     hor
     171   1.238  -113.20896    0.00162                                hor
     172   1.261  -113.20893    0.00156    0.00156     117       1     hor
T /K                                  :   298.15
E lowest                              :  -113.21094
ensemble average energy (kcal)        :    0.389
ensemble entropy (J/mol K, cal/mol K) :   41.507    9.920
ensemble free energy (kcal/mol)       :   -2.958
population of lowest in %             :   10.205
 number of unique conformers for further calc          117
 list of relative energies saved as "crest.energies"
 
 -----------------
 Wall Time Summary
 -----------------
             test MD wall time :         0h : 0m :46s
                 MTD wall time :         0h : 2m :52s
      multilevel OPT wall time :         0h : 4m :56s
                  MD wall time :         0h : 1m :13s
                  GC wall time :         0h : 0m : 4s
--------------------
Overall wall time  : 0h :10m :10s
 
 CREST terminated normally.
