 
       ==============================================
       |                                            |
       |                 C R E S T                  |
       |                                            |
       |  Conformer-Rotamer Ensemble Sampling Tool  |
       |          based on the GFN methods          |
       |             P.Pracht, S.Grimme             |
       |          Universitaet Bonn, MCTC           |
       ==============================================
       Version 2.11.2, Fr 17. Dec 12:10:44 CEST 2021
  Using the xTB program. Compatible with xTB version 6.4.0
 
   Cite work conducted with this code as

   P. Pracht, F. Bohle, S. Grimme, PCCP, 2020, 22, 7169-7192.

   and  S. Grimme, JCTC, 2019, 15, 2847-2862.
 
   with help from:
   C.Bannwarth, F.Bohle, S.Ehlert, S.Grimme,
   C. Plett, P.Pracht, S. Spicher
 
   This program is distributed in the hope that it will be useful,
   but WITHOUT ANY WARRANTY; without even the implied warranty of
   MERCHANTABILITY or FITNESS FOR A PARTICULAR PURPOSE.

 Command line input:
 > crest 00204_r_0.xyz -T 28 -gfn2 -chrg 0 -uhf 0 -rthr 0.25 -shake 1 --mdlen 0.5

  -T 28 (CPUs/Threads selected)
  -gfn2 : Use of GFN2-xTB requested.
  -chrg 0
  -uhf 0
  -rthr 0.25
  --mdlen 0.5 (MD length in ps)
 
 -------------------------
 xTB Geometry Optimization
 -------------------------
 Geometry successfully optimized.
 
------------------------------------------------
Generating MTD length from a flexibility measure
------------------------------------------------
      -----------------------------------------------------------      
     |                   =====================                   |     
     |                           x T B                           |     
     |                   =====================                   |     
     |                         S. Grimme                         |     
     |          Mulliken Center for Theoretical Chemistry        |     
     |                    University of Bonn                     |     
      -----------------------------------------------------------      

   * xtb version 6.4.1 (afa7bdf) compiled by 'ehlert@majestix' on 2021-06-10

   xtb is free software: you can redistribute it and/or modify it under
   the terms of the GNU Lesser General Public License as published by
   the Free Software Foundation, either version 3 of the License, or
   (at your option) any later version.
   
   xtb is distributed in the hope that it will be useful,
   but WITHOUT ANY WARRANTY; without even the implied warranty of
   MERCHANTABILITY or FITNESS FOR A PARTICULAR PURPOSE.  See the
   GNU Lesser General Public License for more details.
   
   Cite this work as:
   * C. Bannwarth, E. Caldeweyher, S. Ehlert, A. Hansen, P. Pracht,
     J. Seibert, S. Spicher, S. Grimme, WIREs Comput. Mol. Sci., 2020, 11,
     e01493. DOI: 10.1002/wcms.1493
   
   for GFN2-xTB:
   * C. Bannwarth, S. Ehlert and S. Grimme., J. Chem. Theory Comput., 2019,
     15, 1652-1671. DOI: 10.1021/acs.jctc.8b01176
   for GFN1-xTB:
   * S. Grimme, C. Bannwarth, P. Shushkov, J. Chem. Theory Comput., 2017,
     13, 1989-2009. DOI: 10.1021/acs.jctc.7b00118
   for GFN0-xTB:
   * P. Pracht, E. Caldeweyher, S. Ehlert, S. Grimme, ChemRxiv, 2019, preprint.
     DOI: 10.26434/chemrxiv.8326202.v1
   for GFN-FF:
   * S. Spicher and S. Grimme, Angew. Chem. Int. Ed., 2020, 59, 15665-15673.
     DOI: 10.1002/anie.202004239
   
   for DFT-D4:
   * E. Caldeweyher, C. Bannwarth and S. Grimme, J. Chem. Phys., 2017,
     147, 034112. DOI: 10.1063/1.4993215
   * E. Caldeweyher, S. Ehlert, A. Hansen, H. Neugebauer, S. Spicher,
     C. Bannwarth and S. Grimme, J. Chem. Phys., 2019, 150, 154122.
     DOI: 10.1063/1.5090222
   * E. Caldeweyher, J.-M. Mewes, S. Ehlert and S. Grimme, Phys. Chem. Chem. Phys.
     2020, 22, 8499-8512. DOI: 10.1039/D0CP00502A
   
   for sTDA-xTB:
   * S. Grimme and C. Bannwarth, J. Chem. Phys., 2016, 145, 054103.
     DOI: 10.1063/1.4959605
   
   in the mass-spec context:
   * V. Asgeirsson, C. Bauer and S. Grimme, Chem. Sci., 2017, 8, 4879.
     DOI: 10.1039/c7sc00601b
   * J. Koopman and S. Grimme, ACS Omega 2019, 4, 12, 15120-15133.
     DOI: 10.1021/acsomega.9b02011
   
   for metadynamics refer to:
   * S. Grimme, J. Chem. Theory Comput., 2019, 155, 2847-2862
     DOI: 10.1021/acs.jctc.9b00143
   
   for SPH calculations refer to:
   * S. Spicher and S. Grimme, J. Chem. Theory Comput., 2021, 17, 1701-1714
     DOI: 10.1021/acs.jctc.0c01306
   
   with help from (in alphabetical order)
   P. Atkinson, C. Bannwarth, F. Bohle, G. Brandenburg, E. Caldeweyher
   M. Checinski, S. Dohm, S. Ehlert, S. Ehrlich, I. Gerasimov, J. Koopman
   C. Lavigne, S. Lehtola, F. März, M. Müller, F. Musil, H. Neugebauer
   J. Pisarek, C. Plett, P. Pracht, J. Seibert, P. Shushkov, S. Spicher
   M. Stahn, M. Steiner, T. Strunk, J. Stückrath, T. Rose, and J. Unsleber
   
 * started run on 2025/01/21 at 11:31:23.696     

           -------------------------------------------------
          |                Calculation Setup                |
           -------------------------------------------------

          program call               : xtb tmpcoord --gfn0 --sp
          hostname                   : node26
          coordinate file            : tmpcoord
          omp threads                :                    28
          number of atoms            :                    70
          number of electrons        :                   194
          charge                     :                     0
          spin                       :                   0.0
          first test random number   :      0.89953348481112

   ID    Z sym.   atoms
    1    8 o      1, 23
    2    6 c      2-22, 24-40
    3    1 h      41-70
########################################################################
[WARNING] Please study the warnings concerning your input carefully
-1- prog_main_parseArguments: The use of '--gfn0' is discouraged, please use '--gfn 0' next time
########################################################################

           -------------------------------------------------
          |                 G F N 0 - x T B                 |
           -------------------------------------------------

        Reference                      10.26434/chemrxiv.8326202.v1
      * Hamiltonian:
        H0-scaling (s, p, d)           2.000000    2.486800    2.270000
        zeta-weighting                 1.000000
      * Dispersion:
        s8                             2.850000
        a1                             0.800000
        a2                             4.600000
        s9                             0.000000
      * Repulsion:
        kExp                           1.500000
        rExp                           1.000000
      * Coulomb:
        alpha                          0.000000
        third order                    atomic
        anisotropic                    false
      * Polar bond correction:
        rad-shift                      0.053700
        strength                      -0.012900
        en-exp                         3.484700
        en-scale                       0.509700


          ...................................................
          :                      SETUP                      :
          :.................................................:
          :  # basis functions                 220          :
          :  # atomic orbitals                 220          :
          :  # shells                          140          :
          :  # electrons                       194          :
          :  electronic temp.          300.0000000     K    :
          :  accuracy                    1.0000000          :
          :  -> integral cutoff          0.2500000E+02      :
          :  -> integral neglect         0.1000000E-07      :
          ...................................................
  Checking positiv definite overlap ...  done.
 

         #    Occupation            Energy/Eh            Energy/eV
      -------------------------------------------------------------
         1        2.0000           -0.6947347             -18.9047
       ...           ...                  ...                  ...
        91        2.0000           -0.4334132             -11.7938
        92        2.0000           -0.4231941             -11.5157
        93        2.0000           -0.4228338             -11.5059
        94        2.0000           -0.4119743             -11.2104
        95        2.0000           -0.4112580             -11.1909
        96        2.0000           -0.3932694             -10.7014
        97        2.0000           -0.3919394             -10.6652 (HOMO)
        98                         -0.3014814              -8.2037 (LUMO)
        99                         -0.3009541              -8.1894
       100                         -0.2742050              -7.4615
       101                         -0.2734860              -7.4419
       102                         -0.2689870              -7.3195
       ...                                ...                  ...
       220                          0.6556288              17.8406
      -------------------------------------------------------------
                  HL-Gap            0.0904580 Eh            2.4615 eV
             Fermi-level            0.0000000 Eh            0.0000 eV

 EHT (total)                   0 d,  0 h,  0 min,  0.046 sec
 EHT setup                      ...        0 min,  0.001 sec (  2.384%)
 Coordination number            ...        0 min,  0.001 sec (  1.903%)
 EEQ model density              ...        0 min,  0.001 sec (  1.753%)
 D4 Dispersion                  ...        0 min,  0.003 sec (  5.995%)
 Integral evaluation            ...        0 min,  0.001 sec (  2.534%)
 Cholesky factorization         ...        0 min,  0.009 sec ( 19.604%)
 Zeroth order Hamiltonian       ...        0 min,  0.027 sec ( 57.887%)
 Gradient calculation           ...        0 min,  0.003 sec (  6.350%)

         :::::::::::::::::::::::::::::::::::::::::::::::::::::
         ::                     SUMMARY                     ::
         :::::::::::::::::::::::::::::::::::::::::::::::::::::
         :: total energy            -103.109996092955 Eh    ::
         :: gradient norm              0.043585676274 Eh/a0 ::
         :: HOMO-LUMO gap              2.461488082101 eV    ::
         ::.................................................::
         :: H0 energy               -104.796608553131 Eh    ::
         :: repulsion energy           1.871864125553 Eh    ::
         :: electrostat energy        -0.112387108629 Eh    ::
         :: -> Gsolv                   0.000000000000 Eh    ::
         ::    -> Gsasa                0.000000000000 Eh    ::
         ::    -> Gshift               0.000000000000 Eh    ::
         :: dispersion energy         -0.047649256022 Eh    ::
         :: short-range corr.         -0.025215300725 Eh    ::
         :: add. restraining           0.000000000000 Eh    ::
         :: total charge               0.000000000000 e     ::
         :::::::::::::::::::::::::::::::::::::::::::::::::::::

           -------------------------------------------------
          |                Property Printout                |
           -------------------------------------------------

    * Orbital Energies and Occupations

         #    Occupation            Energy/Eh            Energy/eV
      -------------------------------------------------------------
         1        2.0000           -0.6947347             -18.9047
       ...           ...                  ...                  ...
        85        2.0000           -0.4536158             -12.3435
        86        2.0000           -0.4490794             -12.2201
        87        2.0000           -0.4462024             -12.1418
        88        2.0000           -0.4430297             -12.0555
        89        2.0000           -0.4398846             -11.9699
        90        2.0000           -0.4372415             -11.8979
        91        2.0000           -0.4334132             -11.7938
        92        2.0000           -0.4231941             -11.5157
        93        2.0000           -0.4228338             -11.5059
        94        2.0000           -0.4119743             -11.2104
        95        2.0000           -0.4112580             -11.1909
        96        2.0000           -0.3932694             -10.7014
        97        2.0000           -0.3919394             -10.6652 (HOMO)
        98                         -0.3014814              -8.2037 (LUMO)
        99                         -0.3009541              -8.1894
       100                         -0.2742050              -7.4615
       101                         -0.2734860              -7.4419
       102                         -0.2689870              -7.3195
       103                         -0.2675239              -7.2797
       104                         -0.2565224              -6.9803
       105                         -0.2550207              -6.9395
       106                         -0.2323022              -6.3213
       107                         -0.2304900              -6.2720
       108                         -0.1855808              -5.0499
       ...                                ...                  ...
       220                          0.6556288              17.8406
      -------------------------------------------------------------
                  HL-Gap            0.0904580 Eh            2.4615 eV
             Fermi-level            0.0000000 Eh            0.0000 eV

     #   Z          covCN         q      C6AA      α(0)
     1   8 o        1.659    -0.554    23.898     6.613
     2   6 c        2.850     0.227    24.527     8.091
     3   6 c        2.971    -0.013    29.838     8.932
     4   6 c        2.977     0.096    27.254     8.537
     5   6 c        2.924    -0.102    32.217     9.279
     6   6 c        2.918    -0.093    31.971     9.243
     7   6 c        2.924    -0.112    32.488     9.318
     8   6 c        2.967     0.027    28.865     8.785
     9   6 c        3.865     0.009    22.831     6.879
    10   6 c        3.806    -0.186    27.005     7.488
    11   6 c        3.806    -0.191    27.118     7.504
    12   6 c        2.934    -0.162    33.911     9.520
    13   6 c        2.925    -0.197    34.976     9.668
    14   6 c        2.984     0.069    27.872     8.633
    15   6 c        2.919    -0.131    33.030     9.395
    16   6 c        2.915    -0.087    31.808     9.219
    17   6 c        2.917    -0.091    31.921     9.236
    18   6 c        2.918    -0.114    32.543     9.325
    19   6 c        2.989     0.042    28.484     8.727
    20   6 c        2.974    -0.037    30.470     9.026
    21   6 c        2.974    -0.060    31.069     9.115
    22   6 c        2.849     0.214    24.782     8.133
    23   8 o        1.660    -0.538    23.531     6.562
    24   6 c        2.970    -0.051    30.828     9.079
    25   6 c        2.976     0.062    28.039     8.659
    26   6 c        2.923    -0.152    33.622     9.479
    27   6 c        2.917    -0.082    31.662     9.198
    28   6 c        2.924    -0.115    32.568     9.329
    29   6 c        2.966     0.024    28.926     8.794
    30   6 c        3.865     0.008    22.852     6.882
    31   6 c        3.806    -0.189    27.070     7.497
    32   6 c        3.806    -0.188    27.041     7.493
    33   6 c        2.933    -0.153    33.656     9.484
    34   6 c        2.924    -0.182    34.511     9.604
    35   6 c        2.984     0.067    27.910     8.639
    36   6 c        2.919    -0.133    33.083     9.402
    37   6 c        2.916    -0.088    31.824     9.221
    38   6 c        2.917    -0.090    31.888     9.231
    39   6 c        2.918    -0.119    32.697     9.347
    40   6 c        2.988     0.017    29.090     8.820
    41   1 h        0.805     0.312     0.685     1.300
    42   1 h        0.926     0.130     1.536     1.938
    43   1 h        0.926     0.095     1.827     2.114
    44   1 h        0.926     0.091     1.867     2.137
    45   1 h        0.925     0.057     2.238     2.339
    46   1 h        0.926     0.099     1.791     2.093
    47   1 h        0.926     0.094     1.843     2.123
    48   1 h        0.926     0.097     1.809     2.103
    49   1 h        0.926     0.093     1.852     2.128
    50   1 h        0.925     0.108     1.714     2.047
    51   1 h        0.926     0.117     1.635     1.999
    52   1 h        0.926     0.099     1.798     2.097
    53   1 h        0.926     0.092     1.858     2.132
    54   1 h        0.926     0.094     1.840     2.121
    55   1 h        0.926     0.118     1.627     1.995
    56   1 h        0.805     0.299     0.724     1.336
    57   1 h        0.925     0.116     1.643     2.004
    58   1 h        0.926     0.093     1.850     2.127
    59   1 h        0.926     0.091     1.871     2.139
    60   1 h        0.925     0.055     2.258     2.350
    61   1 h        0.926     0.092     1.858     2.132
    62   1 h        0.926     0.097     1.808     2.103
    63   1 h        0.926     0.098     1.804     2.101
    64   1 h        0.926     0.093     1.854     2.129
    65   1 h        0.926     0.103     1.759     2.074
    66   1 h        0.926     0.117     1.635     2.000
    67   1 h        0.926     0.098     1.802     2.099
    68   1 h        0.926     0.092     1.863     2.134
    69   1 h        0.926     0.093     1.849     2.126
    70   1 h        0.926     0.112     1.679     2.026

 Mol. C6AA /au·bohr⁶  :      65977.039218
 Mol. C8AA /au·bohr⁸  :    1685098.678605
 Mol. α(0) /au        :        408.934874


Wiberg/Mayer (AO) data.
largest (>0.10) Wiberg bond orders for each atom

 ---------------------------------------------------------------------------
     #   Z sym  total        # sym  WBO       # sym  WBO       # sym  WBO
 ---------------------------------------------------------------------------
     1   8 o    2.310 --     2 c    1.131    41 h    0.967
     2   6 c    3.942 --    20 c    1.419     3 c    1.212     1 o    1.131
     3   6 c    3.976 --    13 c    1.519     2 c    1.212     4 c    1.034
     4   6 c    3.976 --    12 c    1.397     5 c    1.386     3 c    1.034
                             7 c    0.102
     5   6 c    3.983 --     6 c    1.443     4 c    1.386    42 h    0.969
                             8 c    0.103
     6   6 c    3.987 --     7 c    1.444     5 c    1.443    43 h    0.972
                            12 c    0.105
     7   6 c    3.983 --     6 c    1.444     8 c    1.390    44 h    0.969
                             4 c    0.102
     8   6 c    3.976 --    12 c    1.404     7 c    1.390     9 c    1.043
                             5 c    0.103
     9   6 c    3.947 --     8 c    1.043    45 h    0.975    10 c    0.949
                            11 c    0.949
    10   6 c    3.949 --    11 c    1.002    47 h    0.981    46 h    0.978
                             9 c    0.949
    11   6 c    3.949 --    10 c    1.002    49 h    0.981    48 h    0.978
                             9 c    0.949
    12   6 c    3.982 --     8 c    1.404     4 c    1.397    50 h    0.966
                             6 c    0.105
    13   6 c    3.985 --     3 c    1.519    14 c    1.271    51 h    0.965
    14   6 c    3.978 --    15 c    1.281    13 c    1.271    19 c    1.241
    15   6 c    3.980 --    16 c    1.550    14 c    1.281    52 h    0.969
                            18 c    0.115
    16   6 c    3.975 --    15 c    1.550    17 c    1.320    53 h    0.973
    17   6 c    3.982 --    18 c    1.555    16 c    1.320    54 h    0.972
    18   6 c    3.987 --    17 c    1.555    19 c    1.273    55 h    0.966
                            15 c    0.115
    19   6 c    3.977 --    18 c    1.273    20 c    1.255    14 c    1.241
    20   6 c    3.965 --     2 c    1.419    19 c    1.255    21 c    0.993
    21   6 c    3.966 --    22 c    1.408    40 c    1.256    20 c    0.993
    22   6 c    3.941 --    21 c    1.408    24 c    1.213    23 o    1.135
    23   8 o    2.308 --    22 c    1.135    56 h    0.967
    24   6 c    3.975 --    34 c    1.520    22 c    1.213    25 c    1.028
    25   6 c    3.975 --    33 c    1.398    26 c    1.382    24 c    1.028
                            28 c    0.102
    26   6 c    3.983 --    27 c    1.434    25 c    1.382    57 h    0.969
                            29 c    0.102
    27   6 c    3.987 --    28 c    1.450    26 c    1.434    58 h    0.972
                            33 c    0.105
    28   6 c    3.984 --    27 c    1.450    29 c    1.386    59 h    0.969
                            25 c    0.102
    29   6 c    3.976 --    33 c    1.405    28 c    1.386    30 c    1.045
                            26 c    0.102
    30   6 c    3.947 --    29 c    1.045    60 h    0.975    31 c    0.948
                            32 c    0.948
    31   6 c    3.949 --    32 c    1.002    61 h    0.981    62 h    0.978
                            30 c    0.948
    32   6 c    3.949 --    31 c    1.002    64 h    0.981    63 h    0.978
                            30 c    0.948
    33   6 c    3.982 --    29 c    1.405    25 c    1.398    65 h    0.966
                            27 c    0.105
    34   6 c    3.985 --    24 c    1.520    35 c    1.272    66 h    0.965
    35   6 c    3.978 --    36 c    1.280    34 c    1.272    40 c    1.241
    36   6 c    3.980 --    37 c    1.552    35 c    1.280    67 h    0.969
                            39 c    0.115
    37   6 c    3.975 --    36 c    1.552    38 c    1.318    68 h    0.973
    38   6 c    3.983 --    39 c    1.557    37 c    1.318    69 h    0.973
    39   6 c    3.987 --    38 c    1.557    40 c    1.272    70 h    0.966
                            36 c    0.115
    40   6 c    3.977 --    39 c    1.272    21 c    1.256    35 c    1.241
    41   1 h    0.988 --     1 o    0.967
    42   1 h    0.990 --     5 c    0.969
    43   1 h    0.983 --     6 c    0.972
    44   1 h    0.973 --     7 c    0.969
    45   1 h    0.977 --     9 c    0.975
    46   1 h    0.980 --    10 c    0.978
    47   1 h    0.985 --    10 c    0.981
    48   1 h    0.980 --    11 c    0.978
    49   1 h    0.985 --    11 c    0.981
    50   1 h    0.975 --    12 c    0.966
    51   1 h    0.973 --    13 c    0.965
    52   1 h    0.978 --    15 c    0.969
    53   1 h    0.983 --    16 c    0.973
    54   1 h    0.983 --    17 c    0.972
    55   1 h    0.980 --    18 c    0.966
    56   1 h    0.986 --    23 o    0.967
    57   1 h    0.981 --    26 c    0.969
    58   1 h    0.983 --    27 c    0.972
    59   1 h    0.973 --    28 c    0.969
    60   1 h    0.977 --    30 c    0.975
    61   1 h    0.985 --    31 c    0.981
    62   1 h    0.980 --    31 c    0.978
    63   1 h    0.980 --    32 c    0.978
    64   1 h    0.985 --    32 c    0.981
    65   1 h    0.975 --    33 c    0.966
    66   1 h    0.974 --    34 c    0.965
    67   1 h    0.978 --    36 c    0.969
    68   1 h    0.983 --    37 c    0.973
    69   1 h    0.983 --    38 c    0.973
    70   1 h    0.981 --    39 c    0.966
 ---------------------------------------------------------------------------

Topologies differ in total number of bonds
Writing topology from bond orders to xtbtopo.mol

 dipole moment from electron density (au)
     X       Y       Z   
   1.1949   1.5062   0.1086  total (Debye):    4.895


           -------------------------------------------------
          | TOTAL ENERGY             -103.109996092955 Eh   |
          | GRADIENT NORM               0.043585676274 Eh/α |
          | HOMO-LUMO GAP               2.461488082101 eV   |
           -------------------------------------------------

------------------------------------------------------------------------
 * finished run on 2025/01/21 at 11:31:23.792     
------------------------------------------------------------------------
 total:
 * wall-time:     0 d,  0 h,  0 min,  0.095 sec
 *  cpu-time:     0 d,  0 h,  0 min,  2.002 sec
 * ratio c/w:    21.072 speedup
 SCF:
 * wall-time:     0 d,  0 h,  0 min,  0.047 sec
 *  cpu-time:     0 d,  0 h,  0 min,  1.145 sec
 * ratio c/w:    24.545 speedup

 Calculating WBOs... done.
      -----------------------------------------------------------      
     |                   =====================                   |     
     |                           x T B                           |     
     |                   =====================                   |     
     |                         S. Grimme                         |     
     |          Mulliken Center for Theoretical Chemistry        |     
     |                    University of Bonn                     |     
      -----------------------------------------------------------      

   * xtb version 6.4.1 (afa7bdf) compiled by 'ehlert@majestix' on 2021-06-10

   xtb is free software: you can redistribute it and/or modify it under
   the terms of the GNU Lesser General Public License as published by
   the Free Software Foundation, either version 3 of the License, or
   (at your option) any later version.
   
   xtb is distributed in the hope that it will be useful,
   but WITHOUT ANY WARRANTY; without even the implied warranty of
   MERCHANTABILITY or FITNESS FOR A PARTICULAR PURPOSE.  See the
   GNU Lesser General Public License for more details.
   
   Cite this work as:
   * C. Bannwarth, E. Caldeweyher, S. Ehlert, A. Hansen, P. Pracht,
     J. Seibert, S. Spicher, S. Grimme, WIREs Comput. Mol. Sci., 2020, 11,
     e01493. DOI: 10.1002/wcms.1493
   
   for GFN2-xTB:
   * C. Bannwarth, S. Ehlert and S. Grimme., J. Chem. Theory Comput., 2019,
     15, 1652-1671. DOI: 10.1021/acs.jctc.8b01176
   for GFN1-xTB:
   * S. Grimme, C. Bannwarth, P. Shushkov, J. Chem. Theory Comput., 2017,
     13, 1989-2009. DOI: 10.1021/acs.jctc.7b00118
   for GFN0-xTB:
   * P. Pracht, E. Caldeweyher, S. Ehlert, S. Grimme, ChemRxiv, 2019, preprint.
     DOI: 10.26434/chemrxiv.8326202.v1
   for GFN-FF:
   * S. Spicher and S. Grimme, Angew. Chem. Int. Ed., 2020, 59, 15665-15673.
     DOI: 10.1002/anie.202004239
   
   for DFT-D4:
   * E. Caldeweyher, C. Bannwarth and S. Grimme, J. Chem. Phys., 2017,
     147, 034112. DOI: 10.1063/1.4993215
   * E. Caldeweyher, S. Ehlert, A. Hansen, H. Neugebauer, S. Spicher,
     C. Bannwarth and S. Grimme, J. Chem. Phys., 2019, 150, 154122.
     DOI: 10.1063/1.5090222
   * E. Caldeweyher, J.-M. Mewes, S. Ehlert and S. Grimme, Phys. Chem. Chem. Phys.
     2020, 22, 8499-8512. DOI: 10.1039/D0CP00502A
   
   for sTDA-xTB:
   * S. Grimme and C. Bannwarth, J. Chem. Phys., 2016, 145, 054103.
     DOI: 10.1063/1.4959605
   
   in the mass-spec context:
   * V. Asgeirsson, C. Bauer and S. Grimme, Chem. Sci., 2017, 8, 4879.
     DOI: 10.1039/c7sc00601b
   * J. Koopman and S. Grimme, ACS Omega 2019, 4, 12, 15120-15133.
     DOI: 10.1021/acsomega.9b02011
   
   for metadynamics refer to:
   * S. Grimme, J. Chem. Theory Comput., 2019, 155, 2847-2862
     DOI: 10.1021/acs.jctc.9b00143
   
   for SPH calculations refer to:
   * S. Spicher and S. Grimme, J. Chem. Theory Comput., 2021, 17, 1701-1714
     DOI: 10.1021/acs.jctc.0c01306
   
   with help from (in alphabetical order)
   P. Atkinson, C. Bannwarth, F. Bohle, G. Brandenburg, E. Caldeweyher
   M. Checinski, S. Dohm, S. Ehlert, S. Ehrlich, I. Gerasimov, J. Koopman
   C. Lavigne, S. Lehtola, F. März, M. Müller, F. Musil, H. Neugebauer
   J. Pisarek, C. Plett, P. Pracht, J. Seibert, P. Shushkov, S. Spicher
   M. Stahn, M. Steiner, T. Strunk, J. Stückrath, T. Rose, and J. Unsleber
   
 * started run on 2025/01/21 at 11:31:23.832     

           -------------------------------------------------
          |                Calculation Setup                |
           -------------------------------------------------

          program call               : xtb tmpcoord --gfnff --sp
          hostname                   : node26
          coordinate file            : tmpcoord
          omp threads                :                    28
          number of atoms            :                    70
          number of electrons        :                   194
          charge                     :                     0
          spin                       :                   0.0
          first test random number   :      0.74426601979072

   ID    Z sym.   atoms
    1    8 o      1, 23
    2    6 c      2-22, 24-40
    3    1 h      41-70
 
          ==================== Thresholds ====================
          CN  :   150.00000
          rep :   500.00000
          disp:  2500.00000
          HB1 :   250.00000
          HB2 :   450.00000
 
          Pauling EN used:
          Z : 1  EN :  2.20
          Z : 6  EN :  2.55
          Z : 8  EN :  3.44
          electric field strengths (au): 0.000
 
           ------------------------------------------------- 
          |           Force Field Initialization            |
           ------------------------------------------------- 
 
          distances ...
          ----------------------------------------
          generating topology and atomic info file ...
          pair mat ...
          computing topology distances matrix with Floyd-Warshall algo ...
          making topology EEQ charges ...
          #fragments for EEQ constrain: 1
          ----------------------------------------
          generating topology and atomic info file ...
          pair mat ...
          computing topology distances matrix with Floyd-Warshall algo ...
          making topology EEQ charges ...
          #fragments for EEQ constrain: 1
          rings ...
          # BATM   788
          # H in HB   20
          doing iterative Hueckel for 1 subsystem(s) ...
 
  atom   neighbors  erfCN metchar sp-hybrid imet pi  qest     coordinates
    1  o       2    1.92   0.00         3    0    1  -0.451   -2.980411    0.173037    2.840551
    2  c       3    2.82   0.00         2    0    1   0.095   -3.337595   -0.975974    0.566795
    3  c       3    2.82   0.00         2    0    1  -0.012   -5.761577   -0.803320   -0.567390
    4  c       3    2.82   0.00         2    0    1  -0.004   -7.833570    0.540438    0.713817
    5  c       3    2.82   0.00         2    0    1  -0.038   -8.398350    0.076964    3.238776
    6  c       3    2.81   0.00         2    0    1  -0.007  -10.389384    1.326733    4.377154
    7  c       3    2.82   0.00         2    0    1  -0.052  -11.827294    3.045518    3.033200
    8  c       3    2.81   0.00         2    0    1   0.007  -11.292240    3.542123    0.506233
    9  c       4    3.49   0.00         3    0    0  -0.029  -12.774730    5.371531   -1.000977
   10  c       4    3.49   0.00         3    0    0  -0.049  -13.826360    7.739589    0.178167
   11  c       4    3.49   0.00         3    0    0  -0.049  -15.577946    5.674104   -0.607555
   12  c       3    2.83   0.00         2    0    1  -0.038   -9.293937    2.267245   -0.623604
   13  c       3    2.82   0.00         2    0    1  -0.025   -6.138738   -1.905364   -2.883406
   14  c       3    2.83   0.00         2    0    1  -0.019   -4.207120   -3.226687   -4.147774
   15  c       3    2.81   0.00         2    0    1  -0.024   -4.601430   -4.378953   -6.517314
   16  c       3    2.81   0.00         2    0    1  -0.034   -2.695315   -5.659886   -7.699176
   17  c       3    2.81   0.00         2    0    1  -0.033   -0.309765   -5.846384   -6.557715
   18  c       3    2.81   0.00         2    0    1  -0.034    0.134009   -4.749600   -4.261242
   19  c       3    2.83   0.00         2    0    1   0.003   -1.792776   -3.410830   -2.998343
   20  c       3    2.82   0.00         2    0    1  -0.002   -1.400832   -2.247900   -0.622968
   21  c       3    2.82   0.00         2    0    1  -0.002    1.125931   -2.364633    0.600775
   22  c       3    2.82   0.00         2    0    1   0.095    2.841237   -0.448200    0.152613
   23  o       2    1.92   0.00         3    0    1  -0.451    2.130004    1.462721   -1.412599
   24  c       3    2.81   0.00         2    0    1  -0.012    5.280633   -0.518613    1.263385
   25  c       3    2.82   0.00         2    0    1  -0.004    7.114258    1.523465    0.767946
   26  c       3    2.82   0.00         2    0    1  -0.038    6.493884    4.046479    1.199485
   27  c       3    2.81   0.00         2    0    1  -0.007    8.258711    5.917959    0.728285
   28  c       3    2.82   0.00         2    0    1  -0.052   10.631324    5.309156   -0.177380
   29  c       3    2.81   0.00         2    0    1   0.007   11.294210    2.799045   -0.613338
   30  c       4    3.49   0.00         3    0    0  -0.029   13.811326    2.065416   -1.573269
   31  c       4    3.49   0.00         3    0    0  -0.049   16.153491    3.488736   -0.799831
   32  c       4    3.49   0.00         3    0    0  -0.049   15.203286    3.700098   -3.444492
   33  c       3    2.82   0.00         2    0    1  -0.038    9.512396    0.932308   -0.127216
   34  c       3    2.82   0.00         2    0    1  -0.025    5.926746   -2.523011    2.776573
   35  c       3    2.83   0.00         2    0    1  -0.019    4.219789   -4.495083    3.292407
   36  c       3    2.81   0.00         2    0    1  -0.024    4.864066   -6.546212    4.867265
   37  c       3    2.81   0.00         2    0    1  -0.034    3.168371   -8.437778    5.328917
   38  c       3    2.81   0.00         2    0    1  -0.033    0.753899   -8.362501    4.232670
   39  c       3    2.81   0.00         2    0    1  -0.034    0.069514   -6.400778    2.699028
   40  c       3    2.83   0.00         2    0    1   0.003    1.776319   -4.416384    2.189884
   41  h       1    0.97   0.00         0    0    0   0.234   -1.226647   -0.014207    3.319670
   42  h       1    0.97   0.00         0    0    0   0.053   -7.292106   -1.269229    4.296264
   43  h       1    0.97   0.00         0    0    0   0.021  -10.829003    0.956727    6.337062
   44  h       1    0.97   0.00         0    0    0   0.035  -13.369881    4.001951    3.966367
   45  h       1    0.97   0.00         0    0    0   0.028  -12.114691    5.547481   -2.932286
   46  h       1    0.97   0.00         0    0    0   0.038  -13.501347    8.037794    2.169348
   47  h       1    0.97   0.00         0    0    0   0.038  -13.785321    9.456707   -0.922817
   48  h       1    0.97   0.00         0    0    0   0.038  -16.464990    4.544386    0.840332
   49  h       1    0.97   0.00         0    0    0   0.038  -16.750134    5.961514   -2.252665
   50  h       1    0.97   0.00         0    0    0   0.053   -8.837918    2.648574   -2.578741
   51  h       1    0.97   0.00         0    0    0   0.043   -7.982477   -1.793028   -3.754729
   52  h       1    0.97   0.00         0    0    0   0.042   -6.446298   -4.228463   -7.381471
   53  h       1    0.97   0.00         0    0    0   0.047   -3.010755   -6.537987   -9.515131
   54  h       1    0.97   0.00         0    0    0   0.046    1.178949   -6.868579   -7.510757
   55  h       1    0.97   0.00         0    0    0   0.044    1.971215   -4.898129   -3.382616
   56  h       1    0.97   0.00         0    0    0   0.234    3.531776    2.611068   -1.652861
   57  h       1    0.97   0.00         0    0    0   0.053    4.666270    4.541484    1.968195
   58  h       1    0.97   0.00         0    0    0   0.021    7.776042    7.870508    1.077275
   59  h       1    0.97   0.00         0    0    0   0.035   11.972656    6.803305   -0.535812
   60  h       1    0.97   0.00         0    0    0   0.028   14.025331    0.042513   -1.812062
   61  h       1    0.97   0.00         0    0    0   0.038   17.851578    2.412149   -0.455652
   62  h       1    0.97   0.00         0    0    0   0.038   15.931361    5.085463    0.449295
   63  h       1    0.97   0.00         0    0    0   0.038   14.321256    5.443594   -4.029160
   64  h       1    0.97   0.00         0    0    0   0.038   16.242031    2.770660   -4.933579
   65  h       1    0.97   0.00         0    0    0   0.053    9.982724   -1.026259   -0.467629
   66  h       1    0.97   0.00         0    0    0   0.043    7.783378   -2.576219    3.625956
   67  h       1    0.97   0.00         0    0    0   0.042    6.728146   -6.589330    5.700975
   68  h       1    0.97   0.00         0    0    0   0.047    3.673211  -10.003203    6.537465
   69  h       1    0.97   0.00         0    0    0   0.046   -0.564060   -9.874169    4.611602
   70  h       1    0.97   0.00         0    0    0   0.044   -1.784709   -6.342030    1.847269
 
          #atoms :   70
          #bonds :   77
          #angl  :   134
          #tors  :   244
          #nmol  :   1
          #optfrag :   1
           ------------------------------------------------- 
          |                   G F N - F F                   |
          |          A general generic force-field          |
          |                  Version 1.0.3                  | 
           ------------------------------------------------- 
          nhb123   5380 499 0

 E+G (total)                   0 d,  0 h,  0 min,  0.004 sec
 distance/D3 list               ...        0 min,  0.000 sec (  0.839%)
 non bonded repulsion           ...        0 min,  0.000 sec (  7.139%)
 dCN                            ...        0 min,  0.000 sec (  5.661%)
 EEQ energy and q               ...        0 min,  0.000 sec ( 12.039%)
 D3                             ...        0 min,  0.001 sec ( 12.854%)
 EEQ gradient                   ...        0 min,  0.000 sec (  8.695%)
 bonds                          ...        0 min,  0.000 sec (  9.078%)
 bend and torsion               ...        0 min,  0.000 sec ( 12.629%)
 bonded ATM                     ...        0 min,  0.000 sec (  1.149%)
 HB/XB (incl list setup)        ...        0 min,  0.001 sec ( 24.565%)

         :::::::::::::::::::::::::::::::::::::::::::::::::::::
         ::                     SUMMARY                     ::
         :::::::::::::::::::::::::::::::::::::::::::::::::::::
         :: total energy             -14.468377053847 Eh    ::
         :: gradient norm              0.075051600915 Eh/a0 ::
         ::.................................................::
         :: bond energy              -15.396614609614 Eh    ::
         :: angle energy               0.098093829963 Eh    ::
         :: torsion energy             0.040588157428 Eh    ::
         :: repulsion energy           1.016093875950 Eh    ::
         :: electrostat energy        -0.139391926676 Eh    ::
         :: dispersion energy         -0.070545232128 Eh    ::
         :: HB energy                 -0.001252316027 Eh    ::
         :: XB energy                  0.000000000000 Eh    ::
         :: bonded atm energy         -0.015348832743 Eh    ::
         :: external energy            0.000000000000 Eh    ::
         :: add. restraining           0.000000000000 Eh    ::
         :: total charge              -0.000000000000 e     ::
         :::::::::::::::::::::::::::::::::::::::::::::::::::::

           -------------------------------------------------
          |                Property Printout                |
           -------------------------------------------------

           -------------------------------------------------
          | TOTAL ENERGY              -14.468377053847 Eh   |
          | GRADIENT NORM               0.075051600915 Eh/α |
           -------------------------------------------------

------------------------------------------------------------------------
 * finished run on 2025/01/21 at 11:31:23.874     
------------------------------------------------------------------------
 total:
 * wall-time:     0 d,  0 h,  0 min,  0.042 sec
 *  cpu-time:     0 d,  0 h,  0 min,  0.642 sec
 * ratio c/w:    15.356 speedup
 SCF:
 * wall-time:     0 d,  0 h,  0 min,  0.006 sec
 *  cpu-time:     0 d,  0 h,  0 min,  0.156 sec
 * ratio c/w:    24.367 speedup

 Calculating NCI flexibility... done.
     covalent flexibility measure :   0.028
 non-covalent flexibility measure :   1.000
 flexibility measure :   0.098
 t(MTD) / ps set by command line  :     0.5
 t(MTD) / ps    :     0.5
 Σ(t(MTD)) / ps :     7.0 (14 MTDs)
 
-------------------------------------
Starting a trial MTD to test settings
-------------------------------------
 Estimated runtime for one MTD (0.5 ps) on a single thread: 2 min 32 sec
 Estimated runtime for a batch of 14 MTDs on 28 threads: 1 min 16 sec
 
 list of Vbias parameters applied:
$metadyn    0.00300   1.300
$metadyn    0.00150   1.300
$metadyn    0.00075   1.300
$metadyn    0.00300   0.780
$metadyn    0.00150   0.780
$metadyn    0.00075   0.780
$metadyn    0.00300   0.468
$metadyn    0.00150   0.468
$metadyn    0.00075   0.468
$metadyn    0.00300   0.281
$metadyn    0.00150   0.281
$metadyn    0.00075   0.281
$metadyn    0.00100   0.100
$metadyn    0.00500   0.800
 
*******************************************************************************************
**                        N E W    I T E R A T I O N    C Y C L E                        **
*******************************************************************************************
 
========================================
            MTD Iteration  1
========================================
 
     ========================================
     |         Meta-MD (MTD) Sampling       |
     ========================================
 
Starting Meta-MD   1 with the settings:
     MD time /ps        :     0.5
     dt /fs             :     1.5
     dumpstep(trj) /fs  :     100
     dumpstep(Vbias)/ps :     1.0
     Vbias factor k /Eh :  0.2100
     Vbias exp α /bohr⁻²:    1.30
Starting Meta-MD   6 with the settings:
     MD time /ps        :     0.5
     dt /fs             :     1.5
     dumpstep(trj) /fs  :     100
     dumpstep(Vbias)/ps :     1.0
     Vbias factor k /Eh :  0.0525
     Vbias exp α /bohr⁻²:    0.78
Starting Meta-MD   7 with the settings:
     MD time /ps        :     0.5
     dt /fs             :     1.5
     dumpstep(trj) /fs  :     100
     dumpstep(Vbias)/ps :     1.0
     Vbias factor k /Eh :  0.2100
     Vbias exp α /bohr⁻²:    0.47
Starting Meta-MD   5 with the settings:
     MD time /ps        :     0.5
     dt /fs             :     1.5
     dumpstep(trj) /fs  :     100
     dumpstep(Vbias)/ps :     1.0
     Vbias factor k /Eh :  0.1050
     Vbias exp α /bohr⁻²:    0.78
Starting Meta-MD   4 with the settings:
     MD time /ps        :     0.5
     dt /fs             :     1.5
     dumpstep(trj) /fs  :     100
     dumpstep(Vbias)/ps :     1.0
     Vbias factor k /Eh :  0.2100
     Vbias exp α /bohr⁻²:    0.78
Starting Meta-MD   8 with the settings:
     MD time /ps        :     0.5
     dt /fs             :     1.5
     dumpstep(trj) /fs  :     100
     dumpstep(Vbias)/ps :     1.0
     Vbias factor k /Eh :  0.1050
     Vbias exp α /bohr⁻²:    0.47
Starting Meta-MD  14 with the settings:
     MD time /ps        :     0.5
     dt /fs             :     1.5
     dumpstep(trj) /fs  :     100
     dumpstep(Vbias)/ps :     1.0
     Vbias factor k /Eh :  0.3500
     Vbias exp α /bohr⁻²:    0.80
Starting Meta-MD  13 with the settings:
     MD time /ps        :     0.5
     dt /fs             :     1.5
     dumpstep(trj) /fs  :     100
     dumpstep(Vbias)/ps :     1.0
     Vbias factor k /Eh :  0.0700
     Vbias exp α /bohr⁻²:    0.10
Starting Meta-MD  11 with the settings:
     MD time /ps        :     0.5
     dt /fs             :     1.5
     dumpstep(trj) /fs  :     100
     dumpstep(Vbias)/ps :     1.0
     Vbias factor k /Eh :  0.1050
     Vbias exp α /bohr⁻²:    0.28
Starting Meta-MD  10 with the settings:
     MD time /ps        :     0.5
     dt /fs             :     1.5
     dumpstep(trj) /fs  :     100
     dumpstep(Vbias)/ps :     1.0
     Vbias factor k /Eh :  0.2100
     Vbias exp α /bohr⁻²:    0.28
Starting Meta-MD   2 with the settings:
     MD time /ps        :     0.5
     dt /fs             :     1.5
     dumpstep(trj) /fs  :     100
     dumpstep(Vbias)/ps :     1.0
     Vbias factor k /Eh :  0.1050
     Vbias exp α /bohr⁻²:    1.30
Starting Meta-MD   3 with the settings:
     MD time /ps        :     0.5
     dt /fs             :     1.5
     dumpstep(trj) /fs  :     100
     dumpstep(Vbias)/ps :     1.0
     Vbias factor k /Eh :  0.0525
     Vbias exp α /bohr⁻²:    1.30
Starting Meta-MD   9 with the settings:
     MD time /ps        :     0.5
     dt /fs             :     1.5
     dumpstep(trj) /fs  :     100
     dumpstep(Vbias)/ps :     1.0
     Vbias factor k /Eh :  0.0525
     Vbias exp α /bohr⁻²:    0.47
Starting Meta-MD  12 with the settings:
     MD time /ps        :     0.5
     dt /fs             :     1.5
     dumpstep(trj) /fs  :     100
     dumpstep(Vbias)/ps :     1.0
     Vbias factor k /Eh :  0.0525
     Vbias exp α /bohr⁻²:    0.28
*Meta-MTD 3 finished*
*Meta-MTD 5 finished*
*Meta-MTD 10 finished*
*Meta-MTD 14 finished*
*Meta-MTD 6 finished*
*Meta-MTD 9 finished*
*Meta-MTD 13 finished*
*Meta-MTD 11 finished*
*Meta-MTD 4 finished*
*Meta-MTD 12 finished*
*Meta-MTD 1 finished*
*Meta-MTD 2 finished*
*Meta-MTD 8 finished*
*Meta-MTD 7 finished*
 
-----------------------
Multilevel Optimization
-----------------------
 
 -------------------------
 1. crude pre-optimization
 -------------------------
 Optimizing all 70 structures from file "crest_rotamers_0.xyz" ...
 1 2 3 4 5 6 7 8 9 10 11 12 13 14 15 16 17 18 19 20 21 22 23 24 25 26 27 28 29 30 31 32 33 34 35 36 37 38 39 40 41 42 43 44 45 46 47 48 49 50 51 52 53 54 55 56 57 58 59 60 61 62 63 64 65 66 67 68 69 70
 done.
 running RMSDs...
 done.
 E lowest :  -104.78033
 62 structures remain within    12.00 kcal/mol window
 
 -------------------------------------
 2. optimization with tight thresholds
 -------------------------------------
 Optimizing all 63 structures from file "crest_rotamers_1.xyz" ...
 1 2 3 4 5 6 7 8 9 10 11 12 13 14 15 16 17 18 19 20 21 22 23 24 25 26 27 28 29 30 31 32 33 34 35 36 37 38 39 40 41 42 43 44 45 46 47 48 49 50 51 52 53 54 55 56 57 58 59 60 61 62 63
 done.
 running RMSDs...
 done.
 E lowest :  -104.78227
 31 structures remain within     6.00 kcal/mol window
 
 
========================================
            MTD Iteration  2
========================================
 
     ========================================
     |         Meta-MD (MTD) Sampling       |
     ========================================
 
Starting Meta-MD   1 with the settings:
     MD time /ps        :     0.5
     dt /fs             :     1.5
     dumpstep(trj) /fs  :     100
     dumpstep(Vbias)/ps :     1.0
     Vbias factor k /Eh :  0.2100
     Vbias exp α /bohr⁻²:    1.30
Starting Meta-MD   2 with the settings:
     MD time /ps        :     0.5
     dt /fs             :     1.5
     dumpstep(trj) /fs  :     100
     dumpstep(Vbias)/ps :     1.0
     Vbias factor k /Eh :  0.1050
     Vbias exp α /bohr⁻²:    1.30
Starting Meta-MD   3 with the settings:
     MD time /ps        :     0.5
     dt /fs             :     1.5
     dumpstep(trj) /fs  :     100
     dumpstep(Vbias)/ps :     1.0
     Vbias factor k /Eh :  0.0525
     Vbias exp α /bohr⁻²:    1.30
Starting Meta-MD   4 with the settings:
     MD time /ps        :     0.5
     dt /fs             :     1.5
     dumpstep(trj) /fs  :     100
     dumpstep(Vbias)/ps :     1.0
     Vbias factor k /Eh :  0.2100
     Vbias exp α /bohr⁻²:    0.78
Starting Meta-MD   5 with the settings:
     MD time /ps        :     0.5
     dt /fs             :     1.5
     dumpstep(trj) /fs  :     100
     dumpstep(Vbias)/ps :     1.0
     Vbias factor k /Eh :  0.1050
     Vbias exp α /bohr⁻²:    0.78
Starting Meta-MD   6 with the settings:
     MD time /ps        :     0.5
     dt /fs             :     1.5
     dumpstep(trj) /fs  :     100
     dumpstep(Vbias)/ps :     1.0
     Vbias factor k /Eh :  0.0525
     Vbias exp α /bohr⁻²:    0.78
Starting Meta-MD   7 with the settings:
     MD time /ps        :     0.5
     dt /fs             :     1.5
     dumpstep(trj) /fs  :     100
     dumpstep(Vbias)/ps :     1.0
     Vbias factor k /Eh :  0.2100
     Vbias exp α /bohr⁻²:    0.47
Starting Meta-MD   8 with the settings:
     MD time /ps        :     0.5
     dt /fs             :     1.5
     dumpstep(trj) /fs  :     100
     dumpstep(Vbias)/ps :     1.0
     Vbias factor k /Eh :  0.1050
     Vbias exp α /bohr⁻²:    0.47
Starting Meta-MD   9 with the settings:
     MD time /ps        :     0.5
     dt /fs             :     1.5
     dumpstep(trj) /fs  :     100
     dumpstep(Vbias)/ps :     1.0
     Vbias factor k /Eh :  0.0525
     Vbias exp α /bohr⁻²:    0.47
Starting Meta-MD  10 with the settings:
     MD time /ps        :     0.5
     dt /fs             :     1.5
     dumpstep(trj) /fs  :     100
     dumpstep(Vbias)/ps :     1.0
     Vbias factor k /Eh :  0.2100
     Vbias exp α /bohr⁻²:    0.28
Starting Meta-MD  12 with the settings:
     MD time /ps        :     0.5
     dt /fs             :     1.5
     dumpstep(trj) /fs  :     100
     dumpstep(Vbias)/ps :     1.0
     Vbias factor k /Eh :  0.0525
     Vbias exp α /bohr⁻²:    0.28
Starting Meta-MD  11 with the settings:
     MD time /ps        :     0.5
     dt /fs             :     1.5
     dumpstep(trj) /fs  :     100
     dumpstep(Vbias)/ps :     1.0
     Vbias factor k /Eh :  0.1050
     Vbias exp α /bohr⁻²:    0.28
*Meta-MTD 10 finished*
*Meta-MTD 6 finished*
*Meta-MTD 8 finished*
*Meta-MTD 7 finished*
*Meta-MTD 9 finished*
*Meta-MTD 5 finished*
*Meta-MTD 1 finished*
*Meta-MTD 3 finished*
*Meta-MTD 12 finished*
*Meta-MTD 4 finished*
*Meta-MTD 11 finished*
*Meta-MTD 2 finished*
 
-----------------------
Multilevel Optimization
-----------------------
 
 -------------------------
 1. crude pre-optimization
 -------------------------
 Optimizing all 60 structures from file "crest_rotamers_0.xyz" ...
 1 2 3 4 5 6 7 8 9 10 11 12 13 14 15 16 17 18 19 20 21 22 23 24 25 26 27 28 29 30 31 32 33 34 35 36 37 38 39 40 41 42 43 44 45 46 47 48 49 50 51 52 53 54 55 56 57 58 59 60
 done.
 running RMSDs...
 done.
 E lowest :  -104.78164
 51 structures remain within    12.00 kcal/mol window
 
 -------------------------------------
 2. optimization with tight thresholds
 -------------------------------------
 Optimizing all 52 structures from file "crest_rotamers_1.xyz" ...
 1 2 3 4 5 6 7 8 9 10 11 12 13 14 15 16 17 18 19 20 21 22 23 24 25 26 27 28 29 30 31 32 33 34 35 36 37 38 39 40 41 42 43 44 45 46 47 48 49 50 51 52
 done.
 running RMSDs...
 done.
 E lowest :  -104.78234
 22 structures remain within     6.00 kcal/mol window
 
========================================
            MTD Iterations done         
========================================
 Collecting ensmbles.
 running RMSDs...
 done.
 E lowest :  -104.78234
 50 structures remain within     6.00 kcal/mol window
 
 -------------------------------
 Additional orientation sampling
 -------------------------------
 Optimizing all 100 structures from file "oh_ensemble.xyz" ...
 1 2 3 4 5 6 7 8 9 10 11 12 13 14 15 16 17 18 19 20 21 22 23 24 25 26 27 28 29 30 31 32 33 34 35 36 37 38 39 40 41 42 43 44 45 46 47 48 49 50 51 52 53 54 55 56 57 58 59 60 61 62 63 64 65 66 67 68 69 70 71 72 73 74 75 76 77 78 79 80 81 82 83 84 85 86 87 88 89 90 91 92 93 94 95 96 97 98 99 100
 done.
 running RMSDs...
 done.
 E lowest :  -104.78306
 145 structures remain within     6.00 kcal/mol window
 
-----------------------------------------------
Additional regular MDs on lowest 4 conformer(s)
-----------------------------------------------
Starting MD   1 with the settings:
     MD time /ps        :     0.2
     MD Temperature /K  :   400.0
     dt /fs             :     1.5
     dumpstep(trj) /fs  :     100
Starting MD   2 with the settings:
     MD time /ps        :     0.2
     MD Temperature /K  :   500.0
     dt /fs             :     1.5
     dumpstep(trj) /fs  :     100
Starting MD   4 with the settings:
     MD time /ps        :     0.2
     MD Temperature /K  :   500.0
     dt /fs             :     1.5
     dumpstep(trj) /fs  :     100
Starting MD   3 with the settings:
     MD time /ps        :     0.2
     MD Temperature /K  :   400.0
     dt /fs             :     1.5
     dumpstep(trj) /fs  :     100
Starting MD   5 with the settings:
     MD time /ps        :     0.2
     MD Temperature /K  :   400.0
     dt /fs             :     1.5
     dumpstep(trj) /fs  :     100
Starting MD   6 with the settings:
     MD time /ps        :     0.2
     MD Temperature /K  :   500.0
     dt /fs             :     1.5
     dumpstep(trj) /fs  :     100
Starting MD   8 with the settings:
     MD time /ps        :     0.2
     MD Temperature /K  :   500.0
     dt /fs             :     1.5
     dumpstep(trj) /fs  :     100
Starting MD   7 with the settings:
     MD time /ps        :     0.2
     MD Temperature /K  :   400.0
     dt /fs             :     1.5
     dumpstep(trj) /fs  :     100
*MD 6 finished*
*MD 8 finished*
*MD 1 finished*
*MD 5 finished*
*MD 7 finished*
*MD 4 finished*
*MD 3 finished*
*MD 2 finished*
 Appending file crest_rotamers_2.xyz with new structures
 
 -------------------------------------------
 Ensemble optimization with tight thresholds
 -------------------------------------------
 Optimizing all 161 structures from file "crest_rotamers_2.xyz" ...
 1 2 3 4 5 6 7 8 9 10 11 12 13 14 15 16 17 18 19 20 21 22 23 24 25 26 27 28 29 30 31 32 33 34 35 36 37 38 39 40 41 42 43 44 45 46 47 48 49 50 51 52 53 54 55 56 57 58 59 60 61 62 63 64 65 66 67 68 69 70 71 72 73 74 75 76 77 78 79 80 81 82 83 84 85 86 87 88 89 90 91 92 93 94 95 96 97 98 99 100 101 102 103 104 105 106 107 108 109 110 111 112 113 114 115 116 117 118 119 120 121 122 123 124 125 126 127 128 129 130 131 132 133 134 135 136 137 138 139 140 141 142 143 144 145 146 147 148 149 150 151 152 153 154 155 156 157 158 159 160 161
 done.
 running RMSDs...
 done.
 E lowest :  -104.78307
 147 structures remain within     6.00 kcal/mol window
 
 ...............................................
 A new lower conformer was found!
 Improved by    0.00080 Eh or    0.50365kcal/mol
 ...............................................
 
*******************************************************************************************
**                        N E W    I T E R A T I O N    C Y C L E                        **
*******************************************************************************************
 
========================================
            MTD Iteration  1
========================================
 
     ========================================
     |         Meta-MD (MTD) Sampling       |
     ========================================
 
Starting Meta-MD   1 with the settings:
     MD time /ps        :     0.5
     dt /fs             :     1.5
     dumpstep(trj) /fs  :     100
     dumpstep(Vbias)/ps :     1.0
     Vbias factor k /Eh :  0.2100
     Vbias exp α /bohr⁻²:    1.30
Starting Meta-MD   2 with the settings:
     MD time /ps        :     0.5
     dt /fs             :     1.5
     dumpstep(trj) /fs  :     100
     dumpstep(Vbias)/ps :     1.0
     Vbias factor k /Eh :  0.1050
     Vbias exp α /bohr⁻²:    1.30
Starting Meta-MD   3 with the settings:
     MD time /ps        :     0.5
     dt /fs             :     1.5
     dumpstep(trj) /fs  :     100
     dumpstep(Vbias)/ps :     1.0
     Vbias factor k /Eh :  0.0525
     Vbias exp α /bohr⁻²:    1.30
Starting Meta-MD   4 with the settings:
     MD time /ps        :     0.5
     dt /fs             :     1.5
     dumpstep(trj) /fs  :     100
     dumpstep(Vbias)/ps :     1.0
     Vbias factor k /Eh :  0.2100
     Vbias exp α /bohr⁻²:    0.78
Starting Meta-MD   5 with the settings:
     MD time /ps        :     0.5
     dt /fs             :     1.5
     dumpstep(trj) /fs  :     100
     dumpstep(Vbias)/ps :     1.0
     Vbias factor k /Eh :  0.1050
     Vbias exp α /bohr⁻²:    0.78
Starting Meta-MD   6 with the settings:
     MD time /ps        :     0.5
     dt /fs             :     1.5
     dumpstep(trj) /fs  :     100
     dumpstep(Vbias)/ps :     1.0
     Vbias factor k /Eh :  0.0525
     Vbias exp α /bohr⁻²:    0.78
Starting Meta-MD   7 with the settings:
     MD time /ps        :     0.5
     dt /fs             :     1.5
     dumpstep(trj) /fs  :     100
     dumpstep(Vbias)/ps :     1.0
     Vbias factor k /Eh :  0.2100
     Vbias exp α /bohr⁻²:    0.47
Starting Meta-MD   8 with the settings:
     MD time /ps        :     0.5
     dt /fs             :     1.5
     dumpstep(trj) /fs  :     100
     dumpstep(Vbias)/ps :     1.0
     Vbias factor k /Eh :  0.1050
     Vbias exp α /bohr⁻²:    0.47
Starting Meta-MD   9 with the settings:
     MD time /ps        :     0.5
     dt /fs             :     1.5
     dumpstep(trj) /fs  :     100
     dumpstep(Vbias)/ps :     1.0
     Vbias factor k /Eh :  0.0525
     Vbias exp α /bohr⁻²:    0.47
Starting Meta-MD  10 with the settings:
     MD time /ps        :     0.5
     dt /fs             :     1.5
     dumpstep(trj) /fs  :     100
     dumpstep(Vbias)/ps :     1.0
     Vbias factor k /Eh :  0.2100
     Vbias exp α /bohr⁻²:    0.28
Starting Meta-MD  11 with the settings:
     MD time /ps        :     0.5
     dt /fs             :     1.5
     dumpstep(trj) /fs  :     100
     dumpstep(Vbias)/ps :     1.0
     Vbias factor k /Eh :  0.1050
     Vbias exp α /bohr⁻²:    0.28
Starting Meta-MD  12 with the settings:
     MD time /ps        :     0.5
     dt /fs             :     1.5
     dumpstep(trj) /fs  :     100
     dumpstep(Vbias)/ps :     1.0
     Vbias factor k /Eh :  0.0525
     Vbias exp α /bohr⁻²:    0.28
*Meta-MTD 8 finished*
*Meta-MTD 3 finished*
*Meta-MTD 12 finished*
*Meta-MTD 11 finished*
*Meta-MTD 10 finished*
*Meta-MTD 1 finished*
*Meta-MTD 2 finished*
*Meta-MTD 5 finished*
*Meta-MTD 4 finished*
*Meta-MTD 7 finished*
*Meta-MTD 9 finished*
*Meta-MTD 6 finished*
 
-----------------------
Multilevel Optimization
-----------------------
 
 -------------------------
 1. crude pre-optimization
 -------------------------
 Optimizing all 60 structures from file "crest_rotamers_0.xyz" ...
 1 2 3 4 5 6 7 8 9 10 11 12 13 14 15 16 17 18 19 20 21 22 23 24 25 26 27 28 29 30 31 32 33 34 35 36 37 38 39 40 41 42 43 44 45 46 47 48 49 50 51 52 53 54 55 56 57 58 59 60
 done.
 running RMSDs...
 done.
 E lowest :  -104.78229
 58 structures remain within    12.00 kcal/mol window
 
 -------------------------------------
 2. optimization with tight thresholds
 -------------------------------------
 Optimizing all 59 structures from file "crest_rotamers_1.xyz" ...
 1 2 3 4 5 6 7 8 9 10 11 12 13 14 15 16 17 18 19 20 21 22 23 24 25 26 27 28 29 30 31 32 33 34 35 36 37 38 39 40 41 42 43 44 45 46 47 48 49 50 51 52 53 54 55 56 57 58 59
 done.
 running RMSDs...
 done.
 E lowest :  -104.78307
 29 structures remain within     6.00 kcal/mol window
 
========================================
            MTD Iterations done         
========================================
 Collecting ensmbles.
 running RMSDs...
 done.
 E lowest :  -104.78307
 29 structures remain within     6.00 kcal/mol window
 
 -------------------------------
 Additional orientation sampling
 -------------------------------
 Optimizing all 58 structures from file "oh_ensemble.xyz" ...
 1 2 3 4 5 6 7 8 9 10 11 12 13 14 15 16 17 18 19 20 21 22 23 24 25 26 27 28 29 30 31 32 33 34 35 36 37 38 39 40 41 42 43 44 45 46 47 48 49 50 51 52 53 54 55 56 57 58
 done.
 running RMSDs...
 done.
 E lowest :  -104.78307
 85 structures remain within     6.00 kcal/mol window
 
-----------------------------------------------
Additional regular MDs on lowest 4 conformer(s)
-----------------------------------------------
Starting MD   1 with the settings:
     MD time /ps        :     0.2
     MD Temperature /K  :   400.0
     dt /fs             :     1.5
     dumpstep(trj) /fs  :     100
Starting MD   2 with the settings:
     MD time /ps        :     0.2
     MD Temperature /K  :   500.0
     dt /fs             :     1.5
     dumpstep(trj) /fs  :     100
Starting MD   3 with the settings:
     MD time /ps        :     0.2
     MD Temperature /K  :   400.0
     dt /fs             :     1.5
     dumpstep(trj) /fs  :     100
Starting MD   4 with the settings:
     MD time /ps        :     0.2
     MD Temperature /K  :   500.0
     dt /fs             :     1.5
     dumpstep(trj) /fs  :     100
Starting MD   5 with the settings:
     MD time /ps        :     0.2
     MD Temperature /K  :   400.0
     dt /fs             :     1.5
     dumpstep(trj) /fs  :     100
Starting MD   6 with the settings:
     MD time /ps        :     0.2
     MD Temperature /K  :   500.0
     dt /fs             :     1.5
     dumpstep(trj) /fs  :     100
Starting MD   7 with the settings:
     MD time /ps        :     0.2
     MD Temperature /K  :   400.0
     dt /fs             :     1.5
     dumpstep(trj) /fs  :     100
Starting MD   8 with the settings:
     MD time /ps        :     0.2
     MD Temperature /K  :   500.0
     dt /fs             :     1.5
     dumpstep(trj) /fs  :     100
*MD 5 finished*
*MD 7 finished*
*MD 3 finished*
*MD 6 finished*
*MD 2 finished*
*MD 4 finished*
*MD 1 finished*
*MD 8 finished*
 Appending file crest_rotamers_2.xyz with new structures
 
 -------------------------------------------
 Ensemble optimization with tight thresholds
 -------------------------------------------
 Optimizing all 101 structures from file "crest_rotamers_2.xyz" ...
 1 2 3 4 5 6 7 8 9 10 11 12 13 14 15 16 17 18 19 20 21 22 23 24 25 26 27 28 29 30 31 32 33 34 35 36 37 38 39 40 41 42 43 44 45 46 47 48 49 50 51 52 53 54 55 56 57 58 59 60 61 62 63 64 65 66 67 68 69 70 71 72 73 74 75 76 77 78 79 80 81 82 83 84 85 86 87 88 89 90 91 92 93 94 95 96 97 98 99 100 101
 done.
 running RMSDs...
 done.
 E lowest :  -104.78307
 88 structures remain within     6.00 kcal/mol window
 
 
     ========================================
     |        Structure Crossing (GC)       |
     ========================================
 =============================
  # threads =          28
 =============================
 input  file name : crest_rotamers_4.xyz
number of atoms                :    70
number of points on xyz files  :    88
conformer energy window  /kcal :    6.00
CN per atom difference cut-off :  0.3000
RMSD threshold                 :  0.5000
max. # of generated structures : 25
 reading xyz file ...
 # in E window                 88
 generating pairs ...        3915
 generated pairs           :        3233
 number of clash discarded :         595
 average rmsd w.r.t input  : 3.20660
 sd of ensemble            : 1.09373
 number of new structures      :           2
 removed identical structures  :          48
 writing            2  TMPCONF* dirs ...
 --------------------------
 GC: loose pre-optimization
 --------------------------
 Starting optimization of generated structures
 2 jobs to do.
 1 2 
 done.
 Now appending opt.xyz file with new structures
 running RMSDs...
 done.
 E lowest :  -104.78184
 2 structures remain within    10.00 kcal/mol window
 --------------------------------------
 GC: optimization with tight thresholds
 --------------------------------------
 Optimizing all 2 structures from file "crest_rotamers_1.xyz" ...
 1 2
 done.
 running RMSDs...
 done.
 E lowest :  -104.78307
 
 
   ================================================
   |           Final Geometry Optimization        |
   ================================================
 ------------------------------------------------
 Ensemble optimization with very tight thresholds
 ------------------------------------------------
 Optimizing all 89 structures from file "crest_rotamers_5.xyz" ...
 1 2 3 4 5 6 7 8 9 10 11 12 13 14 15 16 17 18 19 20 21 22 23 24 25 26 27 28 29 30 31 32 33 34 35 36 37 38 39 40 41 42 43 44 45 46 47 48 49 50 51 52 53 54 55 56 57 58 59 60 61 62 63 64 65 66 67 68 69 70 71 72 73 74 75 76 77 78 79 80 81 82 83 84 85 86 87 88 89
 done.
 running RMSDs...
 done.
 E lowest :  -104.78307
 89 structures remain within     6.00 kcal/mol window
 
 input  file name : crest_rotamers_6.xyz
 output file name : crest_rotamers_7.xyz
 number of atoms                :   70
 number of points on xyz files  :   89
 RMSD threshold                 :   0.2500
 Bconst threshold               :   0.0100
 population threshold           :   0.0500
 conformer energy window  /kcal :   6.0000
 # fragment in coord            :     1
 # bonds in reference structure :    77
   => # of C=C bonds :    12
 number of reliable points      :    89
 reference state Etot :  -104.783070750000
 number of doubles removed by rot/RMSD         :           0
 total number unique points considered further :          89
       Erel/kcal        Etot weight/tot  conformer     set   degen     origin
       1   0.000  -104.78307    0.08420    0.08420       1       1     mtd7
       2   0.069  -104.78296    0.07491    0.07491       2       1     md4
       3   0.168  -104.78280    0.06337    0.06337       3       1     md4
       4   0.198  -104.78276    0.06030    0.06030       4       1     md8
       5   0.311  -104.78258    0.04987    0.04987       5       1     md7
       6   0.321  -104.78256    0.04898    0.04898       6       1     mtd3
       7   0.420  -104.78240    0.04146    0.04146       7       1     mtd4
       8   0.441  -104.78237    0.04005    0.04005       8       1     mtd7
       9   0.457  -104.78234    0.03893    0.03893       9       1     mtd9
      10   0.479  -104.78231    0.03752    0.03752      10       1     hor
      11   0.594  -104.78212    0.03093    0.03093      11       1     hor
      12   0.607  -104.78210    0.03027    0.03027      12       1     mtd2
      13   0.631  -104.78206    0.02904    0.02904      13       1     hor
      14   0.650  -104.78204    0.02815    0.02815      14       1     hor
      15   0.699  -104.78196    0.02589    0.02589      15       1     hor
      16   0.812  -104.78178    0.02139    0.02139      16       1     hor
      17   0.819  -104.78177    0.02117    0.02117      17       1     hor
      18   0.823  -104.78176    0.02103    0.02103      18       1     hor
      19   0.935  -104.78158    0.01739    0.01739      19       1     hor
      20   0.961  -104.78154    0.01665    0.01665      20       1     hor
      21   0.965  -104.78153    0.01654    0.01654      21       1     hor
      22   1.096  -104.78132    0.01326    0.01326      22       1     hor
      23   1.098  -104.78132    0.01321    0.01321      23       1     hor
      24   1.109  -104.78130    0.01298    0.01298      24       1     hor
      25   1.365  -104.78089    0.00842    0.00842      25       1     mtd10
      26   1.395  -104.78085    0.00801    0.00801      26       1     mtd12
      27   1.442  -104.78077    0.00740    0.00740      27       1     mtd5
      28   1.485  -104.78070    0.00688    0.00688      28       1     mtd1
      29   1.553  -104.78060    0.00613    0.00613      29       1     mtd8
      30   1.623  -104.78048    0.00545    0.00545      30       1     mtd10
      31   1.646  -104.78045    0.00525    0.00525      31       1     mtd7
      32   1.649  -104.78044    0.00522    0.00522      32       1     mtd5
      33   1.650  -104.78044    0.00521    0.00521      33       1     mtd11
      34   1.695  -104.78037    0.00483    0.00483      34       1     mtd11
      35   1.761  -104.78027    0.00432    0.00432      35       1     mtd2
      36   1.787  -104.78022    0.00414    0.00414      36       1     mtd9
      37   1.816  -104.78018    0.00394    0.00394      37       1     mtd4
      38   1.853  -104.78012    0.00370    0.00370      38       1     mtd10
      39   1.865  -104.78010    0.00362    0.00362      39       1     md6
      40   1.900  -104.78004    0.00342    0.00342      40       1     mtd5
      41   1.978  -104.77992    0.00300    0.00300      41       1     hor
      42   1.984  -104.77991    0.00297    0.00297      42       1     mtd2
      43   2.027  -104.77984    0.00276    0.00276      43       1     mtd1
      44   2.036  -104.77983    0.00272    0.00272      44       1     mtd1
      45   2.068  -104.77977    0.00257    0.00257      45       1     hor
      46   2.096  -104.77973    0.00246    0.00246      46       1     hor
      47   2.110  -104.77971    0.00240    0.00240      47       1     hor
      48   2.119  -104.77969    0.00236    0.00236      48       1     hor
      49   2.140  -104.77966    0.00228    0.00452      49       2     hor
      50   2.150  -104.77964    0.00224                                hor
      51   2.175  -104.77961    0.00215    0.00215      50       1     hor
      52   2.183  -104.77959    0.00212    0.00212      51       1     hor
      53   2.145  -104.77965    0.00226    0.00226      52       1     hor
      54   2.196  -104.77957    0.00207    0.00207      53       1     hor
      55   2.210  -104.77955    0.00203    0.00203      54       1     hor
      56   2.230  -104.77952    0.00196    0.00196      55       1     hor
      57   2.248  -104.77949    0.00190    0.00190      56       1     hor
      58   2.251  -104.77948    0.00189    0.00189      57       1     hor
      59   2.259  -104.77947    0.00186    0.00186      58       1     hor
      60   2.266  -104.77946    0.00184    0.00184      59       1     hor
      61   2.270  -104.77945    0.00183    0.00183      60       1     hor
      62   2.277  -104.77944    0.00181    0.00181      61       1     hor
      63   2.304  -104.77940    0.00173    0.00173      62       1     hor
      64   2.317  -104.77938    0.00169    0.00169      63       1     hor
      65   2.329  -104.77936    0.00166    0.00166      64       1     hor
      66   2.343  -104.77934    0.00162    0.00162      65       1     hor
      67   2.364  -104.77930    0.00156    0.00156      66       1     hor
      68   2.370  -104.77929    0.00155    0.00155      67       1     hor
      69   2.377  -104.77928    0.00153    0.00153      68       1     hor
      70   2.381  -104.77928    0.00152    0.00152      69       1     hor
      71   2.384  -104.77927    0.00151    0.00151      70       1     hor
      72   2.394  -104.77926    0.00148    0.00148      71       1     hor
      73   2.401  -104.77924    0.00147    0.00147      72       1     hor
      74   2.455  -104.77916    0.00134    0.00134      73       1     hor
      75   2.473  -104.77913    0.00130    0.00130      74       1     hor
      76   2.474  -104.77913    0.00130    0.00130      75       1     hor
      77   2.572  -104.77897    0.00110    0.00110      76       1     hor
      78   2.623  -104.77889    0.00101    0.00101      77       1     hor
      79   2.636  -104.77887    0.00099    0.00099      78       1     hor
      80   2.846  -104.77854    0.00069    0.00069      79       1     mtd11
      81   2.879  -104.77848    0.00066    0.00066      80       1     mtd1
      82   3.178  -104.77801    0.00040    0.00040      81       1     mtd9
      83   3.615  -104.77731    0.00019    0.00019      82       1     hor
      84   3.640  -104.77727    0.00018    0.00018      83       1     hor
      85   3.691  -104.77719    0.00017    0.00017      84       1     hor
      86   3.733  -104.77712    0.00016    0.00016      85       1     hor
      87   3.918  -104.77683    0.00011    0.00011      86       1     hor
      88   3.971  -104.77674    0.00010    0.00010      87       1     hor
      89   4.246  -104.77630    0.00007    0.00007      88       1     gc
T /K                                  :   298.15
E lowest                              :  -104.78307
ensemble average energy (kcal)        :    0.677
ensemble entropy (J/mol K, cal/mol K) :   30.063    7.185
ensemble free energy (kcal/mol)       :   -2.142
population of lowest in %             :    8.420
 number of unique conformers for further calc           88
 list of relative energies saved as "crest.energies"
 
 -----------------
 Wall Time Summary
 -----------------
             test MD wall time :         0h : 0m :38s
                 MTD wall time :         0h : 1m :46s
      multilevel OPT wall time :         0h : 1m :57s
                  MD wall time :         0h : 1m : 4s
                  GC wall time :         0h : 0m : 2s
--------------------
Overall wall time  : 0h : 5m :36s
 
 CREST terminated normally.
