 Entering Gaussian System, Link 0=g16
 Initial command:
 /public/software/apps/Gaussian/g16/l1.exe "/public/home/LJQ_HG/tmp/Gau-109040.inp" -scrdir="/public/home/LJQ_HG/tmp/"
 Entering Link 1 = /public/software/apps/Gaussian/g16/l1.exe PID=    109041.
  
 Copyright (c) 1988-2019, Gaussian, Inc.  All Rights Reserved.
  
 This is part of the Gaussian(R) 16 program.  It is based on
 the Gaussian(R) 09 system (copyright 2009, Gaussian, Inc.),
 the Gaussian(R) 03 system (copyright 2003, Gaussian, Inc.),
 the Gaussian(R) 98 system (copyright 1998, Gaussian, Inc.),
 the Gaussian(R) 94 system (copyright 1995, Gaussian, Inc.),
 the Gaussian 92(TM) system (copyright 1992, Gaussian, Inc.),
 the Gaussian 90(TM) system (copyright 1990, Gaussian, Inc.),
 the Gaussian 88(TM) system (copyright 1988, Gaussian, Inc.),
 the Gaussian 86(TM) system (copyright 1986, Carnegie Mellon
 University), and the Gaussian 82(TM) system (copyright 1983,
 Carnegie Mellon University). Gaussian is a federally registered
 trademark of Gaussian, Inc.
  
 This software contains proprietary and confidential information,
 including trade secrets, belonging to Gaussian, Inc.
  
 This software is provided under written license and may be
 used, copied, transmitted, or stored only in accord with that
 written license.
  
 The following legend is applicable only to US Government
 contracts under FAR:
  
                    RESTRICTED RIGHTS LEGEND
  
 Use, reproduction and disclosure by the US Government is
 subject to restrictions as set forth in subparagraphs (a)
 and (c) of the Commercial Computer Software - Restricted
 Rights clause in FAR 52.227-19.
  
 Gaussian, Inc.
 340 Quinnipiac St., Bldg. 40, Wallingford CT 06492
  
  
 ---------------------------------------------------------------
 Warning -- This program may not be used in any manner that
 competes with the business of Gaussian, Inc. or will provide
 assistance to any competitor of Gaussian, Inc.  The licensee
 of this program is prohibited from giving any competitor of
 Gaussian, Inc. access to this program.  By using this program,
 the user acknowledges that Gaussian, Inc. is engaged in the
 business of creating and licensing software in the field of
 computational chemistry and represents and warrants to the
 licensee that it is not a competitor of Gaussian, Inc. and that
 it will not use this program in any manner prohibited above.
 ---------------------------------------------------------------
  

 Cite this work as:
 Gaussian 16, Revision C.01,
 M. J. Frisch, G. W. Trucks, H. B. Schlegel, G. E. Scuseria, 
 M. A. Robb, J. R. Cheeseman, G. Scalmani, V. Barone, 
 G. A. Petersson, H. Nakatsuji, X. Li, M. Caricato, A. V. Marenich, 
 J. Bloino, B. G. Janesko, R. Gomperts, B. Mennucci, H. P. Hratchian, 
 J. V. Ortiz, A. F. Izmaylov, J. L. Sonnenberg, D. Williams-Young, 
 F. Ding, F. Lipparini, F. Egidi, J. Goings, B. Peng, A. Petrone, 
 T. Henderson, D. Ranasinghe, V. G. Zakrzewski, J. Gao, N. Rega, 
 G. Zheng, W. Liang, M. Hada, M. Ehara, K. Toyota, R. Fukuda, 
 J. Hasegawa, M. Ishida, T. Nakajima, Y. Honda, O. Kitao, H. Nakai, 
 T. Vreven, K. Throssell, J. A. Montgomery, Jr., J. E. Peralta, 
 F. Ogliaro, M. J. Bearpark, J. J. Heyd, E. N. Brothers, K. N. Kudin, 
 V. N. Staroverov, T. A. Keith, R. Kobayashi, J. Normand, 
 K. Raghavachari, A. P. Rendell, J. C. Burant, S. S. Iyengar, 
 J. Tomasi, M. Cossi, J. M. Millam, M. Klene, C. Adamo, R. Cammi, 
 J. W. Ochterski, R. L. Martin, K. Morokuma, O. Farkas, 
 J. B. Foresman, and D. J. Fox, Gaussian, Inc., Wallingford CT, 2019.
 
 ******************************************
 Gaussian 16:  ES64L-G16RevC.01  3-Jul-2019
                 8-Mar-2024 
 ******************************************
 %nprocshared=32
 Will use up to   32 processors via shared memory.
 %mem=100GB
 ------------------------------------------
 #p opt freq b3lyp/def2svpp em=gd3bj nosymm
 ------------------------------------------
 1/18=20,19=15,26=3,38=1/1,3;
 2/9=110,12=2,15=1,17=6,18=5,40=1/2;
 3/5=43,7=202,11=2,25=1,30=1,71=1,74=-5,124=41/1,2,3;
 4//1;
 5/5=2,38=5/2;
 6/7=2,8=2,9=2,10=2,28=1/1;
 7/30=1/1,2,3,16;
 1/18=20,19=15,26=3/3(2);
 2/9=110,15=1/2;
 99//99;
 2/9=110,15=1/2;
 3/5=43,7=202,11=2,25=1,30=1,71=1,74=-5,124=41/1,2,3;
 4/5=5,16=3,69=1/1;
 5/5=2,38=5/2;
 7/30=1/1,2,3,16;
 1/18=20,19=15,26=3/3(-5);
 2/9=110,15=1/2;
 6/7=2,8=2,9=2,10=2,19=2,28=1/1;
 99/9=1/99;
 Leave Link    1 at Fri Mar  8 02:25:43 2024, MaxMem= 13421772800 cpu:               1.1 elap:               0.0
 (Enter /public/software/apps/Gaussian/g16/l101.exe)
 ------------------
 $$$$Title####0????
 ------------------
 Symbolic Z-matrix:
 Charge =  0 Multiplicity = 2
 C                    -4.39535  -3.79655   0.03299 
 C                    -4.62356  -2.32545   0.367 
 C                    -4.43711  -2.06344   1.86844 
 C                    -4.74651  -0.60839   2.24928 
 C                    -3.74221   0.35315   1.66567 
 C                    -2.48087   0.49679   2.25788 
 C                    -1.53184   1.35931   1.70655 
 C                    -1.81968   2.09108   0.53612 
 C                    -0.86835   2.96194  -0.05829 
 C                     0.50784   3.11337   0.48701 
 C                     0.86571   4.33451   1.0878 
 O                    -0.04308   5.38685   1.13472 
 C                     2.1359    4.50707   1.63925 
 C                     3.07163   3.47554   1.59206 
 C                     2.75271   2.25882   0.97415 
 C                     3.70796   1.23256   0.91191 
 C                     3.40791   0.01738   0.28003 
 C                     4.44643  -1.07202   0.18752 
 C                     5.12938  -1.10091  -1.18751 
 C                     5.99806   0.14108  -1.43349 
 C                     6.73489   0.04175  -2.76579 
 C                     2.14791  -0.16161  -0.30543 
 C                     1.18814   0.85042  -0.24795 
 C                     1.46748   2.06985   0.40272 
 C                    -1.2331    3.71527  -1.18953 
 O                    -0.33292   4.61213  -1.75598 
 C                    -2.5012    3.57531  -1.75482 
 C                    -3.42799   2.69528  -1.19944 
 C                    -3.10299   1.95544  -0.05448 
 C                    -4.04815   1.08455   0.5092 
 H                    -3.36335  -4.09935   0.31124 
 H                    -5.12449  -4.43385   0.57724 
 H                    -4.53021  -3.95532  -1.0577 
 H                    -5.65418  -2.04241   0.06086 
 H                    -3.90161  -1.71496  -0.21683 
 H                    -5.12524  -2.7243    2.43978 
 H                    -3.39669  -2.31685   2.16955 
 H                    -5.77755  -0.34615   1.92471 
 H                    -4.73064  -0.51866   3.3574 
 H                    -2.23096  -0.06362   3.15046 
 H                    -0.57566   1.44705   2.20498 
 H                     2.39922   5.4477    2.10619 
 H                     4.0506    3.63357   2.02907 
 H                     4.69049   1.38034   1.34616 
 H                     5.21229  -0.95412   0.98547 
 H                     3.95557  -2.05424   0.36237 
 H                     4.36054  -1.18832  -1.98661 
 H                     5.77174  -2.00743  -1.23539 
 H                     5.36147   1.05167  -1.44933 
 H                     6.74454   0.24603  -0.61632 
 H                     7.40688  -0.8428   -2.77055 
 H                     6.00891  -0.04399  -3.60229 
 H                     7.34852   0.95423  -2.92012 
 H                     1.90946  -1.08844  -0.81273 
 H                     0.23263   0.67108  -0.7226 
 H                    -2.76951   4.15299  -2.6303 
 H                    -4.40498   2.6019   -1.65893 
 H                    -5.0227    0.97101   0.04755 
 Cu                   -0.98384   5.96188  -0.48876 
 
 ITRead=  0  0  0  0  0  0  0  0  0  0  0  0  0  0  0  0  0  0  0  0
 ITRead=  0  0  0  0  0  0  0  0  0  0  0  0  0  0  0  0  0  0  0  0
 ITRead=  0  0  0  0  0  0  0  0  0  0  0  0  0  0  0  0  0  0  0
 MicOpt= -1 -1 -1 -1 -1 -1 -1 -1 -1 -1 -1 -1 -1 -1 -1 -1 -1 -1 -1 -1
 MicOpt= -1 -1 -1 -1 -1 -1 -1 -1 -1 -1 -1 -1 -1 -1 -1 -1 -1 -1 -1 -1
 MicOpt= -1 -1 -1 -1 -1 -1 -1 -1 -1 -1 -1 -1 -1 -1 -1 -1 -1 -1 -1
 NAtoms=     59 NQM=       59 NQMF=       0 NMMI=      0 NMMIF=      0
                NMic=       0 NMicF=      0.
                    Isotopes and Nuclear Properties:
 (Nuclear quadrupole moments (NQMom) in fm**2, nuclear magnetic moments (NMagM)
  in nuclear magnetons)

  Atom         1           2           3           4           5           6           7           8           9          10
 IAtWgt=          12          12          12          12          12          12          12          12          12          12
 AtmWgt=  12.0000000  12.0000000  12.0000000  12.0000000  12.0000000  12.0000000  12.0000000  12.0000000  12.0000000  12.0000000
 NucSpn=           0           0           0           0           0           0           0           0           0           0
 AtZEff=  -0.0000000  -0.0000000  -0.0000000  -0.0000000  -0.0000000  -0.0000000  -0.0000000  -0.0000000  -0.0000000  -0.0000000
 NQMom=    0.0000000   0.0000000   0.0000000   0.0000000   0.0000000   0.0000000   0.0000000   0.0000000   0.0000000   0.0000000
 NMagM=    0.0000000   0.0000000   0.0000000   0.0000000   0.0000000   0.0000000   0.0000000   0.0000000   0.0000000   0.0000000
 AtZNuc=   6.0000000   6.0000000   6.0000000   6.0000000   6.0000000   6.0000000   6.0000000   6.0000000   6.0000000   6.0000000

  Atom        11          12          13          14          15          16          17          18          19          20
 IAtWgt=          12          16          12          12          12          12          12          12          12          12
 AtmWgt=  12.0000000  15.9949146  12.0000000  12.0000000  12.0000000  12.0000000  12.0000000  12.0000000  12.0000000  12.0000000
 NucSpn=           0           0           0           0           0           0           0           0           0           0
 AtZEff=  -0.0000000  -0.0000000  -0.0000000  -0.0000000  -0.0000000  -0.0000000  -0.0000000  -0.0000000  -0.0000000  -0.0000000
 NQMom=    0.0000000   0.0000000   0.0000000   0.0000000   0.0000000   0.0000000   0.0000000   0.0000000   0.0000000   0.0000000
 NMagM=    0.0000000   0.0000000   0.0000000   0.0000000   0.0000000   0.0000000   0.0000000   0.0000000   0.0000000   0.0000000
 AtZNuc=   6.0000000   8.0000000   6.0000000   6.0000000   6.0000000   6.0000000   6.0000000   6.0000000   6.0000000   6.0000000

  Atom        21          22          23          24          25          26          27          28          29          30
 IAtWgt=          12          12          12          12          12          16          12          12          12          12
 AtmWgt=  12.0000000  12.0000000  12.0000000  12.0000000  12.0000000  15.9949146  12.0000000  12.0000000  12.0000000  12.0000000
 NucSpn=           0           0           0           0           0           0           0           0           0           0
 AtZEff=  -0.0000000  -0.0000000  -0.0000000  -0.0000000  -0.0000000  -0.0000000  -0.0000000  -0.0000000  -0.0000000  -0.0000000
 NQMom=    0.0000000   0.0000000   0.0000000   0.0000000   0.0000000   0.0000000   0.0000000   0.0000000   0.0000000   0.0000000
 NMagM=    0.0000000   0.0000000   0.0000000   0.0000000   0.0000000   0.0000000   0.0000000   0.0000000   0.0000000   0.0000000
 AtZNuc=   6.0000000   6.0000000   6.0000000   6.0000000   6.0000000   8.0000000   6.0000000   6.0000000   6.0000000   6.0000000

  Atom        31          32          33          34          35          36          37          38          39          40
 IAtWgt=           1           1           1           1           1           1           1           1           1           1
 AtmWgt=   1.0078250   1.0078250   1.0078250   1.0078250   1.0078250   1.0078250   1.0078250   1.0078250   1.0078250   1.0078250
 NucSpn=           1           1           1           1           1           1           1           1           1           1
 AtZEff=  -0.0000000  -0.0000000  -0.0000000  -0.0000000  -0.0000000  -0.0000000  -0.0000000  -0.0000000  -0.0000000  -0.0000000
 NQMom=    0.0000000   0.0000000   0.0000000   0.0000000   0.0000000   0.0000000   0.0000000   0.0000000   0.0000000   0.0000000
 NMagM=    2.7928460   2.7928460   2.7928460   2.7928460   2.7928460   2.7928460   2.7928460   2.7928460   2.7928460   2.7928460
 AtZNuc=   1.0000000   1.0000000   1.0000000   1.0000000   1.0000000   1.0000000   1.0000000   1.0000000   1.0000000   1.0000000

  Atom        41          42          43          44          45          46          47          48          49          50
 IAtWgt=           1           1           1           1           1           1           1           1           1           1
 AtmWgt=   1.0078250   1.0078250   1.0078250   1.0078250   1.0078250   1.0078250   1.0078250   1.0078250   1.0078250   1.0078250
 NucSpn=           1           1           1           1           1           1           1           1           1           1
 AtZEff=  -0.0000000  -0.0000000  -0.0000000  -0.0000000  -0.0000000  -0.0000000  -0.0000000  -0.0000000  -0.0000000  -0.0000000
 NQMom=    0.0000000   0.0000000   0.0000000   0.0000000   0.0000000   0.0000000   0.0000000   0.0000000   0.0000000   0.0000000
 NMagM=    2.7928460   2.7928460   2.7928460   2.7928460   2.7928460   2.7928460   2.7928460   2.7928460   2.7928460   2.7928460
 AtZNuc=   1.0000000   1.0000000   1.0000000   1.0000000   1.0000000   1.0000000   1.0000000   1.0000000   1.0000000   1.0000000

  Atom        51          52          53          54          55          56          57          58          59
 IAtWgt=           1           1           1           1           1           1           1           1          63
 AtmWgt=   1.0078250   1.0078250   1.0078250   1.0078250   1.0078250   1.0078250   1.0078250   1.0078250  62.9295992
 NucSpn=           1           1           1           1           1           1           1           1           3
 AtZEff=  -0.0000000  -0.0000000  -0.0000000  -0.0000000  -0.0000000  -0.0000000  -0.0000000  -0.0000000  -0.0000000
 NQMom=    0.0000000   0.0000000   0.0000000   0.0000000   0.0000000   0.0000000   0.0000000   0.0000000 -22.0000000
 NMagM=    2.7928460   2.7928460   2.7928460   2.7928460   2.7928460   2.7928460   2.7928460   2.7928460   2.2233000
 AtZNuc=   1.0000000   1.0000000   1.0000000   1.0000000   1.0000000   1.0000000   1.0000000   1.0000000  29.0000000
 Leave Link  101 at Fri Mar  8 02:25:43 2024, MaxMem= 13421772800 cpu:               6.4 elap:               0.2
 (Enter /public/software/apps/Gaussian/g16/l103.exe)

 GradGradGradGradGradGradGradGradGradGradGradGradGradGradGradGradGradGrad
 Berny optimization.
 Initialization pass.
                           ----------------------------
                           !    Initial Parameters    !
                           ! (Angstroms and Degrees)  !
 --------------------------                            --------------------------
 ! Name  Definition              Value          Derivative Info.                !
 --------------------------------------------------------------------------------
 ! R1    R(1,2)                  1.5257         estimate D2E/DX2                !
 ! R2    R(1,31)                 1.1109         estimate D2E/DX2                !
 ! R3    R(1,32)                 1.1109         estimate D2E/DX2                !
 ! R4    R(1,33)                 1.1104         estimate D2E/DX2                !
 ! R5    R(2,3)                  1.5355         estimate D2E/DX2                !
 ! R6    R(2,34)                 1.1118         estimate D2E/DX2                !
 ! R7    R(2,35)                 1.1112         estimate D2E/DX2                !
 ! R8    R(3,4)                  1.5356         estimate D2E/DX2                !
 ! R9    R(3,36)                 1.1121         estimate D2E/DX2                !
 ! R10   R(3,37)                 1.1124         estimate D2E/DX2                !
 ! R11   R(4,5)                  1.5079         estimate D2E/DX2                !
 ! R12   R(4,38)                 1.1123         estimate D2E/DX2                !
 ! R13   R(4,39)                 1.1119         estimate D2E/DX2                !
 ! R14   R(5,6)                  1.4008         estimate D2E/DX2                !
 ! R15   R(5,30)                 1.4021         estimate D2E/DX2                !
 ! R16   R(6,7)                  1.3959         estimate D2E/DX2                !
 ! R17   R(6,40)                 1.0831         estimate D2E/DX2                !
 ! R18   R(7,8)                  1.4101         estimate D2E/DX2                !
 ! R19   R(7,41)                 1.0818         estimate D2E/DX2                !
 ! R20   R(8,9)                  1.4201         estimate D2E/DX2                !
 ! R21   R(8,29)                 1.4192         estimate D2E/DX2                !
 ! R22   R(9,10)                 1.488          estimate D2E/DX2                !
 ! R23   R(9,25)                 1.4072         estimate D2E/DX2                !
 ! R24   R(10,11)                1.4072         estimate D2E/DX2                !
 ! R25   R(10,24)                1.4202         estimate D2E/DX2                !
 ! R26   R(11,12)                1.3912         estimate D2E/DX2                !
 ! R27   R(11,13)                1.3954         estimate D2E/DX2                !
 ! R28   R(12,59)                1.9625         estimate D2E/DX2                !
 ! R29   R(13,14)                1.3935         estimate D2E/DX2                !
 ! R30   R(13,42)                1.0827         estimate D2E/DX2                !
 ! R31   R(14,15)                1.4014         estimate D2E/DX2                !
 ! R32   R(14,43)                1.0837         estimate D2E/DX2                !
 ! R33   R(15,16)                1.4034         estimate D2E/DX2                !
 ! R34   R(15,24)                1.4192         estimate D2E/DX2                !
 ! R35   R(16,17)                1.4021         estimate D2E/DX2                !
 ! R36   R(16,44)                1.0843         estimate D2E/DX2                !
 ! R37   R(17,18)                1.5079         estimate D2E/DX2                !
 ! R38   R(17,22)                1.4009         estimate D2E/DX2                !
 ! R39   R(18,19)                1.5356         estimate D2E/DX2                !
 ! R40   R(18,45)                1.1123         estimate D2E/DX2                !
 ! R41   R(18,46)                1.1119         estimate D2E/DX2                !
 ! R42   R(19,20)                1.5355         estimate D2E/DX2                !
 ! R43   R(19,47)                1.1124         estimate D2E/DX2                !
 ! R44   R(19,48)                1.1121         estimate D2E/DX2                !
 ! R45   R(20,21)                1.5257         estimate D2E/DX2                !
 ! R46   R(20,49)                1.1112         estimate D2E/DX2                !
 ! R47   R(20,50)                1.1118         estimate D2E/DX2                !
 ! R48   R(21,51)                1.1109         estimate D2E/DX2                !
 ! R49   R(21,52)                1.1109         estimate D2E/DX2                !
 ! R50   R(21,53)                1.1104         estimate D2E/DX2                !
 ! R51   R(22,23)                1.396          estimate D2E/DX2                !
 ! R52   R(22,54)                1.0832         estimate D2E/DX2                !
 ! R53   R(23,24)                1.4101         estimate D2E/DX2                !
 ! R54   R(23,55)                1.0819         estimate D2E/DX2                !
 ! R55   R(25,26)                1.3912         estimate D2E/DX2                !
 ! R56   R(25,27)                1.3954         estimate D2E/DX2                !
 ! R57   R(26,59)                1.9625         estimate D2E/DX2                !
 ! R58   R(27,28)                1.3935         estimate D2E/DX2                !
 ! R59   R(27,56)                1.0827         estimate D2E/DX2                !
 ! R60   R(28,29)                1.4014         estimate D2E/DX2                !
 ! R61   R(28,57)                1.0837         estimate D2E/DX2                !
 ! R62   R(29,30)                1.4034         estimate D2E/DX2                !
 ! R63   R(30,58)                1.0843         estimate D2E/DX2                !
 ! A1    A(2,1,31)             110.2995         estimate D2E/DX2                !
 ! A2    A(2,1,32)             110.3485         estimate D2E/DX2                !
 ! A3    A(2,1,33)             109.5569         estimate D2E/DX2                !
 ! A4    A(31,1,32)            109.3089         estimate D2E/DX2                !
 ! A5    A(31,1,33)            108.6556         estimate D2E/DX2                !
 ! A6    A(32,1,33)            108.6317         estimate D2E/DX2                !
 ! A7    A(1,2,3)              111.1271         estimate D2E/DX2                !
 ! A8    A(1,2,34)             108.8961         estimate D2E/DX2                !
 ! A9    A(1,2,35)             108.5133         estimate D2E/DX2                !
 ! A10   A(3,2,34)             109.7783         estimate D2E/DX2                !
 ! A11   A(3,2,35)             109.945          estimate D2E/DX2                !
 ! A12   A(34,2,35)            108.5259         estimate D2E/DX2                !
 ! A13   A(2,3,4)              112.3174         estimate D2E/DX2                !
 ! A14   A(2,3,36)             109.016          estimate D2E/DX2                !
 ! A15   A(2,3,37)             109.8397         estimate D2E/DX2                !
 ! A16   A(4,3,36)             108.1202         estimate D2E/DX2                !
 ! A17   A(4,3,37)             109.7057         estimate D2E/DX2                !
 ! A18   A(36,3,37)            107.7165         estimate D2E/DX2                !
 ! A19   A(3,4,5)              111.9655         estimate D2E/DX2                !
 ! A20   A(3,4,38)             109.7436         estimate D2E/DX2                !
 ! A21   A(3,4,39)             108.7101         estimate D2E/DX2                !
 ! A22   A(5,4,38)             110.7382         estimate D2E/DX2                !
 ! A23   A(5,4,39)             108.9508         estimate D2E/DX2                !
 ! A24   A(38,4,39)            106.5606         estimate D2E/DX2                !
 ! A25   A(4,5,6)              120.0973         estimate D2E/DX2                !
 ! A26   A(4,5,30)             120.4322         estimate D2E/DX2                !
 ! A27   A(6,5,30)             119.4508         estimate D2E/DX2                !
 ! A28   A(5,6,7)              120.5676         estimate D2E/DX2                !
 ! A29   A(5,6,40)             120.2039         estimate D2E/DX2                !
 ! A30   A(7,6,40)             119.2284         estimate D2E/DX2                !
 ! A31   A(6,7,8)              120.6449         estimate D2E/DX2                !
 ! A32   A(6,7,41)             117.9717         estimate D2E/DX2                !
 ! A33   A(8,7,41)             121.3834         estimate D2E/DX2                !
 ! A34   A(7,8,9)              121.9327         estimate D2E/DX2                !
 ! A35   A(7,8,29)             118.7131         estimate D2E/DX2                !
 ! A36   A(9,8,29)             119.3527         estimate D2E/DX2                !
 ! A37   A(8,9,10)             121.9091         estimate D2E/DX2                !
 ! A38   A(8,9,25)             119.4144         estimate D2E/DX2                !
 ! A39   A(10,9,25)            118.6745         estimate D2E/DX2                !
 ! A40   A(9,10,11)            118.6834         estimate D2E/DX2                !
 ! A41   A(9,10,24)            121.898          estimate D2E/DX2                !
 ! A42   A(11,10,24)           119.4143         estimate D2E/DX2                !
 ! A43   A(10,11,12)           120.3096         estimate D2E/DX2                !
 ! A44   A(10,11,13)           120.4986         estimate D2E/DX2                !
 ! A45   A(12,11,13)           119.1915         estimate D2E/DX2                !
 ! A46   A(11,12,59)           120.456          estimate D2E/DX2                !
 ! A47   A(11,13,14)           120.4178         estimate D2E/DX2                !
 ! A48   A(11,13,42)           119.9512         estimate D2E/DX2                !
 ! A49   A(14,13,42)           119.631          estimate D2E/DX2                !
 ! A50   A(13,14,15)           120.3185         estimate D2E/DX2                !
 ! A51   A(13,14,43)           119.0133         estimate D2E/DX2                !
 ! A52   A(15,14,43)           120.6642         estimate D2E/DX2                !
 ! A53   A(14,15,16)           119.9701         estimate D2E/DX2                !
 ! A54   A(14,15,24)           119.9494         estimate D2E/DX2                !
 ! A55   A(16,15,24)           120.0786         estimate D2E/DX2                !
 ! A56   A(15,16,17)           120.5366         estimate D2E/DX2                !
 ! A57   A(15,16,44)           119.9563         estimate D2E/DX2                !
 ! A58   A(17,16,44)           119.5043         estimate D2E/DX2                !
 ! A59   A(16,17,18)           120.4236         estimate D2E/DX2                !
 ! A60   A(16,17,22)           119.4429         estimate D2E/DX2                !
 ! A61   A(18,17,22)           120.0995         estimate D2E/DX2                !
 ! A62   A(17,18,19)           112.0139         estimate D2E/DX2                !
 ! A63   A(17,18,45)           110.7081         estimate D2E/DX2                !
 ! A64   A(17,18,46)           108.9354         estimate D2E/DX2                !
 ! A65   A(19,18,45)           109.7646         estimate D2E/DX2                !
 ! A66   A(19,18,46)           108.6965         estimate D2E/DX2                !
 ! A67   A(45,18,46)           106.547          estimate D2E/DX2                !
 ! A68   A(18,19,20)           112.3248         estimate D2E/DX2                !
 ! A69   A(18,19,47)           109.7161         estimate D2E/DX2                !
 ! A70   A(18,19,48)           108.1072         estimate D2E/DX2                !
 ! A71   A(20,19,47)           109.8471         estimate D2E/DX2                !
 ! A72   A(20,19,48)           109.0063         estimate D2E/DX2                !
 ! A73   A(47,19,48)           107.7132         estimate D2E/DX2                !
 ! A74   A(19,20,21)           111.1278         estimate D2E/DX2                !
 ! A75   A(19,20,49)           109.94           estimate D2E/DX2                !
 ! A76   A(19,20,50)           109.7839         estimate D2E/DX2                !
 ! A77   A(21,20,49)           108.5165         estimate D2E/DX2                !
 ! A78   A(21,20,50)           108.8884         estimate D2E/DX2                !
 ! A79   A(49,20,50)           108.5291         estimate D2E/DX2                !
 ! A80   A(20,21,51)           110.3483         estimate D2E/DX2                !
 ! A81   A(20,21,52)           110.3011         estimate D2E/DX2                !
 ! A82   A(20,21,53)           109.5572         estimate D2E/DX2                !
 ! A83   A(51,21,52)           109.3075         estimate D2E/DX2                !
 ! A84   A(51,21,53)           108.6296         estimate D2E/DX2                !
 ! A85   A(52,21,53)           108.6573         estimate D2E/DX2                !
 ! A86   A(17,22,23)           120.5686         estimate D2E/DX2                !
 ! A87   A(17,22,54)           120.204          estimate D2E/DX2                !
 ! A88   A(23,22,54)           119.2269         estimate D2E/DX2                !
 ! A89   A(22,23,24)           120.6465         estimate D2E/DX2                !
 ! A90   A(22,23,55)           117.9691         estimate D2E/DX2                !
 ! A91   A(24,23,55)           121.3828         estimate D2E/DX2                !
 ! A92   A(10,24,15)           119.3536         estimate D2E/DX2                !
 ! A93   A(10,24,23)           121.9343         estimate D2E/DX2                !
 ! A94   A(15,24,23)           118.7079         estimate D2E/DX2                !
 ! A95   A(9,25,26)            120.3113         estimate D2E/DX2                !
 ! A96   A(9,25,27)            120.4979         estimate D2E/DX2                !
 ! A97   A(26,25,27)           119.1907         estimate D2E/DX2                !
 ! A98   A(25,26,59)            88.043          estimate D2E/DX2                !
 ! A99   A(25,27,28)           120.4166         estimate D2E/DX2                !
 ! A100  A(25,27,56)           119.9516         estimate D2E/DX2                !
 ! A101  A(28,27,56)           119.6319         estimate D2E/DX2                !
 ! A102  A(27,28,29)           120.3168         estimate D2E/DX2                !
 ! A103  A(27,28,57)           119.0141         estimate D2E/DX2                !
 ! A104  A(29,28,57)           120.665          estimate D2E/DX2                !
 ! A105  A(8,29,28)            119.9506         estimate D2E/DX2                !
 ! A106  A(8,29,30)            120.0772         estimate D2E/DX2                !
 ! A107  A(28,29,30)           119.972          estimate D2E/DX2                !
 ! A108  A(5,30,29)            120.5327         estimate D2E/DX2                !
 ! A109  A(5,30,58)            119.5146         estimate D2E/DX2                !
 ! A110  A(29,30,58)           119.9523         estimate D2E/DX2                !
 ! A111  A(12,59,26)           100.0            estimate D2E/DX2                !
 ! D1    D(31,1,2,3)           -60.0887         estimate D2E/DX2                !
 ! D2    D(31,1,2,34)          178.8672         estimate D2E/DX2                !
 ! D3    D(31,1,2,35)           60.912          estimate D2E/DX2                !
 ! D4    D(32,1,2,3)            60.7892         estimate D2E/DX2                !
 ! D5    D(32,1,2,34)          -60.255          estimate D2E/DX2                !
 ! D6    D(32,1,2,35)         -178.2101         estimate D2E/DX2                !
 ! D7    D(33,1,2,3)          -179.6493         estimate D2E/DX2                !
 ! D8    D(33,1,2,34)           59.3065         estimate D2E/DX2                !
 ! D9    D(33,1,2,35)          -58.6486         estimate D2E/DX2                !
 ! D10   D(1,2,3,4)           -176.4102         estimate D2E/DX2                !
 ! D11   D(1,2,3,36)           -56.6039         estimate D2E/DX2                !
 ! D12   D(1,2,3,37)            61.2054         estimate D2E/DX2                !
 ! D13   D(34,2,3,4)           -55.8858         estimate D2E/DX2                !
 ! D14   D(34,2,3,36)           63.9206         estimate D2E/DX2                !
 ! D15   D(34,2,3,37)         -178.2701         estimate D2E/DX2                !
 ! D16   D(35,2,3,4)            63.4342         estimate D2E/DX2                !
 ! D17   D(35,2,3,36)         -176.7594         estimate D2E/DX2                !
 ! D18   D(35,2,3,37)          -58.9501         estimate D2E/DX2                !
 ! D19   D(2,3,4,5)            -67.3203         estimate D2E/DX2                !
 ! D20   D(2,3,4,38)            56.0756         estimate D2E/DX2                !
 ! D21   D(2,3,4,39)           172.2614         estimate D2E/DX2                !
 ! D22   D(36,3,4,5)           172.3536         estimate D2E/DX2                !
 ! D23   D(36,3,4,38)          -64.2506         estimate D2E/DX2                !
 ! D24   D(36,3,4,39)           51.9352         estimate D2E/DX2                !
 ! D25   D(37,3,4,5)            55.1399         estimate D2E/DX2                !
 ! D26   D(37,3,4,38)          178.5358         estimate D2E/DX2                !
 ! D27   D(37,3,4,39)          -65.2784         estimate D2E/DX2                !
 ! D28   D(3,4,5,6)            -77.9878         estimate D2E/DX2                !
 ! D29   D(3,4,5,30)           100.3907         estimate D2E/DX2                !
 ! D30   D(38,4,5,6)           159.1787         estimate D2E/DX2                !
 ! D31   D(38,4,5,30)          -22.4428         estimate D2E/DX2                !
 ! D32   D(39,4,5,6)            42.2904         estimate D2E/DX2                !
 ! D33   D(39,4,5,30)         -139.3311         estimate D2E/DX2                !
 ! D34   D(4,5,6,7)            178.4035         estimate D2E/DX2                !
 ! D35   D(4,5,6,40)            -1.4962         estimate D2E/DX2                !
 ! D36   D(30,5,6,7)             0.0091         estimate D2E/DX2                !
 ! D37   D(30,5,6,40)         -179.8907         estimate D2E/DX2                !
 ! D38   D(4,5,30,29)         -178.428          estimate D2E/DX2                !
 ! D39   D(4,5,30,58)            1.3548         estimate D2E/DX2                !
 ! D40   D(6,5,30,29)           -0.0391         estimate D2E/DX2                !
 ! D41   D(6,5,30,58)          179.7437         estimate D2E/DX2                !
 ! D42   D(5,6,7,8)             -0.6681         estimate D2E/DX2                !
 ! D43   D(5,6,7,41)           179.2696         estimate D2E/DX2                !
 ! D44   D(40,6,7,8)           179.2327         estimate D2E/DX2                !
 ! D45   D(40,6,7,41)           -0.8297         estimate D2E/DX2                !
 ! D46   D(6,7,8,9)           -179.1182         estimate D2E/DX2                !
 ! D47   D(6,7,8,29)             1.3267         estimate D2E/DX2                !
 ! D48   D(41,7,8,9)             0.9462         estimate D2E/DX2                !
 ! D49   D(41,7,8,29)         -178.6088         estimate D2E/DX2                !
 ! D50   D(7,8,9,10)             2.4916         estimate D2E/DX2                !
 ! D51   D(7,8,9,25)          -176.9802         estimate D2E/DX2                !
 ! D52   D(29,8,9,10)         -177.9562         estimate D2E/DX2                !
 ! D53   D(29,8,9,25)            2.5721         estimate D2E/DX2                !
 ! D54   D(7,8,29,28)          178.4504         estimate D2E/DX2                !
 ! D55   D(7,8,29,30)           -1.3487         estimate D2E/DX2                !
 ! D56   D(9,8,29,28)           -1.1163         estimate D2E/DX2                !
 ! D57   D(9,8,29,30)          179.0846         estimate D2E/DX2                !
 ! D58   D(8,9,10,11)         -111.2665         estimate D2E/DX2                !
 ! D59   D(8,9,10,24)           69.5            estimate D2E/DX2                !
 ! D60   D(25,9,10,11)          68.209          estimate D2E/DX2                !
 ! D61   D(25,9,10,24)        -111.0245         estimate D2E/DX2                !
 ! D62   D(8,9,25,26)          177.5325         estimate D2E/DX2                !
 ! D63   D(8,9,25,27)           -2.3057         estimate D2E/DX2                !
 ! D64   D(10,9,25,26)          -1.9564         estimate D2E/DX2                !
 ! D65   D(10,9,25,27)         178.2054         estimate D2E/DX2                !
 ! D66   D(9,10,11,12)          -1.7129         estimate D2E/DX2                !
 ! D67   D(9,10,11,13)         178.5056         estimate D2E/DX2                !
 ! D68   D(24,10,11,12)        177.54           estimate D2E/DX2                !
 ! D69   D(24,10,11,13)         -2.2414         estimate D2E/DX2                !
 ! D70   D(9,10,24,15)        -178.2459         estimate D2E/DX2                !
 ! D71   D(9,10,24,23)           2.5095         estimate D2E/DX2                !
 ! D72   D(11,10,24,15)          2.526          estimate D2E/DX2                !
 ! D73   D(11,10,24,23)       -176.7186         estimate D2E/DX2                !
 ! D74   D(10,11,12,59)        -50.1723         estimate D2E/DX2                !
 ! D75   D(13,11,12,59)        129.612          estimate D2E/DX2                !
 ! D76   D(10,11,13,14)          0.5571         estimate D2E/DX2                !
 ! D77   D(10,11,13,42)       -179.5226         estimate D2E/DX2                !
 ! D78   D(12,11,13,14)       -179.2268         estimate D2E/DX2                !
 ! D79   D(12,11,13,42)          0.6935         estimate D2E/DX2                !
 ! D80   D(11,12,59,26)          4.1481         estimate D2E/DX2                !
 ! D81   D(11,13,14,15)          0.8419         estimate D2E/DX2                !
 ! D82   D(11,13,14,43)       -179.8837         estimate D2E/DX2                !
 ! D83   D(42,13,14,15)       -179.0786         estimate D2E/DX2                !
 ! D84   D(42,13,14,43)          0.1958         estimate D2E/DX2                !
 ! D85   D(13,14,15,16)        178.9782         estimate D2E/DX2                !
 ! D86   D(13,14,15,24)         -0.5235         estimate D2E/DX2                !
 ! D87   D(43,14,15,16)         -0.2841         estimate D2E/DX2                !
 ! D88   D(43,14,15,24)       -179.7858         estimate D2E/DX2                !
 ! D89   D(14,15,16,17)       -179.1015         estimate D2E/DX2                !
 ! D90   D(14,15,16,44)          0.2878         estimate D2E/DX2                !
 ! D91   D(24,15,16,17)          0.3996         estimate D2E/DX2                !
 ! D92   D(24,15,16,44)        179.7889         estimate D2E/DX2                !
 ! D93   D(14,15,24,10)         -1.1641         estimate D2E/DX2                !
 ! D94   D(14,15,24,23)        178.105          estimate D2E/DX2                !
 ! D95   D(16,15,24,10)        179.3347         estimate D2E/DX2                !
 ! D96   D(16,15,24,23)         -1.3962         estimate D2E/DX2                !
 ! D97   D(15,16,17,18)        178.6254         estimate D2E/DX2                !
 ! D98   D(15,16,17,22)          0.7414         estimate D2E/DX2                !
 ! D99   D(44,16,17,18)         -0.7666         estimate D2E/DX2                !
 ! D100  D(44,16,17,22)       -178.6506         estimate D2E/DX2                !
 ! D101  D(16,17,18,19)        -99.7112         estimate D2E/DX2                !
 ! D102  D(16,17,18,45)         23.162          estimate D2E/DX2                !
 ! D103  D(16,17,18,46)        140.0072         estimate D2E/DX2                !
 ! D104  D(22,17,18,19)         78.1588         estimate D2E/DX2                !
 ! D105  D(22,17,18,45)       -158.9679         estimate D2E/DX2                !
 ! D106  D(22,17,18,46)        -42.1228         estimate D2E/DX2                !
 ! D107  D(16,17,22,23)         -0.871          estimate D2E/DX2                !
 ! D108  D(16,17,22,54)        178.8642         estimate D2E/DX2                !
 ! D109  D(18,17,22,23)       -178.762          estimate D2E/DX2                !
 ! D110  D(18,17,22,54)          0.9733         estimate D2E/DX2                !
 ! D111  D(17,18,19,20)         67.5655         estimate D2E/DX2                !
 ! D112  D(17,18,19,47)        -54.9166         estimate D2E/DX2                !
 ! D113  D(17,18,19,48)       -172.1246         estimate D2E/DX2                !
 ! D114  D(45,18,19,20)        -55.8405         estimate D2E/DX2                !
 ! D115  D(45,18,19,47)       -178.3227         estimate D2E/DX2                !
 ! D116  D(45,18,19,48)         64.4694         estimate D2E/DX2                !
 ! D117  D(46,18,19,20)       -172.0139         estimate D2E/DX2                !
 ! D118  D(46,18,19,47)         65.504          estimate D2E/DX2                !
 ! D119  D(46,18,19,48)        -51.704          estimate D2E/DX2                !
 ! D120  D(18,19,20,21)        176.2684         estimate D2E/DX2                !
 ! D121  D(18,19,20,49)        -63.5748         estimate D2E/DX2                !
 ! D122  D(18,19,20,50)         55.7494         estimate D2E/DX2                !
 ! D123  D(47,19,20,21)        -61.3236         estimate D2E/DX2                !
 ! D124  D(47,19,20,49)         58.8331         estimate D2E/DX2                !
 ! D125  D(47,19,20,50)        178.1574         estimate D2E/DX2                !
 ! D126  D(48,19,20,21)         56.4803         estimate D2E/DX2                !
 ! D127  D(48,19,20,49)        176.637          estimate D2E/DX2                !
 ! D128  D(48,19,20,50)        -64.0387         estimate D2E/DX2                !
 ! D129  D(19,20,21,51)        -60.8132         estimate D2E/DX2                !
 ! D130  D(19,20,21,52)         60.0639         estimate D2E/DX2                !
 ! D131  D(19,20,21,53)        179.6278         estimate D2E/DX2                !
 ! D132  D(49,20,21,51)        178.1898         estimate D2E/DX2                !
 ! D133  D(49,20,21,52)        -60.9331         estimate D2E/DX2                !
 ! D134  D(49,20,21,53)         58.6308         estimate D2E/DX2                !
 ! D135  D(50,20,21,51)         60.2333         estimate D2E/DX2                !
 ! D136  D(50,20,21,52)       -178.8896         estimate D2E/DX2                !
 ! D137  D(50,20,21,53)        -59.3257         estimate D2E/DX2                !
 ! D138  D(17,22,23,24)         -0.1487         estimate D2E/DX2                !
 ! D139  D(17,22,23,55)        179.4046         estimate D2E/DX2                !
 ! D140  D(54,22,23,24)       -179.8865         estimate D2E/DX2                !
 ! D141  D(54,22,23,55)         -0.3332         estimate D2E/DX2                !
 ! D142  D(22,23,24,10)       -179.4751         estimate D2E/DX2                !
 ! D143  D(22,23,24,15)          1.2756         estimate D2E/DX2                !
 ! D144  D(55,23,24,10)          0.987          estimate D2E/DX2                !
 ! D145  D(55,23,24,15)       -178.2622         estimate D2E/DX2                !
 ! D146  D(9,25,26,59)         -86.8314         estimate D2E/DX2                !
 ! D147  D(27,25,26,59)         93.009          estimate D2E/DX2                !
 ! D148  D(9,25,27,28)           0.5446         estimate D2E/DX2                !
 ! D149  D(9,25,27,56)        -179.4685         estimate D2E/DX2                !
 ! D150  D(26,25,27,28)       -179.2954         estimate D2E/DX2                !
 ! D151  D(26,25,27,56)          0.6915         estimate D2E/DX2                !
 ! D152  D(25,26,59,12)         77.704          estimate D2E/DX2                !
 ! D153  D(25,27,28,29)          0.9499         estimate D2E/DX2                !
 ! D154  D(25,27,28,57)       -179.7876         estimate D2E/DX2                !
 ! D155  D(56,27,28,29)       -179.0369         estimate D2E/DX2                !
 ! D156  D(56,27,28,57)          0.2255         estimate D2E/DX2                !
 ! D157  D(27,28,29,8)          -0.6488         estimate D2E/DX2                !
 ! D158  D(27,28,29,30)        179.1506         estimate D2E/DX2                !
 ! D159  D(57,28,29,8)        -179.8989         estimate D2E/DX2                !
 ! D160  D(57,28,29,30)         -0.0996         estimate D2E/DX2                !
 ! D161  D(8,29,30,5)            0.7197         estimate D2E/DX2                !
 ! D162  D(8,29,30,58)        -179.0621         estimate D2E/DX2                !
 ! D163  D(28,29,30,5)        -179.0794         estimate D2E/DX2                !
 ! D164  D(28,29,30,58)          1.1388         estimate D2E/DX2                !
 --------------------------------------------------------------------------------
 Trust Radius=3.00D-01 FncErr=1.00D-07 GrdErr=1.00D-06 EigMax=2.50D+02 EigMin=1.00D-04
 Number of steps in this run=    348 maximum allowed number of steps=    354.
 GradGradGradGradGradGradGradGradGradGradGradGradGradGradGradGradGradGrad

 Leave Link  103 at Fri Mar  8 02:25:43 2024, MaxMem= 13421772800 cpu:               0.6 elap:               0.0
 (Enter /public/software/apps/Gaussian/g16/l202.exe)
 Symmetry turned off by external request.
 Stoichiometry    C28H28CuO2(2)
 Framework group  C1[X(C28H28CuO2)]
 Deg. of freedom   171
 Full point group                 C1      NOp   1
                          Input orientation:                          
 ---------------------------------------------------------------------
 Center     Atomic      Atomic             Coordinates (Angstroms)
 Number     Number       Type             X           Y           Z
 ---------------------------------------------------------------------
      1          6           0       -4.395347   -3.796549    0.032985
      2          6           0       -4.623560   -2.325451    0.367003
      3          6           0       -4.437113   -2.063440    1.868444
      4          6           0       -4.746514   -0.608393    2.249281
      5          6           0       -3.742205    0.353154    1.665674
      6          6           0       -2.480874    0.496792    2.257882
      7          6           0       -1.531837    1.359311    1.706553
      8          6           0       -1.819684    2.091081    0.536115
      9          6           0       -0.868352    2.961944   -0.058290
     10          6           0        0.507843    3.113371    0.487007
     11          6           0        0.865712    4.334506    1.087799
     12          8           0       -0.043078    5.386847    1.134718
     13          6           0        2.135897    4.507066    1.639247
     14          6           0        3.071626    3.475539    1.592061
     15          6           0        2.752711    2.258822    0.974152
     16          6           0        3.707959    1.232564    0.911906
     17          6           0        3.407908    0.017377    0.280034
     18          6           0        4.446430   -1.072024    0.187518
     19          6           0        5.129379   -1.100905   -1.187505
     20          6           0        5.998058    0.141080   -1.433485
     21          6           0        6.734886    0.041749   -2.765791
     22          6           0        2.147914   -0.161612   -0.305428
     23          6           0        1.188135    0.850418   -0.247947
     24          6           0        1.467477    2.069853    0.402718
     25          6           0       -1.233098    3.715274   -1.189528
     26          8           0       -0.332918    4.612130   -1.755975
     27          6           0       -2.501204    3.575313   -1.754815
     28          6           0       -3.427991    2.695276   -1.199435
     29          6           0       -3.102987    1.955438   -0.054479
     30          6           0       -4.048151    1.084545    0.509199
     31          1           0       -3.363346   -4.099345    0.311237
     32          1           0       -5.124486   -4.433853    0.577237
     33          1           0       -4.530213   -3.955323   -1.057697
     34          1           0       -5.654178   -2.042410    0.060860
     35          1           0       -3.901614   -1.714964   -0.216827
     36          1           0       -5.125237   -2.724304    2.439783
     37          1           0       -3.396693   -2.316847    2.169555
     38          1           0       -5.777553   -0.346152    1.924708
     39          1           0       -4.730644   -0.518656    3.357401
     40          1           0       -2.230956   -0.063624    3.150456
     41          1           0       -0.575664    1.447049    2.204982
     42          1           0        2.399221    5.447703    2.106194
     43          1           0        4.050603    3.633573    2.029071
     44          1           0        4.690491    1.380335    1.346156
     45          1           0        5.212289   -0.954115    0.985468
     46          1           0        3.955566   -2.054236    0.362374
     47          1           0        4.360540   -1.188318   -1.986612
     48          1           0        5.771742   -2.007425   -1.235393
     49          1           0        5.361474    1.051674   -1.449328
     50          1           0        6.744540    0.246033   -0.616315
     51          1           0        7.406880   -0.842795   -2.770552
     52          1           0        6.008908   -0.043990   -3.602288
     53          1           0        7.348518    0.954233   -2.920120
     54          1           0        1.909464   -1.088440   -0.812730
     55          1           0        0.232631    0.671081   -0.722595
     56          1           0       -2.769511    4.152990   -2.630301
     57          1           0       -4.404976    2.601904   -1.658926
     58          1           0       -5.022699    0.971005    0.047553
     59         29           0       -0.983844    5.961876   -0.488755
 ---------------------------------------------------------------------
 Rotational constants (GHZ):           0.1293701           0.0924532           0.0622336
 Leave Link  202 at Fri Mar  8 02:25:43 2024, MaxMem= 13421772800 cpu:               1.2 elap:               0.0
 (Enter /public/software/apps/Gaussian/g16/l301.exe)
 Standard basis: def2SVPP (5D, 7F)
 Ernie: Thresh=  0.10000D-02 Tol=  0.10000D-05 Strict=F.
   500 basis functions,   933 primitive gaussians,   532 cartesian basis functions
   121 alpha electrons      120 beta electrons
       nuclear repulsion energy      3400.1186994603 Hartrees.
 IExCor=  402 DFT=T Ex+Corr=B3LYP ExCW=0 ScaHFX=  0.200000
 ScaDFX=  0.800000  0.720000  1.000000  0.810000 ScalE2=  1.000000  1.000000
 IRadAn=      5 IRanWt=     -1 IRanGd=            0 ICorTp=0 IEmpDi=141
 NAtoms=   59 NActive=   59 NUniq=   59 SFac= 1.00D+00 NAtFMM=   60 NAOKFM=F Big=F
 Integral buffers will be    131072 words long.
 Raffenetti 2 integral format.
 Two-electron integral symmetry is turned off.
 R6Disp:  Grimme-D3(BJ) Dispersion energy=       -0.1420238378 Hartrees.
 Nuclear repulsion after empirical dispersion term =     3399.9766756225 Hartrees.
 Leave Link  301 at Fri Mar  8 02:25:43 2024, MaxMem= 13421772800 cpu:               0.6 elap:               0.0
 (Enter /public/software/apps/Gaussian/g16/l302.exe)
 NPDir=0 NMtPBC=     1 NCelOv=     1 NCel=       1 NClECP=     1 NCelD=      1
         NCelK=      1 NCelE2=     1 NClLst=     1 CellRange=     0.0.
 One-electron integrals computed using PRISM.
   1 Symmetry operations used in ECPInt.
 ECPInt:  NShTT=   30381 NPrTT=  125764 LenC2=   25916 LenP2D=   67955.
 LDataN:  DoStor=T MaxTD1= 4 Len=   56
 NBasis=   500 RedAO= T EigKep=  1.85D-04  NBF=   500
 NBsUse=   500 1.00D-06 EigRej= -1.00D+00 NBFU=   500
 Precomputing XC quadrature grid using
 IXCGrd= 4 IRadAn=           5 IRanWt=          -1 IRanGd=           0 AccXCQ= 0.00D+00.
 Generated NRdTot=       0 NPtTot=           0 NUsed=           0 NTot=          32
 NSgBfM=   526   526   526   526   526 MxSgAt=    59 MxSgA2=    59.
 Leave Link  302 at Fri Mar  8 02:25:44 2024, MaxMem= 13421772800 cpu:              16.4 elap:               0.5
 (Enter /public/software/apps/Gaussian/g16/l303.exe)
 DipDrv:  MaxL=1.
 Leave Link  303 at Fri Mar  8 02:25:44 2024, MaxMem= 13421772800 cpu:               1.6 elap:               0.1
 (Enter /public/software/apps/Gaussian/g16/l401.exe)
 ExpMin= 3.30D-02 ExpMax= 7.64D+04 ExpMxC= 1.15D+04 IAcc=3 IRadAn=         5 AccDes= 0.00D+00
 Harris functional with IExCor=  402 and IRadAn=       5 diagonalized for initial guess.
 HarFok:  IExCor=  402 AccDes= 0.00D+00 IRadAn=         5 IDoV= 1 UseB2=F ITyADJ=14
 ICtDFT=  3500011 ScaDFX=  1.000000  1.000000  1.000000  1.000000
 FoFCou: FMM=F IPFlag=           0 FMFlag=      100000 FMFlg1=           0
         NFxFlg=           0 DoJE=T BraDBF=F KetDBF=T FulRan=T
         wScrn=  0.000000 ICntrl=       500 IOpCl=  0 I1Cent=   200000004 NGrid=           0
         NMat0=    1 NMatS0=      1 NMatT0=    0 NMatD0=    1 NMtDS0=    0 NMtDT0=    0
 Symmetry not used in FoFCou.
 Harris En= -2874.10547905016    
 JPrj=0 DoOrth=F DoCkMO=F.
 Initial guess <Sx>= 0.0000 <Sy>= 0.0000 <Sz>= 0.5000 <S**2>= 0.7500 S= 0.5000
 Leave Link  401 at Fri Mar  8 02:25:45 2024, MaxMem= 13421772800 cpu:              41.4 elap:               1.3
 (Enter /public/software/apps/Gaussian/g16/l502.exe)
 Two-electron integral symmetry not used.
 UHF open shell SCF:
 Using DIIS extrapolation, IDIIS=  1040.
 NGot= 13421772800 LenX= 13421183716 LenY= 13420900160
 Requested convergence on RMS density matrix=1.00D-08 within 128 cycles.
 Requested convergence on MAX density matrix=1.00D-06.
 Requested convergence on             energy=1.00D-06.
 No special actions if energy rises.
 Fock matrices will be formed incrementally for  20 cycles.

 Cycle   1  Pass 1  IDiag  1:
 FoFJK:  IHMeth= 1 ICntrl=       0 DoSepK=F KAlg= 0 I1Cent=           0 FoldK=F
 IRaf= 770000000 NMat=       1 IRICut=       1 DoRegI=T DoRafI=F ISym2E= 0 IDoP0=0 IntGTp=1.
 FoFCou: FMM=F IPFlag=           0 FMFlag=      100000 FMFlg1=           0
         NFxFlg=           0 DoJE=F BraDBF=F KetDBF=F FulRan=T
         wScrn=  0.000000 ICntrl=         0 IOpCl=  1 I1Cent=           0 NGrid=           0
         NMat0=    1 NMatS0=      1 NMatT0=    0 NMatD0=    1 NMtDS0=    0 NMtDT0=    0
 Symmetry not used in FoFCou.
 E= -2859.00257445487    
 DIIS: error= 2.61D-01 at cycle   1 NSaved=   1.
 NSaved= 1 IEnMin= 1 EnMin= -2859.00257445487     IErMin= 1 ErrMin= 2.61D-01
 ErrMax= 2.61D-01  0.00D+00 EMaxC= 1.00D-01 BMatC= 6.52D+01 BMatP= 6.52D+01
 IDIUse=3 WtCom= 0.00D+00 WtEn= 1.00D+00
 Coeff-Com:  0.100D+01
 Coeff-En:   0.100D+01
 Coeff:      0.100D+01
 Gap=     0.451 Goal=   None    Shift=    0.000
 Gap=    -0.236 Goal=   None    Shift=    0.000
 GapD=   -0.236 DampG=0.250 DampE=0.125 DampFc=0.1250 IDamp=-1.
 Damping current iteration by 1.25D-01
 RMSDP=8.80D-02 MaxDP=1.72D+01              OVMax= 9.77D-01

 Cycle   2  Pass 1  IDiag  1:
 RMSU=  1.09D-02    CP:  1.06D+00
 E= -2863.90558968727     Delta-E=       -4.903015232407 Rises=F Damp=T
 DIIS: error= 1.72D-01 at cycle   2 NSaved=   2.
 NSaved= 2 IEnMin= 2 EnMin= -2863.90558968727     IErMin= 2 ErrMin= 1.72D-01
 ErrMax= 1.72D-01  0.00D+00 EMaxC= 1.00D-01 BMatC= 2.45D+01 BMatP= 6.52D+01
 IDIUse=3 WtCom= 0.00D+00 WtEn= 1.00D+00
 Coeff-Com: -0.120D+01 0.220D+01
 Coeff-En:   0.000D+00 0.100D+01
 Coeff:      0.000D+00 0.100D+01
 Gap=     0.104 Goal=   None    Shift=    0.000
 Gap=    -0.244 Goal=   None    Shift=    0.000
 RMSDP=1.81D-02 MaxDP=3.12D+00 DE=-4.90D+00 OVMax= 9.57D-01

 Cycle   3  Pass 1  IDiag  1:
 RMSU=  1.79D-02    CP:  9.35D-01  9.58D-01
 E= -2849.27077546059     Delta-E=       14.634814226683 Rises=F Damp=F
 DIIS: error= 1.60D-01 at cycle   3 NSaved=   3.
 NSaved= 3 IEnMin= 2 EnMin= -2863.90558968727     IErMin= 3 ErrMin= 1.60D-01
 ErrMax= 1.60D-01  0.00D+00 EMaxC= 1.00D-01 BMatC= 7.07D+01 BMatP= 2.45D+01
 IDIUse=2 WtCom= 0.00D+00 WtEn= 1.00D+00
 EnCoef did   100 forward-backward iterations
 Coeff-En:   0.579D+00 0.848D-02 0.413D+00
 Coeff:      0.579D+00 0.848D-02 0.413D+00
 Gap=    -0.038 Goal=   None    Shift=    0.000
 Gap=     0.261 Goal=   None    Shift=    0.000
 RMSDP=1.95D-02 MaxDP=2.63D+00 DE= 1.46D+01 OVMax= 7.75D-01

 Cycle   4  Pass 1  IDiag  1:
 RMSU=  9.63D-03    CP:  9.07D-01  1.60D-01  1.86D-01
 E= -2862.07785366094     Delta-E=      -12.807078200352 Rises=F Damp=F
 DIIS: error= 1.22D-01 at cycle   4 NSaved=   4.
 NSaved= 4 IEnMin= 2 EnMin= -2863.90558968727     IErMin= 4 ErrMin= 1.22D-01
 ErrMax= 1.22D-01  0.00D+00 EMaxC= 1.00D-01 BMatC= 3.33D+01 BMatP= 2.45D+01
 IDIUse=2 WtCom= 0.00D+00 WtEn= 1.00D+00
 EnCoef did   100 forward-backward iterations
 Coeff-En:   0.451D+00 0.486D-02 0.224D+00 0.321D+00
 Coeff:      0.451D+00 0.486D-02 0.224D+00 0.321D+00
 Gap=     0.508 Goal=   None    Shift=    0.000
 Gap=     0.232 Goal=   None    Shift=    0.000
 RMSDP=1.13D-02 MaxDP=9.39D-01 DE=-1.28D+01 OVMax= 8.24D-01

 Cycle   5  Pass 1  IDiag  1:
 RMSU=  6.85D-03    CP:  8.85D-01 -1.98D-02  1.76D-01  8.76D-02
 E= -2866.46125336331     Delta-E=       -4.383399702366 Rises=F Damp=F
 DIIS: error= 8.10D-02 at cycle   5 NSaved=   5.
 NSaved= 5 IEnMin= 5 EnMin= -2866.46125336331     IErMin= 5 ErrMin= 8.10D-02
 ErrMax= 8.10D-02  0.00D+00 EMaxC= 1.00D-01 BMatC= 2.13D+01 BMatP= 2.45D+01
 IDIUse=3 WtCom= 1.90D-01 WtEn= 8.10D-01
 EnCoef did   100 forward-backward iterations
 Coeff-Com: -0.696D+00 0.131D+01-0.210D-02 0.564D-01 0.332D+00
 Coeff-En:   0.214D+00 0.730D-02 0.000D+00 0.354D+00 0.425D+00
 Coeff:      0.412D-01 0.254D+00-0.397D-03 0.298D+00 0.407D+00
 Gap=     0.159 Goal=   None    Shift=    0.000
 Gap=     0.006 Goal=   None    Shift=    0.000
 RMSDP=6.54D-03 MaxDP=4.34D-01 DE=-4.38D+00 OVMax= 7.64D-01

 Cycle   6  Pass 1  IDiag  1:
 RMSU=  4.51D-03    CP:  8.84D-01  2.82D-02  1.43D-01  2.93D-01  3.81D-01
 E= -2872.26140670807     Delta-E=       -5.800153344760 Rises=F Damp=F
 DIIS: error= 2.85D-02 at cycle   6 NSaved=   6.
 NSaved= 6 IEnMin= 6 EnMin= -2872.26140670807     IErMin= 6 ErrMin= 2.85D-02
 ErrMax= 2.85D-02  0.00D+00 EMaxC= 1.00D-01 BMatC= 3.57D+00 BMatP= 2.13D+01
 IDIUse=3 WtCom= 7.15D-01 WtEn= 2.85D-01
 EnCoef did   100 forward-backward iterations
 Coeff-Com: -0.378D+00 0.758D+00-0.179D-01 0.131D-01 0.207D+00 0.418D+00
 Coeff-En:   0.139D+00 0.204D-02 0.000D+00 0.000D+00 0.103D+00 0.756D+00
 Coeff:     -0.231D+00 0.542D+00-0.128D-01 0.933D-02 0.177D+00 0.514D+00
 Gap=     0.110 Goal=   None    Shift=    0.000
 Gap=    -0.227 Goal=   None    Shift=    0.000
 RMSDP=6.36D-03 MaxDP=1.02D+00 DE=-5.80D+00 OVMax= 9.76D-01

 Cycle   7  Pass 1  IDiag  1:
 RMSU=  4.81D-03    CP:  8.95D-01 -3.01D-02  8.53D-02  1.92D-01  4.96D-01
                    CP:  1.62D-01
 E= -2869.49385582474     Delta-E=        2.767550883323 Rises=F Damp=F
 DIIS: error= 4.83D-02 at cycle   7 NSaved=   7.
 NSaved= 7 IEnMin= 6 EnMin= -2872.26140670807     IErMin= 6 ErrMin= 2.85D-02
 ErrMax= 4.83D-02  0.00D+00 EMaxC= 1.00D-01 BMatC= 1.13D+01 BMatP= 3.57D+00
 IDIUse=2 WtCom= 0.00D+00 WtEn= 1.00D+00
 EnCoef did     5 forward-backward iterations
 Coeff-En:   0.891D-01 0.000D+00 0.000D+00 0.000D+00 0.000D+00 0.656D+00
 Coeff-En:   0.255D+00
 Coeff:      0.891D-01 0.000D+00 0.000D+00 0.000D+00 0.000D+00 0.656D+00
 Coeff:      0.255D+00
 Gap=     0.096 Goal=   None    Shift=    0.000
 Gap=    -0.034 Goal=   None    Shift=    0.000
 RMSDP=4.83D-03 MaxDP=4.19D-01 DE= 2.77D+00 OVMax= 5.37D-01

 Cycle   8  Pass 1  IDiag  1:
 RMSU=  3.32D-03    CP:  8.87D-01 -4.27D-02  6.63D-02  1.93D-01  2.98D-01
                    CP:  4.29D-01  3.81D-01
 E= -2873.19413404437     Delta-E=       -3.700278219624 Rises=F Damp=F
 DIIS: error= 3.15D-02 at cycle   8 NSaved=   8.
 NSaved= 8 IEnMin= 8 EnMin= -2873.19413404437     IErMin= 6 ErrMin= 2.85D-02
 ErrMax= 3.15D-02  0.00D+00 EMaxC= 1.00D-01 BMatC= 2.54D+00 BMatP= 3.57D+00
 IDIUse=3 WtCom= 7.15D-01 WtEn= 2.85D-01
 EnCoef did     1 forward-backward iterations
 Coeff-Com: -0.266D-01 0.557D-01 0.588D-02-0.142D-01 0.312D-01 0.367D+00
 Coeff-Com:  0.152D+00 0.429D+00
 Coeff-En:   0.000D+00 0.000D+00 0.000D+00 0.000D+00 0.000D+00 0.326D+00
 Coeff-En:   0.921D-01 0.582D+00
 Coeff:     -0.190D-01 0.398D-01 0.420D-02-0.101D-01 0.223D-01 0.355D+00
 Coeff:      0.135D+00 0.473D+00
 Gap=     0.203 Goal=   None    Shift=    0.000
 Gap=     0.087 Goal=   None    Shift=    0.000
 RMSDP=3.08D-03 MaxDP=2.14D-01 DE=-3.70D+00 OVMax= 4.15D-01

 Cycle   9  Pass 1  IDiag  1:
 RMSU=  2.47D-03    CP:  8.89D-01 -3.30D-02  8.15D-02  2.00D-01  3.73D-01
                    CP:  5.49D-01  3.82D-01  5.02D-01
 E= -2873.62765273209     Delta-E=       -0.433518687717 Rises=F Damp=F
 DIIS: error= 1.76D-02 at cycle   9 NSaved=   9.
 NSaved= 9 IEnMin= 9 EnMin= -2873.62765273209     IErMin= 9 ErrMin= 1.76D-02
 ErrMax= 1.76D-02  0.00D+00 EMaxC= 1.00D-01 BMatC= 6.14D-01 BMatP= 2.54D+00
 IDIUse=3 WtCom= 8.24D-01 WtEn= 1.76D-01
 EnCoef did     3 forward-backward iterations
 Coeff-Com: -0.865D-01 0.122D+00 0.608D-02-0.195D-02 0.458D-01 0.981D-01
 Coeff-Com:  0.239D-01 0.286D+00 0.506D+00
 Coeff-En:   0.000D+00 0.000D+00 0.000D+00 0.000D+00 0.000D+00 0.366D-01
 Coeff-En:   0.000D+00 0.226D+00 0.737D+00
 Coeff:     -0.713D-01 0.101D+00 0.501D-02-0.161D-02 0.378D-01 0.873D-01
 Coeff:      0.197D-01 0.275D+00 0.547D+00
 Gap=     0.156 Goal=   None    Shift=    0.000
 Gap=     0.034 Goal=   None    Shift=    0.000
 RMSDP=2.25D-03 MaxDP=1.65D-01 DE=-4.34D-01 OVMax= 4.38D-01

 Cycle  10  Pass 1  IDiag  1:
 RMSU=  1.60D-03    CP:  8.80D-01 -3.73D-02  9.43D-02  2.00D-01  4.02D-01
                    CP:  5.48D-01  2.62D-01  6.36D-01  4.51D-01
 E= -2873.70404275832     Delta-E=       -0.076390026235 Rises=F Damp=F
 DIIS: error= 2.04D-02 at cycle  10 NSaved=  10.
 NSaved=10 IEnMin=10 EnMin= -2873.70404275832     IErMin= 9 ErrMin= 1.76D-02
 ErrMax= 2.04D-02  0.00D+00 EMaxC= 1.00D-01 BMatC= 5.57D-01 BMatP= 6.14D-01
 IDIUse=3 WtCom= 8.24D-01 WtEn= 1.76D-01
 EnCoef did     1 forward-backward iterations
 Coeff-Com: -0.422D-01 0.647D-01 0.197D-02-0.173D-01 0.285D-02 0.221D-01
 Coeff-Com:  0.420D-03 0.169D+00 0.425D+00 0.373D+00
 Coeff-En:   0.000D+00 0.000D+00 0.000D+00 0.000D+00 0.000D+00 0.000D+00
 Coeff-En:   0.000D+00 0.185D-01 0.389D+00 0.592D+00
 Coeff:     -0.348D-01 0.533D-01 0.162D-02-0.143D-01 0.235D-02 0.182D-01
 Coeff:      0.346D-03 0.142D+00 0.419D+00 0.412D+00
 Gap=     0.101 Goal=   None    Shift=    0.000
 Gap=     0.022 Goal=   None    Shift=    0.000
 RMSDP=9.70D-04 MaxDP=8.17D-02 DE=-7.64D-02 OVMax= 2.80D-01

 Cycle  11  Pass 1  IDiag  1:
 RMSU=  5.86D-04    CP:  8.83D-01 -3.39D-02  8.84D-02  1.94D-01  3.86D-01
                    CP:  5.43D-01  3.19D-01  6.45D-01  5.74D-01  6.06D-01
 E= -2873.81053760128     Delta-E=       -0.106494842959 Rises=F Damp=F
 DIIS: error= 2.13D-03 at cycle  11 NSaved=  11.
 NSaved=11 IEnMin=11 EnMin= -2873.81053760128     IErMin=11 ErrMin= 2.13D-03
 ErrMax= 2.13D-03  0.00D+00 EMaxC= 1.00D-01 BMatC= 2.40D-02 BMatP= 5.57D-01
 IDIUse=3 WtCom= 9.79D-01 WtEn= 2.13D-02
 Coeff-Com: -0.396D-02 0.902D-02-0.147D-02-0.582D-02-0.270D-02 0.221D-01
 Coeff-Com: -0.108D-01 0.629D-01 0.164D+00 0.130D+00 0.637D+00
 Coeff-En:   0.000D+00 0.000D+00 0.000D+00 0.000D+00 0.000D+00 0.000D+00
 Coeff-En:   0.000D+00 0.000D+00 0.000D+00 0.000D+00 0.100D+01
 Coeff:     -0.388D-02 0.882D-02-0.144D-02-0.570D-02-0.264D-02 0.216D-01
 Coeff:     -0.105D-01 0.616D-01 0.160D+00 0.128D+00 0.645D+00
 Gap=     0.110 Goal=   None    Shift=    0.000
 Gap=     0.034 Goal=   None    Shift=    0.000
 RMSDP=3.38D-04 MaxDP=1.49D-02 DE=-1.06D-01 OVMax= 7.60D-02

 Cycle  12  Pass 1  IDiag  1:
 RMSU=  2.41D-04    CP:  8.84D-01 -3.53D-02  8.72D-02  1.94D-01  3.85D-01
                    CP:  5.49D-01  3.07D-01  6.22D-01  6.12D-01  6.38D-01
                    CP:  6.86D-01
 E= -2873.81354398314     Delta-E=       -0.003006381859 Rises=F Damp=F
 DIIS: error= 3.22D-03 at cycle  12 NSaved=  12.
 NSaved=12 IEnMin=12 EnMin= -2873.81354398314     IErMin=11 ErrMin= 2.13D-03
 ErrMax= 3.22D-03  0.00D+00 EMaxC= 1.00D-01 BMatC= 1.96D-02 BMatP= 2.40D-02
 IDIUse=3 WtCom= 9.79D-01 WtEn= 2.13D-02
 Coeff-Com: -0.169D-02 0.399D-02-0.830D-03-0.753D-03-0.168D-02 0.199D-01
 Coeff-Com: -0.793D-02 0.432D-01 0.503D-01-0.338D-01 0.348D+00 0.581D+00
 Coeff-En:   0.000D+00 0.000D+00 0.000D+00 0.000D+00 0.000D+00 0.000D+00
 Coeff-En:   0.000D+00 0.000D+00 0.000D+00 0.000D+00 0.269D+00 0.731D+00
 Coeff:     -0.165D-02 0.391D-02-0.812D-03-0.737D-03-0.164D-02 0.194D-01
 Coeff:     -0.776D-02 0.423D-01 0.493D-01-0.330D-01 0.347D+00 0.584D+00
 Gap=     0.112 Goal=   None    Shift=    0.000
 Gap=     0.038 Goal=   None    Shift=    0.000
 RMSDP=2.04D-04 MaxDP=1.82D-02 DE=-3.01D-03 OVMax= 4.08D-02

 Cycle  13  Pass 1  IDiag  1:
 RMSU=  1.37D-04    CP:  8.83D-01 -3.63D-02  8.58D-02  1.93D-01  3.81D-01
                    CP:  5.48D-01  3.16D-01  6.31D-01  6.03D-01  5.71D-01
                    CP:  8.05D-01  8.23D-01
 E= -2873.81685540070     Delta-E=       -0.003311417560 Rises=F Damp=F
 DIIS: error= 1.08D-03 at cycle  13 NSaved=  13.
 NSaved=13 IEnMin=13 EnMin= -2873.81685540070     IErMin=13 ErrMin= 1.08D-03
 ErrMax= 1.08D-03  0.00D+00 EMaxC= 1.00D-01 BMatC= 3.45D-03 BMatP= 1.96D-02
 IDIUse=3 WtCom= 9.89D-01 WtEn= 1.08D-02
 Coeff-Com: -0.275D-02 0.445D-02 0.500D-04 0.862D-03-0.160D-02 0.102D-01
 Coeff-Com: -0.415D-02 0.192D-01-0.701D-02-0.644D-01 0.337D-01 0.378D+00
 Coeff-Com:  0.634D+00
 Coeff-En:   0.000D+00 0.000D+00 0.000D+00 0.000D+00 0.000D+00 0.000D+00
 Coeff-En:   0.000D+00 0.000D+00 0.000D+00 0.000D+00 0.000D+00 0.000D+00
 Coeff-En:   0.100D+01
 Coeff:     -0.272D-02 0.440D-02 0.495D-04 0.853D-03-0.159D-02 0.101D-01
 Coeff:     -0.411D-02 0.190D-01-0.694D-02-0.637D-01 0.334D-01 0.374D+00
 Coeff:      0.638D+00
 Gap=     0.111 Goal=   None    Shift=    0.000
 Gap=     0.040 Goal=   None    Shift=    0.000
 RMSDP=1.15D-04 MaxDP=8.51D-03 DE=-3.31D-03 OVMax= 2.20D-02

 Cycle  14  Pass 1  IDiag  1:
 RMSU=  8.95D-05    CP:  8.83D-01 -3.56D-02  8.56D-02  1.94D-01  3.79D-01
                    CP:  5.51D-01  3.12D-01  6.33D-01  5.97D-01  5.78D-01
                    CP:  7.76D-01  1.06D+00  8.20D-01
 E= -2873.81766194944     Delta-E=       -0.000806548737 Rises=F Damp=F
 DIIS: error= 7.82D-04 at cycle  14 NSaved=  14.
 NSaved=14 IEnMin=14 EnMin= -2873.81766194944     IErMin=14 ErrMin= 7.82D-04
 ErrMax= 7.82D-04  0.00D+00 EMaxC= 1.00D-01 BMatC= 1.37D-03 BMatP= 3.45D-03
 IDIUse=3 WtCom= 9.92D-01 WtEn= 7.82D-03
 Coeff-Com: -0.389D-02 0.655D-02 0.137D-03 0.161D-03-0.154D-02 0.176D-02
 Coeff-Com: -0.111D-02 0.427D-02-0.186D-01-0.360D-01-0.655D-01 0.828D-01
 Coeff-Com:  0.439D+00 0.592D+00
 Coeff-En:   0.000D+00 0.000D+00 0.000D+00 0.000D+00 0.000D+00 0.000D+00
 Coeff-En:   0.000D+00 0.000D+00 0.000D+00 0.000D+00 0.000D+00 0.000D+00
 Coeff-En:   0.000D+00 0.100D+01
 Coeff:     -0.386D-02 0.650D-02 0.136D-03 0.159D-03-0.153D-02 0.175D-02
 Coeff:     -0.110D-02 0.423D-02-0.185D-01-0.357D-01-0.650D-01 0.822D-01
 Coeff:      0.435D+00 0.596D+00
 Gap=     0.110 Goal=   None    Shift=    0.000
 Gap=     0.039 Goal=   None    Shift=    0.000
 RMSDP=7.16D-05 MaxDP=7.02D-03 DE=-8.07D-04 OVMax= 1.59D-02

 Cycle  15  Pass 1  IDiag  1:
 RMSU=  4.97D-05    CP:  8.83D-01 -3.55D-02  8.56D-02  1.94D-01  3.78D-01
                    CP:  5.53D-01  3.10D-01  6.29D-01  5.96D-01  5.99D-01
                    CP:  7.69D-01  1.09D+00  1.04D+00  8.83D-01
 E= -2873.81784278512     Delta-E=       -0.000180835678 Rises=F Damp=F
 DIIS: error= 1.13D-03 at cycle  15 NSaved=  15.
 NSaved=15 IEnMin=15 EnMin= -2873.81784278512     IErMin=14 ErrMin= 7.82D-04
 ErrMax= 1.13D-03  0.00D+00 EMaxC= 1.00D-01 BMatC= 1.37D-03 BMatP= 1.37D-03
 IDIUse=3 WtCom= 9.92D-01 WtEn= 7.82D-03
 Coeff-Com: -0.185D-02 0.340D-02 0.845D-04-0.407D-03-0.575D-03-0.115D-02
 Coeff-Com: -0.340D-03 0.412D-02-0.173D-01-0.305D-01-0.544D-01-0.238D-01
 Coeff-Com:  0.155D+00 0.321D+00 0.647D+00
 Coeff-En:   0.000D+00 0.000D+00 0.000D+00 0.000D+00 0.000D+00 0.000D+00
 Coeff-En:   0.000D+00 0.000D+00 0.000D+00 0.000D+00 0.000D+00 0.000D+00
 Coeff-En:   0.000D+00 0.530D-01 0.947D+00
 Coeff:     -0.183D-02 0.338D-02 0.838D-04-0.404D-03-0.571D-03-0.114D-02
 Coeff:     -0.337D-03 0.409D-02-0.172D-01-0.303D-01-0.540D-01-0.236D-01
 Coeff:      0.153D+00 0.319D+00 0.649D+00
 Gap=     0.111 Goal=   None    Shift=    0.000
 Gap=     0.040 Goal=   None    Shift=    0.000
 RMSDP=4.89D-05 MaxDP=2.97D-03 DE=-1.81D-04 OVMax= 1.83D-02

 Cycle  16  Pass 1  IDiag  1:
 RMSU=  2.99D-05    CP:  8.83D-01 -3.52D-02  8.53D-02  1.94D-01  3.77D-01
                    CP:  5.54D-01  3.09D-01  6.30D-01  5.92D-01  6.07D-01
                    CP:  7.52D-01  1.14D+00  1.12D+00  1.13D+00  1.26D+00
 E= -2873.81797014705     Delta-E=       -0.000127361937 Rises=F Damp=F
 DIIS: error= 8.51D-04 at cycle  16 NSaved=  16.
 NSaved=16 IEnMin=16 EnMin= -2873.81797014705     IErMin=14 ErrMin= 7.82D-04
 ErrMax= 8.51D-04  0.00D+00 EMaxC= 1.00D-01 BMatC= 8.28D-04 BMatP= 1.37D-03
 IDIUse=3 WtCom= 9.92D-01 WtEn= 7.82D-03
 Coeff-Com: -0.598D-03 0.126D-02 0.688D-04-0.444D-03 0.807D-04-0.138D-02
 Coeff-Com: -0.252D-03 0.596D-02-0.122D-01-0.317D-01-0.225D-01-0.337D-02
 Coeff-Com:  0.859D-01 0.838D-01 0.370D+00 0.525D+00
 Coeff-En:   0.000D+00 0.000D+00 0.000D+00 0.000D+00 0.000D+00 0.000D+00
 Coeff-En:   0.000D+00 0.000D+00 0.000D+00 0.000D+00 0.000D+00 0.000D+00
 Coeff-En:   0.000D+00 0.000D+00 0.000D+00 0.100D+01
 Coeff:     -0.593D-03 0.125D-02 0.682D-04-0.441D-03 0.801D-04-0.137D-02
 Coeff:     -0.250D-03 0.591D-02-0.121D-01-0.314D-01-0.223D-01-0.335D-02
 Coeff:      0.852D-01 0.832D-01 0.367D+00 0.529D+00
 Gap=     0.112 Goal=   None    Shift=    0.000
 Gap=     0.040 Goal=   None    Shift=    0.000
 RMSDP=2.41D-05 MaxDP=1.55D-03 DE=-1.27D-04 OVMax= 5.48D-03

 Cycle  17  Pass 1  IDiag  1:
 RMSU=  1.54D-05    CP:  8.83D-01 -3.54D-02  8.52D-02  1.94D-01  3.76D-01
                    CP:  5.53D-01  3.10D-01  6.31D-01  5.90D-01  6.06D-01
                    CP:  7.50D-01  1.15D+00  1.15D+00  1.19D+00  1.51D+00
                    CP:  1.20D+00
 E= -2873.81807596746     Delta-E=       -0.000105820410 Rises=F Damp=F
 DIIS: error= 4.92D-04 at cycle  17 NSaved=  17.
 NSaved=17 IEnMin=17 EnMin= -2873.81807596746     IErMin=17 ErrMin= 4.92D-04
 ErrMax= 4.92D-04  0.00D+00 EMaxC= 1.00D-01 BMatC= 3.21D-04 BMatP= 8.28D-04
 IDIUse=3 WtCom= 9.95D-01 WtEn= 4.92D-03
 Coeff-Com:  0.156D-03-0.164D-03 0.484D-04-0.163D-03 0.262D-03-0.901D-03
 Coeff-Com:  0.110D-04 0.363D-02-0.332D-02-0.194D-01 0.176D-01 0.381D-01
 Coeff-Com:  0.977D-01-0.149D-01-0.146D+00-0.106D+00 0.113D+01
 Coeff-En:   0.000D+00 0.000D+00 0.000D+00 0.000D+00 0.000D+00 0.000D+00
 Coeff-En:   0.000D+00 0.000D+00 0.000D+00 0.000D+00 0.000D+00 0.000D+00
 Coeff-En:   0.000D+00 0.000D+00 0.000D+00 0.000D+00 0.100D+01
 Coeff:      0.155D-03-0.163D-03 0.481D-04-0.162D-03 0.261D-03-0.897D-03
 Coeff:      0.110D-04 0.361D-02-0.331D-02-0.193D-01 0.175D-01 0.379D-01
 Coeff:      0.972D-01-0.148D-01-0.145D+00-0.105D+00 0.113D+01
 Gap=     0.113 Goal=   None    Shift=    0.000
 Gap=     0.040 Goal=   None    Shift=    0.000
 RMSDP=3.04D-05 MaxDP=1.80D-03 DE=-1.06D-04 OVMax= 9.53D-03

 Cycle  18  Pass 1  IDiag  1:
 RMSU=  1.35D-05    CP:  8.84D-01 -3.54D-02  8.50D-02  1.93D-01  3.76D-01
                    CP:  5.53D-01  3.10D-01  6.33D-01  5.89D-01  6.03D-01
                    CP:  7.43D-01  1.14D+00  1.16D+00  1.24D+00  1.71D+00
                    CP:  1.84D+00  1.75D+00
 E= -2873.81814146485     Delta-E=       -0.000065497392 Rises=F Damp=F
 DIIS: error= 1.78D-04 at cycle  18 NSaved=  18.
 NSaved=18 IEnMin=18 EnMin= -2873.81814146485     IErMin=18 ErrMin= 1.78D-04
 ErrMax= 1.78D-04  0.00D+00 EMaxC= 1.00D-01 BMatC= 1.11D-04 BMatP= 3.21D-04
 IDIUse=3 WtCom= 9.98D-01 WtEn= 1.78D-03
 Coeff-Com:  0.796D-04-0.998D-04 0.150D-04 0.384D-04 0.597D-04-0.885D-03
 Coeff-Com:  0.179D-03 0.308D-03 0.164D-02-0.423D-02 0.337D-01 0.472D-01
 Coeff-Com:  0.850D-01-0.205D-01-0.256D+00-0.554D+00 0.948D+00 0.720D+00
 Coeff-En:   0.000D+00 0.000D+00 0.000D+00 0.000D+00 0.000D+00 0.000D+00
 Coeff-En:   0.000D+00 0.000D+00 0.000D+00 0.000D+00 0.000D+00 0.000D+00
 Coeff-En:   0.000D+00 0.000D+00 0.000D+00 0.000D+00 0.000D+00 0.100D+01
 Coeff:      0.794D-04-0.996D-04 0.150D-04 0.384D-04 0.596D-04-0.884D-03
 Coeff:      0.179D-03 0.307D-03 0.164D-02-0.422D-02 0.336D-01 0.471D-01
 Coeff:      0.849D-01-0.205D-01-0.256D+00-0.553D+00 0.946D+00 0.721D+00
 Gap=     0.114 Goal=   None    Shift=    0.000
 Gap=     0.040 Goal=   None    Shift=    0.000
 RMSDP=2.44D-05 MaxDP=1.04D-03 DE=-6.55D-05 OVMax= 7.50D-03

 Cycle  19  Pass 1  IDiag  1:
 RMSU=  6.50D-06    CP:  8.84D-01 -3.55D-02  8.50D-02  1.93D-01  3.76D-01
                    CP:  5.52D-01  3.11D-01  6.34D-01  5.90D-01  6.04D-01
                    CP:  7.39D-01  1.12D+00  1.14D+00  1.27D+00  1.91D+00
                    CP:  2.27D+00  2.67D+00  1.16D+00
 E= -2873.81817315686     Delta-E=       -0.000031692003 Rises=F Damp=F
 DIIS: error= 1.15D-04 at cycle  19 NSaved=  19.
 NSaved=19 IEnMin=19 EnMin= -2873.81817315686     IErMin=19 ErrMin= 1.15D-04
 ErrMax= 1.15D-04  0.00D+00 EMaxC= 1.00D-01 BMatC= 3.65D-05 BMatP= 1.11D-04
 IDIUse=3 WtCom= 9.99D-01 WtEn= 1.15D-03
 Coeff-Com:  0.140D-03-0.212D-03-0.526D-05 0.553D-04-0.319D-04-0.543D-03
 Coeff-Com:  0.212D-03-0.282D-04-0.138D-03 0.289D-03 0.152D-01 0.177D-01
 Coeff-Com:  0.143D-01-0.458D-01-0.237D-01-0.213D+00 0.315D-02 0.123D-01
 Coeff-Com:  0.122D+01
 Coeff-En:   0.000D+00 0.000D+00 0.000D+00 0.000D+00 0.000D+00 0.000D+00
 Coeff-En:   0.000D+00 0.000D+00 0.000D+00 0.000D+00 0.000D+00 0.000D+00
 Coeff-En:   0.000D+00 0.000D+00 0.000D+00 0.000D+00 0.000D+00 0.000D+00
 Coeff-En:   0.100D+01
 Coeff:      0.140D-03-0.212D-03-0.525D-05 0.552D-04-0.319D-04-0.542D-03
 Coeff:      0.212D-03-0.282D-04-0.138D-03 0.289D-03 0.152D-01 0.177D-01
 Coeff:      0.143D-01-0.458D-01-0.236D-01-0.213D+00 0.315D-02 0.123D-01
 Coeff:      0.122D+01
 Gap=     0.115 Goal=   None    Shift=    0.000
 Gap=     0.040 Goal=   None    Shift=    0.000
 RMSDP=2.71D-05 MaxDP=1.39D-03 DE=-3.17D-05 OVMax= 9.44D-03

 Cycle  20  Pass 1  IDiag  1:
 RMSU=  9.43D-06    CP:  8.84D-01 -3.55D-02  8.50D-02  1.93D-01  3.76D-01
                    CP:  5.51D-01  3.12D-01  6.34D-01  5.88D-01  6.07D-01
                    CP:  7.32D-01  1.11D+00  1.14D+00  1.31D+00  2.18D+00
                    CP:  2.77D+00  3.00D+00  1.60D+00  1.58D+00
 E= -2873.81819248118     Delta-E=       -0.000019324321 Rises=F Damp=F
 DIIS: error= 4.95D-05 at cycle  20 NSaved=  20.
 NSaved=20 IEnMin=20 EnMin= -2873.81819248118     IErMin=20 ErrMin= 4.95D-05
 ErrMax= 4.95D-05  0.00D+00 EMaxC= 1.00D-01 BMatC= 9.65D-06 BMatP= 3.65D-05
 IDIUse=1 WtCom= 1.00D+00 WtEn= 0.00D+00
 Coeff-Com:  0.729D-04-0.127D-03-0.634D-05 0.233D-04-0.643D-05-0.112D-03
 Coeff-Com:  0.560D-04 0.172D-03-0.155D-02 0.150D-02-0.575D-02-0.988D-02
 Coeff-Com: -0.363D-01-0.431D-01 0.147D+00 0.166D+00-0.577D+00-0.531D+00
 Coeff-Com:  0.999D+00 0.891D+00
 Coeff:      0.729D-04-0.127D-03-0.634D-05 0.233D-04-0.643D-05-0.112D-03
 Coeff:      0.560D-04 0.172D-03-0.155D-02 0.150D-02-0.575D-02-0.988D-02
 Coeff:     -0.363D-01-0.431D-01 0.147D+00 0.166D+00-0.577D+00-0.531D+00
 Coeff:      0.999D+00 0.891D+00
 Gap=     0.115 Goal=   None    Shift=    0.000
 Gap=     0.040 Goal=   None    Shift=    0.000
 RMSDP=2.59D-05 MaxDP=1.32D-03 DE=-1.93D-05 OVMax= 8.70D-03

 Cycle  21  Pass 1  IDiag  1:
 Restarting incremental Fock formation.
 E= -2873.81820042579     Delta-E=       -0.000007944614 Rises=F Damp=F
 DIIS: error= 2.01D-05 at cycle  21 NSaved=  20.
 NSaved=20 IEnMin=20 EnMin= -2873.81820042579     IErMin=20 ErrMin= 2.01D-05
 ErrMax= 2.01D-05  0.00D+00 EMaxC= 1.00D-01 BMatC= 1.22D-06 BMatP= 9.65D-06
 IDIUse=1 WtCom= 1.00D+00 WtEn= 0.00D+00
 Coeff-Com:  0.385D-04-0.744D-04-0.104D-04 0.102D-04 0.534D-04 0.501D-06
 Coeff-Com:  0.113D-03-0.899D-03 0.624D-03-0.678D-02-0.972D-02-0.207D-01
 Coeff-Com: -0.145D-01 0.829D-01 0.135D+00-0.265D+00-0.262D+00 0.211D+00
 Coeff-Com:  0.447D+00 0.703D+00
 Coeff:      0.385D-04-0.744D-04-0.104D-04 0.102D-04 0.534D-04 0.501D-06
 Coeff:      0.113D-03-0.899D-03 0.624D-03-0.678D-02-0.972D-02-0.207D-01
 Coeff:     -0.145D-01 0.829D-01 0.135D+00-0.265D+00-0.262D+00 0.211D+00
 Coeff:      0.447D+00 0.703D+00
 Gap=     0.115 Goal=   None    Shift=    0.000
 Gap=     0.040 Goal=   None    Shift=    0.000
 RMSDP=5.31D-06 MaxDP=3.81D-04 DE=-7.94D-06 OVMax= 1.67D-03

 Cycle  22  Pass 1  IDiag  1:
 RMSU=  5.31D-06    CP:  1.00D+00
 E= -2873.81820105157     Delta-E=       -0.000000625778 Rises=F Damp=F
 DIIS: error= 2.24D-05 at cycle  22 NSaved=  20.
 NSaved=20 IEnMin=20 EnMin= -2873.81820105157     IErMin=19 ErrMin= 2.01D-05
 ErrMax= 2.24D-05  0.00D+00 EMaxC= 1.00D-01 BMatC= 8.62D-07 BMatP= 1.22D-06
 IDIUse=1 WtCom= 1.00D+00 WtEn= 0.00D+00
 Coeff-Com: -0.599D-05-0.146D-04 0.172D-04 0.531D-04-0.230D-04-0.190D-04
 Coeff-Com: -0.199D-03 0.229D-03-0.288D-02-0.391D-02-0.412D-02 0.617D-03
 Coeff-Com:  0.172D-01 0.448D-01-0.139D-01-0.246D-01-0.109D+00 0.504D-01
 Coeff-Com:  0.419D+00 0.626D+00
 Coeff:     -0.599D-05-0.146D-04 0.172D-04 0.531D-04-0.230D-04-0.190D-04
 Coeff:     -0.199D-03 0.229D-03-0.288D-02-0.391D-02-0.412D-02 0.617D-03
 Coeff:      0.172D-01 0.448D-01-0.139D-01-0.246D-01-0.109D+00 0.504D-01
 Coeff:      0.419D+00 0.626D+00
 Gap=     0.115 Goal=   None    Shift=    0.000
 Gap=     0.040 Goal=   None    Shift=    0.000
 RMSDP=1.76D-06 MaxDP=1.14D-04 DE=-6.26D-07 OVMax= 2.97D-04

 Cycle  23  Pass 1  IDiag  1:
 RMSU=  1.76D-06    CP:  1.00D+00  1.00D+00
 E= -2873.81820132679     Delta-E=       -0.000000275219 Rises=F Damp=F
 DIIS: error= 8.38D-06 at cycle  23 NSaved=  20.
 NSaved=20 IEnMin=20 EnMin= -2873.81820132679     IErMin=20 ErrMin= 8.38D-06
 ErrMax= 8.38D-06  0.00D+00 EMaxC= 1.00D-01 BMatC= 1.35D-07 BMatP= 8.62D-07
 IDIUse=1 WtCom= 1.00D+00 WtEn= 0.00D+00
 Coeff-Com: -0.174D-05 0.109D-05 0.162D-04-0.355D-05-0.312D-04 0.126D-03
 Coeff-Com:  0.657D-04 0.740D-03 0.830D-03 0.327D-02 0.301D-02-0.144D-01
 Coeff-Com: -0.196D-01 0.702D-01 0.614D-01-0.856D-01-0.116D+00-0.100D+00
 Coeff-Com:  0.197D+00 0.999D+00
 Coeff:     -0.174D-05 0.109D-05 0.162D-04-0.355D-05-0.312D-04 0.126D-03
 Coeff:      0.657D-04 0.740D-03 0.830D-03 0.327D-02 0.301D-02-0.144D-01
 Coeff:     -0.196D-01 0.702D-01 0.614D-01-0.856D-01-0.116D+00-0.100D+00
 Coeff:      0.197D+00 0.999D+00
 Gap=     0.115 Goal=   None    Shift=    0.000
 Gap=     0.040 Goal=   None    Shift=    0.000
 RMSDP=1.40D-06 MaxDP=8.93D-05 DE=-2.75D-07 OVMax= 2.22D-04

 Cycle  24  Pass 1  IDiag  1:
 RMSU=  9.81D-07    CP:  1.00D+00  1.06D+00  1.54D+00
 E= -2873.81820142537     Delta-E=       -0.000000098580 Rises=F Damp=F
 DIIS: error= 2.68D-06 at cycle  24 NSaved=  20.
 NSaved=20 IEnMin=20 EnMin= -2873.81820142537     IErMin=20 ErrMin= 2.68D-06
 ErrMax= 2.68D-06  0.00D+00 EMaxC= 1.00D-01 BMatC= 2.74D-08 BMatP= 1.35D-07
 IDIUse=1 WtCom= 1.00D+00 WtEn= 0.00D+00
 Coeff-Com: -0.354D-05-0.149D-05 0.280D-05-0.157D-05 0.114D-03 0.319D-04
 Coeff-Com:  0.988D-03 0.104D-02 0.198D-02 0.138D-02-0.945D-02-0.163D-01
 Coeff-Com:  0.338D-01 0.308D-01-0.193D-01-0.676D-01-0.147D+00-0.469D-01
 Coeff-Com:  0.525D+00 0.712D+00
 Coeff:     -0.354D-05-0.149D-05 0.280D-05-0.157D-05 0.114D-03 0.319D-04
 Coeff:      0.988D-03 0.104D-02 0.198D-02 0.138D-02-0.945D-02-0.163D-01
 Coeff:      0.338D-01 0.308D-01-0.193D-01-0.676D-01-0.147D+00-0.469D-01
 Coeff:      0.525D+00 0.712D+00
 Gap=     0.115 Goal=   None    Shift=    0.000
 Gap=     0.040 Goal=   None    Shift=    0.000
 RMSDP=7.66D-07 MaxDP=4.88D-05 DE=-9.86D-08 OVMax= 2.27D-04

 Cycle  25  Pass 1  IDiag  1:
 RMSU=  4.81D-07    CP:  1.00D+00  1.15D+00  1.72D+00  1.10D+00
 E= -2873.81820145470     Delta-E=       -0.000000029330 Rises=F Damp=F
 DIIS: error= 2.42D-06 at cycle  25 NSaved=  20.
 NSaved=20 IEnMin=20 EnMin= -2873.81820145470     IErMin=20 ErrMin= 2.42D-06
 ErrMax= 2.42D-06  0.00D+00 EMaxC= 1.00D-01 BMatC= 1.79D-08 BMatP= 2.74D-08
 IDIUse=1 WtCom= 1.00D+00 WtEn= 0.00D+00
 Coeff-Com: -0.433D-05 0.108D-05 0.807D-05 0.405D-05-0.131D-04 0.317D-03
 Coeff-Com:  0.444D-03-0.131D-03-0.208D-03 0.735D-03-0.115D-02-0.151D-01
 Coeff-Com: -0.118D-01 0.282D-01 0.135D-01-0.441D-01-0.113D+00-0.109D+00
 Coeff-Com:  0.429D+00 0.823D+00
 Coeff:     -0.433D-05 0.108D-05 0.807D-05 0.405D-05-0.131D-04 0.317D-03
 Coeff:      0.444D-03-0.131D-03-0.208D-03 0.735D-03-0.115D-02-0.151D-01
 Coeff:     -0.118D-01 0.282D-01 0.135D-01-0.441D-01-0.113D+00-0.109D+00
 Coeff:      0.429D+00 0.823D+00
 Gap=     0.115 Goal=   None    Shift=    0.000
 Gap=     0.040 Goal=   None    Shift=    0.000
 RMSDP=7.99D-07 MaxDP=3.97D-05 DE=-2.93D-08 OVMax= 2.87D-04

 Cycle  26  Pass 1  IDiag  1:
 RMSU=  4.46D-07    CP:  1.00D+00  1.26D+00  1.74D+00  1.17D+00  1.68D+00
 E= -2873.81820147355     Delta-E=       -0.000000018846 Rises=F Damp=F
 DIIS: error= 9.02D-07 at cycle  26 NSaved=  20.
 NSaved=20 IEnMin=20 EnMin= -2873.81820147355     IErMin=20 ErrMin= 9.02D-07
 ErrMax= 9.02D-07  0.00D+00 EMaxC= 1.00D-01 BMatC= 4.30D-09 BMatP= 1.79D-08
 IDIUse=1 WtCom= 1.00D+00 WtEn= 0.00D+00
 Coeff-Com: -0.851D-06-0.446D-06-0.379D-04-0.172D-04-0.466D-04 0.221D-04
 Coeff-Com: -0.278D-03 0.170D-03 0.292D-02 0.226D-02-0.176D-01-0.134D-01
 Coeff-Com:  0.203D-01 0.233D-01 0.109D-01-0.512D-01-0.200D+00 0.194D-01
 Coeff-Com:  0.430D+00 0.773D+00
 Coeff:     -0.851D-06-0.446D-06-0.379D-04-0.172D-04-0.466D-04 0.221D-04
 Coeff:     -0.278D-03 0.170D-03 0.292D-02 0.226D-02-0.176D-01-0.134D-01
 Coeff:      0.203D-01 0.233D-01 0.109D-01-0.512D-01-0.200D+00 0.194D-01
 Coeff:      0.430D+00 0.773D+00
 Gap=     0.115 Goal=   None    Shift=    0.000
 Gap=     0.040 Goal=   None    Shift=    0.000
 RMSDP=4.04D-07 MaxDP=1.93D-05 DE=-1.88D-08 OVMax= 1.23D-04

 Cycle  27  Pass 1  IDiag  1:
 RMSU=  1.54D-07    CP:  1.00D+00  1.30D+00  1.75D+00  1.24D+00  2.18D+00
[...]
 .00191569,-0.01208409,-0.26518785,-0.04024958,-0.11583340,-0.00282218,
 -0.00210232,-0.00178961,0.00006591,-0.00017922,0.00237901,0.00000921,-
 0.00000692,0.00000581,-0.00000040,-0.00000782,0.00000291,-0.00000207,0
 .00000740,0.00000244,0.00002464,0.00000551,-0.00000039,-0.00002386,-0.
 00000833,-0.00000991,0.00000099,-0.00000607,0.00001006,0.00001345,-0.0
 0000571,0.00001365,0.00001403,0.00000408,-0.00000027,-0.00000079,0.000
 01585,0.00000285,0.00002610,-0.00000627,-0.00000700,0.00000170,-0.0000
 1057,-0.00006364,0.00001355,-0.00001716,0.00000501,-0.00002304,0.00000
 465,0.00000179,-0.00001714,-0.00000144,-0.00000690,-0.00001241,0.00000
 866,-0.00000386,-0.00002024,0.00003230,-0.00000309,0.00000735,-0.00000
 692,0.00000440,-0.00002528,0.00001261,0.00002200,-0.00000209,0.0000165
 6,-0.00001166,0.00000013,-0.00000062,0.00000094,-0.00000484,0.00000609
 ,0.00000647,0.00000431,0.00000156,0.00000560,-0.00000586,-0.00000622,0
 .00000673,0.00000108,0.00003071,0.00001122,0.00001001,0.00001580,0.000
 01098,0.00003313,0.00193043,0.00163669,0.27914365,0.00000208,-0.000007
 53,-0.00000524,0.00000134,-0.00001181,0.00000662,0.00004007,0.00002029
 ,-0.00001496,-0.00006961,0.00009394,0.00008020,-0.00011539,0.00003858,
 -0.00029241,0.00018211,0.00001447,-0.00003981,0.00067798,0.00028416,0.
 00024426,-0.00123479,0.00096751,0.00381826,0.00001613,-0.00077092,0.00
 005880,0.00017012,-0.00043917,-0.00035760,-0.00009506,0.00002655,-0.00
 001848,0.00006336,-0.00006645,-0.00014559,0.00000437,-0.00004272,0.000
 02717,-0.00000850,0.00003256,-0.00000194,-0.00000238,-0.00002704,-0.00
 001691,-0.00000231,0.00002008,0.00001545,-0.00000469,-0.00001318,-0.00
 001093,0.00000352,-0.00000276,0.00000442,0.00000164,0.00000209,-0.0000
 0421,0.00000300,0.00000008,0.00000127,0.00000017,-0.00000053,-0.000001
 49,0.00000303,-0.00000112,-0.00000111,0.00001181,0.00001385,0.00000606
 ,0.00005568,-0.00000938,0.00003078,-0.00319016,0.00335584,0.00564211,-
 0.00078569,-0.00092771,-0.00058450,-0.01929466,0.00211355,-0.00951462,
 -0.04006330,-0.05267558,-0.01026388,0.01303082,0.00567700,0.00715779,0
 .00203997,-0.00108980,-0.00096428,-0.00000561,0.00000498,-0.00000182,0
 .00000295,0.00000872,-0.00000418,-0.00000059,-0.00000409,0.00000097,-0
 .00001959,-0.00000593,0.00000036,0.00002059,0.00000092,0.00000647,0.00
 000149,0.00001952,-0.00000654,-0.00000744,-0.00000095,-0.00000801,-0.0
 0001384,-0.00000060,0.00000575,-0.00000844,-0.00000794,-0.00001470,-0.
 00004680,0.00002266,0.00000597,0.00002060,-0.00001291,0.00024710,-0.00
 000951,-0.00000056,-0.00000916,-0.00000289,0.00000286,-0.00000403,-0.0
 0000379,-0.00000137,-0.00000095,-0.00000359,0.00000063,-0.00000136,-0.
 00000170,0.00000272,0.00000123,0.00000010,-0.00000137,-0.00000160,-0.0
 0000389,0.00000214,0.00000240,-0.00000002,0.00000277,-0.00000128,-0.00
 000099,-0.00000048,-0.00000049,-0.00000095,0.00000158,0.00000097,0.000
 00056,0.00000042,-0.00000003,-0.00000156,-0.00000189,0.00000112,0.0000
 0245,0.00000009,0.00000208,0.00000077,0.00000237,0.00000055,0.00236900
 ,-0.00237635,-0.00241247,0.04689268,0.04569152,0.00000520,0.00000479,0
 .00000545,-0.00002260,-0.00001089,-0.00000662,0.00001725,0.00001454,-0
 .00001876,-0.00007521,0.00005096,0.00003271,0.00037851,0.00000077,0.00
 015826,-0.00006876,-0.00013698,0.00004812,-0.00130001,-0.00040321,-0.0
 0027512,-0.00016834,0.00468557,-0.00232280,0.00098846,-0.00005123,-0.0
 0011342,0.00015965,-0.00018388,-0.00002893,-0.00000839,-0.00027122,-0.
 00008704,-0.00008343,0.00023749,-0.00011762,-0.00009940,-0.00001663,-0
 .00001720,0.00001144,-0.00010050,-0.00004851,-0.00000785,0.00008767,0.
 00002920,0.00001074,-0.00012085,-0.00004961,0.00004790,0.00005831,0.00
 005506,-0.00000074,-0.00000343,-0.00001223,0.00000246,-0.00000244,0.00
 001068,-0.00000174,-0.00000079,-0.00000183,0.00000170,0.00000047,0.000
 00191,-0.00002459,0.00002232,-0.00000819,0.00003680,-0.00000207,0.0000
 3575,0.00005798,-0.00003608,0.00000337,-0.00074374,0.00516254,0.001932
 79,0.00088527,0.00004105,0.00025298,0.01113231,0.00283717,0.00995404,-
 0.11581844,-0.01031683,-0.11217882,-0.02353517,-0.00453763,-0.00772119
 ,-0.00067398,-0.00239481,0.00014929,0.00000375,-0.00000623,0.00000163,
 0.00000011,-0.00000062,-0.00000051,-0.00000138,-0.00000051,-0.00000080
 ,0.00001945,0.00000847,0.00000600,-0.00000672,-0.00000092,-0.00000797,
 0.00000402,0.00001000,0.00000166,0.00001314,-0.00001568,0.00000946,0.0
 0004370,0.00002258,0.00000125,-0.00000586,-0.00000476,0.00000981,0.000
 05403,0.00004996,0.00001766,-0.00004931,0.00029385,-0.00031053,-0.0000
 0768,0.00000305,-0.00000595,0.00000315,0.00000101,-0.00000357,0.000001
 21,-0.00000036,0.00000049,0.00000002,-0.00000147,0.00000016,0.00000430
 ,-0.00000528,0.00000146,-0.00000130,0.00000006,-0.00000215,0.00000214,
 -0.00000093,-0.00000324,0.00000042,-0.00000147,0.00000170,-0.00000034,
 -0.00000006,-0.00000052,0.00000004,0.00000003,-0.00000088,-0.00000069,
 -0.00000056,-0.00000117,0.00000077,0.00000040,-0.00000071,-0.00000160,
 -0.00000490,-0.00000034,0.00000095,-0.00000725,-0.00002562,0.00096911,
 -0.00276390,-0.00102901,0.12695898,0.00733564,0.11174866,-0.00003895,0
 .00002730,0.00013763,0.00006280,-0.00007971,-0.00015099,0.00028396,0.0
 0020628,-0.00040481,-0.00012059,0.00076774,0.00245862,-0.00312217,-0.0
 0259546,-0.00204548,0.00237148,-0.00095684,-0.00204157,0.00033371,0.00
 015977,0.00040831,0.00035968,-0.00412075,0.00180734,-0.00083575,0.0003
 7009,-0.00111876,-0.00029371,-0.00041861,0.00003593,-0.00000969,0.0002
 6288,0.00023275,0.00015901,-0.00033486,-0.00018306,0.00015128,0.000036
 16,0.00002683,-0.00002704,0.00017410,0.00007533,0.00002301,-0.00013524
 ,-0.00007146,-0.00000035,0.00019337,0.00011002,-0.00004132,-0.00008985
 ,-0.00008683,0.00001001,-0.00001044,0.00004166,-0.00000691,0.00001254,
 -0.00003981,0.00001137,-0.00000011,0.00000923,-0.00000368,-0.00000251,
 -0.00000928,-0.00001049,-0.00003017,-0.00001012,-0.00006193,-0.0000072
 9,-0.00001518,0.00004390,0.00004243,-0.00005443,0.00010010,-0.00005040
 ,0.00025296,0.00022156,0.00024753,-0.00003725,0.00027123,-0.00019537,0
 .00039649,0.00014787,0.00248711,-0.00068404,-0.01508900,-0.00210813,-0
 .01152497,-0.25907299,-0.03767691,-0.11759937,0.00003562,-0.00004807,0
 .00001152,0.00000159,-0.00006821,0.00000744,-0.00000568,0.00001713,-0.
 00000268,0.00021337,0.00009184,0.00000135,-0.00027042,-0.00003916,-0.0
 0001517,-0.00004988,0.00012710,0.00008358,0.00001773,-0.00006236,0.000
 08718,0.00053115,0.00031558,-0.00017011,0.00008427,-0.00029774,0.00022
 881,-0.00016170,-0.00018244,-0.00013288,-0.00022815,0.00027072,0.00016
 681,0.00000454,-0.00000969,-0.00000222,-0.00001708,0.00000435,-0.00000
 036,-0.00001299,-0.00000027,-0.00000565,-0.00000966,0.00000618,-0.0000
 0274,-0.00001286,0.00002311,-0.00000153,0.00000513,-0.00000584,0.00000
 216,-0.00001894,0.00000956,0.00001494,-0.00000139,0.00001230,-0.000007
 96,0.00000018,-0.00000038,0.00000050,-0.00000407,0.00000486,0.00000438
 ,0.00000292,0.00000047,0.00000365,-0.00000360,-0.00000422,0.00000460,-
 0.00000227,0.00002273,0.00000944,0.00000701,0.00000736,-0.00001134,0.0
 0000999,-0.00009351,-0.00002623,0.00042865,-0.00051027,0.00092686,0.27
 368551,-0.00000014,-0.00002197,-0.00010474,0.00002235,0.00005191,0.000
 12758,-0.00039709,-0.00022043,0.00057029,0.00263174,-0.00229856,-0.001
 97666,0.01279192,0.00609900,0.00794111,-0.00176268,0.00228064,0.005087
 54,0.00007454,-0.00072307,0.00028663,-0.00334674,0.00079102,0.00409233
 ,-0.00059578,0.00037750,-0.00057385,-0.00014280,-0.00016746,0.00017663
 ,-0.00012330,0.00010687,-0.00001012,0.00005668,-0.00004508,0.00004513,
 -0.00000067,-0.00000793,-0.00002154,-0.00001893,-0.00002816,-0.0000185
 6,-0.00000191,0.00002509,-0.00000515,-0.00000102,-0.00003838,-0.000023
 13,0.00001065,0.00001488,0.00001531,0.00000059,0.00000028,-0.00000541,
 0.00000208,-0.00000097,0.00000486,-0.00000033,0.00000027,-0.00000098,0
 .00000055,0.,0.00000042,-0.00000047,0.00001276,0.00000083,0.00002490,0
 .00000231,0.00001668,-0.00001176,-0.00004896,-0.00002568,-0.00007711,0
 .00014395,-0.00033052,-0.00000291,-0.00012742,0.00012815,0.00028000,0.
 00001738,0.00009068,0.00043494,-0.00140732,-0.00272606,-0.01704369,0.0
 0092468,-0.00939685,-0.03809992,-0.05105419,-0.00957906,-0.00002919,0.
 00004742,-0.00000477,0.00000315,0.00005594,-0.00000742,0.00000329,-0.0
 0000313,0.00000828,-0.00013552,-0.00013311,-0.00005742,0.00018836,-0.0
 0000028,-0.00000865,0.00005688,-0.00016587,-0.00003904,-0.00001451,0.0
 0003132,-0.00003960,-0.00023007,0.00007224,0.00020640,0.00000648,0.000
 43873,-0.00034127,0.00067214,0.00027277,0.00046829,0.00024387,-0.00052
 840,-0.00040268,-0.00000809,-0.00000208,-0.00000410,-0.00000091,-0.000
 00060,0.00000113,-0.00000122,0.00000054,-0.00000032,-0.00000061,-0.000
 00105,-0.00000006,0.00000165,-0.00000324,0.00000152,-0.00000080,0.0000
 0048,-0.00000159,0.00000136,-0.00000059,-0.00000130,0.00000021,-0.0000
 0083,0.00000039,-0.00000049,-0.00000039,-0.00000017,0.00000032,0.00000
 004,-0.00000010,-0.00000010,0.00000039,-0.00000044,-0.00000046,-0.0000
 0047,-0.00000008,0.00000152,-0.00000252,-0.00000139,0.00000147,-0.0000
 0570,-0.00000005,-0.00006792,0.00011447,0.00008895,0.00037083,-0.00007
 483,0.00063631,0.04424520,0.04521145,0.00004730,0.00004068,0.00000657,
 -0.00013043,-0.00003050,-0.00004220,-0.00005219,-0.00000081,0.00036141
 ,-0.00099593,-0.00310279,-0.00068122,-0.02372938,-0.00341715,-0.008742
 49,-0.00094932,0.00561125,-0.00190202,0.00058688,0.00016178,-0.0002824
 8,0.00031614,0.00353402,0.00081256,0.00046171,0.00028318,0.00015647,-0
 .00012844,-0.00013307,-0.00022569,-0.00006316,0.00028735,0.00017426,0.
 00016012,-0.00027112,-0.00002885,0.00009298,0.00000550,0.00002861,-0.0
 0001452,0.00010732,0.00004404,0.00000999,-0.00009592,-0.00003650,-0.00
 000613,0.00010950,0.00005550,-0.00003501,-0.00005529,-0.00005546,0.000
 00475,-0.00000555,0.00001832,-0.00000074,0.00000526,-0.00001613,0.0000
 0527,0.00000035,0.00000429,-0.00000075,-0.00000120,-0.00000352,0.00001
 747,-0.00002731,-0.00000461,-0.00001871,0.00000412,-0.00001022,0.00001
 837,0.00001375,0.00001215,0.00025395,-0.00003873,0.00027252,-0.0000202
 2,0.00002549,-0.00011938,-0.00021237,-0.00025657,0.00010951,0.00223696
 ,-0.00110969,-0.00031309,0.01030012,0.00255243,0.00806288,-0.11722965,
 -0.00975294,-0.11399141,0.00001675,-0.00002943,0.00000712,-0.00000237,
 0.00000512,0.00000279,0.00000260,-0.00002108,-0.00001646,0.00008465,0.
 00002595,0.00005004,0.00001611,0.00001593,-0.00000321,0.00001477,-0.00
 007623,-0.00000710,0.00010257,-0.00017532,0.00000112,0.00115515,0.0004
 3759,0.00005512,0.00029519,0.00021799,0.00004093,-0.00123414,-0.000199
 09,-0.00043537,0.00013791,-0.00043557,-0.00023109,0.00000366,-0.000005
 24,-0.00000029,-0.00000695,0.00000165,-0.00000014,-0.00000519,-0.00000
 116,-0.00000285,-0.00000458,0.00000236,-0.00000185,-0.00000493,0.00000
 910,-0.00000051,0.00000150,-0.00000269,0.00000029,-0.00000867,0.000004
 52,0.00000664,-0.00000047,0.00000585,-0.00000330,-0.00000061,-0.000000
 40,-0.00000050,-0.00000196,0.00000260,0.00000193,0.00000100,0.00000026
 ,0.00000095,-0.00000207,-0.00000249,0.00000226,0.00000264,0.00000580,0
 .00000387,0.00000141,0.00000995,0.00000729,-0.00006136,0.00006092,0.00
 007571,-0.00035455,-0.00005902,-0.00001834,0.12894835,0.00571908,0.116
 81509,-0.00002889,0.00001295,-0.00002121,0.00004953,-0.00001130,0.0000
 3781,-0.00016555,0.00011565,0.00001745,0.00015157,-0.00018550,0.000051
 38,-0.00070283,0.00061403,-0.00127834,0.00021830,0.00034855,-0.0002249
 4,-0.00031176,0.00004311,-0.00015445,-0.00050204,-0.00095135,0.0002106
 7,0.00001578,0.00172852,-0.00332483,-0.00019253,-0.00287018,-0.0019533
 6,-0.00658151,0.01124657,-0.00314941,0.00349236,-0.00368016,-0.0090503
 6,0.00098087,0.00085359,0.00097328,-0.00085028,0.00200877,0.00083590,0
 .00035874,-0.00169188,-0.00061461,-0.00029496,0.00202881,0.00095018,-0
 .00063708,-0.00096902,-0.00092731,0.00001614,0.00002978,0.00021875,-0.
 00000681,0.00005562,-0.00020704,0.00002105,0.00004732,0.00004767,-0.00
 001360,-0.00001202,-0.00003052,0.00016457,-0.00040192,-0.00001648,-0.0
 0031489,-0.00008125,-0.00011397,-0.00034470,0.00089850,-0.00021477,-0.
 00810043,-0.01261498,0.00215179,0.00370711,-0.00217823,-0.01142296,0.0
 0115393,-0.00020668,0.00128185,-0.00095777,-0.00150574,0.00176167,0.00
 048149,0.00132332,-0.00135867,-0.00041348,-0.00148178,0.00183486,0.000
 01042,-0.00000686,0.00001134,0.00000362,-0.00001924,0.00000607,0.00000
 646,-0.00001995,-0.00001952,-0.00000317,-0.00000008,-0.00000390,-0.000
 04076,0.00000926,0.00003056,-0.00000474,-0.00009290,0.,0.00002708,-0.0
 0000103,-0.00000095,-0.00004048,-0.00001612,0.00000412,-0.00009382,-0.
 00005426,0.00004800,0.00003210,-0.00004333,0.00005410,0.00001329,-0.00
 011170,0.00011604,0.00012998,-0.00008785,-0.00020537,-0.00005767,0.000
 09247,-0.00007361,-0.00004698,0.00000009,-0.00002351,-0.00002818,0.000
 03173,-0.00001531,-0.00007741,0.00008497,-0.00001663,0.00001360,-0.000
 01348,0.00002042,-0.00006606,0.00001486,0.00007144,0.00001124,0.000037
 41,-0.00004167,-0.00000133,-0.00000418,-0.00000144,-0.00000104,-0.0000
 0267,0.00001883,0.00000849,0.00001746,0.00001622,-0.00003843,-0.000019
 35,0.00002500,0.00003352,0.00006452,0.00002922,0.00002797,0.00015867,0
 .00003903,0.00011812,-0.00001927,-0.00022181,-0.00004796,-0.00011036,-
 0.00003455,-0.00004533,-0.00001054,-0.00002149,0.00976512,-0.00001001,
 -0.00000474,-0.00001056,0.00001073,-0.00002198,0.00002536,-0.00007092,
 0.00010040,-0.00001216,-0.00003453,-0.00015286,0.00010264,-0.00086363,
 0.00081690,-0.00182820,0.00039229,0.00025670,-0.00068401,-0.00015661,0
 .00073610,-0.00046343,-0.00336350,-0.00226526,0.00055819,0.00316893,0.
 00191649,-0.00699991,-0.00226410,0.00152127,0.00462332,0.01588767,-0.0
 2385077,0.01208449,-0.00259135,-0.00415202,0.02530300,-0.00318096,0.00
 255218,-0.00118845,0.00001759,-0.00269315,-0.00099465,-0.00121161,0.00
 151394,0.00032485,0.00066560,-0.00195781,-0.00082703,0.00064832,0.0009
 2569,0.00088539,0.00007107,-0.00008144,-0.00010416,0.00001476,0.000005
 60,0.00005929,0.00001660,-0.00002850,-0.00001166,0.00001223,0.00000691
 ,-0.00000616,-0.00030558,0.00037943,0.00040561,0.00021818,0.00062466,-
 0.00003283,0.00246022,-0.00188611,0.00017023,-0.02401579,-0.03479121,0
 .00372248,0.00113855,-0.03875994,-0.05121927,0.00555809,0.00398441,0.0
 0026844,-0.00041807,-0.00290324,0.00320335,0.00174877,0.00195553,-0.00
 166644,-0.00103031,-0.00213336,0.00246107,0.00000192,-0.00000451,0.000
 00546,0.00000948,0.00000316,-0.00000473,-0.00000082,-0.00000869,-0.000
 00306,-0.00000384,-0.00000021,0.00000259,-0.00000881,0.00000096,0.0000
 0282,0.00001872,-0.00001411,-0.00000508,0.00002388,-0.00002542,0.00001
 042,0.00000023,0.00000369,0.00002991,-0.00006261,-0.00000283,-0.000007
 23,0.00005742,0.00002963,-0.00000304,-0.00009356,0.00012310,0.00010663
 ,0.00025668,-0.00003488,-0.00006326,-0.00022635,0.00015824,0.00006157,
 0.00000170,0.00000116,-0.00004879,-0.00002270,0.00000261,-0.00000426,0
 .00001410,0.00001422,0.00002582,-0.00000221,-0.00001500,-0.00002637,-0
 .00002109,0.00001856,-0.00000811,0.00000373,0.00001459,-0.00000007,-0.
 00000535,0.00000080,-0.00000181,-0.00001117,0.00001397,0.00000312,0.00
 000210,-0.00000476,-0.00000403,-0.00000249,-0.00000966,0.00000224,-0.0
 0004032,0.00003513,0.00000757,0.00007664,0.00008426,-0.00012144,-0.000
 38437,-0.00002480,-0.00002046,0.00030885,0.00015051,-0.00016067,-0.000
 01098,0.00001866,0.00003970,0.00760861,0.09785782,-0.00002982,0.000018
 50,-0.00002334,0.00004541,-0.00001812,0.00004327,-0.00014921,0.0001341
 0,0.00001507,0.00012130,-0.00017780,0.00006091,-0.00047642,0.00067836,
 -0.00123161,0.00008645,0.00026594,-0.00021591,0.00001754,0.00015793,-0
 .00044191,-0.00113194,-0.00099323,-0.00024969,0.00111178,0.00605911,-0
 .00389876,0.00203437,-0.00869133,-0.00310179,-0.01905760,0.02964805,-0
 .00351004,0.00050506,0.01832099,-0.09286764,0.00594943,-0.00306917,0.0
 0229123,-0.00060126,0.00401691,0.00172592,0.00135021,-0.00298613,-0.00
 090930,-0.00073151,0.00327855,0.00136039,-0.00083974,-0.00163296,-0.00
 140013,-0.00005138,0.00009203,0.00027646,-0.00001587,0.00003146,-0.000
 21108,0.00005586,-0.00000120,0.00004801,-0.00001698,-0.00000741,-0.000
 01991,0.00021558,-0.00056385,-0.00027147,-0.00010418,-0.00070253,-0.00
 033845,-0.00243340,0.00186586,-0.00083111,-0.01090782,-0.01317078,0.00
 900776,-0.00197230,-0.04469196,-0.05796829,0.00403864,0.00196704,0.000
 73663,-0.00065429,-0.00167646,0.00209736,0.00075269,0.00152460,-0.0015
 1011,-0.00045305,-0.00151344,0.00171306,0.00001239,-0.00000854,0.00001
 648,0.00000444,-0.00002075,0.00000699,0.00000551,-0.00002719,-0.000028
 99,0.00000007,-0.00000004,-0.00000409,-0.00004149,0.00001254,0.0000315
 3,-0.00000684,-0.00009028,-0.00000388,0.00002666,-0.00000111,-0.000003
 21,-0.00003351,-0.00001176,0.00000652,-0.00007829,-0.00003881,0.000021
 28,0.00002245,0.00000223,0.00006038,-0.00000163,-0.00007821,0.00008946
 ,-0.00032573,-0.00001064,-0.00021691,0.00020382,-0.00016985,-0.0000470
 5,-0.00004379,0.00000002,0.00001094,-0.00002137,0.00002425,-0.00001783
 ,-0.00006599,0.00007752,-0.00003573,0.00001249,-0.00001420,0.00002562,
 -0.00005276,0.00002869,0.00006130,-0.00001454,0.00004664,-0.00001433,-
 0.00001101,0.00000530,-0.00001128,-0.00001259,0.00001795,0.00001193,0.
 00000327,-0.00000558,0.00000284,-0.00000279,-0.00001292,0.00001683,0.0
 0004538,0.00001029,0.00005407,-0.00003186,0.00008136,0.00010146,-0.000
 17710,-0.00006970,-0.00021737,0.00008633,0.00005979,-0.00005035,-0.000
 03839,-0.00000575,-0.00001399,0.02387933,0.01203574,0.14977185\\-0.000
 00055,0.00000414,-0.00000001,0.00000167,-0.00000397,0.00000490,0.00000
 066,0.00000199,-0.00000329,0.00000350,0.00000108,-0.00000072,0.0000014
 5,-0.00000074,-0.00000165,0.00000203,-0.00000253,-0.00000065,0.0000028
 2,-0.00000339,0.00000797,-0.00000631,0.00000651,-0.00001586,-0.0000053
 6,-0.00002007,0.00002702,-0.00000123,0.00000534,-0.00000602,0.00001454
 ,-0.00000872,-0.00000087,-0.00001163,-0.00000099,0.00000091,0.00000320
 ,0.00000349,0.00000281,0.00000191,0.00000264,0.00000162,-0.00001721,-0
 .00000334,-0.00001105,0.00000380,-0.00000199,0.00000141,0.00000452,0.0
 0000348,0.00000348,-0.00000325,0.00000191,-0.00000206,0.00000142,0.000
 00499,0.00000185,-0.00000090,-0.00000486,-0.00000481,-0.00000181,0.000
 00100,0.00000408,-0.00000304,0.00000067,-0.00000406,-0.00000115,-0.000
 00250,-0.00000214,0.00001400,-0.00000089,0.00000717,-0.00001924,0.0000
 1295,-0.00002286,0.00001714,-0.00000163,0.00001397,-0.00000038,-0.0000
 0269,0.00000358,0.00000228,0.00000449,-0.00000799,0.00001117,-0.000001
 65,0.00001620,-0.00000536,0.00000493,-0.00000681,0.00000070,-0.0000007
 8,0.00000044,0.00000026,-0.00000072,0.00000070,0.,-0.00000074,0.000000
 55,-0.00000051,0.00000137,-0.00000053,0.00000016,0.00000117,-0.0000010
 9,-0.00000044,-0.00000079,0.00000177,-0.00000086,-0.00000132,0.0000008
 3,0.00000038,-0.00000228,-0.00000066,-0.00000310,0.00000071,0.00000146
 ,-0.00000118,0.00000033,-0.00000061,0.00000057,0.00000125,-0.00000225,
 -0.00000425,0.00000082,-0.00000082,-0.00000101,-0.00000013,-0.00000027
 ,-0.00000057,0.00000026,-0.00000099,0.00000108,-0.00000015,-0.00000091
 ,0.00000064,-0.00000153,0.00000112,0.00000037,-0.00000117,-0.00000028,
 0.00000029,-0.00000157,0.00000020,-0.00000015,0.00000139,0.00000111,0.
 00000006,0.00000111,0.00000153,0.00000026,-0.00000050,-0.00000057,0.00
 000007,-0.00000016,-0.00000080,0.00000031,-0.00000032,-0.00000031,0.00
 000143,-0.00000060,0.00000178,-0.00000096,0.00000099,0.00000122,0.0000
 0270,0.00000204,-0.00000124,-0.00000017,-0.00000145,0.00000255,0.00000
 027,-0.00000168,0.00000281,-0.00000501,0.00000477,-0.00001283\\\@
 The archive entry for this job was punched.


0EVERYBODY IS IGNORANT, ONLY ON DIFFERENT SUBJECTS.
0          WILL ROGERS
 Job cpu time:       0 days 11 hours 12 minutes 13.9 seconds.
 Elapsed time:       0 days  0 hours 21 minutes  8.8 seconds.
 File lengths (MBytes):  RWF=   3628 Int=      0 D2E=      0 Chk=     32 Scr=      2
 Normal termination of Gaussian 16 at Fri Mar  8 03:12:08 2024.
