 Entering Gaussian System, Link 0=g16
 Initial command:
 /public/software/apps/Gaussian/g16/l1.exe "/tmp/Gau-913.inp" -scrdir="/tmp/"
 Entering Link 1 = /public/software/apps/Gaussian/g16/l1.exe PID=       914.
  
 Copyright (c) 1988-2019, Gaussian, Inc.  All Rights Reserved.
  
 This is part of the Gaussian(R) 16 program.  It is based on
 the Gaussian(R) 09 system (copyright 2009, Gaussian, Inc.),
 the Gaussian(R) 03 system (copyright 2003, Gaussian, Inc.),
 the Gaussian(R) 98 system (copyright 1998, Gaussian, Inc.),
 the Gaussian(R) 94 system (copyright 1995, Gaussian, Inc.),
 the Gaussian 92(TM) system (copyright 1992, Gaussian, Inc.),
 the Gaussian 90(TM) system (copyright 1990, Gaussian, Inc.),
 the Gaussian 88(TM) system (copyright 1988, Gaussian, Inc.),
 the Gaussian 86(TM) system (copyright 1986, Carnegie Mellon
 University), and the Gaussian 82(TM) system (copyright 1983,
 Carnegie Mellon University). Gaussian is a federally registered
 trademark of Gaussian, Inc.
  
 This software contains proprietary and confidential information,
 including trade secrets, belonging to Gaussian, Inc.
  
 This software is provided under written license and may be
 used, copied, transmitted, or stored only in accord with that
 written license.
  
 The following legend is applicable only to US Government
 contracts under FAR:
  
                    RESTRICTED RIGHTS LEGEND
  
 Use, reproduction and disclosure by the US Government is
 subject to restrictions as set forth in subparagraphs (a)
 and (c) of the Commercial Computer Software - Restricted
 Rights clause in FAR 52.227-19.
  
 Gaussian, Inc.
 340 Quinnipiac St., Bldg. 40, Wallingford CT 06492
  
  
 ---------------------------------------------------------------
 Warning -- This program may not be used in any manner that
 competes with the business of Gaussian, Inc. or will provide
 assistance to any competitor of Gaussian, Inc.  The licensee
 of this program is prohibited from giving any competitor of
 Gaussian, Inc. access to this program.  By using this program,
 the user acknowledges that Gaussian, Inc. is engaged in the
 business of creating and licensing software in the field of
 computational chemistry and represents and warrants to the
 licensee that it is not a competitor of Gaussian, Inc. and that
 it will not use this program in any manner prohibited above.
 ---------------------------------------------------------------
  

 Cite this work as:
 Gaussian 16, Revision C.01,
 M. J. Frisch, G. W. Trucks, H. B. Schlegel, G. E. Scuseria, 
 M. A. Robb, J. R. Cheeseman, G. Scalmani, V. Barone, 
 G. A. Petersson, H. Nakatsuji, X. Li, M. Caricato, A. V. Marenich, 
 J. Bloino, B. G. Janesko, R. Gomperts, B. Mennucci, H. P. Hratchian, 
 J. V. Ortiz, A. F. Izmaylov, J. L. Sonnenberg, D. Williams-Young, 
 F. Ding, F. Lipparini, F. Egidi, J. Goings, B. Peng, A. Petrone, 
 T. Henderson, D. Ranasinghe, V. G. Zakrzewski, J. Gao, N. Rega, 
 G. Zheng, W. Liang, M. Hada, M. Ehara, K. Toyota, R. Fukuda, 
 J. Hasegawa, M. Ishida, T. Nakajima, Y. Honda, O. Kitao, H. Nakai, 
 T. Vreven, K. Throssell, J. A. Montgomery, Jr., J. E. Peralta, 
 F. Ogliaro, M. J. Bearpark, J. J. Heyd, E. N. Brothers, K. N. Kudin, 
 V. N. Staroverov, T. A. Keith, R. Kobayashi, J. Normand, 
 K. Raghavachari, A. P. Rendell, J. C. Burant, S. S. Iyengar, 
 J. Tomasi, M. Cossi, J. M. Millam, M. Klene, C. Adamo, R. Cammi, 
 J. W. Ochterski, R. L. Martin, K. Morokuma, O. Farkas, 
 J. B. Foresman, and D. J. Fox, Gaussian, Inc., Wallingford CT, 2019.
 
 ******************************************
 Gaussian 16:  ES64L-G16RevC.01  3-Jul-2019
                 7-Feb-2025 
 ******************************************
 %nprocshared=32
 Will use up to   32 processors via shared memory.
 %mem=100GB
 ------------------------------------------
 #p opt freq b3lyp/def2svpp em=gd3bj nosymm
 ------------------------------------------
 1/18=20,19=15,26=3,38=1/1,3;
 2/9=110,12=2,15=1,17=6,18=5,40=1/2;
 3/5=43,7=202,11=2,25=1,30=1,71=1,74=-5,124=41/1,2,3;
 4//1;
 5/5=2,38=5/2;
 6/7=2,8=2,9=2,10=2,28=1/1;
 7/30=1/1,2,3,16;
 1/18=20,19=15,26=3/3(2);
 2/9=110,15=1/2;
 99//99;
 2/9=110,15=1/2;
 3/5=43,7=202,11=2,25=1,30=1,71=1,74=-5,124=41/1,2,3;
 4/5=5,16=3,69=1/1;
 5/5=2,38=5/2;
 7/30=1/1,2,3,16;
 1/18=20,19=15,26=3/3(-5);
 2/9=110,15=1/2;
 6/7=2,8=2,9=2,10=2,19=2,28=1/1;
 99/9=1/99;
 Leave Link    1 at Fri Feb  7 11:15:28 2025, MaxMem= 13421772800 cpu:               1.6 elap:               0.1
 (Enter /public/software/apps/Gaussian/g16/l101.exe)
 ------------------
 $$$$Title####0????
 ------------------
 Symbolic Z-matrix:
 Charge =  0 Multiplicity = 2
 C                     3.79518   2.60636   2.17606 
 C                     4.39766   1.32812   1.61633 
 O                     4.34859   1.36627   0.1924 
 C                     4.74117   0.28801  -0.60808 
 C                     5.85896   0.447    -1.43621 
 C                     6.30437  -0.60814  -2.23501 
 C                     5.6295   -1.82944  -2.2197 
 C                     4.49887  -1.99497  -1.4163 
 C                     4.03221  -0.93819  -0.61476 
 C                     2.79782  -1.12699   0.18338 
 C                     2.71651  -2.19815   1.08311 
 C                     1.5815   -2.37468   1.88389 
 C                     1.51188  -3.45822   2.7743 
 C                     0.3823   -3.64152   3.57306 
 C                    -0.68663  -2.74954   3.48971 
 C                    -0.63188  -1.66527   2.61105 
 C                     0.505    -1.45543   1.80121 
 C                     0.59326  -0.36224   0.9039 
 C                    -0.47685   0.6654    0.81697 
 C                    -1.2938    0.69288  -0.32685 
 O                    -1.0418   -0.19466  -1.37088 
 C                    -2.34459   1.62079  -0.4327 
 C                    -3.23621   1.6262   -1.61504 
 C                    -3.34166   2.7899   -2.39464 
 C                    -4.16423   2.81275  -3.52178 
 C                    -4.89262   1.67798  -3.87808 
 C                    -4.80788   0.51755  -3.10517 
 C                    -3.9838    0.48001  -1.96175 
 O                    -3.89897  -0.65663  -1.1368 
 C                    -4.45363  -1.94028  -1.42235 
 C                    -3.63521  -2.65511  -2.49178 
 C                    -2.54517   2.55887   0.5878 
 C                    -1.716     2.57478   1.71642 
 C                    -1.9189    3.5321    2.7235 
 C                    -1.08662   3.56322   3.84335 
 C                    -0.04563   2.64356   3.96813 
 C                     0.1666    1.68215   2.97787 
 C                    -0.66841   1.6268    1.84084 
 C                     1.7192   -0.23146   0.07249 
 O                     1.75601   0.78938  -0.8749 
 H                     4.38158   3.48448   1.83227 
 H                     3.80785   2.57378   3.28589 
 H                     2.74513   2.7121    1.83009 
 H                     3.82912   0.46251   2.0122 
 H                     5.45448   1.24046   1.94804 
 H                     6.39357   1.38838  -1.44712 
 H                     7.17555  -0.47965  -2.86432 
 H                     5.97675  -2.64632  -2.83908 
 H                     3.97368  -2.94224  -1.4354 
 H                     3.549    -2.88809   1.16831 
 H                     2.33015  -4.16453   2.85075 
 H                     0.33397  -4.47962   4.25628 
 H                    -1.56277  -2.89954   4.10735 
 H                    -1.48488  -1.00081   2.56831 
 H                    -2.77512   3.67618  -2.13565 
 H                    -4.23524   3.71107  -4.12136 
 H                    -5.52972   1.69896  -4.75292 
 H                    -5.39638  -0.33789  -3.40301 
 H                    -4.41974  -2.54735  -0.49331 
 H                    -5.51899  -1.85593  -1.72312 
 H                    -4.05386  -3.66842  -2.66658 
 H                    -2.58114  -2.75442  -2.15627 
 H                    -3.65834  -2.09052  -3.44639 
 H                    -3.35313   3.27723   0.50046 
 H                    -2.71813   4.25934   2.64206 
 H                    -1.24621   4.3057    4.61457 
 H                     0.60186   2.67674   4.83491 
 H                     0.99137   0.99364   3.10669 
 Cu                    0.50808   0.49177  -2.36023 
 
 ITRead=  0  0  0  0  0  0  0  0  0  0  0  0  0  0  0  0  0  0  0  0
 ITRead=  0  0  0  0  0  0  0  0  0  0  0  0  0  0  0  0  0  0  0  0
 ITRead=  0  0  0  0  0  0  0  0  0  0  0  0  0  0  0  0  0  0  0  0
 ITRead=  0  0  0  0  0  0  0  0  0
 MicOpt= -1 -1 -1 -1 -1 -1 -1 -1 -1 -1 -1 -1 -1 -1 -1 -1 -1 -1 -1 -1
 MicOpt= -1 -1 -1 -1 -1 -1 -1 -1 -1 -1 -1 -1 -1 -1 -1 -1 -1 -1 -1 -1
 MicOpt= -1 -1 -1 -1 -1 -1 -1 -1 -1 -1 -1 -1 -1 -1 -1 -1 -1 -1 -1 -1
 MicOpt= -1 -1 -1 -1 -1 -1 -1 -1 -1
 NAtoms=     69 NQM=       69 NQMF=       0 NMMI=      0 NMMIF=      0
                NMic=       0 NMicF=      0.
                    Isotopes and Nuclear Properties:
 (Nuclear quadrupole moments (NQMom) in fm**2, nuclear magnetic moments (NMagM)
  in nuclear magnetons)

  Atom         1           2           3           4           5           6           7           8           9          10
 IAtWgt=          12          12          16          12          12          12          12          12          12          12
 AtmWgt=  12.0000000  12.0000000  15.9949146  12.0000000  12.0000000  12.0000000  12.0000000  12.0000000  12.0000000  12.0000000
 NucSpn=           0           0           0           0           0           0           0           0           0           0
 AtZEff=  -0.0000000  -0.0000000  -0.0000000  -0.0000000  -0.0000000  -0.0000000  -0.0000000  -0.0000000  -0.0000000  -0.0000000
 NQMom=    0.0000000   0.0000000   0.0000000   0.0000000   0.0000000   0.0000000   0.0000000   0.0000000   0.0000000   0.0000000
 NMagM=    0.0000000   0.0000000   0.0000000   0.0000000   0.0000000   0.0000000   0.0000000   0.0000000   0.0000000   0.0000000
 AtZNuc=   6.0000000   6.0000000   8.0000000   6.0000000   6.0000000   6.0000000   6.0000000   6.0000000   6.0000000   6.0000000

  Atom        11          12          13          14          15          16          17          18          19          20
 IAtWgt=          12          12          12          12          12          12          12          12          12          12
 AtmWgt=  12.0000000  12.0000000  12.0000000  12.0000000  12.0000000  12.0000000  12.0000000  12.0000000  12.0000000  12.0000000
 NucSpn=           0           0           0           0           0           0           0           0           0           0
 AtZEff=  -0.0000000  -0.0000000  -0.0000000  -0.0000000  -0.0000000  -0.0000000  -0.0000000  -0.0000000  -0.0000000  -0.0000000
 NQMom=    0.0000000   0.0000000   0.0000000   0.0000000   0.0000000   0.0000000   0.0000000   0.0000000   0.0000000   0.0000000
 NMagM=    0.0000000   0.0000000   0.0000000   0.0000000   0.0000000   0.0000000   0.0000000   0.0000000   0.0000000   0.0000000
 AtZNuc=   6.0000000   6.0000000   6.0000000   6.0000000   6.0000000   6.0000000   6.0000000   6.0000000   6.0000000   6.0000000

  Atom        21          22          23          24          25          26          27          28          29          30
 IAtWgt=          16          12          12          12          12          12          12          12          16          12
 AtmWgt=  15.9949146  12.0000000  12.0000000  12.0000000  12.0000000  12.0000000  12.0000000  12.0000000  15.9949146  12.0000000
 NucSpn=           0           0           0           0           0           0           0           0           0           0
 AtZEff=  -0.0000000  -0.0000000  -0.0000000  -0.0000000  -0.0000000  -0.0000000  -0.0000000  -0.0000000  -0.0000000  -0.0000000
 NQMom=    0.0000000   0.0000000   0.0000000   0.0000000   0.0000000   0.0000000   0.0000000   0.0000000   0.0000000   0.0000000
 NMagM=    0.0000000   0.0000000   0.0000000   0.0000000   0.0000000   0.0000000   0.0000000   0.0000000   0.0000000   0.0000000
 AtZNuc=   8.0000000   6.0000000   6.0000000   6.0000000   6.0000000   6.0000000   6.0000000   6.0000000   8.0000000   6.0000000

  Atom        31          32          33          34          35          36          37          38          39          40
 IAtWgt=          12          12          12          12          12          12          12          12          12          16
 AtmWgt=  12.0000000  12.0000000  12.0000000  12.0000000  12.0000000  12.0000000  12.0000000  12.0000000  12.0000000  15.9949146
 NucSpn=           0           0           0           0           0           0           0           0           0           0
 AtZEff=  -0.0000000  -0.0000000  -0.0000000  -0.0000000  -0.0000000  -0.0000000  -0.0000000  -0.0000000  -0.0000000  -0.0000000
 NQMom=    0.0000000   0.0000000   0.0000000   0.0000000   0.0000000   0.0000000   0.0000000   0.0000000   0.0000000   0.0000000
 NMagM=    0.0000000   0.0000000   0.0000000   0.0000000   0.0000000   0.0000000   0.0000000   0.0000000   0.0000000   0.0000000
 AtZNuc=   6.0000000   6.0000000   6.0000000   6.0000000   6.0000000   6.0000000   6.0000000   6.0000000   6.0000000   8.0000000

  Atom        41          42          43          44          45          46          47          48          49          50
 IAtWgt=           1           1           1           1           1           1           1           1           1           1
 AtmWgt=   1.0078250   1.0078250   1.0078250   1.0078250   1.0078250   1.0078250   1.0078250   1.0078250   1.0078250   1.0078250
 NucSpn=           1           1           1           1           1           1           1           1           1           1
 AtZEff=  -0.0000000  -0.0000000  -0.0000000  -0.0000000  -0.0000000  -0.0000000  -0.0000000  -0.0000000  -0.0000000  -0.0000000
 NQMom=    0.0000000   0.0000000   0.0000000   0.0000000   0.0000000   0.0000000   0.0000000   0.0000000   0.0000000   0.0000000
 NMagM=    2.7928460   2.7928460   2.7928460   2.7928460   2.7928460   2.7928460   2.7928460   2.7928460   2.7928460   2.7928460
 AtZNuc=   1.0000000   1.0000000   1.0000000   1.0000000   1.0000000   1.0000000   1.0000000   1.0000000   1.0000000   1.0000000

  Atom        51          52          53          54          55          56          57          58          59          60
 IAtWgt=           1           1           1           1           1           1           1           1           1           1
 AtmWgt=   1.0078250   1.0078250   1.0078250   1.0078250   1.0078250   1.0078250   1.0078250   1.0078250   1.0078250   1.0078250
 NucSpn=           1           1           1           1           1           1           1           1           1           1
 AtZEff=  -0.0000000  -0.0000000  -0.0000000  -0.0000000  -0.0000000  -0.0000000  -0.0000000  -0.0000000  -0.0000000  -0.0000000
 NQMom=    0.0000000   0.0000000   0.0000000   0.0000000   0.0000000   0.0000000   0.0000000   0.0000000   0.0000000   0.0000000
 NMagM=    2.7928460   2.7928460   2.7928460   2.7928460   2.7928460   2.7928460   2.7928460   2.7928460   2.7928460   2.7928460
 AtZNuc=   1.0000000   1.0000000   1.0000000   1.0000000   1.0000000   1.0000000   1.0000000   1.0000000   1.0000000   1.0000000

  Atom        61          62          63          64          65          66          67          68          69
 IAtWgt=           1           1           1           1           1           1           1           1          63
 AtmWgt=   1.0078250   1.0078250   1.0078250   1.0078250   1.0078250   1.0078250   1.0078250   1.0078250  62.9295992
 NucSpn=           1           1           1           1           1           1           1           1           3
 AtZEff=  -0.0000000  -0.0000000  -0.0000000  -0.0000000  -0.0000000  -0.0000000  -0.0000000  -0.0000000  -0.0000000
 NQMom=    0.0000000   0.0000000   0.0000000   0.0000000   0.0000000   0.0000000   0.0000000   0.0000000 -22.0000000
 NMagM=    2.7928460   2.7928460   2.7928460   2.7928460   2.7928460   2.7928460   2.7928460   2.7928460   2.2233000
 AtZNuc=   1.0000000   1.0000000   1.0000000   1.0000000   1.0000000   1.0000000   1.0000000   1.0000000  29.0000000
 Leave Link  101 at Fri Feb  7 11:15:28 2025, MaxMem= 13421772800 cpu:               3.1 elap:               0.1
 (Enter /public/software/apps/Gaussian/g16/l103.exe)

 GradGradGradGradGradGradGradGradGradGradGradGradGradGradGradGradGradGrad
 Berny optimization.
 Initialization pass.
                           ----------------------------
                           !    Initial Parameters    !
                           ! (Angstroms and Degrees)  !
 --------------------------                            --------------------------
 ! Name  Definition              Value          Derivative Info.                !
 --------------------------------------------------------------------------------
 ! R1    R(1,2)                  1.5199         estimate D2E/DX2                !
 ! R2    R(1,41)                 1.1105         estimate D2E/DX2                !
 ! R3    R(1,42)                 1.1104         estimate D2E/DX2                !
 ! R4    R(1,43)                 1.1106         estimate D2E/DX2                !
 ! R5    R(2,3)                  1.4253         estimate D2E/DX2                !
 ! R6    R(2,44)                 1.1087         estimate D2E/DX2                !
 ! R7    R(2,45)                 1.1111         estimate D2E/DX2                !
 ! R8    R(3,4)                  1.3991         estimate D2E/DX2                !
 ! R9    R(4,5)                  1.4002         estimate D2E/DX2                !
 ! R10   R(4,9)                  1.4164         estimate D2E/DX2                !
 ! R11   R(5,6)                  1.3963         estimate D2E/DX2                !
 ! R12   R(5,46)                 1.0826         estimate D2E/DX2                !
 ! R13   R(6,7)                  1.3954         estimate D2E/DX2                !
 ! R14   R(6,47)                 1.0824         estimate D2E/DX2                !
 ! R15   R(7,8)                  1.3968         estimate D2E/DX2                !
 ! R16   R(7,48)                 1.0824         estimate D2E/DX2                !
 ! R17   R(8,9)                  1.4061         estimate D2E/DX2                !
 ! R18   R(8,49)                 1.0833         estimate D2E/DX2                !
 ! R19   R(9,10)                 1.482          estimate D2E/DX2                !
 ! R20   R(10,11)                1.4013         estimate D2E/DX2                !
 ! R21   R(10,39)                1.4063         estimate D2E/DX2                !
 ! R22   R(11,12)                1.4002         estimate D2E/DX2                !
 ! R23   R(11,50)                1.0846         estimate D2E/DX2                !
 ! R24   R(12,13)                1.4042         estimate D2E/DX2                !
 ! R25   R(12,17)                1.418          estimate D2E/DX2                !
 ! R26   R(13,14)                1.3956         estimate D2E/DX2                !
 ! R27   R(13,51)                1.0836         estimate D2E/DX2                !
 ! R28   R(14,15)                1.3947         estimate D2E/DX2                !
 ! R29   R(14,52)                1.0824         estimate D2E/DX2                !
 ! R30   R(15,16)                1.3967         estimate D2E/DX2                !
 ! R31   R(15,53)                1.0824         estimate D2E/DX2                !
 ! R32   R(16,17)                1.4115         estimate D2E/DX2                !
 ! R33   R(16,54)                1.0821         estimate D2E/DX2                !
 ! R34   R(17,18)                1.417          estimate D2E/DX2                !
 ! R35   R(18,19)                1.4862         estimate D2E/DX2                !
 ! R36   R(18,39)                1.4057         estimate D2E/DX2                !
 ! R37   R(19,20)                1.4059         estimate D2E/DX2                !
 ! R38   R(19,38)                1.4175         estimate D2E/DX2                !
 ! R39   R(20,21)                1.3933         estimate D2E/DX2                !
 ! R40   R(20,22)                1.4058         estimate D2E/DX2                !
 ! R41   R(21,69)                1.9627         estimate D2E/DX2                !
 ! R42   R(22,23)                1.4809         estimate D2E/DX2                !
 ! R43   R(22,32)                1.4006         estimate D2E/DX2                !
 ! R44   R(23,24)                1.4047         estimate D2E/DX2                !
 ! R45   R(23,28)                1.4117         estimate D2E/DX2                !
 ! R46   R(24,25)                1.3956         estimate D2E/DX2                !
 ! R47   R(24,55)                1.0833         estimate D2E/DX2                !
 ! R48   R(25,26)                1.3947         estimate D2E/DX2                !
 ! R49   R(25,56)                1.0824         estimate D2E/DX2                !
 ! R50   R(26,27)                1.3968         estimate D2E/DX2                !
 ! R51   R(26,57)                1.0824         estimate D2E/DX2                !
 ! R52   R(27,28)                1.4099         estimate D2E/DX2                !
 ! R53   R(27,58)                1.0802         estimate D2E/DX2                !
 ! R54   R(28,29)                1.407          estimate D2E/DX2                !
 ! R55   R(29,30)                1.4272         estimate D2E/DX2                !
 ! R56   R(30,31)                1.5246         estimate D2E/DX2                !
 ! R57   R(30,59)                1.1103         estimate D2E/DX2                !
 ! R58   R(30,60)                1.1102         estimate D2E/DX2                !
 ! R59   R(31,61)                1.1102         estimate D2E/DX2                !
 ! R60   R(31,62)                1.1106         estimate D2E/DX2                !
 ! R61   R(31,63)                1.1093         estimate D2E/DX2                !
 ! R62   R(32,33)                1.4006         estimate D2E/DX2                !
 ! R63   R(32,64)                1.0847         estimate D2E/DX2                !
 ! R64   R(33,34)                1.4042         estimate D2E/DX2                !
 ! R65   R(33,38)                1.4183         estimate D2E/DX2                !
 ! R66   R(34,35)                1.3956         estimate D2E/DX2                !
 ! R67   R(34,65)                1.0836         estimate D2E/DX2                !
 ! R68   R(35,36)                1.3946         estimate D2E/DX2                !
 ! R69   R(35,66)                1.0824         estimate D2E/DX2                !
 ! R70   R(36,37)                1.3964         estimate D2E/DX2                !
 ! R71   R(36,67)                1.0824         estimate D2E/DX2                !
 ! R72   R(37,38)                1.4118         estimate D2E/DX2                !
 ! R73   R(37,68)                1.0821         estimate D2E/DX2                !
 ! R74   R(39,40)                1.3932         estimate D2E/DX2                !
 ! R75   R(40,69)                1.9627         estimate D2E/DX2                !
 ! A1    A(2,1,41)             109.9799         estimate D2E/DX2                !
 ! A2    A(2,1,42)             109.8087         estimate D2E/DX2                !
 ! A3    A(2,1,43)             109.8846         estimate D2E/DX2                !
 ! A4    A(41,1,42)            109.0631         estimate D2E/DX2                !
 ! A5    A(41,1,43)            109.1194         estimate D2E/DX2                !
 ! A6    A(42,1,43)            108.9617         estimate D2E/DX2                !
 ! A7    A(1,2,3)              109.3754         estimate D2E/DX2                !
 ! A8    A(1,2,44)             108.7739         estimate D2E/DX2                !
 ! A9    A(1,2,45)             109.477          estimate D2E/DX2                !
 ! A10   A(3,2,44)             111.0976         estimate D2E/DX2                !
 ! A11   A(3,2,45)             109.4578         estimate D2E/DX2                !
 ! A12   A(44,2,45)            108.6352         estimate D2E/DX2                !
 ! A13   A(2,3,4)              122.7724         estimate D2E/DX2                !
 ! A14   A(3,4,5)              118.3508         estimate D2E/DX2                !
 ! A15   A(3,4,9)              121.9668         estimate D2E/DX2                !
 ! A16   A(5,4,9)              119.6761         estimate D2E/DX2                !
 ! A17   A(4,5,6)              120.4763         estimate D2E/DX2                !
 ! A18   A(4,5,46)             119.9273         estimate D2E/DX2                !
 ! A19   A(6,5,46)             119.5885         estimate D2E/DX2                !
 ! A20   A(5,6,7)              120.0529         estimate D2E/DX2                !
 ! A21   A(5,6,47)             119.9771         estimate D2E/DX2                !
 ! A22   A(7,6,47)             119.9698         estimate D2E/DX2                !
 ! A23   A(6,7,8)              120.0979         estimate D2E/DX2                !
 ! A24   A(6,7,48)             119.9402         estimate D2E/DX2                !
 ! A25   A(8,7,48)             119.9589         estimate D2E/DX2                !
 ! A26   A(7,8,9)              120.494          estimate D2E/DX2                !
 ! A27   A(7,8,49)             119.0715         estimate D2E/DX2                !
 ! A28   A(9,8,49)             120.4215         estimate D2E/DX2                !
 ! A29   A(4,9,8)              119.1576         estimate D2E/DX2                !
 ! A30   A(4,9,10)             121.6441         estimate D2E/DX2                !
 ! A31   A(8,9,10)             119.1894         estimate D2E/DX2                !
 ! A32   A(9,10,11)            119.4397         estimate D2E/DX2                !
 ! A33   A(9,10,39)            121.014          estimate D2E/DX2                !
 ! A34   A(11,10,39)           119.5319         estimate D2E/DX2                !
 ! A35   A(10,11,12)           120.7048         estimate D2E/DX2                !
 ! A36   A(10,11,50)           119.4839         estimate D2E/DX2                !
 ! A37   A(12,11,50)           119.8054         estimate D2E/DX2                !
 ! A38   A(11,12,13)           120.0074         estimate D2E/DX2                !
 ! A39   A(11,12,17)           120.0196         estimate D2E/DX2                !
 ! A40   A(13,12,17)           119.9721         estimate D2E/DX2                !
 ! A41   A(12,13,14)           120.2929         estimate D2E/DX2                !
 ! A42   A(12,13,51)           120.681          estimate D2E/DX2                !
 ! A43   A(14,13,51)           119.026          estimate D2E/DX2                !
 ! A44   A(13,14,15)           120.1419         estimate D2E/DX2                !
 ! A45   A(13,14,52)           119.9422         estimate D2E/DX2                !
 ! A46   A(15,14,52)           119.9155         estimate D2E/DX2                !
 ! A47   A(14,15,16)           120.2687         estimate D2E/DX2                !
 ! A48   A(14,15,53)           119.844          estimate D2E/DX2                !
 ! A49   A(16,15,53)           119.8872         estimate D2E/DX2                !
 ! A50   A(15,16,17)           120.5262         estimate D2E/DX2                !
 ! A51   A(15,16,54)           118.0763         estimate D2E/DX2                !
 ! A52   A(17,16,54)           121.3966         estimate D2E/DX2                !
 ! A53   A(12,17,16)           118.7919         estimate D2E/DX2                !
 ! A54   A(12,17,18)           119.3246         estimate D2E/DX2                !
 ! A55   A(16,17,18)           121.8812         estimate D2E/DX2                !
 ! A56   A(17,18,19)           121.7103         estimate D2E/DX2                !
 ! A57   A(17,18,39)           119.747          estimate D2E/DX2                !
 ! A58   A(19,18,39)           118.5422         estimate D2E/DX2                !
 ! A59   A(18,19,20)           118.6537         estimate D2E/DX2                !
 ! A60   A(18,19,38)           121.6034         estimate D2E/DX2                !
 ! A61   A(20,19,38)           119.7281         estimate D2E/DX2                !
 ! A62   A(19,20,21)           119.4792         estimate D2E/DX2                !
 ! A63   A(19,20,22)           120.564          estimate D2E/DX2                !
 ! A64   A(21,20,22)           119.9484         estimate D2E/DX2                !
 ! A65   A(20,21,69)           107.3232         estimate D2E/DX2                !
 ! A66   A(20,22,23)           120.8347         estimate D2E/DX2                !
 ! A67   A(20,22,32)           119.6206         estimate D2E/DX2                !
 ! A68   A(23,22,32)           119.5429         estimate D2E/DX2                !
 ! A69   A(22,23,24)           119.4291         estimate D2E/DX2                !
 ! A70   A(22,23,28)           120.7957         estimate D2E/DX2                !
 ! A71   A(24,23,28)           119.7745         estimate D2E/DX2                !
 ! A72   A(23,24,25)           120.4024         estimate D2E/DX2                !
 ! A73   A(23,24,55)           120.3871         estimate D2E/DX2                !
 ! A74   A(25,24,55)           119.2055         estimate D2E/DX2                !
 ! A75   A(24,25,26)           120.0549         estimate D2E/DX2                !
 ! A76   A(24,25,56)           119.9783         estimate D2E/DX2                !
 ! A77   A(26,25,56)           119.9667         estimate D2E/DX2                !
 ! A78   A(25,26,27)           120.1908         estimate D2E/DX2                !
 ! A79   A(25,26,57)           119.8735         estimate D2E/DX2                !
 ! A80   A(27,26,57)           119.9348         estimate D2E/DX2                !
 ! A81   A(26,27,28)           120.4189         estimate D2E/DX2                !
 ! A82   A(26,27,58)           118.1823         estimate D2E/DX2                !
 ! A83   A(28,27,58)           121.3957         estimate D2E/DX2                !
 ! A84   A(23,28,27)           119.1484         estimate D2E/DX2                !
 ! A85   A(23,28,29)           118.6845         estimate D2E/DX2                !
 ! A86   A(27,28,29)           122.1566         estimate D2E/DX2                !
 ! A87   A(28,29,30)           125.8623         estimate D2E/DX2                !
 ! A88   A(29,30,31)           110.6962         estimate D2E/DX2                !
 ! A89   A(29,30,59)           108.2088         estimate D2E/DX2                !
 ! A90   A(29,30,60)           111.0264         estimate D2E/DX2                !
 ! A91   A(31,30,59)           108.3119         estimate D2E/DX2                !
 ! A92   A(31,30,60)           111.144          estimate D2E/DX2                !
 ! A93   A(59,30,60)           107.3082         estimate D2E/DX2                !
 ! A94   A(30,31,61)           109.6296         estimate D2E/DX2                !
 ! A95   A(30,31,62)           109.8461         estimate D2E/DX2                !
 ! A96   A(30,31,63)           110.7197         estimate D2E/DX2                !
 ! A97   A(61,31,62)           108.8951         estimate D2E/DX2                !
 ! A98   A(61,31,63)           108.7335         estimate D2E/DX2                !
 ! A99   A(62,31,63)           108.9816         estimate D2E/DX2                !
 ! A100  A(22,32,33)           120.6623         estimate D2E/DX2                !
 ! A101  A(22,32,64)           119.4452         estimate D2E/DX2                !
 ! A102  A(33,32,64)           119.8923         estimate D2E/DX2                !
 ! A103  A(32,33,34)           120.0083         estimate D2E/DX2                !
 ! A104  A(32,33,38)           120.0252         estimate D2E/DX2                !
 ! A105  A(34,33,38)           119.9663         estimate D2E/DX2                !
 ! A106  A(33,34,35)           120.2982         estimate D2E/DX2                !
 ! A107  A(33,34,65)           120.6769         estimate D2E/DX2                !
 ! A108  A(35,34,65)           119.0243         estimate D2E/DX2                !
 ! A109  A(34,35,36)           120.1472         estimate D2E/DX2                !
 ! A110  A(34,35,66)           119.9408         estimate D2E/DX2                !
 ! A111  A(36,35,66)           119.9113         estimate D2E/DX2                !
 ! A112  A(35,36,37)           120.2649         estimate D2E/DX2                !
 ! A113  A(35,36,67)           119.8629         estimate D2E/DX2                !
 ! A114  A(37,36,67)           119.8721         estimate D2E/DX2                !
 ! A115  A(36,37,38)           120.5464         estimate D2E/DX2                !
 ! A116  A(36,37,68)           118.0008         estimate D2E/DX2                !
 ! A117  A(38,37,68)           121.4503         estimate D2E/DX2                !
 ! A118  A(19,38,33)           119.3265         estimate D2E/DX2                !
 ! A119  A(19,38,37)           121.8969         estimate D2E/DX2                !
 ! A120  A(33,38,37)           118.7709         estimate D2E/DX2                !
 ! A121  A(10,39,18)           120.5608         estimate D2E/DX2                !
 ! A122  A(10,39,40)           119.9972         estimate D2E/DX2                !
 ! A123  A(18,39,40)           119.4399         estimate D2E/DX2                !
 ! A124  A(39,40,69)           112.7503         estimate D2E/DX2                !
 ! A125  A(21,69,40)           100.0            estimate D2E/DX2                !
 ! D1    D(41,1,2,3)           -61.3091         estimate D2E/DX2                !
 ! D2    D(41,1,2,44)          177.1874         estimate D2E/DX2                !
 ! D3    D(41,1,2,45)           58.6194         estimate D2E/DX2                !
 ! D4    D(42,1,2,3)           178.6685         estimate D2E/DX2                !
 ! D5    D(42,1,2,44)           57.165          estimate D2E/DX2                !
 ! D6    D(42,1,2,45)          -61.403          estimate D2E/DX2                !
 ! D7    D(43,1,2,3)            58.8307         estimate D2E/DX2                !
 ! D8    D(43,1,2,44)          -62.6728         estimate D2E/DX2                !
 ! D9    D(43,1,2,45)          178.7592         estimate D2E/DX2                !
 ! D10   D(1,2,3,4)           -175.23           estimate D2E/DX2                !
 ! D11   D(44,2,3,4)           -55.1407         estimate D2E/DX2                !
 ! D12   D(45,2,3,4)            64.8296         estimate D2E/DX2                !
 ! D13   D(2,3,4,5)           -114.7148         estimate D2E/DX2                !
 ! D14   D(2,3,4,9)             66.2039         estimate D2E/DX2                !
 ! D15   D(3,4,5,6)            178.8159         estimate D2E/DX2                !
 ! D16   D(3,4,5,46)            -0.1659         estimate D2E/DX2                !
 ! D17   D(9,4,5,6)             -2.0812         estimate D2E/DX2                !
 ! D18   D(9,4,5,46)           178.937          estimate D2E/DX2                !
 ! D19   D(3,4,9,8)           -178.373          estimate D2E/DX2                !
 ! D20   D(3,4,9,10)             2.7229         estimate D2E/DX2                !
 ! D21   D(5,4,9,8)              2.5577         estimate D2E/DX2                !
 ! D22   D(5,4,9,10)          -176.3465         estimate D2E/DX2                !
 ! D23   D(4,5,6,7)              0.4585         estimate D2E/DX2                !
 ! D24   D(4,5,6,47)          -179.3564         estimate D2E/DX2                !
 ! D25   D(46,5,6,7)           179.4438         estimate D2E/DX2                !
 ! D26   D(46,5,6,47)           -0.3712         estimate D2E/DX2                !
 ! D27   D(5,6,7,8)              0.6753         estimate D2E/DX2                !
 ! D28   D(5,6,7,48)          -179.9572         estimate D2E/DX2                !
 ! D29   D(47,6,7,8)          -179.5098         estimate D2E/DX2                !
 ! D30   D(47,6,7,48)           -0.1422         estimate D2E/DX2                !
 ! D31   D(6,7,8,9)             -0.1643         estimate D2E/DX2                !
 ! D32   D(6,7,8,49)           178.5285         estimate D2E/DX2                !
 ! D33   D(48,7,8,9)          -179.5318         estimate D2E/DX2                !
 ! D34   D(48,7,8,49)           -0.8389         estimate D2E/DX2                !
 ! D35   D(7,8,9,4)             -1.4495         estimate D2E/DX2                !
 ! D36   D(7,8,9,10)           177.4819         estimate D2E/DX2                !
 ! D37   D(49,8,9,4)           179.8754         estimate D2E/DX2                !
 ! D38   D(49,8,9,10)           -1.1932         estimate D2E/DX2                !
 ! D39   D(4,9,10,11)         -125.4429         estimate D2E/DX2                !
 ! D40   D(4,9,10,39)           53.1737         estimate D2E/DX2                !
 ! D41   D(8,9,10,11)           55.6533         estimate D2E/DX2                !
 ! D42   D(8,9,10,39)         -125.73           estimate D2E/DX2                !
 ! D43   D(9,10,11,12)         177.7792         estimate D2E/DX2                !
 ! D44   D(9,10,11,50)          -1.3359         estimate D2E/DX2                !
 ! D45   D(39,10,11,12)         -0.8582         estimate D2E/DX2                !
 ! D46   D(39,10,11,50)       -179.9733         estimate D2E/DX2                !
 ! D47   D(9,10,39,18)        -175.3128         estimate D2E/DX2                !
 ! D48   D(9,10,39,40)           5.2205         estimate D2E/DX2                !
 ! D49   D(11,10,39,18)          3.3026         estimate D2E/DX2                !
 ! D50   D(11,10,39,40)       -176.1641         estimate D2E/DX2                !
 ! D51   D(10,11,12,13)        179.585          estimate D2E/DX2                !
 ! D52   D(10,11,12,17)         -0.7503         estimate D2E/DX2                !
 ! D53   D(50,11,12,13)         -1.3028         estimate D2E/DX2                !
 ! D54   D(50,11,12,17)        178.3619         estimate D2E/DX2                !
 ! D55   D(11,12,13,14)       -179.8584         estimate D2E/DX2                !
 ! D56   D(11,12,13,51)          0.0014         estimate D2E/DX2                !
 ! D57   D(17,12,13,14)          0.4767         estimate D2E/DX2                !
 ! D58   D(17,12,13,51)       -179.6634         estimate D2E/DX2                !
 ! D59   D(11,12,17,16)        179.4065         estimate D2E/DX2                !
 ! D60   D(11,12,17,18)         -0.0519         estimate D2E/DX2                !
 ! D61   D(13,12,17,16)         -0.9287         estimate D2E/DX2                !
 ! D62   D(13,12,17,18)        179.6129         estimate D2E/DX2                !
 ! D63   D(12,13,14,15)          0.1155         estimate D2E/DX2                !
 ! D64   D(12,13,14,52)        179.8998         estimate D2E/DX2                !
 ! D65   D(51,13,14,15)       -179.7466         estimate D2E/DX2                !
 ! D66   D(51,13,14,52)          0.0376         estimate D2E/DX2                !
 ! D67   D(13,14,15,16)         -0.2419         estimate D2E/DX2                !
 ! D68   D(13,14,15,53)        179.648          estimate D2E/DX2                !
 ! D69   D(52,14,15,16)        179.9738         estimate D2E/DX2                !
 ! D70   D(52,14,15,53)         -0.1363         estimate D2E/DX2                !
 ! D71   D(14,15,16,17)         -0.2287         estimate D2E/DX2                !
 ! D72   D(14,15,16,54)        179.431          estimate D2E/DX2                !
 ! D73   D(53,15,16,17)        179.8815         estimate D2E/DX2                !
 ! D74   D(53,15,16,54)         -0.4589         estimate D2E/DX2                !
 ! D75   D(15,16,17,12)          0.8081         estimate D2E/DX2                !
 ! D76   D(15,16,17,18)       -179.7479         estimate D2E/DX2                !
 ! D77   D(54,16,17,12)       -178.84           estimate D2E/DX2                !
 ! D78   D(54,16,17,18)          0.6039         estimate D2E/DX2                !
 ! D79   D(12,17,18,19)       -177.2869         estimate D2E/DX2                !
 ! D80   D(12,17,18,39)          2.4561         estimate D2E/DX2                !
 ! D81   D(16,17,18,19)          3.2721         estimate D2E/DX2                !
 ! D82   D(16,17,18,39)       -176.985          estimate D2E/DX2                !
 ! D83   D(17,18,19,20)       -108.9177         estimate D2E/DX2                !
 ! D84   D(17,18,19,38)         72.4888         estimate D2E/DX2                !
 ! D85   D(39,18,19,20)         71.3363         estimate D2E/DX2                !
 ! D86   D(39,18,19,38)       -107.2572         estimate D2E/DX2                !
 ! D87   D(17,18,39,10)         -4.1049         estimate D2E/DX2                !
 ! D88   D(17,18,39,40)        175.3647         estimate D2E/DX2                !
 ! D89   D(19,18,39,10)        175.6462         estimate D2E/DX2                !
 ! D90   D(19,18,39,40)         -4.8842         estimate D2E/DX2                !
 ! D91   D(18,19,20,21)         -3.0434         estimate D2E/DX2                !
 ! D92   D(18,19,20,22)        178.0123         estimate D2E/DX2                !
 ! D93   D(38,19,20,21)        175.5772         estimate D2E/DX2                !
 ! D94   D(38,19,20,22)         -3.3672         estimate D2E/DX2                !
 ! D95   D(18,19,38,33)       -179.1781         estimate D2E/DX2                !
 ! D96   D(18,19,38,37)          1.7046         estimate D2E/DX2                !
 ! D97   D(20,19,38,33)          2.2433         estimate D2E/DX2                !
 ! D98   D(20,19,38,37)       -176.8741         estimate D2E/DX2                !
 ! D99   D(19,20,21,69)        -76.8935         estimate D2E/DX2                !
 ! D100  D(22,20,21,69)        102.0575         estimate D2E/DX2                !
 ! D101  D(19,20,22,23)       -177.9987         estimate D2E/DX2                !
 ! D102  D(19,20,22,32)          2.4873         estimate D2E/DX2                !
 ! D103  D(21,20,22,23)          3.0619         estimate D2E/DX2                !
 ! D104  D(21,20,22,32)       -176.4521         estimate D2E/DX2                !
 ! D105  D(20,21,69,40)         50.3114         estimate D2E/DX2                !
 ! D106  D(20,22,23,24)       -121.6903         estimate D2E/DX2                !
 ! D107  D(20,22,23,28)         58.6249         estimate D2E/DX2                !
 ! D108  D(32,22,23,24)         57.824          estimate D2E/DX2                !
 ! D109  D(32,22,23,28)       -121.8608         estimate D2E/DX2                !
 ! D110  D(20,22,32,33)         -0.4869         estimate D2E/DX2                !
 ! D111  D(20,22,32,64)        179.6422         estimate D2E/DX2                !
 ! D112  D(23,22,32,33)        179.9928         estimate D2E/DX2                !
 ! D113  D(23,22,32,64)          0.1219         estimate D2E/DX2                !
 ! D114  D(22,23,24,25)        179.2767         estimate D2E/DX2                !
 ! D115  D(22,23,24,55)          0.1008         estimate D2E/DX2                !
 ! D116  D(28,23,24,25)         -1.0352         estimate D2E/DX2                !
 ! D117  D(28,23,24,55)        179.7889         estimate D2E/DX2                !
 ! D118  D(22,23,28,27)       -179.1383         estimate D2E/DX2                !
 ! D119  D(22,23,28,29)          2.0163         estimate D2E/DX2                !
 ! D120  D(24,23,28,27)          1.178          estimate D2E/DX2                !
 ! D121  D(24,23,28,29)       -177.6675         estimate D2E/DX2                !
 ! D122  D(23,24,25,26)          0.2638         estimate D2E/DX2                !
 ! D123  D(23,24,25,56)       -179.5914         estimate D2E/DX2                !
 ! D124  D(55,24,25,26)        179.4494         estimate D2E/DX2                !
 ! D125  D(55,24,25,56)         -0.4058         estimate D2E/DX2                !
 ! D126  D(24,25,26,27)          0.3558         estimate D2E/DX2                !
 ! D127  D(24,25,26,57)       -179.9994         estimate D2E/DX2                !
 ! D128  D(56,25,26,27)       -179.7889         estimate D2E/DX2                !
 ! D129  D(56,25,26,57)         -0.1442         estimate D2E/DX2                !
 ! D130  D(25,26,27,28)         -0.1983         estimate D2E/DX2                !
 ! D131  D(25,26,27,58)        179.166          estimate D2E/DX2                !
 ! D132  D(57,26,27,28)       -179.8428         estimate D2E/DX2                !
 ! D133  D(57,26,27,58)         -0.4785         estimate D2E/DX2                !
 ! D134  D(26,27,28,23)         -0.5692         estimate D2E/DX2                !
 ! D135  D(26,27,28,29)        178.2344         estimate D2E/DX2                !
 ! D136  D(58,27,28,23)       -179.9128         estimate D2E/DX2                !
 ! D137  D(58,27,28,29)         -1.1092         estimate D2E/DX2                !
 ! D138  D(23,28,29,30)       -171.978          estimate D2E/DX2                !
 ! D139  D(27,28,29,30)          9.2131         estimate D2E/DX2                !
 ! D140  D(28,29,30,31)         74.1403         estimate D2E/DX2                !
 ! D141  D(28,29,30,59)       -167.3149         estimate D2E/DX2                !
 ! D142  D(28,29,30,60)        -49.7997         estimate D2E/DX2                !
 ! D143  D(29,30,31,61)        177.4241         estimate D2E/DX2                !
 ! D144  D(29,30,31,62)         57.8032         estimate D2E/DX2                !
 ! D145  D(29,30,31,63)        -62.6106         estimate D2E/DX2                !
 ! D146  D(59,30,31,61)         58.942          estimate D2E/DX2                !
 ! D147  D(59,30,31,62)        -60.679          estimate D2E/DX2                !
 ! D148  D(59,30,31,63)        178.9073         estimate D2E/DX2                !
 ! D149  D(60,30,31,61)        -58.7034         estimate D2E/DX2                !
 ! D150  D(60,30,31,62)       -178.3243         estimate D2E/DX2                !
 ! D151  D(60,30,31,63)         61.2619         estimate D2E/DX2                !
 ! D152  D(22,32,33,34)        179.1984         estimate D2E/DX2                !
 ! D153  D(22,32,33,38)         -0.6039         estimate D2E/DX2                !
 ! D154  D(64,32,33,34)         -0.9313         estimate D2E/DX2                !
 ! D155  D(64,32,33,38)        179.2664         estimate D2E/DX2                !
 ! D156  D(32,33,34,35)       -179.2608         estimate D2E/DX2                !
 ! D157  D(32,33,34,65)          0.4333         estimate D2E/DX2                !
 ! D158  D(38,33,34,35)          0.5415         estimate D2E/DX2                !
 ! D159  D(38,33,34,65)       -179.7643         estimate D2E/DX2                !
 ! D160  D(32,33,38,19)         -0.2778         estimate D2E/DX2                !
 ! D161  D(32,33,38,37)        178.8673         estimate D2E/DX2                !
 ! D162  D(34,33,38,19)        179.9199         estimate D2E/DX2                !
 ! D163  D(34,33,38,37)         -0.935          estimate D2E/DX2                !
 ! D164  D(33,34,35,36)          0.0945         estimate D2E/DX2                !
 ! D165  D(33,34,35,66)        179.7981         estimate D2E/DX2                !
 ! D166  D(65,34,35,36)       -179.6047         estimate D2E/DX2                !
 ! D167  D(65,34,35,66)          0.0989         estimate D2E/DX2                !
 ! D168  D(34,35,36,37)         -0.3238         estimate D2E/DX2                !
 ! D169  D(34,35,36,67)        179.5263         estimate D2E/DX2                !
 ! D170  D(66,35,36,37)        179.9725         estimate D2E/DX2                !
 ! D171  D(66,35,36,67)         -0.1774         estimate D2E/DX2                !
 ! D172  D(35,36,37,38)         -0.0877         estimate D2E/DX2                !
 ! D173  D(35,36,37,68)        179.3479         estimate D2E/DX2                !
 ! D174  D(67,36,37,38)       -179.9378         estimate D2E/DX2                !
 ! D175  D(67,36,37,68)         -0.5022         estimate D2E/DX2                !
 ! D176  D(36,37,38,19)        179.8343         estimate D2E/DX2                !
 ! D177  D(36,37,38,33)          0.7122         estimate D2E/DX2                !
 ! D178  D(68,37,38,19)          0.4185         estimate D2E/DX2                !
 ! D179  D(68,37,38,33)       -178.7037         estimate D2E/DX2                !
 ! D180  D(10,39,40,69)        108.8047         estimate D2E/DX2                !
 ! D181  D(18,39,40,69)        -70.668          estimate D2E/DX2                !
 ! D182  D(39,40,69,21)         40.8421         estimate D2E/DX2                !
 --------------------------------------------------------------------------------
 Trust Radius=3.00D-01 FncErr=1.00D-07 GrdErr=1.00D-06 EigMax=2.50D+02 EigMin=1.00D-04
 Number of steps in this run=    392 maximum allowed number of steps=    414.
 GradGradGradGradGradGradGradGradGradGradGradGradGradGradGradGradGradGrad

 Leave Link  103 at Fri Feb  7 11:15:28 2025, MaxMem= 13421772800 cpu:               0.7 elap:               0.0
 (Enter /public/software/apps/Gaussian/g16/l202.exe)
 Symmetry turned off by external request.
 Stoichiometry    C36H28CuO4(2)
 Framework group  C1[X(C36H28CuO4)]
 Deg. of freedom   201
 Full point group                 C1      NOp   1
                          Input orientation:                          
 ---------------------------------------------------------------------
 Center     Atomic      Atomic             Coordinates (Angstroms)
 Number     Number       Type             X           Y           Z
 ---------------------------------------------------------------------
      1          6           0        3.795178    2.606357    2.176058
      2          6           0        4.397660    1.328121    1.616328
      3          8           0        4.348592    1.366268    0.192400
      4          6           0        4.741168    0.288007   -0.608083
      5          6           0        5.858962    0.447002   -1.436213
      6          6           0        6.304374   -0.608139   -2.235006
      7          6           0        5.629496   -1.829439   -2.219701
      8          6           0        4.498873   -1.994968   -1.416302
      9          6           0        4.032210   -0.938193   -0.614757
     10          6           0        2.797821   -1.126986    0.183377
     11          6           0        2.716506   -2.198150    1.083106
     12          6           0        1.581501   -2.374677    1.883890
     13          6           0        1.511884   -3.458219    2.774296
     14          6           0        0.382298   -3.641516    3.573063
     15          6           0       -0.686626   -2.749539    3.489706
     16          6           0       -0.631877   -1.665274    2.611048
     17          6           0        0.505002   -1.455430    1.801207
     18          6           0        0.593259   -0.362238    0.903898
     19          6           0       -0.476854    0.665401    0.816972
     20          6           0       -1.293799    0.692878   -0.326846
     21          8           0       -1.041799   -0.194660   -1.370880
     22          6           0       -2.344594    1.620794   -0.432703
     23          6           0       -3.236214    1.626200   -1.615043
     24          6           0       -3.341660    2.789899   -2.394636
     25          6           0       -4.164228    2.812754   -3.521782
     26          6           0       -4.892619    1.677980   -3.878083
     27          6           0       -4.807876    0.517554   -3.105170
     28          6           0       -3.983800    0.480006   -1.961750
     29          8           0       -3.898972   -0.656634   -1.136799
     30          6           0       -4.453633   -1.940284   -1.422350
     31          6           0       -3.635206   -2.655110   -2.491781
     32          6           0       -2.545172    2.558868    0.587802
     33          6           0       -1.715995    2.574781    1.716423
     34          6           0       -1.918901    3.532101    2.723496
     35          6           0       -1.086616    3.563221    3.843353
     36          6           0       -0.045626    2.643558    3.968134
     37          6           0        0.166604    1.682151    2.977865
     38          6           0       -0.668414    1.626802    1.840838
     39          6           0        1.719204   -0.231458    0.072489
     40          8           0        1.756009    0.789381   -0.874896
     41          1           0        4.381580    3.484476    1.832269
     42          1           0        3.807851    2.573778    3.285892
     43          1           0        2.745127    2.712100    1.830092
     44          1           0        3.829121    0.462512    2.012198
     45          1           0        5.454483    1.240456    1.948043
     46          1           0        6.393574    1.388382   -1.447119
     47          1           0        7.175548   -0.479650   -2.864315
     48          1           0        5.976746   -2.646317   -2.839084
     49          1           0        3.973682   -2.942238   -1.435397
     50          1           0        3.549004   -2.888089    1.168311
     51          1           0        2.330152   -4.164526    2.850751
     52          1           0        0.333973   -4.479618    4.256283
     53          1           0       -1.562772   -2.899536    4.107354
     54          1           0       -1.484877   -1.000813    2.568309
     55          1           0       -2.775119    3.676180   -2.135649
     56          1           0       -4.235244    3.711072   -4.121359
     57          1           0       -5.529716    1.698958   -4.752919
     58          1           0       -5.396381   -0.337887   -3.403006
     59          1           0       -4.419745   -2.547351   -0.493307
     60          1           0       -5.518994   -1.855932   -1.723120
     61          1           0       -4.053862   -3.668420   -2.666584
     62          1           0       -2.581142   -2.754419   -2.156273
     63          1           0       -3.658342   -2.090519   -3.446393
     64          1           0       -3.353132    3.277229    0.500459
     65          1           0       -2.718134    4.259335    2.642055
     66          1           0       -1.246209    4.305698    4.614571
     67          1           0        0.601855    2.676743    4.834907
     68          1           0        0.991368    0.993644    3.106694
     69         29           0        0.508078    0.491771   -2.360229
 ---------------------------------------------------------------------
 Rotational constants (GHZ):           0.1090251           0.0642340           0.0586772
 Leave Link  202 at Fri Feb  7 11:15:28 2025, MaxMem= 13421772800 cpu:               0.1 elap:               0.0
 (Enter /public/software/apps/Gaussian/g16/l301.exe)
 Standard basis: def2SVPP (5D, 7F)
 Ernie: Thresh=  0.10000D-02 Tol=  0.10000D-05 Strict=F.
   640 basis functions,  1183 primitive gaussians,   682 cartesian basis functions
   153 alpha electrons      152 beta electrons
       nuclear repulsion energy      5313.8167158402 Hartrees.
 IExCor=  402 DFT=T Ex+Corr=B3LYP ExCW=0 ScaHFX=  0.200000
 ScaDFX=  0.800000  0.720000  1.000000  0.810000 ScalE2=  1.000000  1.000000
 IRadAn=      5 IRanWt=     -1 IRanGd=            0 ICorTp=0 IEmpDi=141
 NAtoms=   69 NActive=   69 NUniq=   69 SFac= 1.00D+00 NAtFMM=   60 NAOKFM=T Big=T
 Integral buffers will be    131072 words long.
 Raffenetti 2 integral format.
 Two-electron integral symmetry is turned off.
 R6Disp:  Grimme-D3(BJ) Dispersion energy=       -0.1854821618 Hartrees.
 Nuclear repulsion after empirical dispersion term =     5313.6312336785 Hartrees.
 Leave Link  301 at Fri Feb  7 11:15:28 2025, MaxMem= 13421772800 cpu:               1.5 elap:               0.1
 (Enter /public/software/apps/Gaussian/g16/l302.exe)
 NPDir=0 NMtPBC=     1 NCelOv=     1 NCel=       1 NClECP=     1 NCelD=      1
         NCelK=      1 NCelE2=     1 NClLst=     1 CellRange=     0.0.
 One-electron integrals computed using PRISM.
   1 Symmetry operations used in ECPInt.
 ECPInt:  NShTT=   46971 NPrTT=  193154 LenC2=   40070 LenP2D=  101775.
 LDataN:  DoStor=T MaxTD1= 4 Len=   56
 NBasis=   640 RedAO= T EigKep=  1.61D-04  NBF=   640
 NBsUse=   640 1.00D-06 EigRej= -1.00D+00 NBFU=   640
 Precomputing XC quadrature grid using
 IXCGrd= 4 IRadAn=           5 IRanWt=          -1 IRanGd=           0 AccXCQ= 0.00D+00.
 Generated NRdTot=       0 NPtTot=           0 NUsed=           0 NTot=          32
 NSgBfM=   668   667   668   668   668 MxSgAt=    69 MxSgA2=    69.
 Leave Link  302 at Fri Feb  7 11:15:29 2025, MaxMem= 13421772800 cpu:              24.9 elap:               0.8
 (Enter /public/software/apps/Gaussian/g16/l303.exe)
 DipDrv:  MaxL=1.
 Leave Link  303 at Fri Feb  7 11:15:29 2025, MaxMem= 13421772800 cpu:               3.2 elap:               0.1
 (Enter /public/software/apps/Gaussian/g16/l401.exe)
 ExpMin= 3.30D-02 ExpMax= 7.64D+04 ExpMxC= 1.15D+04 IAcc=3 IRadAn=         5 AccDes= 0.00D+00
 Harris functional with IExCor=  402 and IRadAn=       5 diagonalized for initial guess.
 HarFok:  IExCor=  402 AccDes= 0.00D+00 IRadAn=         5 IDoV= 1 UseB2=F ITyADJ=14
 ICtDFT=  3500011 ScaDFX=  1.000000  1.000000  1.000000  1.000000
 FoFCou: FMM=F IPFlag=           0 FMFlag=      100000 FMFlg1=        2001
         NFxFlg=           0 DoJE=T BraDBF=F KetDBF=T FulRan=T
         wScrn=  0.000000 ICntrl=       500 IOpCl=  0 I1Cent=   200000004 NGrid=           0
         NMat0=    1 NMatS0=      1 NMatT0=    0 NMatD0=    1 NMtDS0=    0 NMtDT0=    0
 Symmetry not used in FoFCou.
 Harris En= -3329.03332982670    
 JPrj=0 DoOrth=F DoCkMO=F.
 Initial guess <Sx>= 0.0000 <Sy>= 0.0000 <Sz>= 0.5000 <S**2>= 0.7500 S= 0.5000
 Leave Link  401 at Fri Feb  7 11:15:31 2025, MaxMem= 13421772800 cpu:              61.9 elap:               2.0
 (Enter /public/software/apps/Gaussian/g16/l502.exe)
 Two-electron integral symmetry not used.
 UHF open shell SCF:
 Using DIIS extrapolation, IDIIS=  1040.
 NGot= 13421772800 LenX= 13420813426 LenY= 13420347620
 Requested convergence on RMS density matrix=1.00D-08 within 128 cycles.
 Requested convergence on MAX density matrix=1.00D-06.
 Requested convergence on             energy=1.00D-06.
 No special actions if energy rises.
 Fock matrices will be formed incrementally for  20 cycles.

 Cycle   1  Pass 1  IDiag  1:
 FoFJK:  IHMeth= 1 ICntrl=       0 DoSepK=F KAlg= 0 I1Cent=           0 FoldK=F
 IRaf= 990000000 NMat=       1 IRICut=       1 DoRegI=T DoRafI=F ISym2E= 0 IDoP0=0 IntGTp=1.
 FoFCou: FMM=T IPFlag=           0 FMFlag=      100000 FMFlg1=        2001
         NFxFlg=           0 DoJE=F BraDBF=F KetDBF=F FulRan=T
         wScrn=  0.000000 ICntrl=         0 IOpCl=  1 I1Cent=           0 NGrid=           0
         NMat0=    1 NMatS0=      1 NMatT0=    0 NMatD0=    1 NMtDS0=    0 NMtDT0=    0
 Symmetry not used in FoFCou.
 FMM levels:  10  Number of levels for PrismC:   9
 E= -3312.31426610387    
 DIIS: error= 2.62D-01 at cycle   1 NSaved=   1.
 NSaved= 1 IEnMin= 1 EnMin= -3312.31426610387     IErMin= 1 ErrMin= 2.62D-01
 ErrMax= 2.62D-01  0.00D+00 EMaxC= 1.00D-01 BMatC= 7.44D+01 BMatP= 7.44D+01
 IDIUse=3 WtCom= 0.00D+00 WtEn= 1.00D+00
 Coeff-Com:  0.100D+01
 Coeff-En:   0.100D+01
 Coeff:      0.100D+01
 Gap=    -0.014 Goal=   None    Shift=    0.000
 Gap=     0.061 Goal=   None    Shift=    0.000
 GapD=   -0.014 DampG=0.250 DampE=0.125 DampFc=0.1250 IDamp=-1.
 Damping current iteration by 1.25D-01
 RMSDP=5.54D-02 MaxDP=8.47D+00              OVMax= 9.87D-01

 Cycle   2  Pass 1  IDiag  1:
 RMSU=  6.91D-03    CP:  1.02D+00
 E= -3317.81006907497     Delta-E=       -5.495802971096 Rises=F Damp=T
 DIIS: error= 1.74D-01 at cycle   2 NSaved=   2.
 NSaved= 2 IEnMin= 2 EnMin= -3317.81006907497     IErMin= 2 ErrMin= 1.74D-01
 ErrMax= 1.74D-01  0.00D+00 EMaxC= 1.00D-01 BMatC= 2.82D+01 BMatP= 7.44D+01
 IDIUse=3 WtCom= 0.00D+00 WtEn= 1.00D+00
 Coeff-Com: -0.123D+01 0.223D+01
 Coeff-En:   0.000D+00 0.100D+01
 Coeff:      0.000D+00 0.100D+01
 Gap=    -0.060 Goal=   None    Shift=    0.000
 Gap=     0.271 Goal=   None    Shift=    0.000
 RMSDP=1.54D-02 MaxDP=3.62D+00 DE=-5.50D+00 OVMax= 9.07D-01

 Cycle   3  Pass 1  IDiag  1:
 RMSU=  1.41D-02    CP:  9.50D-01  1.90D+00
 E= -3294.58802793809     Delta-E=       23.222041136883 Rises=F Damp=F
 DIIS: error= 2.29D-01 at cycle   3 NSaved=   3.
 NSaved= 3 IEnMin= 2 EnMin= -3317.81006907497     IErMin= 2 ErrMin= 1.74D-01
 ErrMax= 2.29D-01  0.00D+00 EMaxC= 1.00D-01 BMatC= 8.66D+01 BMatP= 2.82D+01
 IDIUse=2 WtCom= 0.00D+00 WtEn= 1.00D+00
 EnCoef did   100 forward-backward iterations
 Coeff-En:   0.616D+00 0.948D-02 0.375D+00
 Coeff:      0.616D+00 0.948D-02 0.375D+00
 Gap=    -0.177 Goal=   None    Shift=    0.000
 Gap=     0.519 Goal=   None    Shift=    0.000
 RMSDP=1.78D-02 MaxDP=2.68D+00 DE= 2.32D+01 OVMax= 9.90D-01

 Cycle   4  Pass 1  IDiag  1:
 RMSU=  7.94D-03    CP:  8.91D-01  2.99D-01  1.89D-01
 E= -3305.30217620529     Delta-E=      -10.714148267205 Rises=F Damp=F
 DIIS: error= 1.28D-01 at cycle   4 NSaved=   4.
 NSaved= 4 IEnMin= 2 EnMin= -3317.81006907497     IErMin= 4 ErrMin= 1.28D-01
 ErrMax= 1.28D-01  0.00D+00 EMaxC= 1.00D-01 BMatC= 4.67D+01 BMatP= 2.82D+01
 IDIUse=2 WtCom= 0.00D+00 WtEn= 1.00D+00
 EnCoef did   100 forward-backward iterations
 Coeff-En:   0.524D+00 0.629D-02 0.247D+00 0.222D+00
 Coeff:      0.524D+00 0.629D-02 0.247D+00 0.222D+00
 Gap=     0.156 Goal=   None    Shift=    0.000
 Gap=    -0.424 Goal=   None    Shift=    0.000
 RMSDP=8.79D-03 MaxDP=1.60D+00 DE=-1.07D+01 OVMax= 8.53D-01

 Cycle   5  Pass 1  IDiag  1:
 RMSU=  5.79D-03    CP:  8.90D-01  7.51D-02  1.61D-01  1.91D-01
 E= -3321.78718884028     Delta-E=      -16.485012634987 Rises=F Damp=F
 DIIS: error= 1.11D-01 at cycle   5 NSaved=   5.
 NSaved= 5 IEnMin= 5 EnMin= -3321.78718884028     IErMin= 5 ErrMin= 1.11D-01
 ErrMax= 1.11D-01  0.00D+00 EMaxC= 1.00D-01 BMatC= 1.73D+01 BMatP= 2.82D+01
 IDIUse=3 WtCom= 0.00D+00 WtEn= 1.00D+00
 EnCoef did   100 forward-backward iterations
 Coeff-Com: -0.722D+00 0.133D+01-0.858D-02 0.103D-01 0.387D+00
 Coeff-En:   0.237D+00 0.103D-01 0.000D+00 0.240D+00 0.513D+00
 Coeff:      0.237D+00 0.103D-01 0.000D+00 0.240D+00 0.513D+00
 Gap=     0.035 Goal=   None    Shift=    0.000
 Gap=    -0.156 Goal=   None    Shift=    0.000
 RMSDP=6.43D-03 MaxDP=5.26D-01 DE=-1.65D+01 OVMax= 9.83D-01

 Cycle   6  Pass 1  IDiag  1:
 RMSU=  4.41D-03    CP:  8.98D-01  1.06D-01  1.18D-01  4.05D-01  2.56D-01
 E= -3322.94346216905     Delta-E=       -1.156273328777 Rises=F Damp=F
 DIIS: error= 4.46D-02 at cycle   6 NSaved=   6.
 NSaved= 6 IEnMin= 6 EnMin= -3322.94346216905     IErMin= 6 ErrMin= 4.46D-02
 ErrMax= 4.46D-02  0.00D+00 EMaxC= 1.00D-01 BMatC= 1.01D+01 BMatP= 1.73D+01
 IDIUse=3 WtCom= 5.54D-01 WtEn= 4.46D-01
 EnCoef did   100 forward-backward iterations
 Coeff-Com: -0.493D+00 0.933D+00-0.241D-01-0.354D-01 0.340D+00 0.280D+00
 Coeff-En:   0.161D+00 0.693D-02 0.000D+00 0.392D-04 0.378D+00 0.454D+00
 Coeff:     -0.201D+00 0.520D+00-0.133D-01-0.196D-01 0.357D+00 0.358D+00
 Gap=    -0.316 Goal=   None    Shift=    0.000
 Gap=     0.101 Goal=   None    Shift=    0.000
 RMSDP=6.35D-03 MaxDP=9.87D-01 DE=-1.16D+00 OVMax= 8.24D-01

 Cycle   7  Pass 1  IDiag  1:
 RMSU=  4.50D-03    CP:  8.94D-01  2.99D-04  7.39D-02  2.71D-01  4.27D-01
                    CP:  6.45D-02
 E= -3324.51356033905     Delta-E=       -1.570098169996 Rises=F Damp=F
 DIIS: error= 6.24D-02 at cycle   7 NSaved=   7.
 NSaved= 7 IEnMin= 7 EnMin= -3324.51356033905     IErMin= 6 ErrMin= 4.46D-02
 ErrMax= 6.24D-02  0.00D+00 EMaxC= 1.00D-01 BMatC= 1.18D+01 BMatP= 1.01D+01
 IDIUse=2 WtCom= 0.00D+00 WtEn= 1.00D+00
 EnCoef did   100 forward-backward iterations
 Coeff-En:   0.122D+00 0.363D-02 0.000D+00 0.000D+00 0.244D+00 0.381D+00
 Coeff-En:   0.250D+00
 Coeff:      0.122D+00 0.363D-02 0.000D+00 0.000D+00 0.244D+00 0.381D+00
 Coeff:      0.250D+00
 Gap=    -0.089 Goal=   None    Shift=    0.000
 Gap=     0.015 Goal=   None    Shift=    0.000
 RMSDP=4.65D-03 MaxDP=4.83D-01 DE=-1.57D+00 OVMax= 4.79D-01

 Cycle   8  Pass 1  IDiag  1:
 RMSU=  3.41D-03    CP:  8.91D-01  3.19D-02  5.31D-02  2.33D-01  3.41D-01
                    CP:  2.20D-01  3.31D-01
 E= -3327.29759933860     Delta-E=       -2.784038999547 Rises=F Damp=F
 DIIS: error= 3.11D-02 at cycle   8 NSaved=   8.
 NSaved= 8 IEnMin= 8 EnMin= -3327.29759933860     IErMin= 8 ErrMin= 3.11D-02
 ErrMax= 3.11D-02  0.00D+00 EMaxC= 1.00D-01 BMatC= 5.12D+00 BMatP= 1.01D+01
 IDIUse=3 WtCom= 6.89D-01 WtEn= 3.11D-01
 EnCoef did     7 forward-backward iterations
 Coeff-Com: -0.160D+00 0.340D+00-0.638D-02-0.674D-01 0.141D+00 0.266D+00
 Coeff-Com:  0.194D+00 0.293D+00
 Coeff-En:   0.509D-01 0.000D+00 0.000D+00 0.000D+00 0.172D-01 0.141D+00
 Coeff-En:   0.233D+00 0.558D+00
 Coeff:     -0.942D-01 0.234D+00-0.440D-02-0.464D-01 0.102D+00 0.227D+00
 Coeff:      0.206D+00 0.375D+00
 Gap=     0.312 Goal=   None    Shift=    0.000
 Gap=    -0.062 Goal=   None    Shift=    0.000
 RMSDP=3.93D-03 MaxDP=2.86D-01 DE=-2.78D+00 OVMax= 4.74D-01

 Cycle   9  Pass 1  IDiag  1:
 RMSU=  2.54D-03    CP:  8.92D-01 -1.90D-02  8.16D-02  1.96D-01  5.16D-01
                    CP:  3.51D-01  2.92D-01  2.10D-01
 E= -3328.11156301620     Delta-E=       -0.813963677600 Rises=F Damp=F
 DIIS: error= 2.59D-02 at cycle   9 NSaved=   9.
 NSaved= 9 IEnMin= 9 EnMin= -3328.11156301620     IErMin= 9 ErrMin= 2.59D-02
 ErrMax= 2.59D-02  0.00D+00 EMaxC= 1.00D-01 BMatC= 2.24D+00 BMatP= 5.12D+00
 IDIUse=3 WtCom= 7.41D-01 WtEn= 2.59D-01
 Coeff-Com: -0.192D+00 0.356D+00-0.106D-02-0.262D-01 0.187D-01 0.771D-01
 Coeff-Com:  0.103D+00 0.226D+00 0.439D+00
 Coeff-En:   0.000D+00 0.000D+00 0.000D+00 0.000D+00 0.000D+00 0.000D+00
 Coeff-En:   0.000D+00 0.348D+00 0.652D+00
 Coeff:     -0.142D+00 0.263D+00-0.787D-03-0.194D-01 0.139D-01 0.571D-01
 Coeff:      0.763D-01 0.258D+00 0.494D+00
 Gap=     0.195 Goal=   None    Shift=    0.000
 Gap=     0.057 Goal=   None    Shift=    0.000
 RMSDP=2.42D-03 MaxDP=2.76D-01 DE=-8.14D-01 OVMax= 3.53D-01

 Cycle  10  Pass 1  IDiag  1:
 RMSU=  1.81D-03    CP:  8.88D-01 -8.98D-03  7.08D-02  2.37D-01  4.49D-01
                    CP:  3.08D-01  3.17D-01  4.08D-01  4.77D-01
 E= -3328.50087264639     Delta-E=       -0.389309630191 Rises=F Damp=F
 DIIS: error= 2.39D-02 at cycle  10 NSaved=  10.
 NSaved=10 IEnMin=10 EnMin= -3328.50087264639     IErMin=10 ErrMin= 2.39D-02
 ErrMax= 2.39D-02  0.00D+00 EMaxC= 1.00D-01 BMatC= 1.33D+00 BMatP= 2.24D+00
 IDIUse=3 WtCom= 7.61D-01 WtEn= 2.39D-01
 EnCoef did     4 forward-backward iterations
 Coeff-Com: -0.798D-01 0.158D+00 0.253D-02-0.242D-01-0.363D-01 0.377D-01
 Coeff-Com:  0.128D-01 0.200D+00 0.359D+00 0.370D+00
 Coeff-En:   0.000D+00 0.000D+00 0.000D+00 0.000D+00 0.000D+00 0.000D+00
 Coeff-En:   0.000D+00 0.142D+00 0.293D+00 0.564D+00
 Coeff:     -0.608D-01 0.120D+00 0.193D-02-0.185D-01-0.277D-01 0.287D-01
 Coeff:      0.977D-02 0.186D+00 0.343D+00 0.416D+00
 Gap=     0.165 Goal=   None    Shift=    0.000
 Gap=     0.075 Goal=   None    Shift=    0.000
 RMSDP=1.64D-03 MaxDP=1.76D-01 DE=-3.89D-01 OVMax= 5.09D-01

 Cycle  11  Pass 1  IDiag  1:
 RMSU=  9.77D-04    CP:  8.89D-01 -6.17D-03  7.25D-02  2.23D-01  4.23D-01
                    CP:  3.26D-01  3.27D-01  4.73D-01  5.53D-01  3.04D-01
 E= -3328.75423826039     Delta-E=       -0.253365614000 Rises=F Damp=F
 DIIS: error= 8.87D-03 at cycle  11 NSaved=  11.
 NSaved=11 IEnMin=11 EnMin= -3328.75423826039     IErMin=11 ErrMin= 8.87D-03
 ErrMax= 8.87D-03  0.00D+00 EMaxC= 1.00D-01 BMatC= 1.85D-01 BMatP= 1.33D+00
 IDIUse=3 WtCom= 9.11D-01 WtEn= 8.87D-02
 Coeff-Com: -0.260D-01 0.480D-01 0.396D-04-0.508D-02-0.417D-02 0.131D-01
 Coeff-Com: -0.208D-01 0.286D-02 0.182D-01 0.282D+00 0.691D+00
 Coeff-En:   0.000D+00 0.000D+00 0.000D+00 0.000D+00 0.000D+00 0.000D+00
 Coeff-En:   0.000D+00 0.000D+00 0.000D+00 0.180D+00 0.820D+00
 Coeff:     -0.237D-01 0.437D-01 0.361D-04-0.463D-02-0.380D-02 0.120D-01
 Coeff:     -0.190D-01 0.260D-02 0.166D-01 0.273D+00 0.703D+00
 Gap=     0.131 Goal=   None    Shift=    0.000
 Gap=     0.030 Goal=   None    Shift=    0.000
 RMSDP=8.12D-04 MaxDP=9.63D-02 DE=-2.53D-01 OVMax= 2.45D-01

 Cycle  12  Pass 1  IDiag  1:
 RMSU=  4.93D-04    CP:  8.88D-01 -1.16D-02  7.53D-02  2.30D-01  4.23D-01
                    CP:  3.28D-01  3.05D-01  4.43D-01  5.02D-01  5.87D-01
                    CP:  6.59D-01
 E= -3328.77809940842     Delta-E=       -0.023861148034 Rises=F Damp=F
 DIIS: error= 5.63D-03 at cycle  12 NSaved=  12.
 NSaved=12 IEnMin=12 EnMin= -3328.77809940842     IErMin=12 ErrMin= 5.63D-03
 ErrMax= 5.63D-03  0.00D+00 EMaxC= 1.00D-01 BMatC= 8.90D-02 BMatP= 1.85D-01
 IDIUse=3 WtCom= 9.44D-01 WtEn= 5.63D-02
 Coeff-Com: -0.439D-03 0.215D-02 0.360D-03-0.286D-02-0.406D-02 0.106D-01
 Coeff-Com: -0.104D-01-0.116D-01-0.398D-01 0.834D-01 0.497D+00 0.476D+00
 Coeff-En:   0.000D+00 0.000D+00 0.000D+00 0.000D+00 0.000D+00 0.000D+00
 Coeff-En:   0.000D+00 0.000D+00 0.000D+00 0.000D+00 0.356D+00 0.644D+00
 Coeff:     -0.414D-03 0.203D-02 0.339D-03-0.270D-02-0.384D-02 0.100D-01
 Coeff:     -0.979D-02-0.110D-01-0.375D-01 0.787D-01 0.489D+00 0.485D+00
 Gap=     0.122 Goal=   None    Shift=    0.000
 Gap=     0.042 Goal=   None    Shift=    0.000
 RMSDP=4.05D-04 MaxDP=4.97D-02 DE=-2.39D-02 OVMax= 1.29D-01

 Cycle  13  Pass 1  IDiag  1:
 RMSU=  2.28D-04    CP:  8.89D-01 -6.15D-03  7.37D-02  2.29D-01  4.19D-01
                    CP:  3.33D-01  3.03D-01  4.61D-01  5.03D-01  5.08D-01
                    CP:  8.50D-01  5.50D-01
 E= -3328.79774633991     Delta-E=       -0.019646931492 Rises=F Damp=F
 DIIS: error= 2.45D-03 at cycle  13 NSaved=  13.
 NSaved=13 IEnMin=13 EnMin= -3328.79774633991     IErMin=13 ErrMin= 2.45D-03
 ErrMax= 2.45D-03  0.00D+00 EMaxC= 1.00D-01 BMatC= 9.90D-03 BMatP= 8.90D-02
 IDIUse=3 WtCom= 9.76D-01 WtEn= 2.45D-02
 Coeff-Com: -0.390D-02 0.544D-02 0.177D-03 0.845D-03 0.211D-02 0.631D-02
 Coeff-Com: -0.148D-02-0.294D-02-0.718D-02-0.770D-03 0.187D+00 0.287D+00
 Coeff-Com:  0.528D+00
 Coeff-En:   0.000D+00 0.000D+00 0.000D+00 0.000D+00 0.000D+00 0.000D+00
 Coeff-En:   0.000D+00 0.000D+00 0.000D+00 0.000D+00 0.000D+00 0.210D-01
 Coeff-En:   0.979D+00
 Coeff:     -0.380D-02 0.531D-02 0.173D-03 0.824D-03 0.206D-02 0.616D-02
 Coeff:     -0.144D-02-0.287D-02-0.700D-02-0.751D-03 0.182D+00 0.281D+00
 Coeff:      0.539D+00
 Gap=     0.115 Goal=   None    Shift=    0.000
 Gap=     0.043 Goal=   None    Shift=    0.000
 RMSDP=1.35D-04 MaxDP=1.11D-02 DE=-1.96D-02 OVMax= 2.01D-02

 Cycle  14  Pass 1  IDiag  1:
 RMSU=  1.04D-04    CP:  8.89D-01 -7.00D-03  7.49D-02  2.29D-01  4.19D-01
                    CP:  3.36D-01  3.03D-01  4.55D-01  5.02D-01  4.90D-01
                    CP:  8.63D-01  6.48D-01  7.64D-01
 E= -3328.79998766779     Delta-E=       -0.002241327880 Rises=F Damp=F
 DIIS: error= 4.56D-04 at cycle  14 NSaved=  14.
 NSaved=14 IEnMin=14 EnMin= -3328.79998766779     IErMin=14 ErrMin= 4.56D-04
 ErrMax= 4.56D-04  0.00D+00 EMaxC= 1.00D-01 BMatC= 1.11D-03 BMatP= 9.90D-03
 IDIUse=3 WtCom= 9.95D-01 WtEn= 4.56D-03
 Coeff-Com: -0.183D-02 0.195D-02 0.197D-03 0.112D-02 0.156D-02 0.276D-02
 Coeff-Com:  0.617D-03 0.985D-03-0.154D-03-0.943D-02 0.410D-01 0.109D+00
 Coeff-Com:  0.296D+00 0.556D+00
 Coeff-En:   0.000D+00 0.000D+00 0.000D+00 0.000D+00 0.000D+00 0.000D+00
 Coeff-En:   0.000D+00 0.000D+00 0.000D+00 0.000D+00 0.000D+00 0.000D+00
 Coeff-En:   0.000D+00 0.100D+01
 Coeff:     -0.183D-02 0.194D-02 0.196D-03 0.111D-02 0.155D-02 0.275D-02
 Coeff:      0.614D-03 0.981D-03-0.154D-03-0.939D-02 0.408D-01 0.109D+00
 Coeff:      0.295D+00 0.558D+00
 Gap=     0.114 Goal=   None    Shift=    0.000
 Gap=     0.044 Goal=   None    Shift=    0.000
 RMSDP=6.75D-05 MaxDP=8.63D-03 DE=-2.24D-03 OVMax= 2.25D-02

 Cycle  15  Pass 1  IDiag  1:
 RMSU=  5.07D-05    CP:  8.89D-01 -6.41D-03  7.50D-02  2.30D-01  4.20D-01
                    CP:  3.37D-01  3.01D-01  4.56D-01  5.00D-01  4.85D-01
                    CP:  8.67D-01  6.62D-01  9.38D-01  9.26D-01
 E= -3328.80031607423     Delta-E=       -0.000328406433 Rises=F Damp=F
 DIIS: error= 5.31D-04 at cycle  15 NSaved=  15.
 NSaved=15 IEnMin=15 EnMin= -3328.80031607423     IErMin=14 ErrMin= 4.56D-04
 ErrMax= 5.31D-04  0.00D+00 EMaxC= 1.00D-01 BMatC= 6.00D-04 BMatP= 1.11D-03
 IDIUse=3 WtCom= 9.95D-01 WtEn= 4.56D-03
 Coeff-Com: -0.953D-03 0.117D-02 0.942D-04 0.542D-03 0.194D-03 0.240D-04
 Coeff-Com:  0.928D-03 0.628D-03-0.405D-03 0.366D-02-0.197D-01-0.454D-02
 Coeff-Com: -0.382D-01 0.337D+00 0.719D+00
 Coeff-En:   0.000D+00 0.000D+00 0.000D+00 0.000D+00 0.000D+00 0.000D+00
 Coeff-En:   0.000D+00 0.000D+00 0.000D+00 0.000D+00 0.000D+00 0.000D+00
 Coeff-En:   0.000D+00 0.437D-01 0.956D+00
 Coeff:     -0.949D-03 0.116D-02 0.938D-04 0.539D-03 0.193D-03 0.239D-04
 Coeff:      0.923D-03 0.625D-03-0.403D-03 0.364D-02-0.196D-01-0.452D-02
 Coeff:     -0.380D-01 0.336D+00 0.720D+00
 Gap=     0.113 Goal=   None    Shift=    0.000
 Gap=     0.044 Goal=   None    Shift=    0.000
 RMSDP=5.70D-05 MaxDP=7.50D-03 DE=-3.28D-04 OVMax= 1.56D-02

 Cycle  16  Pass 1  IDiag  1:
 RMSU=  3.82D-05    CP:  8.89D-01 -6.43D-03  7.53D-02  2.31D-01  4.19D-01
                    CP:  3.37D-01  3.01D-01  4.56D-01  4.95D-01  4.86D-01
                    CP:  8.68D-01  6.87D-01  9.56D-01  1.27D+00  1.14D+00
 E= -3328.80052981328     Delta-E=       -0.000213739057 Rises=F Damp=F
 DIIS: error= 2.61D-04 at cycle  16 NSaved=  16.
 NSaved=16 IEnMin=16 EnMin= -3328.80052981328     IErMin=16 ErrMin= 2.61D-04
 ErrMax= 2.61D-04  0.00D+00 EMaxC= 1.00D-01 BMatC= 2.68D-04 BMatP= 6.00D-04
 IDIUse=3 WtCom= 9.97D-01 WtEn= 2.61D-03
 Coeff-Com: -0.426D-04 0.831D-04 0.344D-04-0.216D-04-0.392D-03-0.601D-03
 Coeff-Com:  0.639D-03-0.335D-03-0.176D-02 0.379D-02-0.191D-01-0.817D-02
 Coeff-Com: -0.548D-01 0.147D+00 0.488D+00 0.446D+00
 Coeff-En:   0.000D+00 0.000D+00 0.000D+00 0.000D+00 0.000D+00 0.000D+00
 Coeff-En:   0.000D+00 0.000D+00 0.000D+00 0.000D+00 0.000D+00 0.000D+00
 Coeff-En:   0.000D+00 0.000D+00 0.000D+00 0.100D+01
 Coeff:     -0.425D-04 0.829D-04 0.344D-04-0.216D-04-0.391D-03-0.599D-03
 Coeff:      0.637D-03-0.334D-03-0.175D-02 0.378D-02-0.191D-01-0.815D-02
 Coeff:     -0.547D-01 0.146D+00 0.487D+00 0.447D+00
 Gap=     0.114 Goal=   None    Shift=    0.000
 Gap=     0.045 Goal=   None    Shift=    0.000
 RMSDP=2.38D-05 MaxDP=1.79D-03 DE=-2.14D-04 OVMax= 5.43D-03

 Cycle  17  Pass 1  IDiag  1:
 RMSU=  1.65D-05    CP:  8.89D-01 -6.41D-03  7.53D-02  2.31D-01  4.19D-01
                    CP:  3.37D-01  3.01D-01  4.56D-01  4.93D-01  4.89D-01
                    CP:  8.66D-01  6.92D-01  9.82D-01  1.35D+00  1.37D+00
                    CP:  9.99D-01
 E= -3328.80061329176     Delta-E=       -0.000083478475 Rises=F Damp=F
 DIIS: error= 2.12D-04 at cycle  17 NSaved=  17.
 NSaved=17 IEnMin=17 EnMin= -3328.80061329176     IErMin=17 ErrMin= 2.12D-04
 ErrMax= 2.12D-04  0.00D+00 EMaxC= 1.00D-01 BMatC= 8.19D-05 BMatP= 2.68D-04
 IDIUse=3 WtCom= 9.98D-01 WtEn= 2.12D-03
 Coeff-Com:  0.954D-04-0.559D-04-0.139D-05-0.897D-04-0.209D-03-0.424D-03
 Coeff-Com:  0.252D-03-0.746D-03-0.438D-03-0.667D-03-0.559D-02 0.107D-01
 Coeff-Com:  0.343D-01 0.661D-01 0.820D-01 0.596D-01 0.755D+00
 Coeff-En:   0.000D+00 0.000D+00 0.000D+00 0.000D+00 0.000D+00 0.000D+00
 Coeff-En:   0.000D+00 0.000D+00 0.000D+00 0.000D+00 0.000D+00 0.000D+00
 Coeff-En:   0.000D+00 0.000D+00 0.000D+00 0.000D+00 0.100D+01
 Coeff:      0.952D-04-0.558D-04-0.139D-05-0.895D-04-0.209D-03-0.423D-03
 Coeff:      0.252D-03-0.744D-03-0.437D-03-0.665D-03-0.558D-02 0.107D-01
 Coeff:      0.342D-01 0.660D-01 0.818D-01 0.595D-01 0.756D+00
 Gap=     0.115 Goal=   None    Shift=    0.000
 Gap=     0.045 Goal=   None    Shift=    0.000
 RMSDP=1.57D-05 MaxDP=1.27D-03 DE=-8.35D-05 OVMax= 4.15D-03

 Cycle  18  Pass 1  IDiag  1:
 RMSU=  9.99D-06    CP:  8.89D-01 -6.51D-03  7.52D-02  2.31D-01  4.19D-01
                    CP:  3.37D-01  3.01D-01  4.55D-01  4.94D-01  4.90D-01
                    CP:  8.64D-01  6.92D-01  9.97D-01  1.39D+00  1.46D+00
                    CP:  1.18D+00  1.29D+00
 E= -3328.80064783997     Delta-E=       -0.000034548211 Rises=F Damp=F
 DIIS: error= 1.17D-04 at cycle  18 NSaved=  18.
 NSaved=18 IEnMin=18 EnMin= -3328.80064783997     IErMin=18 ErrMin= 1.17D-04
 ErrMax= 1.17D-04  0.00D+00 EMaxC= 1.00D-01 BMatC= 3.37D-05 BMatP= 8.19D-05
 IDIUse=3 WtCom= 9.99D-01 WtEn= 1.17D-03
 Coeff-Com:  0.354D-04 0.693D-05-0.103D-04-0.113D-03 0.187D-03-0.179D-03
 Coeff-Com:  0.147D-03-0.472D-03 0.917D-03-0.200D-02 0.612D-02 0.123D-01
 Coeff-Com:  0.658D-01-0.192D-01-0.208D+00-0.342D+00 0.430D+00 0.106D+01
 Coeff-En:   0.000D+00 0.000D+00 0.000D+00 0.000D+00 0.000D+00 0.000D+00
 Coeff-En:   0.000D+00 0.000D+00 0.000D+00 0.000D+00 0.000D+00 0.000D+00
 Coeff-En:   0.000D+00 0.000D+00 0.000D+00 0.000D+00 0.000D+00 0.100D+01
 Coeff:      0.354D-04 0.693D-05-0.102D-04-0.113D-03 0.187D-03-0.178D-03
 Coeff:      0.147D-03-0.472D-03 0.916D-03-0.200D-02 0.611D-02 0.123D-01
 Coeff:      0.657D-01-0.192D-01-0.208D+00-0.341D+00 0.429D+00 0.106D+01
 Gap=     0.116 Goal=   None    Shift=    0.000
 Gap=     0.045 Goal=   None    Shift=    0.000
 RMSDP=2.73D-05 MaxDP=2.12D-03 DE=-3.45D-05 OVMax= 1.11D-02

 Cycle  19  Pass 1  IDiag  1:
 RMSU=  8.56D-06    CP:  8.89D-01 -6.59D-03  7.52D-02  2.31D-01  4.19D-01
                    CP:  3.37D-01  3.01D-01  4.55D-01  4.94D-01  4.91D-01
                    CP:  8.62D-01  6.90D-01  1.03D+00  1.48D+00  1.72D+00
                    CP:  1.49D+00  2.08D+00  1.57D+00
 E= -3328.80068534339     Delta-E=       -0.000037503418 Rises=F Damp=F
 DIIS: error= 6.52D-05 at cycle  19 NSaved=  19.
 NSaved=19 IEnMin=19 EnMin= -3328.80068534339     IErMin=19 ErrMin= 6.52D-05
 ErrMax= 6.52D-05  0.00D+00 EMaxC= 1.00D-01 BMatC= 1.87D-05 BMatP= 3.37D-05
 IDIUse=1 WtCom= 1.00D+00 WtEn= 0.00D+00
 Coeff-Com:  0.500D-04-0.103D-03 0.792D-05-0.481D-04 0.347D-03-0.920D-04
 Coeff-Com:  0.465D-04-0.358D-03 0.594D-03 0.454D-03 0.896D-02 0.332D-02
 Coeff-Com:  0.250D-01-0.520D-01-0.185D+00-0.296D+00-0.853D-01 0.826D+00
 Coeff-Com:  0.753D+00
 Coeff:      0.500D-04-0.103D-03 0.792D-05-0.481D-04 0.347D-03-0.920D-04
 Coeff:      0.465D-04-0.358D-03 0.594D-03 0.454D-03 0.896D-02 0.332D-02
 Coeff:      0.250D-01-0.520D-01-0.185D+00-0.296D+00-0.853D-01 0.826D+00
 Coeff:      0.753D+00
 Gap=     0.116 Goal=   None    Shift=    0.000
 Gap=     0.045 Goal=   None    Shift=    0.000
 RMSDP=2.32D-05 MaxDP=1.88D-03 DE=-3.75D-05 OVMax= 9.17D-03

 Cycle  20  Pass 1  IDiag  1:
 RMSU=  4.88D-06    CP:  8.89D-01 -6.62D-03  7.51D-02  2.31D-01  4.19D-01
                    CP:  3.37D-01  3.01D-01  4.55D-01  4.93D-01  4.92D-01
                    CP:  8.61D-01  6.88D-01  1.05D+00  1.58D+00  1.93D+00
                    CP:  1.78D+00  2.67D+00  2.29D+00  1.15D+00
 E= -3328.80070382835     Delta-E=       -0.000018484961 Rises=F Damp=F
 DIIS: error= 7.87D-05 at cycle  20 NSaved=  20.
 NSaved=20 IEnMin=20 EnMin= -3328.80070382835     IErMin=19 ErrMin= 6.52D-05
 ErrMax= 7.87D-05  0.00D+00 EMaxC= 1.00D-01 BMatC= 8.81D-06 BMatP= 1.87D-05
 IDIUse=1 WtCom= 1.00D+00 WtEn= 0.00D+00
 Coeff-Com:  0.282D-04-0.805D-04 0.116D-04-0.426D-04 0.265D-03-0.491D-04
 Coeff-Com:  0.411D-04-0.244D-03 0.122D-03 0.122D-02 0.514D-02 0.197D-02
 Coeff-Com:  0.853D-03-0.310D-01-0.816D-01-0.980D-01-0.910D-01 0.257D+00
 Coeff-Com:  0.327D+00 0.708D+00
 Coeff:      0.282D-04-0.805D-04 0.116D-04-0.426D-04 0.265D-03-0.491D-04
 Coeff:      0.411D-04-0.244D-03 0.122D-03 0.122D-02 0.514D-02 0.197D-02
 Coeff:      0.853D-03-0.310D-01-0.816D-01-0.980D-01-0.910D-01 0.257D+00
 Coeff:      0.327D+00 0.708D+00
 Gap=     0.116 Goal=   None    Shift=    0.000
 Gap=     0.045 Goal=   None    Shift=    0.000
 RMSDP=9.54D-06 MaxDP=7.78D-04 DE=-1.85D-05 OVMax= 3.92D-03

 Cycle  21  Pass 1  IDiag  1:
 Restarting incremental Fock formation.
 E= -3328.80070826280     Delta-E=       -0.000004434451 Rises=F Damp=F
 DIIS: error= 5.04D-05 at cycle  21 NSaved=  20.
 NSaved=20 IEnMin=20 EnMin= -3328.80070826280     IErMin=20 ErrMin= 5.04D-05
 ErrMax= 5.04D-05  0.00D+00 EMaxC= 1.00D-01 BMatC= 4.20D-06 BMatP= 8.81D-06
 IDIUse=1 WtCom= 1.00D+00 WtEn= 0.00D+00
 Coeff-Com:  0.147D-04-0.399D-04-0.244D-04 0.710D-04 0.368D-05-0.911D-05
 Coeff-Com: -0.476D-04-0.877D-04 0.684D-03-0.463D-03 0.363D-02-0.689D-02
 Coeff-Com:  0.802D-02 0.200D-01 0.863D-01 0.510D-01-0.244D+00-0.309D+00
 Coeff-Com:  0.455D+00 0.936D+00
 Coeff:      0.147D-04-0.399D-04-0.244D-04 0.710D-04 0.368D-05-0.911D-05
 Coeff:     -0.476D-04-0.877D-04 0.684D-03-0.463D-03 0.363D-02-0.689D-02
[...]
 23,0.00000065,0.00000089,-0.00000032,-0.00000005,-0.00000010,0.0000004
 6,-0.00002576,0.00002497,-0.00005849,0.00071212,0.00012810,0.00073563,
 -0.00202752,-0.00050983,0.00084873,-0.01059597,0.04478868,-0.00016611,
 0.00004594,-0.00027112,0.00011462,-0.00023852,-0.00017241,-0.00005237,
 0.00026373,0.00031604,0.00002374,-0.00021170,-0.00008775,-0.00002176,0
 .00003147,0.00003595,0.00001167,-0.00001779,-0.00001259,0.00001170,0.0
 0002210,0.00000505,0.00001122,0.00002141,0.00000050,-0.00003396,0.0000
 1923,0.00002209,-0.00016245,0.00018574,0.00005883,-0.00011684,-0.00011
 920,0.00016243,0.00012877,0.00004432,-0.00009083,-0.00013939,-0.000066
 76,0.00012607,0.00011124,-0.00006782,-0.00000018,0.00001339,0.00003330
 ,-0.00003335,0.00000793,-0.00002260,0.00003761,0.00003727,0.00010567,0
 .00004270,0.00022876,-0.00017986,-0.00013515,-0.00046572,0.00025980,0.
 00002191,-0.00011586,-0.00015375,-0.00079580,-0.00005844,0.00020915,0.
 00027490,-0.00001548,0.00001284,-0.00004031,-0.00000437,-0.00000265,0.
 00002346,-0.00000298,-0.00000165,-0.00000492,0.00000188,0.00000102,-0.
 00000038,-0.00000046,-0.00000103,0.00000212,-0.00000380,-0.00000090,-0
 .00000442,0.00000161,-0.00000559,-0.00000170,-0.00000180,0.00000253,-0
 .00001338,-0.00000596,-0.00000871,0.00000576,-0.00000511,0.00001051,-0
 .00000060,0.00016728,0.00025758,-0.00021696,0.00072572,0.00000653,0.00
 025817,-0.00138318,-0.00117405,0.00216273,0.00101570,-0.00172994,0.002
 29398,-0.14155188,-0.00773769,-0.22354480,-0.01537727,0.00114214,-0.01
 363074,-0.00065772,-0.00558274,0.00049190,-0.00040975,-0.00017756,0.00
 014472,0.00028245,0.00036449,-0.00026794,-0.00001654,0.00001425,0.0000
 6930,0.00015572,0.00000090,0.00014753,0.00000549,-0.00002478,-0.000047
 83,-0.00002617,0.00001700,-0.00000620,0.00000366,0.00003153,0.00002443
 ,0.00000741,0.00000468,-0.00000954,0.00000083,0.00000283,-0.00000181,0
 .00000303,-0.00000069,-0.00000423,-0.00000408,0.00001050,0.00000584,0.
 00000388,-0.00002487,-0.00000026,0.00000799,-0.00001305,-0.00000214,-0
 .00000201,-0.00000777,0.00000330,-0.00001446,-0.00000520,0.00000553,-0
 .00000373,0.00000890,0.00001049,-0.00000022,-0.00000197,0.00000255,-0.
 00000047,0.00000064,-0.00000158,-0.00000029,-0.00000039,-0.00000118,-0
 .00000010,-0.00000054,-0.00000037,0.00000277,0.00000172,-0.00000133,-0
 .00000145,0.00000052,-0.00000152,0.00000502,0.00000087,0.00000301,0.00
 000473,-0.00001062,0.00000153,-0.00000084,-0.00000034,-0.00000248,-0.0
 0003868,-0.00001483,0.00000290,0.00001201,-0.00017036,0.00003355,0.000
 84485,0.00140960,-0.00024660,0.15502037,0.01139800,0.23318618,-0.00006
 450,-0.00021618,0.00021850,-0.00013961,-0.00022525,0.00017952,0.000161
 06,-0.00008529,-0.00019741,-0.00008634,0.00017023,0.00009336,0.0000145
 8,-0.00002601,-0.00002737,-0.00000416,0.00001036,0.00000495,0.00000411
 ,-0.00001313,-0.00000615,-0.00000637,0.00001837,0.00001111,-0.00001605
 ,-0.00003128,-0.00002091,-0.00009380,0.00024474,0.00007279,-0.00033569
 ,-0.00011810,0.00016116,0.00044117,-0.00008649,-0.00006473,-0.00028107
 ,-0.00007332,0.00013424,0.00013855,-0.00013653,0.00001154,0.00007154,-
 0.00001248,0.00007831,-0.00011409,-0.00010719,0.00018675,0.00012829,0.
 00006501,0.00045387,0.00105199,0.00050510,0.00016418,-0.00051085,-0.00
 020511,0.00231783,-0.00059400,-0.00057790,-0.00077558,0.00005897,0.000
 54322,0.00085652,-0.00027731,0.00036580,0.00004585,0.00002312,-0.00002
 760,-0.00002114,-0.00000821,0.00001327,-0.00001791,0.00000454,-0.00000
 049,0.00001242,-0.00000313,-0.00000394,-0.00000258,-0.00000179,-0.0000
 0689,0.00000380,-0.00001783,0.00005759,-0.00004301,0.00002005,-0.00003
 901,0.00003071,-0.00002188,-0.00001252,0.00000167,-0.00001966,0.000018
 13,-0.00000433,-0.00059853,0.00062777,-0.00009832,0.00098921,0.0007817
 6,-0.00390964,-0.00017235,-0.00097185,-0.00072578,0.00443629,0.0024569
 8,-0.00132961,0.00166840,0.00153923,-0.00162665,-0.20392709,0.14792076
 ,-0.02130675,-0.01041049,0.01305569,-0.00054310,-0.00008991,0.00032742
 ,0.00003686,0.00026418,0.00002407,-0.00008846,-0.00009074,0.00004617,-
 0.00002068,-0.00005974,-0.00010914,0.00009058,-0.00026747,-0.00020039,
 -0.00000940,0.00005059,0.00015880,-0.00002623,0.00003760,0.00005680,-0
 .00002907,-0.00000478,0.00000112,0.00000346,0.00000426,-0.00000224,-0.
 00000230,0.00000155,-0.00000326,-0.00000261,-0.00000105,-0.00000892,-0
 .00000341,-0.00001997,-0.00001641,-0.00000677,0.00000003,0.00001217,0.
 00000253,-0.00000969,0.00001029,-0.00000566,-0.00002275,-0.00000408,-0
 .00001032,-0.00014031,0.00001090,-0.00002537,-0.00000296,-0.00000624,0
 .00000102,0.00000069,-0.00000171,0.00000093,0.00000147,-0.00000111,0.0
 0000114,-0.00000277,0.00000073,-0.00000095,-0.00000087,-0.00000218,-0.
 00000132,0.00000681,-0.00000106,0.00000125,0.00001444,0.00000587,0.000
 00427,0.00001040,-0.00003059,-0.00000153,-0.00000272,-0.00000307,-0.00
 000336,-0.00009151,0.00003549,-0.00025466,-0.00042628,-0.00035224,0.00
 033402,0.00005330,0.00003594,-0.00016845,-0.00140004,-0.00215324,0.001
 90899,0.21065134,0.00017211,0.00016518,0.00004378,-0.00020323,0.000348
 06,0.00034637,0.00018062,-0.00039489,-0.00044013,-0.00010904,0.0003603
 0,0.00018003,0.00003497,-0.00005349,-0.00006253,-0.00001612,0.00002687
 ,0.00001855,-0.00000727,-0.00003280,-0.00001152,-0.00001954,-0.0000075
 5,0.00001131,0.00004534,-0.00005463,-0.00003756,0.00010803,-0.00001888
 ,0.00008980,0.00009593,0.00012509,-0.00010354,-0.00025224,0.00013333,-
 0.00000284,-0.00004966,-0.00002493,0.00010658,0.00001127,-0.00003797,-
 0.00000468,0.00009844,0.00002730,0.00004323,0.00013602,-0.00017481,-0.
 00023751,-0.00069672,-0.00216667,-0.00110432,-0.00013500,-0.00043990,-
 0.00134546,-0.00095598,-0.00120098,0.00053797,0.00010867,-0.00040696,0
 .00004289,-0.00008511,0.00017985,0.00019193,-0.00021388,0.00017897,0.0
 0012819,-0.00000562,-0.00000036,-0.00002544,0.00000645,0.00001076,0.00
 000143,-0.00000036,0.00000092,0.00000174,0.00000318,-0.00000163,0.0000
 0528,0.00000057,0.00000175,0.00000125,0.00000304,-0.00000736,0.0000104
 2,0.00000511,0.00002169,0.00000845,-0.00000099,-0.00001670,-0.00000889
 ,0.00000050,0.00000016,0.00000159,-0.00003702,0.00002324,-0.00032613,0
 .00113750,0.00261484,-0.00131397,-0.00085653,-0.00006314,-0.00042165,0
 .00233909,0.00131137,-0.00531467,0.01633579,-0.00861192,0.00256769,0.1
 4878324,-0.17771397,0.00742987,-0.00067891,0.00390185,-0.00062618,0.00
 005084,0.00026279,-0.00047165,-0.00003408,-0.00040245,0.00047659,0.000
 21752,-0.00000327,-0.00012645,-0.00024829,-0.00019491,-0.00025170,-0.0
 0002939,-0.00015777,0.00038627,-0.00007116,0.00009913,0.00001224,0.000
 04924,-0.00004734,-0.00005445,-0.00001257,-0.00000273,0.00001228,0.000
 00334,-0.00000475,-0.00000078,-0.00000225,-0.00000204,0.00000145,0.000
 00203,-0.00001730,-0.00000662,-0.00001192,0.00001265,-0.00000125,-0.00
 000463,0.00001328,-0.00000221,0.00000241,0.00001268,-0.00000415,-0.000
 00066,-0.00000415,-0.00001672,0.00000460,0.00002715,0.00004250,0.00000
 067,-0.00000044,-0.00000487,0.00000159,-0.00000192,0.00000257,0.000001
 22,0.00000016,0.00000178,0.00000140,0.00000137,0.00000118,-0.00000172,
 0.00000005,0.00000055,0.00000230,0.00000174,0.00000319,-0.00000070,0.0
 0000178,-0.00000008,-0.00000085,-0.00000088,-0.00000212,0.00000082,-0.
 00000109,0.00000095,0.00001748,0.00003049,-0.00003958,-0.00031247,-0.0
 0041819,0.00033827,0.00068035,-0.00049871,0.00015897,-0.00235122,-0.00
 124003,0.00185789,-0.16327731,0.18448806,0.00000281,0.00001463,0.00017
 754,0.00008128,-0.00001883,-0.00018675,0.00000457,0.00007463,0.0001350
 5,0.00000329,-0.00008390,-0.00003236,-0.00001000,0.00001086,0.00000688
 ,0.00000533,-0.00000090,-0.00000509,-0.00000190,0.00000880,-0.00000132
 ,0.00000189,0.00001281,0.00000649,-0.00002840,0.00004591,0.00000817,-0
 .00014523,0.00044556,0.00011164,-0.00049467,-0.00026934,0.00036405,0.0
 0029517,0.00011367,-0.00020571,-0.00032980,-0.00018071,0.00029552,0.00
 027991,-0.00012382,-0.00007876,0.00009050,0.00012512,-0.00017257,0.000
 04334,-0.00002020,0.00010219,-0.00021586,-0.00088046,0.00006908,0.0009
 2657,-0.00086458,-0.00155498,0.00184774,0.00037621,0.00095994,-0.00067
 882,-0.00010445,-0.00099779,0.00018004,0.00063858,0.00114181,-0.000255
 05,0.00056532,-0.00007624,-0.00002434,-0.00005319,-0.00001527,-0.00000
 399,0.00004245,-0.00002200,0.00002522,0.00001262,0.00002476,-0.0000022
 1,-0.00002472,0.00000584,-0.00000635,0.00000019,-0.00001325,-0.0000326
 3,0.00002246,-0.00002890,0.00006604,0.00002672,0.00001572,-0.00005168,
 -0.00009212,0.00001014,-0.00003345,0.00004330,-0.00000792,-0.00102978,
 0.00083016,-0.00024644,-0.00309725,-0.00251226,-0.00224908,-0.00032541
 ,-0.00017371,-0.00115865,-0.00208993,-0.00497241,-0.00107294,0.0175312
 0,-0.01641634,0.00544668,-0.02052827,0.00691467,-0.05348938,-0.0180290
 1,0.01728456,0.00266101,-0.00090989,-0.00073836,-0.00007048,0.00047930
 ,0.00077840,-0.00067242,-0.00010440,-0.00002673,-0.00004455,0.00003123
 ,-0.00000695,0.00002818,0.00016419,0.00020880,-0.00027566,0.00007609,-
 0.00008645,0.00003861,-0.00007092,0.00000238,0.00004827,0.00000449,0.0
 0000200,-0.00000347,0.00000280,0.00000020,0.00000111,0.00000256,-0.000
 00182,-0.00000055,0.00000095,-0.00000170,0.00000677,-0.00000520,-0.000
 01363,-0.00000406,0.00000308,0.00000256,-0.00000526,0.00000454,0.00001
 055,0.00000584,-0.00000555,0.00001339,0.00000739,-0.00004690,-0.000054
 12,0.00003035,-0.00000607,-0.00000153,0.00000089,0.00000224,-0.0000045
 8,0.00000552,0.00000299,-0.00000066,0.00000561,-0.00000144,0.00000486,
 0.00000389,0.00000123,0.00000653,-0.00000930,0.00001586,0.00000682,0.0
 0000560,0.00002780,0.00001666,0.00001186,0.00001752,-0.00006487,0.0000
 0687,-0.00000944,-0.00000683,-0.00001654,-0.00030604,-0.00008219,-0.00
 024550,0.00033500,0.00035857,-0.00018160,0.00071119,-0.00074624,0.0001
 2839,0.00155335,0.00218948,-0.00033096,0.02407134,-0.00254316,0.051488
 38,-0.00005445,0.00005535,0.00009588,0.00004005,0.00011979,-0.00056476
 ,-0.00001531,0.00014263,0.00052096,-0.00012080,-0.00008843,-0.00021529
 ,-0.00002169,-0.00001362,0.00021382,-0.00002725,-0.00009839,0.00003392
 ,0.00003582,0.00002962,0.00002655,0.00013467,0.00007670,0.00030169,-0.
 00030647,-0.00002330,0.00006955,0.00222653,-0.00266363,0.00132083,0.00
 127760,0.00125618,-0.00149072,-0.00058197,-0.00106615,0.00108349,0.000
 90136,0.00086903,-0.00109001,-0.00089702,0.00010480,0.00036547,-0.0001
 6269,-0.00015056,0.00025896,-0.00032904,-0.00028824,0.00025758,-0.0008
 4685,0.00125378,-0.00116108,-0.00194832,-0.00306038,0.00538898,-0.0017
 2076,-0.00324960,-0.00721186,-0.01059668,0.01556839,0.02846800,-0.0750
 6859,-0.03556242,0.02328540,0.00334419,-0.00317755,-0.00178490,-0.0006
 0321,-0.00006730,-0.00025993,0.00032285,0.00012007,-0.00032200,0.00001
 703,0.00002356,-0.00001747,-0.00000293,-0.00006185,-0.00000875,0.00002
 219,-0.00000470,-0.00012532,-0.00024525,0.00008371,0.00001269,0.000533
 29,0.00012104,-0.00007431,-0.00021208,-0.00025345,0.00004759,-0.000089
 74,0.00010845,0.00002701,0.00110504,0.00116754,0.00304166,-0.00024960,
 -0.00126401,-0.00197208,0.00076864,0.00098204,0.00217505,-0.00113216,0
 .00036477,-0.00091908,-0.00015134,-0.00027091,-0.00048359,-0.00030311,
 -0.00019301,-0.00052277,-0.00129602,0.00190636,0.00156012,0.00017883,0
 .01441465,-0.01657680,-0.05418297,-0.01942756,-0.04409709,0.00000736,-
 0.00001713,-0.00001667,0.00002423,0.00001206,0.00004567,0.00004525,-0.
 00003673,-0.00011627,-0.00004978,-0.00008717,0.00004854,0.00002439,-0.
 00005833,0.00009401,-0.00002889,0.00001089,-0.00002586,0.00000171,0.00
 000470,-0.00002549,-0.00000787,-0.00000878,-0.00002800,-0.00002773,0.0
 0000631,-0.00005004,-0.00001912,-0.00011926,0.00001395,-0.00001234,0.0
 0002249,-0.00001429,-0.00001357,0.00000110,-0.00000428,0.00003046,-0.0
 0000939,0.00002767,0.00000990,0.00000767,-0.00001254,-0.00004676,0.000
 01829,0.00003045,-0.00000583,-0.00002590,0.00003675,0.00002061,-0.0000
 0228,0.00003137,-0.00002088,0.00002328,0.00001330,0.00000470,0.0000266
 3,-0.00004431,0.00008382,0.00000783,0.00001523,0.00011598,0.00011259,-
 0.00001932,-0.00014922,-0.00046998,0.00000770,-0.00005037,-0.00002907,
 -0.00012455,-0.00002647,-0.00020612,-0.00008432,-0.00001442,0.00002643
 ,0.00001710,-0.00001384,0.00000782,-0.00001469,0.00004344,-0.00002146,
 -0.00002002,0.00002982,0.00004077,-0.00001278,0.14030358,-0.00005459,-
 0.00001553,-0.00000130,-0.00012085,0.00009788,0.00017397,0.00033451,-0
 .00077222,-0.00029630,-0.00021062,0.00084031,0.00030193,0.00006874,-0.
 00005186,-0.00006275,-0.00001140,0.00004637,0.00004935,0.00002300,-0.0
 0010481,-0.00016625,-0.00010154,0.00005942,-0.00018132,-0.00021906,-0.
 00001412,-0.00001375,-0.00017689,-0.00077553,0.00111977,-0.00015006,-0
 .00067522,0.00043396,0.00023479,0.00021324,-0.00036859,-0.00042691,-0.
 00037140,0.00042812,0.00044281,-0.00017850,-0.00010875,0.00001497,0.00
 018893,-0.00015549,-0.00002430,-0.00018494,0.00000610,-0.00013461,-0.0
 0019252,0.00043890,0.00084645,0.00051054,0.00093245,-0.00008071,-0.000
 77677,-0.00186864,0.00152920,0.00346394,0.00256077,-0.02643466,-0.0101
 8225,0.01140264,0.00125445,-0.00156931,-0.00192569,-0.00037473,-0.0000
 6082,-0.00019315,-0.00020459,0.00019372,0.00007016,0.00000355,-0.00012
 379,0.00031254,-0.00001325,0.00000244,-0.00005335,0.00004878,-0.000098
 98,0.00001797,-0.00009605,0.00103632,-0.00056471,0.00013338,-0.0011651
 3,0.00040090,-0.00007897,0.00065842,0.00040117,-0.00006183,-0.00005492
 ,-0.00027910,0.00033778,-0.00040401,0.00042698,0.00007888,-0.00031112,
 -0.00016104,-0.00000931,0.00007185,0.00011368,-0.00002819,-0.00007952,
 -0.00010108,-0.00009724,-0.00004100,0.00004562,-0.00006108,-0.00010721
 ,-0.00021823,-0.00042292,0.00057610,0.00017014,0.00387320,-0.00259427,
 0.00687647,-0.01294987,-0.00102847,-0.01403093,-0.00006014,-0.00004532
 ,-0.00002679,0.00006420,-0.00003623,0.00004989,0.00001650,0.00008686,-
 0.00007480,0.00000980,-0.00003048,0.00000820,0.00003614,-0.00001889,-0
 .00004086,-0.00005534,-0.00001954,-0.00000879,-0.00000749,-0.00000926,
 0.00001264,0.00003168,-0.00001545,0.00000880,0.00003897,-0.00013820,0.
 00008655,0.00002309,-0.00005486,0.00010170,0.00001235,-0.00000821,0.00
 000721,0.00000792,0.00000328,0.00000475,-0.00000665,0.00001362,0.00002
 146,-0.00001055,-0.00000509,0.00001236,0.00006354,-0.00018765,-0.00010
 744,0.00005004,-0.00002980,0.00000884,0.00000166,-0.00001775,-0.000009
 49,-0.00007543,-0.00001630,-0.00002145,0.00003197,-0.00005496,-0.00005
 017,0.00014365,-0.00010016,-0.00009899,0.00014503,0.00003458,-0.000009
 22,-0.00012560,-0.00031112,0.00022342,-0.00011534,0.00003804,-0.000068
 22,0.00004362,-0.00011314,-0.00013133,0.00002336,0.00000257,-0.0000074
 2,0.00001569,0.00001738,-0.00001800,0.00000769,0.00000248,-0.00002339,
 0.00003001,0.00004461,-0.00003868,0.03297934,0.01494370,-0.00018531,0.
 00000546,0.00009056,-0.00029119,-0.00000411,-0.00074289,0.00151801,-0.
 00029442,0.00024415,-0.00072773,0.00103997,0.00042850,-0.00012214,0.00
 003404,0.00004760,0.00004467,-0.00016677,-0.00014730,0.00020413,0.0000
 3963,-0.00023613,-0.00008663,0.00020662,0.00018067,-0.00102282,-0.0001
 7701,0.00027452,0.00285104,-0.00486061,0.00354214,0.00275842,0.0015539
 7,-0.00307719,-0.00085096,-0.00212595,0.00186562,0.00184026,0.00186903
 ,-0.00215043,-0.00201100,0.00037126,0.00071619,-0.00038815,-0.00084402
 ,0.00038591,-0.00042974,0.00011737,0.00059703,-0.00085511,0.00309162,-
 0.00244050,-0.00573486,-0.00535857,0.00275358,0.00430729,0.00420909,0.
 00267969,0.01654251,-0.01317462,-0.02892730,0.02714784,0.01709779,-0.0
 0500619,-0.00277681,0.00272794,0.00248660,0.00074217,0.00008981,0.0005
 2968,0.00013903,-0.00023482,0.00019287,-0.00015169,-0.00009227,-0.0003
 5545,0.00001526,0.00023860,-0.00017069,0.00014024,-0.00011411,0.000113
 13,0.00021270,-0.00063595,0.00041420,-0.00089096,0.00008223,-0.0003480
 7,0.00019723,0.00069502,0.00007824,0.00037145,-0.00024624,0.00012129,-
 0.00123619,-0.00068034,-0.00317318,0.00003921,0.00142480,0.00187549,-0
 .00087793,-0.00119221,-0.00243349,0.00144303,-0.00054576,0.00105774,0.
 00019617,0.00075600,0.00052977,0.00016377,-0.00035666,0.00050865,0.001
 15109,-0.00233253,-0.00225791,-0.00687012,0.02395457,-0.03516002,-0.04
 701872,-0.02052202,-0.03422190,0.00003204,0.00002066,-0.00000059,0.000
 11120,0.00003646,0.00010879,0.00007994,-0.00009536,-0.00027874,-0.0000
 9312,-0.00007469,-0.00002932,0.00006557,-0.00002342,0.00011226,0.00001
 057,0.00002679,0.00001929,0.00005897,-0.00001568,-0.00001336,0.0000598
 8,-0.00004840,-0.00001288,-0.00003145,-0.00001580,0.00003329,-0.000037
 65,-0.00033743,0.00016580,0.00002363,0.00004330,0.00001972,-0.00000844
 ,0.00003003,0.00006835,0.00002495,-0.00005843,0.00001265,0.00005968,0.
 00013902,0.00016311,0.00001386,-0.00000488,0.00006145,-0.00006327,0.00
 005413,-0.00002159,-0.00005354,0.00001580,-0.00002445,-0.00002480,-0.0
 0002762,0.00000193,0.00004966,-0.00004604,-0.00002419,-0.00007163,-0.0
 0007116,-0.00005966,-0.00011429,-0.00005739,-0.00006784,0.00005313,0.0
 0040071,0.00007077,-0.00007696,0.00009947,-0.00001009,0.00003036,0.000
 27503,0.00014173,-0.00002833,-0.00003150,0.00000254,-0.00001662,-0.000
 03888,0.00006120,-0.00001114,0.00005565,0.00000032,-0.00011395,-0.0001
 5223,0.00010972,0.01057430,-0.00574396,0.09852464\\-0.00000119,-0.0000
 0186,-0.00000148,-0.00000020,-0.00000317,0.00000465,-0.00000287,0.0000
 0359,-0.00000477,0.00000070,-0.00000449,0.00000079,-0.00000037,0.00000
 292,0.00000200,-0.00000081,-0.00000087,-0.00000043,-0.00000027,0.00000
 159,-0.00000065,-0.00000188,0.00000166,-0.00000024,0.00000252,-0.00000
 007,-0.00000344,-0.00000370,-0.00000306,0.00000363,0.00000443,0.000003
 41,-0.00000403,-0.00000094,-0.00000334,0.00000295,0.00000034,0.0000015
 4,-0.00000182,-0.00000216,0.00000141,-0.00000008,0.00000288,-0.0000028
 3,0.00000059,0.00000270,0.00000075,-0.00000234,-0.00000513,-0.00000124
 ,0.00000253,0.00000381,0.00000224,-0.00000420,0.00000014,-0.00000166,0
 .00000382,0.00000503,-0.00000733,-0.00001004,-0.00000252,0.00000415,0.
 00000650,-0.00000386,0.00000609,0.00000596,-0.00000189,-0.00000017,0.0
 0000016,-0.00000157,-0.00000080,-0.00000014,0.00000041,-0.00000118,0.0
 0000080,-0.00000067,0.00000056,0.00000173,-0.00000071,-0.00000033,0.00
 000149,0.00000485,-0.00000424,-0.00000315,-0.00000151,0.00000399,0.000
 00231,-0.00000112,-0.00000458,-0.00000306,-0.00000094,0.00000451,0.000
 00080,-0.00000399,-0.00000552,-0.00000823,0.00000136,0.00000429,0.0000
 0695,-0.00000169,-0.00000348,-0.00000471,0.00000510,-0.00000347,0.0000
 0240,-0.00000369,0.00000441,0.00000118,-0.00000183,-0.00000189,-0.0000
 0423,0.00000481,-0.00000066,0.00000316,-0.00000338,0.00000511,-0.00000
 484,0.00000608,0.00000215,0.00000424,-0.00000017,0.00000005,-0.0000002
 0,0.00000071,0.00000078,0.00000049,0.00000100,0.00000145,0.00000051,0.
 00000122,0.00000067,-0.00000176,-0.00000042,0.00000121,-0.00000024,0.0
 0000008,0.00000041,-0.00000075,0.00000055,0.,-0.00000129,0.00000063,-0
 .00000029,-0.00000096,-0.00000058,-0.00000071,0.00000048,0.00000073,-0
 .00000058,-0.00000051,0.00000076,-0.00000058,0.00000008,0.00000117,-0.
 00000111,0.00000019,-0.00000085,0.00000048,-0.00000003,-0.00000069,-0.
 00000057,0.00000083,0.00000019,0.00000061,0.00000068,-0.00000008,0.000
 00080,-0.00000013,-0.00000091,0.,-0.00000009,-0.00000085,-0.00000049,0
 .00000072,0.00000095,0.00000094,0.00000026,0.00000003,0.00000070,0.000
 00078,-0.00000046,0.00000091,0.00000078,0.00000016,-0.00000081,0.00000
 020,0.00000029,-0.00000078,0.00000002,0.00000011,0.00000111,0.00000077
 ,0.00000004,0.00000065,0.00000089,-0.00000069,0.00000077,0.00000046,0.
 00000122,-0.00000126,0.00000033,0.00000060,-0.00000003,0.00000062,-0.0
 0000104,-0.00000249,0.00000015\\\@
 The archive entry for this job was punched.


 ONE THORN OF EXPERIENCE IS WORTH A WHOLE WILDERNESS OF
 WARNING....  LOWELL - AMONG MY BOOKS
 Job cpu time:       1 days  7 hours 16 minutes 46.6 seconds.
 Elapsed time:       0 days  0 hours 59 minutes  2.2 seconds.
 File lengths (MBytes):  RWF=   6337 Int=      0 D2E=      0 Chk=     49 Scr=      1
 Normal termination of Gaussian 16 at Fri Feb  7 13:07:38 2025.
