 Entering Gaussian System, Link 0=g16
 Initial command:
 /public/software/apps/Gaussian/g16/l1.exe "/tmp/Gau-51903.inp" -scrdir="/tmp/"
 Entering Link 1 = /public/software/apps/Gaussian/g16/l1.exe PID=     51904.
  
 Copyright (c) 1988-2019, Gaussian, Inc.  All Rights Reserved.
  
 This is part of the Gaussian(R) 16 program.  It is based on
 the Gaussian(R) 09 system (copyright 2009, Gaussian, Inc.),
 the Gaussian(R) 03 system (copyright 2003, Gaussian, Inc.),
 the Gaussian(R) 98 system (copyright 1998, Gaussian, Inc.),
 the Gaussian(R) 94 system (copyright 1995, Gaussian, Inc.),
 the Gaussian 92(TM) system (copyright 1992, Gaussian, Inc.),
 the Gaussian 90(TM) system (copyright 1990, Gaussian, Inc.),
 the Gaussian 88(TM) system (copyright 1988, Gaussian, Inc.),
 the Gaussian 86(TM) system (copyright 1986, Carnegie Mellon
 University), and the Gaussian 82(TM) system (copyright 1983,
 Carnegie Mellon University). Gaussian is a federally registered
 trademark of Gaussian, Inc.
  
 This software contains proprietary and confidential information,
 including trade secrets, belonging to Gaussian, Inc.
  
 This software is provided under written license and may be
 used, copied, transmitted, or stored only in accord with that
 written license.
  
 The following legend is applicable only to US Government
 contracts under FAR:
  
                    RESTRICTED RIGHTS LEGEND
  
 Use, reproduction and disclosure by the US Government is
 subject to restrictions as set forth in subparagraphs (a)
 and (c) of the Commercial Computer Software - Restricted
 Rights clause in FAR 52.227-19.
  
 Gaussian, Inc.
 340 Quinnipiac St., Bldg. 40, Wallingford CT 06492
  
  
 ---------------------------------------------------------------
 Warning -- This program may not be used in any manner that
 competes with the business of Gaussian, Inc. or will provide
 assistance to any competitor of Gaussian, Inc.  The licensee
 of this program is prohibited from giving any competitor of
 Gaussian, Inc. access to this program.  By using this program,
 the user acknowledges that Gaussian, Inc. is engaged in the
 business of creating and licensing software in the field of
 computational chemistry and represents and warrants to the
 licensee that it is not a competitor of Gaussian, Inc. and that
 it will not use this program in any manner prohibited above.
 ---------------------------------------------------------------
  

 Cite this work as:
 Gaussian 16, Revision C.01,
 M. J. Frisch, G. W. Trucks, H. B. Schlegel, G. E. Scuseria, 
 M. A. Robb, J. R. Cheeseman, G. Scalmani, V. Barone, 
 G. A. Petersson, H. Nakatsuji, X. Li, M. Caricato, A. V. Marenich, 
 J. Bloino, B. G. Janesko, R. Gomperts, B. Mennucci, H. P. Hratchian, 
 J. V. Ortiz, A. F. Izmaylov, J. L. Sonnenberg, D. Williams-Young, 
 F. Ding, F. Lipparini, F. Egidi, J. Goings, B. Peng, A. Petrone, 
 T. Henderson, D. Ranasinghe, V. G. Zakrzewski, J. Gao, N. Rega, 
 G. Zheng, W. Liang, M. Hada, M. Ehara, K. Toyota, R. Fukuda, 
 J. Hasegawa, M. Ishida, T. Nakajima, Y. Honda, O. Kitao, H. Nakai, 
 T. Vreven, K. Throssell, J. A. Montgomery, Jr., J. E. Peralta, 
 F. Ogliaro, M. J. Bearpark, J. J. Heyd, E. N. Brothers, K. N. Kudin, 
 V. N. Staroverov, T. A. Keith, R. Kobayashi, J. Normand, 
 K. Raghavachari, A. P. Rendell, J. C. Burant, S. S. Iyengar, 
 J. Tomasi, M. Cossi, J. M. Millam, M. Klene, C. Adamo, R. Cammi, 
 J. W. Ochterski, R. L. Martin, K. Morokuma, O. Farkas, 
 J. B. Foresman, and D. J. Fox, Gaussian, Inc., Wallingford CT, 2019.
 
 ******************************************
 Gaussian 16:  ES64L-G16RevC.01  3-Jul-2019
                 1-Aug-2024 
 ******************************************
 %nprocshared=32
 Will use up to   32 processors via shared memory.
 %mem=100GB
 ------------------------------------------
 #p opt freq b3lyp/def2svpp em=gd3bj nosymm
 ------------------------------------------
 1/18=20,19=15,26=3,38=1/1,3;
 2/9=110,12=2,15=1,17=6,18=5,40=1/2;
 3/5=43,7=202,11=2,25=1,30=1,71=1,74=-5,124=41/1,2,3;
 4//1;
 5/5=2,38=5/2;
 6/7=2,8=2,9=2,10=2,28=1/1;
 7/30=1/1,2,3,16;
 1/18=20,19=15,26=3/3(2);
 2/9=110,15=1/2;
 99//99;
 2/9=110,15=1/2;
 3/5=43,7=202,11=2,25=1,30=1,71=1,74=-5,124=41/1,2,3;
 4/5=5,16=3,69=1/1;
 5/5=2,38=5/2;
 7/30=1/1,2,3,16;
 1/18=20,19=15,26=3/3(-5);
 2/9=110,15=1/2;
 6/7=2,8=2,9=2,10=2,19=2,28=1/1;
 99/9=1/99;
 Leave Link    1 at Thu Aug  1 13:00:02 2024, MaxMem= 13421772800 cpu:               1.8 elap:               0.1
 (Enter /public/software/apps/Gaussian/g16/l101.exe)
 ------------------
 $$$$Title####0????
 ------------------
 Symbolic Z-matrix:
 Charge =  0 Multiplicity = 2
 C                     7.62618   3.73047   0.241 
 O                     6.41437   3.31878  -0.38312 
 C                     5.80343   2.07166  -0.18344 
 C                     6.34483   1.09489   0.67254 
 C                     5.7062   -0.13814   0.84365 
 O                     6.29305  -1.07621   1.70643 
 C                     5.75263  -2.36428   1.98294 
 C                     4.50889  -0.3971    0.15119 
 C                     3.95274   0.57245  -0.69926 
 C                     2.69357   0.29726  -1.43326 
 C                     2.6367    0.52265  -2.81556 
 C                     1.46022   0.2774   -3.53397 
 C                     1.41881   0.52124  -4.91634 
 C                     0.24591   0.29243  -5.63681 
 C                    -0.89517  -0.17607  -4.98635 
 C                    -0.86996  -0.42531  -3.61232 
 C                     0.30974  -0.21363  -2.86616 
 C                     0.37023  -0.46523  -1.47241 
 C                    -0.79764  -1.00433  -0.72439 
 C                    -1.4796   -0.15317   0.16499 
 O                    -1.01309   1.14484   0.36189 
 C                    -2.6083   -0.60928   0.87111 
 C                    -3.34864   0.28782   1.79117 
 C                    -3.78125   1.55225   1.35943 
 C                    -4.48779   2.40166   2.23087 
 O                    -4.93476   3.67343   1.84185 
 C                    -4.72851   4.23957   0.5515 
 C                    -4.76195   1.97313   3.53427 
 C                    -4.3419    0.70524   3.97688 
 O                    -4.59879   0.23859   5.27478 
 C                    -5.29848   0.97643   6.27153 
 C                    -3.64071  -0.12825   3.09978 
 C                    -3.0351   -1.93418   0.70623 
 C                    -2.35168  -2.80581  -0.15028 
 C                    -2.78669  -4.13344  -0.29285 
 C                    -2.1025   -5.01209  -1.1337 
 C                    -0.97807  -4.57749  -1.83471 
 C                    -0.5335   -3.25984  -1.70527 
 C                    -1.21848  -2.35009  -0.87073 
 C                     1.55237  -0.18193  -0.76322 
 O                     1.57863  -0.35683   0.61879 
 C                     4.61235   1.8008   -0.8643 
 H                     7.87736   4.75688  -0.09643 
 H                     7.50379   3.73878   1.34468 
 H                     8.45435   3.04894  -0.04664 
 H                     7.26453   1.28049   1.21074 
 H                     4.74365  -2.26582   2.4365 
 H                     5.69598  -2.96297   1.04936 
 H                     6.41526  -2.88872   2.70143 
 H                     4.01372  -1.35315   0.25665 
 H                     3.51703   0.88637  -3.33429 
 H                     2.29256   0.89257  -5.43887 
 H                     0.22002   0.4839   -6.70178 
 H                    -1.80434  -0.34546  -5.54877 
 H                    -1.77846  -0.77913  -3.14319 
 H                    -3.57766   1.86081   0.3427 
 H                    -5.18104   5.25182   0.52348 
 H                    -3.64121   4.33      0.3433 
 H                    -5.2159    3.61085  -0.22346 
 H                    -5.30541   2.63643   4.19361 
 H                    -6.3305    1.19942   5.92746 
 H                    -4.75849   1.92005   6.49768 
 H                    -5.35659   0.36936   7.19816 
 H                    -3.31134  -1.10046   3.44657 
 H                    -3.9084   -2.28527   1.24521 
 H                    -3.65372  -4.49252   0.24903 
 H                    -2.44203  -6.03447  -1.2383 
 H                    -0.44698  -5.26506  -2.48034 
 H                     0.34825  -2.96433  -2.2583 
 H                     4.19379   2.55888  -1.51549 
 Cu                    0.80313   1.39009   1.06299 
 
 ITRead=  0  0  0  0  0  0  0  0  0  0  0  0  0  0  0  0  0  0  0  0
 ITRead=  0  0  0  0  0  0  0  0  0  0  0  0  0  0  0  0  0  0  0  0
 ITRead=  0  0  0  0  0  0  0  0  0  0  0  0  0  0  0  0  0  0  0  0
 ITRead=  0  0  0  0  0  0  0  0  0  0  0
 MicOpt= -1 -1 -1 -1 -1 -1 -1 -1 -1 -1 -1 -1 -1 -1 -1 -1 -1 -1 -1 -1
 MicOpt= -1 -1 -1 -1 -1 -1 -1 -1 -1 -1 -1 -1 -1 -1 -1 -1 -1 -1 -1 -1
 MicOpt= -1 -1 -1 -1 -1 -1 -1 -1 -1 -1 -1 -1 -1 -1 -1 -1 -1 -1 -1 -1
 MicOpt= -1 -1 -1 -1 -1 -1 -1 -1 -1 -1 -1
 NAtoms=     71 NQM=       71 NQMF=       0 NMMI=      0 NMMIF=      0
                NMic=       0 NMicF=      0.
                    Isotopes and Nuclear Properties:
 (Nuclear quadrupole moments (NQMom) in fm**2, nuclear magnetic moments (NMagM)
  in nuclear magnetons)

  Atom         1           2           3           4           5           6           7           8           9          10
 IAtWgt=          12          16          12          12          12          16          12          12          12          12
 AtmWgt=  12.0000000  15.9949146  12.0000000  12.0000000  12.0000000  15.9949146  12.0000000  12.0000000  12.0000000  12.0000000
 NucSpn=           0           0           0           0           0           0           0           0           0           0
 AtZEff=  -0.0000000  -0.0000000  -0.0000000  -0.0000000  -0.0000000  -0.0000000  -0.0000000  -0.0000000  -0.0000000  -0.0000000
 NQMom=    0.0000000   0.0000000   0.0000000   0.0000000   0.0000000   0.0000000   0.0000000   0.0000000   0.0000000   0.0000000
 NMagM=    0.0000000   0.0000000   0.0000000   0.0000000   0.0000000   0.0000000   0.0000000   0.0000000   0.0000000   0.0000000
 AtZNuc=   6.0000000   8.0000000   6.0000000   6.0000000   6.0000000   8.0000000   6.0000000   6.0000000   6.0000000   6.0000000

  Atom        11          12          13          14          15          16          17          18          19          20
 IAtWgt=          12          12          12          12          12          12          12          12          12          12
 AtmWgt=  12.0000000  12.0000000  12.0000000  12.0000000  12.0000000  12.0000000  12.0000000  12.0000000  12.0000000  12.0000000
 NucSpn=           0           0           0           0           0           0           0           0           0           0
 AtZEff=  -0.0000000  -0.0000000  -0.0000000  -0.0000000  -0.0000000  -0.0000000  -0.0000000  -0.0000000  -0.0000000  -0.0000000
 NQMom=    0.0000000   0.0000000   0.0000000   0.0000000   0.0000000   0.0000000   0.0000000   0.0000000   0.0000000   0.0000000
 NMagM=    0.0000000   0.0000000   0.0000000   0.0000000   0.0000000   0.0000000   0.0000000   0.0000000   0.0000000   0.0000000
 AtZNuc=   6.0000000   6.0000000   6.0000000   6.0000000   6.0000000   6.0000000   6.0000000   6.0000000   6.0000000   6.0000000

  Atom        21          22          23          24          25          26          27          28          29          30
 IAtWgt=          16          12          12          12          12          16          12          12          12          16
 AtmWgt=  15.9949146  12.0000000  12.0000000  12.0000000  12.0000000  15.9949146  12.0000000  12.0000000  12.0000000  15.9949146
 NucSpn=           0           0           0           0           0           0           0           0           0           0
 AtZEff=  -0.0000000  -0.0000000  -0.0000000  -0.0000000  -0.0000000  -0.0000000  -0.0000000  -0.0000000  -0.0000000  -0.0000000
 NQMom=    0.0000000   0.0000000   0.0000000   0.0000000   0.0000000   0.0000000   0.0000000   0.0000000   0.0000000   0.0000000
 NMagM=    0.0000000   0.0000000   0.0000000   0.0000000   0.0000000   0.0000000   0.0000000   0.0000000   0.0000000   0.0000000
 AtZNuc=   8.0000000   6.0000000   6.0000000   6.0000000   6.0000000   8.0000000   6.0000000   6.0000000   6.0000000   8.0000000

  Atom        31          32          33          34          35          36          37          38          39          40
 IAtWgt=          12          12          12          12          12          12          12          12          12          12
 AtmWgt=  12.0000000  12.0000000  12.0000000  12.0000000  12.0000000  12.0000000  12.0000000  12.0000000  12.0000000  12.0000000
 NucSpn=           0           0           0           0           0           0           0           0           0           0
 AtZEff=  -0.0000000  -0.0000000  -0.0000000  -0.0000000  -0.0000000  -0.0000000  -0.0000000  -0.0000000  -0.0000000  -0.0000000
 NQMom=    0.0000000   0.0000000   0.0000000   0.0000000   0.0000000   0.0000000   0.0000000   0.0000000   0.0000000   0.0000000
 NMagM=    0.0000000   0.0000000   0.0000000   0.0000000   0.0000000   0.0000000   0.0000000   0.0000000   0.0000000   0.0000000
 AtZNuc=   6.0000000   6.0000000   6.0000000   6.0000000   6.0000000   6.0000000   6.0000000   6.0000000   6.0000000   6.0000000

  Atom        41          42          43          44          45          46          47          48          49          50
 IAtWgt=          16          12           1           1           1           1           1           1           1           1
 AtmWgt=  15.9949146  12.0000000   1.0078250   1.0078250   1.0078250   1.0078250   1.0078250   1.0078250   1.0078250   1.0078250
 NucSpn=           0           0           1           1           1           1           1           1           1           1
 AtZEff=  -0.0000000  -0.0000000  -0.0000000  -0.0000000  -0.0000000  -0.0000000  -0.0000000  -0.0000000  -0.0000000  -0.0000000
 NQMom=    0.0000000   0.0000000   0.0000000   0.0000000   0.0000000   0.0000000   0.0000000   0.0000000   0.0000000   0.0000000
 NMagM=    0.0000000   0.0000000   2.7928460   2.7928460   2.7928460   2.7928460   2.7928460   2.7928460   2.7928460   2.7928460
 AtZNuc=   8.0000000   6.0000000   1.0000000   1.0000000   1.0000000   1.0000000   1.0000000   1.0000000   1.0000000   1.0000000

  Atom        51          52          53          54          55          56          57          58          59          60
 IAtWgt=           1           1           1           1           1           1           1           1           1           1
 AtmWgt=   1.0078250   1.0078250   1.0078250   1.0078250   1.0078250   1.0078250   1.0078250   1.0078250   1.0078250   1.0078250
 NucSpn=           1           1           1           1           1           1           1           1           1           1
 AtZEff=  -0.0000000  -0.0000000  -0.0000000  -0.0000000  -0.0000000  -0.0000000  -0.0000000  -0.0000000  -0.0000000  -0.0000000
 NQMom=    0.0000000   0.0000000   0.0000000   0.0000000   0.0000000   0.0000000   0.0000000   0.0000000   0.0000000   0.0000000
 NMagM=    2.7928460   2.7928460   2.7928460   2.7928460   2.7928460   2.7928460   2.7928460   2.7928460   2.7928460   2.7928460
 AtZNuc=   1.0000000   1.0000000   1.0000000   1.0000000   1.0000000   1.0000000   1.0000000   1.0000000   1.0000000   1.0000000

  Atom        61          62          63          64          65          66          67          68          69          70
 IAtWgt=           1           1           1           1           1           1           1           1           1           1
 AtmWgt=   1.0078250   1.0078250   1.0078250   1.0078250   1.0078250   1.0078250   1.0078250   1.0078250   1.0078250   1.0078250
 NucSpn=           1           1           1           1           1           1           1           1           1           1
 AtZEff=  -0.0000000  -0.0000000  -0.0000000  -0.0000000  -0.0000000  -0.0000000  -0.0000000  -0.0000000  -0.0000000  -0.0000000
 NQMom=    0.0000000   0.0000000   0.0000000   0.0000000   0.0000000   0.0000000   0.0000000   0.0000000   0.0000000   0.0000000
 NMagM=    2.7928460   2.7928460   2.7928460   2.7928460   2.7928460   2.7928460   2.7928460   2.7928460   2.7928460   2.7928460
 AtZNuc=   1.0000000   1.0000000   1.0000000   1.0000000   1.0000000   1.0000000   1.0000000   1.0000000   1.0000000   1.0000000

  Atom        71
 IAtWgt=          63
 AtmWgt=  62.9295992
 NucSpn=           3
 AtZEff=  -0.0000000
 NQMom=  -22.0000000
 NMagM=    2.2233000
 AtZNuc=  29.0000000
 Leave Link  101 at Thu Aug  1 13:00:02 2024, MaxMem= 13421772800 cpu:               3.4 elap:               0.1
 (Enter /public/software/apps/Gaussian/g16/l103.exe)

 GradGradGradGradGradGradGradGradGradGradGradGradGradGradGradGradGradGrad
 Berny optimization.
 Initialization pass.
                           ----------------------------
                           !    Initial Parameters    !
                           ! (Angstroms and Degrees)  !
 --------------------------                            --------------------------
 ! Name  Definition              Value          Derivative Info.                !
 --------------------------------------------------------------------------------
 ! R1    R(1,2)                  1.4239         estimate D2E/DX2                !
 ! R2    R(1,43)                 1.1093         estimate D2E/DX2                !
 ! R3    R(1,44)                 1.1105         estimate D2E/DX2                !
 ! R4    R(1,45)                 1.1104         estimate D2E/DX2                !
 ! R5    R(2,3)                  1.403          estimate D2E/DX2                !
 ! R6    R(3,4)                  1.4071         estimate D2E/DX2                !
 ! R7    R(3,42)                 1.3984         estimate D2E/DX2                !
 ! R8    R(4,5)                  1.3991         estimate D2E/DX2                !
 ! R9    R(4,46)                 1.0816         estimate D2E/DX2                !
 ! R10   R(5,6)                  1.4031         estimate D2E/DX2                !
 ! R11   R(5,8)                  1.4072         estimate D2E/DX2                !
 ! R12   R(6,7)                  1.4239         estimate D2E/DX2                !
 ! R13   R(7,47)                 1.1106         estimate D2E/DX2                !
 ! R14   R(7,48)                 1.1105         estimate D2E/DX2                !
 ! R15   R(7,49)                 1.1092         estimate D2E/DX2                !
 ! R16   R(8,9)                  1.4045         estimate D2E/DX2                !
 ! R17   R(8,50)                 1.0818         estimate D2E/DX2                !
 ! R18   R(9,10)                 1.4832         estimate D2E/DX2                !
 ! R19   R(9,42)                 1.404          estimate D2E/DX2                !
 ! R20   R(10,11)                1.4017         estimate D2E/DX2                !
 ! R21   R(10,40)                1.4074         estimate D2E/DX2                !
 ! R22   R(11,12)                1.4001         estimate D2E/DX2                !
 ! R23   R(11,51)                1.0846         estimate D2E/DX2                !
 ! R24   R(12,13)                1.4043         estimate D2E/DX2                !
 ! R25   R(12,17)                1.418          estimate D2E/DX2                !
 ! R26   R(13,14)                1.3954         estimate D2E/DX2                !
 ! R27   R(13,52)                1.0837         estimate D2E/DX2                !
 ! R28   R(14,15)                1.3945         estimate D2E/DX2                !
 ! R29   R(14,53)                1.0824         estimate D2E/DX2                !
 ! R30   R(15,16)                1.3967         estimate D2E/DX2                !
 ! R31   R(15,54)                1.0824         estimate D2E/DX2                !
 ! R32   R(16,17)                1.4118         estimate D2E/DX2                !
 ! R33   R(16,55)                1.082          estimate D2E/DX2                !
 ! R34   R(17,18)                1.4176         estimate D2E/DX2                !
 ! R35   R(18,19)                1.488          estimate D2E/DX2                !
 ! R36   R(18,40)                1.4074         estimate D2E/DX2                !
 ! R37   R(19,20)                1.4073         estimate D2E/DX2                !
 ! R38   R(19,39)                1.4176         estimate D2E/DX2                !
 ! R39   R(20,21)                1.3933         estimate D2E/DX2                !
 ! R40   R(20,22)                1.4073         estimate D2E/DX2                !
 ! R41   R(21,71)                1.9622         estimate D2E/DX2                !
 ! R42   R(22,23)                1.483          estimate D2E/DX2                !
 ! R43   R(22,33)                1.4017         estimate D2E/DX2                !
 ! R44   R(23,24)                1.4044         estimate D2E/DX2                !
 ! R45   R(23,32)                1.4039         estimate D2E/DX2                !
 ! R46   R(24,25)                1.4072         estimate D2E/DX2                !
 ! R47   R(24,56)                1.0818         estimate D2E/DX2                !
 ! R48   R(25,26)                1.403          estimate D2E/DX2                !
 ! R49   R(25,28)                1.3992         estimate D2E/DX2                !
 ! R50   R(26,27)                1.4241         estimate D2E/DX2                !
 ! R51   R(27,57)                1.1092         estimate D2E/DX2                !
 ! R52   R(27,58)                1.1107         estimate D2E/DX2                !
 ! R53   R(27,59)                1.1106         estimate D2E/DX2                !
 ! R54   R(28,29)                1.4071         estimate D2E/DX2                !
 ! R55   R(28,60)                1.0817         estimate D2E/DX2                !
 ! R56   R(29,30)                1.403          estimate D2E/DX2                !
 ! R57   R(29,32)                1.3985         estimate D2E/DX2                !
 ! R58   R(30,31)                1.4239         estimate D2E/DX2                !
 ! R59   R(31,61)                1.1105         estimate D2E/DX2                !
 ! R60   R(31,62)                1.1105         estimate D2E/DX2                !
 ! R61   R(31,63)                1.1093         estimate D2E/DX2                !
 ! R62   R(32,64)                1.0835         estimate D2E/DX2                !
 ! R63   R(33,34)                1.4001         estimate D2E/DX2                !
 ! R64   R(33,65)                1.0846         estimate D2E/DX2                !
 ! R65   R(34,35)                1.4043         estimate D2E/DX2                !
 ! R66   R(34,39)                1.418          estimate D2E/DX2                !
 ! R67   R(35,36)                1.3954         estimate D2E/DX2                !
 ! R68   R(35,66)                1.0837         estimate D2E/DX2                !
 ! R69   R(36,37)                1.3945         estimate D2E/DX2                !
 ! R70   R(36,67)                1.0823         estimate D2E/DX2                !
 ! R71   R(37,38)                1.3966         estimate D2E/DX2                !
 ! R72   R(37,68)                1.0824         estimate D2E/DX2                !
 ! R73   R(38,39)                1.4118         estimate D2E/DX2                !
 ! R74   R(38,69)                1.082          estimate D2E/DX2                !
 ! R75   R(40,41)                1.3933         estimate D2E/DX2                !
 ! R76   R(41,71)                1.9623         estimate D2E/DX2                !
 ! R77   R(42,70)                1.0835         estimate D2E/DX2                !
 ! A1    A(2,1,43)             109.0812         estimate D2E/DX2                !
 ! A2    A(2,1,44)             110.1202         estimate D2E/DX2                !
 ! A3    A(2,1,45)             110.1042         estimate D2E/DX2                !
 ! A4    A(43,1,44)            108.6848         estimate D2E/DX2                !
 ! A5    A(43,1,45)            108.6771         estimate D2E/DX2                !
 ! A6    A(44,1,45)            110.1356         estimate D2E/DX2                !
 ! A7    A(1,2,3)              124.4171         estimate D2E/DX2                !
 ! A8    A(2,3,4)              122.4173         estimate D2E/DX2                !
 ! A9    A(2,3,42)             118.2786         estimate D2E/DX2                !
 ! A10   A(4,3,42)             119.304          estimate D2E/DX2                !
 ! A11   A(3,4,5)              120.7007         estimate D2E/DX2                !
 ! A12   A(3,4,46)             120.7129         estimate D2E/DX2                !
 ! A13   A(5,4,46)             118.5863         estimate D2E/DX2                !
 ! A14   A(4,5,6)              118.2614         estimate D2E/DX2                !
 ! A15   A(4,5,8)              119.3655         estimate D2E/DX2                !
 ! A16   A(6,5,8)              122.373          estimate D2E/DX2                !
 ! A17   A(5,6,7)              124.4322         estimate D2E/DX2                !
 ! A18   A(6,7,47)             110.1151         estimate D2E/DX2                !
 ! A19   A(6,7,48)             110.1078         estimate D2E/DX2                !
 ! A20   A(6,7,49)             109.0713         estimate D2E/DX2                !
 ! A21   A(47,7,48)            110.1682         estimate D2E/DX2                !
 ! A22   A(47,7,49)            108.6692         estimate D2E/DX2                !
 ! A23   A(48,7,49)            108.6707         estimate D2E/DX2                !
 ! A24   A(5,8,9)              120.5222         estimate D2E/DX2                !
 ! A25   A(5,8,50)             120.273          estimate D2E/DX2                !
 ! A26   A(9,8,50)             119.1982         estimate D2E/DX2                !
 ! A27   A(8,9,10)             120.5133         estimate D2E/DX2                !
 ! A28   A(8,9,42)             119.2812         estimate D2E/DX2                !
 ! A29   A(10,9,42)            120.1986         estimate D2E/DX2                !
 ! A30   A(9,10,11)            119.5124         estimate D2E/DX2                !
 ! A31   A(9,10,40)            121.0593         estimate D2E/DX2                !
 ! A32   A(11,10,40)           119.4278         estimate D2E/DX2                !
 ! A33   A(10,11,12)           120.7915         estimate D2E/DX2                !
 ! A34   A(10,11,51)           119.5147         estimate D2E/DX2                !
 ! A35   A(12,11,51)           119.693          estimate D2E/DX2                !
 ! A36   A(11,12,13)           119.963          estimate D2E/DX2                !
 ! A37   A(11,12,17)           120.0502         estimate D2E/DX2                !
 ! A38   A(13,12,17)           119.9867         estimate D2E/DX2                !
 ! A39   A(12,13,14)           120.3021         estimate D2E/DX2                !
 ! A40   A(12,13,52)           120.6887         estimate D2E/DX2                !
 ! A41   A(14,13,52)           119.0088         estimate D2E/DX2                !
 ! A42   A(13,14,15)           120.1358         estimate D2E/DX2                !
 ! A43   A(13,14,53)           119.9418         estimate D2E/DX2                !
 ! A44   A(15,14,53)           119.9215         estimate D2E/DX2                !
 ! A45   A(14,15,16)           120.2689         estimate D2E/DX2                !
 ! A46   A(14,15,54)           119.8354         estimate D2E/DX2                !
 ! A47   A(16,15,54)           119.8956         estimate D2E/DX2                !
 ! A48   A(15,16,17)           120.5485         estimate D2E/DX2                !
 ! A49   A(15,16,55)           118.0183         estimate D2E/DX2                !
 ! A50   A(17,16,55)           121.4328         estimate D2E/DX2                !
 ! A51   A(12,17,16)           118.7485         estimate D2E/DX2                !
 ! A52   A(12,17,18)           119.3326         estimate D2E/DX2                !
 ! A53   A(16,17,18)           121.916          estimate D2E/DX2                !
 ! A54   A(17,18,19)           121.6732         estimate D2E/DX2                !
 ! A55   A(17,18,40)           119.7069         estimate D2E/DX2                !
 ! A56   A(19,18,40)           118.612          estimate D2E/DX2                !
 ! A57   A(18,19,20)           118.6137         estimate D2E/DX2                !
 ! A58   A(18,19,39)           121.6721         estimate D2E/DX2                !
 ! A59   A(20,19,39)           119.7053         estimate D2E/DX2                !
 ! A60   A(19,20,21)           119.3741         estimate D2E/DX2                !
 ! A61   A(19,20,22)           120.6445         estimate D2E/DX2                !
 ! A62   A(21,20,22)           119.9711         estimate D2E/DX2                !
 ! A63   A(20,21,71)           118.4798         estimate D2E/DX2                !
 ! A64   A(20,22,23)           121.0375         estimate D2E/DX2                !
 ! A65   A(20,22,33)           119.4407         estimate D2E/DX2                !
 ! A66   A(23,22,33)           119.5212         estimate D2E/DX2                !
 ! A67   A(22,23,24)           120.5089         estimate D2E/DX2                !
 ! A68   A(22,23,32)           120.1904         estimate D2E/DX2                !
 ! A69   A(24,23,32)           119.2946         estimate D2E/DX2                !
 ! A70   A(23,24,25)           120.5145         estimate D2E/DX2                !
 ! A71   A(23,24,56)           119.1918         estimate D2E/DX2                !
 ! A72   A(25,24,56)           120.2876         estimate D2E/DX2                !
 ! A73   A(24,25,26)           122.3711         estimate D2E/DX2                !
 ! A74   A(24,25,28)           119.3681         estimate D2E/DX2                !
 ! A75   A(26,25,28)           118.2608         estimate D2E/DX2                !
 ! A76   A(25,26,27)           124.4326         estimate D2E/DX2                !
 ! A77   A(26,27,57)           109.0626         estimate D2E/DX2                !
 ! A78   A(26,27,58)           110.1193         estimate D2E/DX2                !
 ! A79   A(26,27,59)           110.0991         estimate D2E/DX2                !
 ! A80   A(57,27,58)           108.684          estimate D2E/DX2                !
 ! A81   A(57,27,59)           108.6614         estimate D2E/DX2                !
 ! A82   A(58,27,59)           110.1757         estimate D2E/DX2                !
 ! A83   A(25,28,29)           120.6977         estimate D2E/DX2                !
 ! A84   A(25,28,60)           118.5859         estimate D2E/DX2                !
 ! A85   A(29,28,60)           120.7163         estimate D2E/DX2                !
 ! A86   A(28,29,30)           122.4156         estimate D2E/DX2                !
 ! A87   A(28,29,32)           119.3036         estimate D2E/DX2                !
 ! A88   A(30,29,32)           118.2807         estimate D2E/DX2                !
 ! A89   A(29,30,31)           124.4172         estimate D2E/DX2                !
 ! A90   A(30,31,61)           110.11           estimate D2E/DX2                !
 ! A91   A(30,31,62)           110.117          estimate D2E/DX2                !
 ! A92   A(30,31,63)           109.0813         estimate D2E/DX2                !
 ! A93   A(61,31,62)           110.1436         estimate D2E/DX2                !
 ! A94   A(61,31,63)           108.6646         estimate D2E/DX2                !
 ! A95   A(62,31,63)           108.6861         estimate D2E/DX2                !
 ! A96   A(23,32,29)           120.8179         estimate D2E/DX2                !
 ! A97   A(23,32,64)           120.0682         estimate D2E/DX2                !
 ! A98   A(29,32,64)           119.1091         estimate D2E/DX2                !
 ! A99   A(22,33,34)           120.7813         estimate D2E/DX2                !
 ! A100  A(22,33,65)           119.5164         estimate D2E/DX2                !
 ! A101  A(34,33,65)           119.7014         estimate D2E/DX2                !
 ! A102  A(33,34,35)           119.9621         estimate D2E/DX2                !
 ! A103  A(33,34,39)           120.052          estimate D2E/DX2                !
 ! A104  A(35,34,39)           119.9856         estimate D2E/DX2                !
 ! A105  A(34,35,36)           120.3029         estimate D2E/DX2                !
 ! A106  A(34,35,66)           120.6866         estimate D2E/DX2                !
 ! A107  A(36,35,66)           119.0101         estimate D2E/DX2                !
 ! A108  A(35,36,37)           120.1346         estimate D2E/DX2                !
 ! A109  A(35,36,67)           119.9479         estimate D2E/DX2                !
 ! A110  A(37,36,67)           119.9167         estimate D2E/DX2                !
 ! A111  A(36,37,38)           120.2715         estimate D2E/DX2                !
 ! A112  A(36,37,68)           119.8354         estimate D2E/DX2                !
 ! A113  A(38,37,68)           119.893          estimate D2E/DX2                !
 ! A114  A(37,38,39)           120.5489         estimate D2E/DX2                !
 ! A115  A(37,38,69)           118.0154         estimate D2E/DX2                !
 ! A116  A(39,38,69)           121.4352         estimate D2E/DX2                !
 ! A117  A(19,39,34)           119.3325         estimate D2E/DX2                !
 ! A118  A(19,39,38)           121.9175         estimate D2E/DX2                !
 ! A119  A(34,39,38)           118.7468         estimate D2E/DX2                !
 ! A120  A(10,40,18)           120.6448         estimate D2E/DX2                !
 ! A121  A(10,40,41)           119.978          estimate D2E/DX2                !
 ! A122  A(18,40,41)           119.367          estimate D2E/DX2                !
 ! A123  A(40,41,71)            96.0466         estimate D2E/DX2                !
 ! A124  A(3,42,9)             120.8227         estimate D2E/DX2                !
 ! A125  A(3,42,70)            119.0871         estimate D2E/DX2                !
 ! A126  A(9,42,70)            120.0856         estimate D2E/DX2                !
 ! A127  A(21,71,41)           100.0001         estimate D2E/DX2                !
 ! D1    D(43,1,2,3)           179.9502         estimate D2E/DX2                !
 ! D2    D(44,1,2,3)           -60.8575         estimate D2E/DX2                !
 ! D3    D(45,1,2,3)            60.7769         estimate D2E/DX2                !
 ! D4    D(1,2,3,4)              0.1068         estimate D2E/DX2                !
 ! D5    D(1,2,3,42)          -179.9561         estimate D2E/DX2                !
 ! D6    D(2,3,4,5)           -179.9065         estimate D2E/DX2                !
 ! D7    D(2,3,4,46)            -0.0272         estimate D2E/DX2                !
 ! D8    D(42,3,4,5)             0.157          estimate D2E/DX2                !
 ! D9    D(42,3,4,46)         -179.9637         estimate D2E/DX2                !
 ! D10   D(2,3,42,9)          -179.7107         estimate D2E/DX2                !
 ! D11   D(2,3,42,70)           -0.4949         estimate D2E/DX2                !
 ! D12   D(4,3,42,9)             0.2284         estimate D2E/DX2                !
 ! D13   D(4,3,42,70)          179.4442         estimate D2E/DX2                !
 ! D14   D(3,4,5,6)            179.8125         estimate D2E/DX2                !
 ! D15   D(3,4,5,8)             -0.1053         estimate D2E/DX2                !
 ! D16   D(46,4,5,6)            -0.0693         estimate D2E/DX2                !
 ! D17   D(46,4,5,8)          -179.9871         estimate D2E/DX2                !
 ! D18   D(4,5,6,7)            179.5814         estimate D2E/DX2                !
 ! D19   D(8,5,6,7)             -0.5035         estimate D2E/DX2                !
 ! D20   D(4,5,8,9)             -0.3315         estimate D2E/DX2                !
 ! D21   D(4,5,8,50)           178.7246         estimate D2E/DX2                !
 ! D22   D(6,5,8,9)            179.7543         estimate D2E/DX2                !
 ! D23   D(6,5,8,50)            -1.1897         estimate D2E/DX2                !
 ! D24   D(5,6,7,47)           -60.3982         estimate D2E/DX2                !
 ! D25   D(5,6,7,48)            61.276          estimate D2E/DX2                !
 ! D26   D(5,6,7,49)          -179.5624         estimate D2E/DX2                !
 ! D27   D(5,8,9,10)           179.7547         estimate D2E/DX2                !
 ! D28   D(5,8,9,42)             0.7077         estimate D2E/DX2                !
 ! D29   D(50,8,9,10)            0.6885         estimate D2E/DX2                !
 ! D30   D(50,8,9,42)         -178.3584         estimate D2E/DX2                !
 ! D31   D(8,9,10,11)         -129.2231         estimate D2E/DX2                !
 ! D32   D(8,9,10,40)           51.0265         estimate D2E/DX2                !
 ! D33   D(42,9,10,11)          49.815          estimate D2E/DX2                !
 ! D34   D(42,9,10,40)        -129.9353         estimate D2E/DX2                !
 ! D35   D(8,9,42,3)            -0.6569         estimate D2E/DX2                !
 ! D36   D(8,9,42,70)         -179.8649         estimate D2E/DX2                !
 ! D37   D(10,9,42,3)         -179.707          estimate D2E/DX2                !
 ! D38   D(10,9,42,70)           1.0851         estimate D2E/DX2                !
 ! D39   D(9,10,11,12)        -179.7259         estimate D2E/DX2                !
 ! D40   D(9,10,11,51)           0.6025         estimate D2E/DX2                !
 ! D41   D(40,10,11,12)          0.0285         estimate D2E/DX2                !
 ! D42   D(40,10,11,51)       -179.6431         estimate D2E/DX2                !
 ! D43   D(9,10,40,18)        -178.7361         estimate D2E/DX2                !
 ! D44   D(9,10,40,41)           2.4353         estimate D2E/DX2                !
 ! D45   D(11,10,40,18)          1.5133         estimate D2E/DX2                !
 ! D46   D(11,10,40,41)       -177.3153         estimate D2E/DX2                !
 ! D47   D(10,11,12,13)        179.4002         estimate D2E/DX2                !
 ! D48   D(10,11,12,17)         -0.437          estimate D2E/DX2                !
 ! D49   D(51,11,12,13)         -0.9288         estimate D2E/DX2                !
 ! D50   D(51,11,12,17)        179.234          estimate D2E/DX2                !
 ! D51   D(11,12,13,14)       -179.3359         estimate D2E/DX2                !
 ! D52   D(11,12,13,52)          0.4187         estimate D2E/DX2                !
 ! D53   D(17,12,13,14)          0.5014         estimate D2E/DX2                !
 ! D54   D(17,12,13,52)       -179.744          estimate D2E/DX2                !
 ! D55   D(11,12,17,16)        178.7188         estimate D2E/DX2                !
 ! D56   D(11,12,17,18)         -0.6736         estimate D2E/DX2                !
 ! D57   D(13,12,17,16)         -1.1183         estimate D2E/DX2                !
 ! D58   D(13,12,17,18)        179.4893         estimate D2E/DX2                !
 ! D59   D(12,13,14,15)          0.2226         estimate D2E/DX2                !
 ! D60   D(12,13,14,53)        179.8984         estimate D2E/DX2                !
 ! D61   D(52,13,14,15)       -179.5361         estimate D2E/DX2                !
 ! D62   D(52,13,14,53)          0.1397         estimate D2E/DX2                !
 ! D63   D(13,14,15,16)         -0.3112         estimate D2E/DX2                !
 ! D64   D(13,14,15,54)        179.5831         estimate D2E/DX2                !
 ! D65   D(53,14,15,16)       -179.9871         estimate D2E/DX2                !
 ! D66   D(53,14,15,54)         -0.0927         estimate D2E/DX2                !
 ! D67   D(14,15,16,17)         -0.3296         estimate D2E/DX2                !
 ! D68   D(14,15,16,55)        179.4311         estimate D2E/DX2                !
 ! D69   D(54,15,16,17)        179.7761         estimate D2E/DX2                !
 ! D70   D(54,15,16,55)         -0.4632         estimate D2E/DX2                !
 ! D71   D(15,16,17,12)          1.0365         estimate D2E/DX2                !
 ! D72   D(15,16,17,18)       -179.5876         estimate D2E/DX2                !
 ! D73   D(55,16,17,12)       -178.716          estimate D2E/DX2                !
 ! D74   D(55,16,17,18)          0.66           estimate D2E/DX2                !
 ! D75   D(12,17,18,19)       -178.8522         estimate D2E/DX2                !
 ! D76   D(12,17,18,40)          2.185          estimate D2E/DX2                !
 ! D77   D(16,17,18,19)          1.7754         estimate D2E/DX2                !
 ! D78   D(16,17,18,40)       -177.1874         estimate D2E/DX2                !
 ! D79   D(17,18,19,20)       -108.8886         estimate D2E/DX2                !
 ! D80   D(17,18,19,39)         72.2045         estimate D2E/DX2                !
 ! D81   D(40,18,19,20)         70.0853         estimate D2E/DX2                !
 ! D82   D(40,18,19,39)       -108.8217         estimate D2E/DX2                !
 ! D83   D(17,18,40,10)         -2.624          estimate D2E/DX2                !
 ! D84   D(17,18,40,41)        176.2117         estimate D2E/DX2                !
 ! D85   D(19,18,40,10)        178.3815         estimate D2E/DX2                !
 ! D86   D(19,18,40,41)         -2.7828         estimate D2E/DX2                !
 ! D87   D(18,19,20,21)         -2.6385         estimate D2E/DX2                !
 ! D88   D(18,19,20,22)        178.527          estimate D2E/DX2                !
 ! D89   D(39,19,20,21)        176.2905         estimate D2E/DX2                !
 ! D90   D(39,19,20,22)         -2.544          estimate D2E/DX2                !
 ! D91   D(18,19,39,34)       -178.9686         estimate D2E/DX2                !
 ! D92   D(18,19,39,38)          1.6828         estimate D2E/DX2                !
 ! D93   D(20,19,39,34)          2.1362         estimate D2E/DX2                !
 ! D94   D(20,19,39,38)       -177.2125         estimate D2E/DX2                !
 ! D95   D(19,20,21,71)        -60.1693         estimate D2E/DX2                !
 ! D96   D(22,20,21,71)        118.6732         estimate D2E/DX2                !
 ! D97   D(19,20,22,23)       -178.8427         estimate D2E/DX2                !
 ! D98   D(19,20,22,33)          1.4507         estimate D2E/DX2                !
 ! D99   D(21,20,22,23)          2.3297         estimate D2E/DX2                !
 ! D100  D(21,20,22,33)       -177.3769         estimate D2E/DX2                !
 ! D101  D(20,21,71,41)         20.303          estimate D2E/DX2                !
 ! D102  D(20,22,23,24)         51.3814         estimate D2E/DX2                !
 ! D103  D(20,22,23,32)       -129.5231         estimate D2E/DX2                !
 ! D104  D(33,22,23,24)       -128.9122         estimate D2E/DX2                !
 ! D105  D(33,22,23,32)         50.1833         estimate D2E/DX2                !
 ! D106  D(20,22,33,34)          0.043          estimate D2E/DX2                !
 ! D107  D(20,22,33,65)       -179.6308         estimate D2E/DX2                !
 ! D108  D(23,22,33,34)       -179.6681         estimate D2E/DX2                !
 ! D109  D(23,22,33,65)          0.6581         estimate D2E/DX2                !
 ! D110  D(22,23,24,25)        179.7775         estimate D2E/DX2                !
 ! D111  D(22,23,24,56)          0.6771         estimate D2E/DX2                !
 ! D112  D(32,23,24,25)          0.6739         estimate D2E/DX2                !
 ! D113  D(32,23,24,56)       -178.4265         estimate D2E/DX2                !
 ! D114  D(22,23,32,29)       -179.7857         estimate D2E/DX2                !
 ! D115  D(22,23,32,64)          1.0118         estimate D2E/DX2                !
 ! D116  D(24,23,32,29)         -0.6792         estimate D2E/DX2                !
 ! D117  D(24,23,32,64)       -179.8818         estimate D2E/DX2                !
 ! D118  D(23,24,25,26)        179.8185         estimate D2E/DX2                !
 ! D119  D(23,24,25,28)         -0.2611         estimate D2E/DX2                !
 ! D120  D(56,24,25,26)         -1.091          estimate D2E/DX2                !
 ! D121  D(56,24,25,28)        178.8294         estimate D2E/DX2                !
 ! D122  D(24,25,26,27)         -0.0967         estimate D2E/DX2                !
 ! D123  D(28,25,26,27)        179.982          estimate D2E/DX2                !
 ! D124  D(24,25,28,29)         -0.157          estimate D2E/DX2                !
 ! D125  D(24,25,28,60)        179.9684         estimate D2E/DX2                !
 ! D126  D(26,25,28,29)        179.7668         estimate D2E/DX2                !
 ! D127  D(26,25,28,60)         -0.1079         estimate D2E/DX2                !
 ! D128  D(25,26,27,57)       -179.7468         estimate D2E/DX2                !
 ! D129  D(25,26,27,58)        -60.5672         estimate D2E/DX2                !
 ! D130  D(25,26,27,59)         61.1135         estimate D2E/DX2                !
 ! D131  D(25,28,29,30)       -179.9105         estimate D2E/DX2                !
 ! D132  D(25,28,29,32)          0.1538         estimate D2E/DX2                !
 ! D133  D(60,28,29,30)         -0.0385         estimate D2E/DX2                !
 ! D134  D(60,28,29,32)       -179.9742         estimate D2E/DX2                !
 ! D135  D(28,29,30,31)          0.0206         estimate D2E/DX2                !
 ! D136  D(32,29,30,31)        179.957          estimate D2E/DX2                !
 ! D137  D(28,29,32,23)          0.269          estimate D2E/DX2                !
 ! D138  D(28,29,32,64)        179.4791         estimate D2E/DX2                !
 ! D139  D(30,29,32,23)       -179.6694         estimate D2E/DX2                !
 ! D140  D(30,29,32,64)         -0.4592         estimate D2E/DX2                !
 ! D141  D(29,30,31,61)         60.8272         estimate D2E/DX2                !
 ! D142  D(29,30,31,62)        -60.8191         estimate D2E/DX2                !
 ! D143  D(29,30,31,63)        179.9888         estimate D2E/DX2                !
 ! D144  D(22,33,34,35)        179.3949         estimate D2E/DX2                !
 ! D145  D(22,33,34,39)         -0.4212         estimate D2E/DX2                !
 ! D146  D(65,33,34,35)         -0.9319         estimate D2E/DX2                !
 ! D147  D(65,33,34,39)        179.252          estimate D2E/DX2                !
 ! D148  D(33,34,35,36)       -179.324          estimate D2E/DX2                !
 ! D149  D(33,34,35,66)          0.443          estimate D2E/DX2                !
 ! D150  D(39,34,35,36)          0.4922         estimate D2E/DX2                !
 ! D151  D(39,34,35,66)       -179.7408         estimate D2E/DX2                !
 ! D152  D(33,34,39,19)         -0.6721         estimate D2E/DX2                !
 ! D153  D(33,34,39,38)        178.6973         estimate D2E/DX2                !
 ! D154  D(35,34,39,19)        179.5118         estimate D2E/DX2                !
 ! D155  D(35,34,39,38)         -1.1187         estimate D2E/DX2                !
 ! D156  D(34,35,36,37)          0.2343         estimate D2E/DX2                !
 ! D157  D(34,35,36,67)        179.9199         estimate D2E/DX2                !
 ! D158  D(66,35,36,37)       -179.5366         estimate D2E/DX2                !
 ! D159  D(66,35,36,67)          0.149          estimate D2E/DX2                !
 ! D160  D(35,36,37,38)         -0.3158         estimate D2E/DX2                !
 ! D161  D(35,36,37,68)        179.5773         estimate D2E/DX2                !
 ! D162  D(67,36,37,38)        179.9985         estimate D2E/DX2                !
 ! D163  D(67,36,37,68)         -0.1084         estimate D2E/DX2                !
 ! D164  D(36,37,38,39)         -0.3348         estimate D2E/DX2                !
 ! D165  D(36,37,38,69)        179.4147         estimate D2E/DX2                !
 ! D166  D(68,37,38,39)        179.7722         estimate D2E/DX2                !
 ! D167  D(68,37,38,69)         -0.4783         estimate D2E/DX2                !
 ! D168  D(37,38,39,19)       -179.6036         estimate D2E/DX2                !
 ! D169  D(37,38,39,34)          1.044          estimate D2E/DX2                !
 ! D170  D(69,38,39,19)          0.6556         estimate D2E/DX2                !
 ! D171  D(69,38,39,34)       -178.6968         estimate D2E/DX2                !
 ! D172  D(10,40,41,71)         94.8271         estimate D2E/DX2                !
 ! D173  D(18,40,41,71)        -84.0165         estimate D2E/DX2                !
 ! D174  D(40,41,71,21)         67.5198         estimate D2E/DX2                !
 --------------------------------------------------------------------------------
 Trust Radius=3.00D-01 FncErr=1.00D-07 GrdErr=1.00D-06 EigMax=2.50D+02 EigMin=1.00D-04
 Number of steps in this run=    388 maximum allowed number of steps=    426.
 GradGradGradGradGradGradGradGradGradGradGradGradGradGradGradGradGradGrad

 Leave Link  103 at Thu Aug  1 13:00:02 2024, MaxMem= 13421772800 cpu:               0.8 elap:               0.0
 (Enter /public/software/apps/Gaussian/g16/l202.exe)
 Symmetry turned off by external request.
 Stoichiometry    C36H28CuO6(2)
 Framework group  C1[X(C36H28CuO6)]
 Deg. of freedom   207
 Full point group                 C1      NOp   1
                          Input orientation:                          
 ---------------------------------------------------------------------
 Center     Atomic      Atomic             Coordinates (Angstroms)
 Number     Number       Type             X           Y           Z
 ---------------------------------------------------------------------
      1          6           0        7.626183    3.730467    0.240998
      2          8           0        6.414366    3.318777   -0.383115
      3          6           0        5.803432    2.071661   -0.183442
      4          6           0        6.344832    1.094889    0.672538
      5          6           0        5.706203   -0.138143    0.843654
      6          8           0        6.293049   -1.076210    1.706433
      7          6           0        5.752626   -2.364277    1.982940
      8          6           0        4.508894   -0.397098    0.151191
      9          6           0        3.952735    0.572446   -0.699262
     10          6           0        2.693566    0.297256   -1.433255
     11          6           0        2.636704    0.522648   -2.815559
     12          6           0        1.460218    0.277404   -3.533966
     13          6           0        1.418814    0.521237   -4.916341
     14          6           0        0.245911    0.292428   -5.636809
     15          6           0       -0.895174   -0.176072   -4.986347
     16          6           0       -0.869959   -0.425309   -3.612318
     17          6           0        0.309735   -0.213626   -2.866157
     18          6           0        0.370230   -0.465228   -1.472411
     19          6           0       -0.797637   -1.004334   -0.724389
     20          6           0       -1.479599   -0.153171    0.164990
     21          8           0       -1.013087    1.144835    0.361885
     22          6           0       -2.608300   -0.609276    0.871107
     23          6           0       -3.348636    0.287817    1.791167
     24          6           0       -3.781252    1.552251    1.359425
     25          6           0       -4.487785    2.401657    2.230869
     26          8           0       -4.934756    3.673432    1.841848
     27          6           0       -4.728505    4.239567    0.551496
     28          6           0       -4.761951    1.973133    3.534268
     29          6           0       -4.341904    0.705240    3.976880
     30          8           0       -4.598795    0.238587    5.274782
     31          6           0       -5.298480    0.976425    6.271533
     32          6           0       -3.640710   -0.128246    3.099780
     33          6           0       -3.035099   -1.934183    0.706225
     34          6           0       -2.351677   -2.805813   -0.150283
     35          6           0       -2.786690   -4.133435   -0.292851
     36          6           0       -2.102504   -5.012088   -1.133705
     37          6           0       -0.978067   -4.577495   -1.834710
     38          6           0       -0.533496   -3.259839   -1.705265
     39          6           0       -1.218482   -2.350092   -0.870726
     40          6           0        1.552370   -0.181925   -0.763223
     41          8           0        1.578634   -0.356826    0.618787
     42          6           0        4.612355    1.800803   -0.864298
     43          1           0        7.877355    4.756877   -0.096429
     44          1           0        7.503788    3.738777    1.344682
     45          1           0        8.454348    3.048944   -0.046643
     46          1           0        7.264532    1.280489    1.210738
     47          1           0        4.743652   -2.265823    2.436504
     48          1           0        5.695975   -2.962969    1.049360
     49          1           0        6.415259   -2.888716    2.701427
     50          1           0        4.013719   -1.353148    0.256647
     51          1           0        3.517028    0.886365   -3.334289
     52          1           0        2.292555    0.892571   -5.438873
     53          1           0        0.220024    0.483901   -6.701781
     54          1           0       -1.804337   -0.345457   -5.548772
     55          1           0       -1.778457   -0.779129   -3.143195
     56          1           0       -3.577660    1.860809    0.342704
     57          1           0       -5.181040    5.251816    0.523482
     58          1           0       -3.641214    4.330003    0.343301
     59          1           0       -5.215898    3.610850   -0.223459
     60          1           0       -5.305414    2.636428    4.193612
     61          1           0       -6.330496    1.199416    5.927456
     62          1           0       -4.758490    1.920053    6.497684
     63          1           0       -5.356592    0.369361    7.198161
     64          1           0       -3.311340   -1.100460    3.446568
     65          1           0       -3.908401   -2.285273    1.245210
     66          1           0       -3.653723   -4.492520    0.249026
     67          1           0       -2.442025   -6.034468   -1.238300
     68          1           0       -0.446975   -5.265055   -2.480343
     69          1           0        0.348253   -2.964331   -2.258303
     70          1           0        4.193789    2.558882   -1.515491
     71         29           0        0.803127    1.390088    1.062991
 ---------------------------------------------------------------------
 Rotational constants (GHZ):           0.0873067           0.0458871           0.0400803
 Leave Link  202 at Thu Aug  1 13:00:02 2024, MaxMem= 13421772800 cpu:               0.2 elap:               0.0
 (Enter /public/software/apps/Gaussian/g16/l301.exe)
 Standard basis: def2SVPP (5D, 7F)
 Ernie: Thresh=  0.10000D-02 Tol=  0.10000D-05 Strict=F.
   668 basis functions,  1233 primitive gaussians,   712 cartesian basis functions
   161 alpha electrons      160 beta electrons
       nuclear repulsion energy      5465.1270212838 Hartrees.
 IExCor=  402 DFT=T Ex+Corr=B3LYP ExCW=0 ScaHFX=  0.200000
 ScaDFX=  0.800000  0.720000  1.000000  0.810000 ScalE2=  1.000000  1.000000
 IRadAn=      5 IRanWt=     -1 IRanGd=            0 ICorTp=0 IEmpDi=141
 NAtoms=   71 NActive=   71 NUniq=   71 SFac= 1.00D+00 NAtFMM=   60 NAOKFM=T Big=T
 Integral buffers will be    131072 words long.
 Raffenetti 2 integral format.
 Two-electron integral symmetry is turned off.
 R6Disp:  Grimme-D3(BJ) Dispersion energy=       -0.1810264465 Hartrees.
 Nuclear repulsion after empirical dispersion term =     5464.9459948373 Hartrees.
 Leave Link  301 at Thu Aug  1 13:00:02 2024, MaxMem= 13421772800 cpu:               0.8 elap:               0.0
 (Enter /public/software/apps/Gaussian/g16/l302.exe)
 NPDir=0 NMtPBC=     1 NCelOv=     1 NCel=       1 NClECP=     1 NCelD=      1
         NCelK=      1 NCelE2=     1 NClLst=     1 CellRange=     0.0.
 One-electron integrals computed using PRISM.
   1 Symmetry operations used in ECPInt.
 ECPInt:  NShTT=   50721 NPrTT=  208360 LenC2=   39480 LenP2D=   97989.
 LDataN:  DoStor=T MaxTD1= 4 Len=   56
 NBasis=   668 RedAO= T EigKep=  1.64D-04  NBF=   668
 NBsUse=   668 1.00D-06 EigRej= -1.00D+00 NBFU=   668
 Precomputing XC quadrature grid using
 IXCGrd= 4 IRadAn=           5 IRanWt=          -1 IRanGd=           0 AccXCQ= 0.00D+00.
 Generated NRdTot=       0 NPtTot=           0 NUsed=           0 NTot=          32
 NSgBfM=   688   688   688   688   688 MxSgAt=    71 MxSgA2=    71.
 Leave Link  302 at Thu Aug  1 13:00:03 2024, MaxMem= 13421772800 cpu:              27.3 elap:               0.9
 (Enter /public/software/apps/Gaussian/g16/l303.exe)
 DipDrv:  MaxL=1.
 Leave Link  303 at Thu Aug  1 13:00:04 2024, MaxMem= 13421772800 cpu:               3.6 elap:               0.1
 (Enter /public/software/apps/Gaussian/g16/l401.exe)
 ExpMin= 3.30D-02 ExpMax= 7.64D+04 ExpMxC= 1.15D+04 IAcc=3 IRadAn=         5 AccDes= 0.00D+00
 Harris functional with IExCor=  402 and IRadAn=       5 diagonalized for initial guess.
 HarFok:  IExCor=  402 AccDes= 0.00D+00 IRadAn=         5 IDoV= 1 UseB2=F ITyADJ=14
 ICtDFT=  3500011 ScaDFX=  1.000000  1.000000  1.000000  1.000000
 FoFCou: FMM=F IPFlag=           0 FMFlag=      100000 FMFlg1=        2001
         NFxFlg=           0 DoJE=T BraDBF=F KetDBF=T FulRan=T
         wScrn=  0.000000 ICntrl=       500 IOpCl=  0 I1Cent=   200000004 NGrid=           0
         NMat0=    1 NMatS0=      1 NMatT0=    0 NMatD0=    1 NMtDS0=    0 NMtDT0=    0
 Symmetry not used in FoFCou.
 Harris En= -3479.30200794106    
 JPrj=0 DoOrth=F DoCkMO=F.
 Initial guess <Sx>= 0.0000 <Sy>= 0.0000 <Sz>= 0.5000 <S**2>= 0.7500 S= 0.5000
 Leave Link  401 at Thu Aug  1 13:00:05 2024, MaxMem= 13421772800 cpu:              58.8 elap:               1.9
 (Enter /public/software/apps/Gaussian/g16/l502.exe)
 Two-electron integral symmetry not used.
 UHF open shell SCF:
 Using DIIS extrapolation, IDIIS=  1040.
 NGot= 13421772800 LenX= 13420728568 LenY= 13420220912
 Requested convergence on RMS density matrix=1.00D-08 within 128 cycles.
 Requested convergence on MAX density matrix=1.00D-06.
 Requested convergence on             energy=1.00D-06.
 No special actions if energy rises.
 Fock matrices will be formed incrementally for  20 cycles.

 Cycle   1  Pass 1  IDiag  1:
 FoFJK:  IHMeth= 1 ICntrl=       0 DoSepK=F KAlg= 0 I1Cent=           0 FoldK=F
 IRaf= 900000000 NMat=       1 IRICut=       1 DoRegI=T DoRafI=F ISym2E= 0 IDoP0=0 IntGTp=1.
 FoFCou: FMM=T IPFlag=           0 FMFlag=      100000 FMFlg1=        2001
         NFxFlg=           0 DoJE=F BraDBF=F KetDBF=F FulRan=T
         wScrn=  0.000000 ICntrl=         0 IOpCl=  1 I1Cent=           0 NGrid=           0
         NMat0=    1 NMatS0=      1 NMatT0=    0 NMatD0=    1 NMtDS0=    0 NMtDT0=    0
 Symmetry not used in FoFCou.
 FMM levels:  10  Number of levels for PrismC:   9
 E= -3463.10064805066    
 DIIS: error= 2.99D-01 at cycle   1 NSaved=   1.
 NSaved= 1 IEnMin= 1 EnMin= -3463.10064805066     IErMin= 1 ErrMin= 2.99D-01
 ErrMax= 2.99D-01  0.00D+00 EMaxC= 1.00D-01 BMatC= 6.96D+01 BMatP= 6.96D+01
 IDIUse=3 WtCom= 0.00D+00 WtEn= 1.00D+00
 Coeff-Com:  0.100D+01
 Coeff-En:   0.100D+01
 Coeff:      0.100D+01
 Gap=     0.640 Goal=   None    Shift=    0.000
 Gap=    -0.434 Goal=   None    Shift=    0.000
 GapD=   -0.434 DampG=0.250 DampE=0.125 DampFc=0.1250 IDamp=-1.
 Damping current iteration by 1.25D-01
 RMSDP=5.98D-02 MaxDP=1.08D+01              OVMax= 9.87D-01

 Cycle   2  Pass 1  IDiag  1:
 RMSU=  7.45D-03    CP:  1.04D+00
 E= -3468.25161332742     Delta-E=       -5.150965276767 Rises=F Damp=T
 DIIS: error= 2.03D-01 at cycle   2 NSaved=   2.
 NSaved= 2 IEnMin= 2 EnMin= -3468.25161332742     IErMin= 2 ErrMin= 2.03D-01
 ErrMax= 2.03D-01  0.00D+00 EMaxC= 1.00D-01 BMatC= 2.65D+01 BMatP= 6.96D+01
 IDIUse=3 WtCom= 0.00D+00 WtEn= 1.00D+00
 Coeff-Com: -0.119D+01 0.219D+01
 Coeff-En:   0.000D+00 0.100D+01
 Coeff:      0.000D+00 0.100D+01
 Gap=    -0.152 Goal=   None    Shift=    0.000
 Gap=    -0.081 Goal=   None    Shift=    0.000
 RMSDP=1.53D-02 MaxDP=3.55D+00 DE=-5.15D+00 OVMax= 8.97D-01

 Cycle   3  Pass 1  IDiag  1:
 RMSU=  1.43D-02    CP:  9.72D-01  1.71D+00
 E= -3449.75600966996     Delta-E=       18.495603657469 Rises=F Damp=F
 DIIS: error= 2.01D-01 at cycle   3 NSaved=   3.
 NSaved= 3 IEnMin= 2 EnMin= -3468.25161332742     IErMin= 3 ErrMin= 2.01D-01
 ErrMax= 2.01D-01  0.00D+00 EMaxC= 1.00D-01 BMatC= 8.05D+01 BMatP= 2.65D+01
 IDIUse=2 WtCom= 0.00D+00 WtEn= 1.00D+00
 EnCoef did   100 forward-backward iterations
 Coeff-En:   0.581D+00 0.274D-01 0.391D+00
 Coeff:      0.581D+00 0.274D-01 0.391D+00
 Gap=     0.013 Goal=   None    Shift=    0.000
 Gap=     0.261 Goal=   None    Shift=    0.000
 RMSDP=1.92D-02 MaxDP=2.77D+00 DE= 1.85D+01 OVMax= 9.78D-01

 Cycle   4  Pass 1  IDiag  1:
 RMSU=  1.08D-02    CP:  9.09D-01  3.11D-01  1.64D-01
 E= -3446.41917463002     Delta-E=        3.336835039936 Rises=F Damp=F
 DIIS: error= 1.66D-01 at cycle   4 NSaved=   4.
 NSaved= 4 IEnMin= 2 EnMin= -3468.25161332742     IErMin= 4 ErrMin= 1.66D-01
 ErrMax= 1.66D-01  0.00D+00 EMaxC= 1.00D-01 BMatC= 6.40D+01 BMatP= 2.65D+01
 IDIUse=2 WtCom= 0.00D+00 WtEn= 1.00D+00
 EnCoef did   100 forward-backward iterations
 Coeff-En:   0.527D+00 0.131D-01 0.302D+00 0.158D+00
 Coeff:      0.527D+00 0.131D-01 0.302D+00 0.158D+00
 Gap=    -0.300 Goal=   None    Shift=    0.000
 Gap=     0.228 Goal=   None    Shift=    0.000
 RMSDP=1.07D-02 MaxDP=1.65D+00 DE= 3.34D+00 OVMax= 6.90D-01

 Cycle   5  Pass 1  IDiag  1:
 RMSU=  4.69D-03    CP:  8.86D-01  2.47D-03  1.30D-01  1.33D-01
 E= -3477.18762473778     Delta-E=      -30.768450107757 Rises=F Damp=F
 DIIS: error= 1.50D-01 at cycle   5 NSaved=   5.
 NSaved= 5 IEnMin= 5 EnMin= -3477.18762473778     IErMin= 5 ErrMin= 1.50D-01
 ErrMax= 1.50D-01  0.00D+00 EMaxC= 1.00D-01 BMatC= 8.34D+00 BMatP= 2.65D+01
 IDIUse=3 WtCom= 0.00D+00 WtEn= 1.00D+00
 EnCoef did   100 forward-backward iterations
 Coeff-Com: -0.542D+00 0.106D+01-0.885D-02-0.552D-01 0.544D+00
 Coeff-En:   0.173D+00 0.171D-02 0.000D+00 0.617D-02 0.819D+00
 Coeff:      0.173D+00 0.171D-02 0.000D+00 0.617D-02 0.819D+00
 Gap=     0.502 Goal=   None    Shift=    0.000
 Gap=     0.026 Goal=   None    Shift=    0.000
 RMSDP=6.39D-03 MaxDP=4.65D-01 DE=-3.08D+01 OVMax= 8.30D-01

 Cycle   6  Pass 1  IDiag  1:
 RMSU=  5.10D-03    CP:  9.13D-01  1.82D-01  4.86D-02  2.47D-01  3.27D-01
 E= -3468.87139304851     Delta-E=        8.316231689261 Rises=F Damp=F
 DIIS: error= 9.53D-02 at cycle   6 NSaved=   6.
 NSaved= 6 IEnMin= 5 EnMin= -3477.18762473778     IErMin= 6 ErrMin= 9.53D-02
 ErrMax= 9.53D-02  0.00D+00 EMaxC= 1.00D-01 BMatC= 1.89D+01 BMatP= 8.34D+00
 IDIUse=2 WtCom= 0.00D+00 WtEn= 1.00D+00
 EnCoef did   100 forward-backward iterations
 Coeff-En:   0.149D+00 0.255D-02 0.000D+00 0.000D+00 0.721D+00 0.127D+00
 Coeff:      0.149D+00 0.255D-02 0.000D+00 0.000D+00 0.721D+00 0.127D+00
 Gap=     0.164 Goal=   None    Shift=    0.000
 Gap=     0.003 Goal=   None    Shift=    0.000
 RMSDP=4.57D-03 MaxDP=3.70D-01 DE= 8.32D+00 OVMax= 7.61D-01

 Cycle   7  Pass 1  IDiag  1:
 RMSU=  2.31D-03    CP:  9.03D-01  1.83D-02  7.31D-02  1.12D-01  5.67D-01
                    CP:  3.65D-01
 E= -3478.37335437365     Delta-E=       -9.501961325139 Rises=F Damp=F
 DIIS: error= 1.18D-01 at cycle   7 NSaved=   7.
 NSaved= 7 IEnMin= 7 EnMin= -3478.37335437365     IErMin= 6 ErrMin= 9.53D-02
 ErrMax= 1.18D-01  0.00D+00 EMaxC= 1.00D-01 BMatC= 4.90D+00 BMatP= 8.34D+00
 IDIUse=3 WtCom= 0.00D+00 WtEn= 1.00D+00
 Coeff-Com: -0.879D-01 0.148D+00-0.230D-01-0.234D-01 0.456D+00 0.697D-01
 Coeff-Com:  0.460D+00
 Coeff-En:   0.000D+00 0.000D+00 0.000D+00 0.000D+00 0.319D+00 0.000D+00
 Coeff-En:   0.681D+00
 Coeff:      0.000D+00 0.000D+00 0.000D+00 0.000D+00 0.319D+00 0.000D+00
 Coeff:      0.681D+00
 Gap=     0.191 Goal=   None    Shift=    0.000
 Gap=     0.117 Goal=   None    Shift=    0.000
 RMSDP=2.58D-03 MaxDP=4.18D-01 DE=-9.50D+00 OVMax= 4.53D-01

 Cycle   8  Pass 1  IDiag  1:
 RMSU=  1.62D-03    CP:  8.90D-01 -3.47D-02  7.25D-02  1.36D-01  7.53D-01
                    CP:  1.97D-01  3.45D-01
 E= -3478.62860187821     Delta-E=       -0.255247504552 Rises=F Damp=F
 DIIS: error= 5.96D-02 at cycle   8 NSaved=   8.
 NSaved= 8 IEnMin= 8 EnMin= -3478.62860187821     IErMin= 8 ErrMin= 5.96D-02
 ErrMax= 5.96D-02  0.00D+00 EMaxC= 1.00D-01 BMatC= 2.00D+00 BMatP= 4.90D+00
 IDIUse=3 WtCom= 4.04D-01 WtEn= 5.96D-01
 Coeff-Com:  0.298D-01-0.599D-01-0.996D-02-0.180D-01 0.179D+00 0.183D-01
 Coeff-Com:  0.433D+00 0.428D+00
 Coeff-En:   0.000D+00 0.000D+00 0.000D+00 0.000D+00 0.000D+00 0.000D+00
 Coeff-En:   0.418D+00 0.582D+00
 Coeff:      0.121D-01-0.242D-01-0.403D-02-0.726D-02 0.724D-01 0.741D-02
 Coeff:      0.424D+00 0.520D+00
 Gap=     0.220 Goal=   None    Shift=    0.000
 Gap=     0.009 Goal=   None    Shift=    0.000
 RMSDP=2.17D-03 MaxDP=2.17D-01 DE=-2.55D-01 OVMax= 4.32D-01

 Cycle   9  Pass 1  IDiag  1:
 RMSU=  1.11D-03    CP:  8.94D-01 -3.83D-02  7.53D-02  1.02D-01  7.86D-01
                    CP:  1.82D-01  6.61D-01 -2.99D-02
 E= -3478.91212051583     Delta-E=       -0.283518637621 Rises=F Damp=F
 DIIS: error= 1.35D-02 at cycle   9 NSaved=   9.
 NSaved= 9 IEnMin= 9 EnMin= -3478.91212051583     IErMin= 9 ErrMin= 1.35D-02
 ErrMax= 1.35D-02  0.00D+00 EMaxC= 1.00D-01 BMatC= 5.77D-01 BMatP= 2.00D+00
 IDIUse=3 WtCom= 8.65D-01 WtEn= 1.35D-01
 EnCoef did     6 forward-backward iterations
 Coeff-Com: -0.283D-01 0.445D-01-0.177D-02-0.719D-02-0.339D-01 0.704D-02
 Coeff-Com:  0.138D+00 0.403D+00 0.479D+00
 Coeff-En:   0.000D+00 0.000D+00 0.000D+00 0.000D+00 0.000D+00 0.000D+00
 Coeff-En:   0.648D-01 0.332D+00 0.603D+00
 Coeff:     -0.245D-01 0.385D-01-0.153D-02-0.622D-02-0.294D-01 0.609D-02
 Coeff:      0.128D+00 0.393D+00 0.496D+00
 Gap=     0.160 Goal=   None    Shift=    0.000
 Gap=     0.072 Goal=   None    Shift=    0.000
 RMSDP=1.14D-03 MaxDP=9.20D-02 DE=-2.84D-01 OVMax= 2.06D-01

 Cycle  10  Pass 1  IDiag  1:
 RMSU=  7.03D-04    CP:  8.90D-01 -3.86D-02  6.89D-02  1.09D-01  7.33D-01
                    CP:  2.14D-01  6.36D-01  3.38D-01  4.68D-01
 E= -3479.07369322290     Delta-E=       -0.161572707077 Rises=F Damp=F
 DIIS: error= 5.53D-03 at cycle  10 NSaved=  10.
 NSaved=10 IEnMin=10 EnMin= -3479.07369322290     IErMin=10 ErrMin= 5.53D-03
 ErrMax= 5.53D-03  0.00D+00 EMaxC= 1.00D-01 BMatC= 6.25D-02 BMatP= 5.77D-01
 IDIUse=3 WtCom= 9.45D-01 WtEn= 5.53D-02
 Coeff-Com: -0.171D-01 0.261D-01 0.159D-02-0.344D-02-0.401D-01 0.127D-01
 Coeff-Com:  0.104D-01 0.197D+00 0.296D+00 0.516D+00
 Coeff-En:   0.000D+00 0.000D+00 0.000D+00 0.000D+00 0.000D+00 0.000D+00
 Coeff-En:   0.000D+00 0.000D+00 0.000D+00 0.100D+01
 Coeff:     -0.161D-01 0.246D-01 0.150D-02-0.325D-02-0.379D-01 0.120D-01
 Coeff:      0.979D-02 0.186D+00 0.280D+00 0.543D+00
 Gap=     0.126 Goal=   None    Shift=    0.000
 Gap=     0.029 Goal=   None    Shift=    0.000
 RMSDP=4.25D-04 MaxDP=4.50D-02 DE=-1.62D-01 OVMax= 4.67D-02

 Cycle  11  Pass 1  IDiag  1:
 RMSU=  3.69D-04    CP:  8.91D-01 -3.50D-02  7.12D-02  1.12D-01  7.43D-01
                    CP:  2.12D-01  6.19D-01  3.50D-01  5.05D-01  7.29D-01
 E= -3479.08322599014     Delta-E=       -0.009532767233 Rises=F Damp=F
 DIIS: error= 6.07D-03 at cycle  11 NSaved=  11.
 NSaved=11 IEnMin=11 EnMin= -3479.08322599014     IErMin=10 ErrMin= 5.53D-03
 ErrMax= 6.07D-03  0.00D+00 EMaxC= 1.00D-01 BMatC= 3.49D-02 BMatP= 6.25D-02
 IDIUse=3 WtCom= 9.45D-01 WtEn= 5.53D-02
 Coeff-Com: -0.223D-02 0.318D-02 0.940D-03-0.524D-03-0.268D-01 0.637D-02
 Coeff-Com:  0.494D-02 0.624D-01 0.317D-01 0.353D+00 0.567D+00
 Coeff-En:   0.000D+00 0.000D+00 0.000D+00 0.000D+00 0.000D+00 0.000D+00
 Coeff-En:   0.000D+00 0.000D+00 0.000D+00 0.311D+00 0.689D+00
 Coeff:     -0.210D-02 0.300D-02 0.888D-03-0.495D-03-0.253D-01 0.602D-02
 Coeff:      0.467D-02 0.589D-01 0.299D-01 0.351D+00 0.574D+00
 Gap=     0.111 Goal=   None    Shift=    0.000
 Gap=     0.035 Goal=   None    Shift=    0.000
 RMSDP=2.87D-04 MaxDP=2.41D-02 DE=-9.53D-03 OVMax= 9.49D-02

 Cycle  12  Pass 1  IDiag  1:
 RMSU=  1.92D-04    CP:  8.91D-01 -3.51D-02  7.02D-02  1.14D-01  7.29D-01
                    CP:  2.24D-01  6.19D-01  4.02D-01  4.14D-01  8.69D-01
                    CP:  7.28D-01
 E= -3479.09016184332     Delta-E=       -0.006935853182 Rises=F Damp=F
 DIIS: error= 3.17D-03 at cycle  12 NSaved=  12.
 NSaved=12 IEnMin=12 EnMin= -3479.09016184332     IErMin=12 ErrMin= 3.17D-03
 ErrMax= 3.17D-03  0.00D+00 EMaxC= 1.00D-01 BMatC= 1.06D-02 BMatP= 3.49D-02
 IDIUse=3 WtCom= 9.68D-01 WtEn= 3.17D-02
 Coeff-Com: -0.136D-02 0.250D-02 0.511D-04 0.142D-04-0.143D-01 0.149D-02
 Coeff-Com:  0.128D-01 0.134D-01-0.317D-01 0.165D+00 0.450D+00 0.402D+00
 Coeff-En:   0.000D+00 0.000D+00 0.000D+00 0.000D+00 0.000D+00 0.000D+00
 Coeff-En:   0.000D+00 0.000D+00 0.000D+00 0.000D+00 0.925D-01 0.907D+00
 Coeff:     -0.132D-02 0.242D-02 0.495D-04 0.137D-04-0.138D-01 0.144D-02
 Coeff:      0.124D-01 0.129D-01-0.307D-01 0.159D+00 0.439D+00 0.418D+00
 Gap=     0.114 Goal=   None    Shift=    0.000
 Gap=     0.039 Goal=   None    Shift=    0.000
 RMSDP=1.13D-04 MaxDP=7.61D-03 DE=-6.94D-03 OVMax= 1.99D-02

 Cycle  13  Pass 1  IDiag  1:
 RMSU=  9.22D-05    CP:  8.91D-01 -3.51D-02  6.97D-02  1.13D-01  7.27D-01
                    CP:  2.24D-01  6.22D-01  4.02D-01  4.11D-01  8.62D-01
                    CP:  8.56D-01  7.74D-01
 E= -3479.09218714156     Delta-E=       -0.002025298238 Rises=F Damp=F
 DIIS: error= 2.48D-03 at cycle  13 NSaved=  13.
 NSaved=13 IEnMin=13 EnMin= -3479.09218714156     IErMin=13 ErrMin= 2.48D-03
 ErrMax= 2.48D-03  0.00D+00 EMaxC= 1.00D-01 BMatC= 2.35D-03 BMatP= 1.06D-02
 IDIUse=3 WtCom= 9.75D-01 WtEn= 2.48D-02
 Coeff-Com:  0.606D-03-0.629D-03-0.646D-04-0.346D-04-0.874D-02-0.504D-03
 Coeff-Com:  0.134D-01 0.354D-02-0.137D-01 0.552D-01 0.167D+00 0.172D+00
 Coeff-Com:  0.612D+00
 Coeff-En:   0.000D+00 0.000D+00 0.000D+00 0.000D+00 0.000D+00 0.000D+00
 Coeff-En:   0.000D+00 0.000D+00 0.000D+00 0.000D+00 0.000D+00 0.000D+00
 Coeff-En:   0.100D+01
 Coeff:      0.591D-03-0.614D-03-0.630D-04-0.337D-04-0.852D-02-0.491D-03
 Coeff:      0.131D-01 0.346D-02-0.133D-01 0.538D-01 0.163D+00 0.168D+00
 Coeff:      0.622D+00
 Gap=     0.115 Goal=   None    Shift=    0.000
 Gap=     0.041 Goal=   None    Shift=    0.000
 RMSDP=6.77D-05 MaxDP=5.04D-03 DE=-2.03D-03 OVMax= 2.75D-02

 Cycle  14  Pass 1  IDiag  1:
 RMSU=  5.60D-05    CP:  8.91D-01 -3.46D-02  6.95D-02  1.13D-01  7.26D-01
                    CP:  2.26D-01  6.24D-01  4.01D-01  4.06D-01  8.64D-01
                    CP:  8.58D-01  9.59D-01  9.71D-01
 E= -3479.09255653013     Delta-E=       -0.000369388570 Rises=F Damp=F
 DIIS: error= 9.06D-04 at cycle  14 NSaved=  14.
 NSaved=14 IEnMin=14 EnMin= -3479.09255653013     IErMin=14 ErrMin= 9.06D-04
 ErrMax= 9.06D-04  0.00D+00 EMaxC= 1.00D-01 BMatC= 1.03D-03 BMatP= 2.35D-03
 IDIUse=3 WtCom= 9.91D-01 WtEn= 9.06D-03
 Coeff-Com: -0.260D-04 0.267D-03-0.691D-04-0.260D-04-0.262D-02-0.414D-04
 Coeff-Com:  0.651D-02-0.253D-02 0.104D-01 0.113D-01-0.212D-02-0.857D-01
 Coeff-Com:  0.469D+00 0.596D+00
 Coeff-En:   0.000D+00 0.000D+00 0.000D+00 0.000D+00 0.000D+00 0.000D+00
 Coeff-En:   0.000D+00 0.000D+00 0.000D+00 0.000D+00 0.000D+00 0.000D+00
 Coeff-En:   0.000D+00 0.100D+01
 Coeff:     -0.258D-04 0.264D-03-0.685D-04-0.257D-04-0.259D-02-0.410D-04
 Coeff:      0.645D-02-0.251D-02 0.103D-01 0.112D-01-0.210D-02-0.849D-01
 Coeff:      0.464D+00 0.600D+00
 Gap=     0.117 Goal=   None    Shift=    0.000
 Gap=     0.042 Goal=   None    Shift=    0.000
 RMSDP=4.75D-05 MaxDP=3.63D-03 DE=-3.69D-04 OVMax= 8.63D-03

 Cycle  15  Pass 1  IDiag  1:
 RMSU=  3.09D-05    CP:  8.91D-01 -3.48D-02  6.94D-02  1.13D-01  7.25D-01
                    CP:  2.26D-01  6.26D-01  3.91D-01  4.10D-01  8.63D-01
                    CP:  8.61D-01  9.93D-01  1.29D+00  1.04D+00
 E= -3479.09283967237     Delta-E=       -0.000283142243 Rises=F Damp=F
 DIIS: error= 5.18D-04 at cycle  15 NSaved=  15.
 NSaved=15 IEnMin=15 EnMin= -3479.09283967237     IErMin=15 ErrMin= 5.18D-04
 ErrMax= 5.18D-04  0.00D+00 EMaxC= 1.00D-01 BMatC= 2.43D-04 BMatP= 1.03D-03
 IDIUse=3 WtCom= 9.95D-01 WtEn= 5.18D-03
 Coeff-Com: -0.402D-03 0.637D-03 0.111D-04 0.492D-04 0.361D-03 0.156D-03
 Coeff-Com:  0.783D-03-0.263D-02 0.137D-01-0.109D-02-0.422D-01-0.165D+00
 Coeff-Com:  0.109D+00 0.338D+00 0.748D+00
 Coeff-En:   0.000D+00 0.000D+00 0.000D+00 0.000D+00 0.000D+00 0.000D+00
 Coeff-En:   0.000D+00 0.000D+00 0.000D+00 0.000D+00 0.000D+00 0.000D+00
 Coeff-En:   0.000D+00 0.000D+00 0.100D+01
 Coeff:     -0.400D-03 0.634D-03 0.110D-04 0.489D-04 0.359D-03 0.155D-03
 Coeff:      0.779D-03-0.262D-02 0.136D-01-0.108D-02-0.420D-01-0.164D+00
 Coeff:      0.108D+00 0.337D+00 0.750D+00
 Gap=     0.118 Goal=   None    Shift=    0.000
 Gap=     0.043 Goal=   None    Shift=    0.000
 RMSDP=3.66D-05 MaxDP=3.65D-03 DE=-2.83D-04 OVMax= 9.97D-03

 Cycle  16  Pass 1  IDiag  1:
 RMSU=  1.75D-05    CP:  8.91D-01 -3.46D-02  6.94D-02  1.13D-01  7.25D-01
                    CP:  2.26D-01  6.26D-01  3.88D-01  4.10D-01  8.62D-01
                    CP:  8.66D-01  1.05D+00  1.52D+00  1.40D+00  1.22D+00
 E= -3479.09294522801     Delta-E=       -0.000105555644 Rises=F Damp=F
 DIIS: error= 2.18D-04 at cycle  16 NSaved=  16.
 NSaved=16 IEnMin=16 EnMin= -3479.09294522801     IErMin=16 ErrMin= 2.18D-04
 ErrMax= 2.18D-04  0.00D+00 EMaxC= 1.00D-01 BMatC= 8.27D-05 BMatP= 2.43D-04
 IDIUse=3 WtCom= 9.98D-01 WtEn= 2.18D-03
 Coeff-Com: -0.553D-03 0.840D-03 0.110D-04 0.705D-04 0.108D-02 0.107D-03
 Coeff-Com: -0.101D-02-0.192D-02 0.480D-02-0.607D-02-0.200D-01-0.947D-01
 Coeff-Com: -0.365D-01-0.448D-01 0.516D+00 0.683D+00
 Coeff-En:   0.000D+00 0.000D+00 0.000D+00 0.000D+00 0.000D+00 0.000D+00
 Coeff-En:   0.000D+00 0.000D+00 0.000D+00 0.000D+00 0.000D+00 0.000D+00
 Coeff-En:   0.000D+00 0.000D+00 0.000D+00 0.100D+01
 Coeff:     -0.552D-03 0.838D-03 0.110D-04 0.704D-04 0.108D-02 0.106D-03
 Coeff:     -0.101D-02-0.191D-02 0.479D-02-0.605D-02-0.199D-01-0.945D-01
 Coeff:     -0.364D-01-0.447D-01 0.515D+00 0.683D+00
 Gap=     0.118 Goal=   None    Shift=    0.000
 Gap=     0.043 Goal=   None    Shift=    0.000
 RMSDP=2.68D-05 MaxDP=2.47D-03 DE=-1.06D-04 OVMax= 8.63D-03

 Cycle  17  Pass 1  IDiag  1:
 RMSU=  1.13D-05    CP:  8.91D-01 -3.47D-02  6.94D-02  1.13D-01  7.24D-01
                    CP:  2.27D-01  6.26D-01  3.87D-01  4.06D-01  8.63D-01
                    CP:  8.77D-01  1.10D+00  1.67D+00  1.55D+00  1.66D+00
                    CP:  1.08D+00
 E= -3479.09299249203     Delta-E=       -0.000047264013 Rises=F Damp=F
 DIIS: error= 1.32D-04 at cycle  17 NSaved=  17.
 NSaved=17 IEnMin=17 EnMin= -3479.09299249203     IErMin=17 ErrMin= 1.32D-04
 ErrMax= 1.32D-04  0.00D+00 EMaxC= 1.00D-01 BMatC= 2.93D-05 BMatP= 8.27D-05
 IDIUse=3 WtCom= 9.99D-01 WtEn= 1.32D-03
 Coeff-Com: -0.182D-03 0.274D-03 0.590D-05 0.114D-04 0.161D-03-0.513D-04
 Coeff-Com: -0.428D-03 0.259D-03-0.429D-03-0.454D-02-0.199D-04-0.242D-01
 Coeff-Com: -0.341D-01-0.167D+00 0.108D+00 0.449D+00 0.673D+00
 Coeff-En:   0.000D+00 0.000D+00 0.000D+00 0.000D+00 0.000D+00 0.000D+00
 Coeff-En:   0.000D+00 0.000D+00 0.000D+00 0.000D+00 0.000D+00 0.000D+00
 Coeff-En:   0.000D+00 0.000D+00 0.000D+00 0.000D+00 0.100D+01
 Coeff:     -0.182D-03 0.274D-03 0.589D-05 0.113D-04 0.161D-03-0.512D-04
 Coeff:     -0.427D-03 0.259D-03-0.428D-03-0.453D-02-0.198D-04-0.242D-01
 Coeff:     -0.340D-01-0.167D+00 0.108D+00 0.448D+00 0.674D+00
 Gap=     0.118 Goal=   None    Shift=    0.000
 Gap=     0.043 Goal=   None    Shift=    0.000
 RMSDP=1.80D-05 MaxDP=1.75D-03 DE=-4.73D-05 OVMax= 6.86D-03

 Cycle  18  Pass 1  IDiag  1:
 RMSU=  6.95D-06    CP:  8.91D-01 -3.46D-02  6.94D-02  1.13D-01  7.24D-01
                    CP:  2.27D-01  6.26D-01  3.86D-01  4.05D-01  8.62D-01
                    CP:  8.79D-01  1.12D+00  1.78D+00  1.68D+00  1.89D+00
                    CP:  1.42D+00  1.12D+00
 E= -3479.09301192564     Delta-E=       -0.000019433617 Rises=F Damp=F
 DIIS: error= 5.64D-05 at cycle  18 NSaved=  18.
 NSaved=18 IEnMin=18 EnMin= -3479.09301192564     IErMin=18 ErrMin= 5.64D-05
 ErrMax= 5.64D-05  0.00D+00 EMaxC= 1.00D-01 BMatC= 1.07D-05 BMatP= 2.93D-05
 IDIUse=1 WtCom= 1.00D+00 WtEn= 0.00D+00
 Coeff-Com:  0.461D-04-0.527D-04-0.838D-06-0.257D-04-0.237D-03 0.423D-05
 Coeff-Com:  0.447D-04 0.848D-03-0.949D-03-0.211D-03 0.763D-02 0.862D-02
 Coeff-Com: -0.726D-02-0.115D+00-0.105D+00 0.720D-01 0.476D+00 0.663D+00
 Coeff:      0.461D-04-0.527D-04-0.838D-06-0.257D-04-0.237D-03 0.423D-05
 Coeff:      0.447D-04 0.848D-03-0.949D-03-0.211D-03 0.763D-02 0.862D-02
 Coeff:     -0.726D-02-0.115D+00-0.105D+00 0.720D-01 0.476D+00 0.663D+00
 Gap=     0.118 Goal=   None    Shift=    0.000
 Gap=     0.043 Goal=   None    Shift=    0.000
 RMSDP=1.23D-05 MaxDP=1.16D-03 DE=-1.94D-05 OVMax= 4.90D-03

 Cycle  19  Pass 1  IDiag  1:
 RMSU=  3.82D-06    CP:  8.91D-01 -3.46D-02  6.94D-02  1.13D-01  7.24D-01
                    CP:  2.27D-01  6.25D-01  3.86D-01  4.04D-01  8.61D-01
                    CP:  8.82D-01  1.14D+00  1.84D+00  1.77D+00  2.08D+00
                    CP:  1.62D+00  1.47D+00  1.10D+00
 E= -3479.09302000443     Delta-E=       -0.000008078787 Rises=F Damp=F
 DIIS: error= 3.05D-05 at cycle  19 NSaved=  19.
 NSaved=19 IEnMin=19 EnMin= -3479.09302000443     IErMin=19 ErrMin= 3.05D-05
 ErrMax= 3.05D-05  0.00D+00 EMaxC= 1.00D-01 BMatC= 2.99D-06 BMatP= 1.07D-05
 IDIUse=1 WtCom= 1.00D+00 WtEn= 0.00D+00
 Coeff-Com:  0.354D-04-0.441D-04-0.400D-05-0.642D-05-0.205D-03 0.289D-04
 Coeff-Com:  0.262D-03 0.303D-03-0.610D-04 0.234D-02 0.727D-02 0.113D-01
 Coeff-Com:  0.110D-01-0.284D-01-0.955D-01-0.869D-01 0.649D-01 0.338D+00
 Coeff-Com:  0.776D+00
 Coeff:      0.354D-04-0.441D-04-0.400D-05-0.642D-05-0.205D-03 0.289D-04
 Coeff:      0.262D-03 0.303D-03-0.610D-04 0.234D-02 0.727D-02 0.113D-01
 Coeff:      0.110D-01-0.284D-01-0.955D-01-0.869D-01 0.649D-01 0.338D+00
 Coeff:      0.776D+00
 Gap=     0.119 Goal=   None    Shift=    0.000
 Gap=     0.043 Goal=   None    Shift=    0.000
 RMSDP=7.44D-06 MaxDP=5.77D-04 DE=-8.08D-06 OVMax= 3.51D-03

 Cycle  20  Pass 1  IDiag  1:
 RMSU=  2.19D-06    CP:  8.91D-01 -3.46D-02  6.94D-02  1.13D-01  7.24D-01
                    CP:  2.27D-01  6.25D-01  3.85D-01  4.04D-01  8.60D-01
                    CP:  8.81D-01  1.15D+00  1.88D+00  1.82D+00  2.18D+00
                    CP:  1.74D+00  1.66D+00  1.47D+00  1.38D+00
 E= -3479.09302279284     Delta-E=       -0.000002788409 Rises=F Damp=F
 DIIS: error= 2.33D-05 at cycle  20 NSaved=  20.
 NSaved=20 IEnMin=20 EnMin= -3479.09302279284     IErMin=20 ErrMin= 2.33D-05
 ErrMax= 2.33D-05  0.00D+00 EMaxC= 1.00D-01 BMatC= 1.48D-06 BMatP= 2.99D-06
 IDIUse=1 WtCom= 1.00D+00 WtEn= 0.00D+00
 Coeff-Com: -0.948D-05 0.139D-04-0.281D-05 0.110D-04-0.709D-04 0.209D-04
 Coeff-Com:  0.213D-03-0.147D-03 0.387D-03 0.209D-02 0.377D-02 0.448D-02
 Coeff-Com:  0.105D-01 0.978D-02-0.330D-01-0.744D-01-0.123D+00-0.222D-01
 Coeff-Com:  0.505D+00 0.716D+00
 Coeff:     -0.948D-05 0.139D-04-0.281D-05 0.110D-04-0.709D-04 0.209D-04
 Coeff:      0.213D-03-0.147D-03 0.387D-03 0.209D-02 0.377D-02 0.448D-02
 Coeff:      0.105D-01 0.978D-02-0.330D-01-0.744D-01-0.123D+00-0.222D-01
 Coeff:      0.505D+00 0.716D+00
 Gap=     0.119 Goal=   None    Shift=    0.000
 Gap=     0.043 Goal=   None    Shift=    0.000
 RMSDP=5.37D-06 MaxDP=3.50D-04 DE=-2.79D-06 OVMax= 2.56D-03

 Cycle  21  Pass 1  IDiag  1:
 Restarting incremental Fock formation.
 E= -3479.09302400241     Delta-E=       -0.000001209566 Rises=F Damp=F
 DIIS: error= 2.90D-05 at cycle  21 NSaved=  20.
 NSaved=20 IEnMin=20 EnMin= -3479.09302400241     IErMin=19 ErrMin= 2.33D-05
 ErrMax= 2.90D-05  0.00D+00 EMaxC= 1.00D-01 BMatC= 6.47D-07 BMatP= 1.48D-06
 IDIUse=1 WtCom= 1.00D+00 WtEn= 0.00D+00
 Coeff-Com: -0.318D-04 0.508D-04-0.188D-06-0.113D-04 0.287D-05 0.943D-04
 Coeff-Com: -0.143D-03 0.438D-03 0.540D-03 0.304D-04-0.360D-02 0.236D-02
 Coeff-Com:  0.832D-02 0.163D-01 0.175D-02-0.871D-01-0.114D+00-0.616D-02
 Coeff-Com:  0.336D+00 0.845D+00
 Coeff:     -0.318D-04 0.508D-04-0.188D-06-0.113D-04 0.287D-05 0.943D-04
 Coeff:     -0.143D-03 0.438D-03 0.540D-03 0.304D-04-0.360D-02 0.236D-02
 Coeff:      0.832D-02 0.163D-01 0.175D-02-0.871D-01-0.114D+00-0.616D-02
 Coeff:      0.336D+00 0.845D+00
[...]
 040098,-0.00006092,-0.00010322,0.00017693,-0.00001784,0.00016820,-0.00
 017418,-0.00005586,-0.00001389,-0.00001636,-0.00004923,-0.00013941,0.0
 0009538,0.00030244,0.00008082,-0.00013803,0.00114936,0.00006846,-0.000
 78284,-0.00035254,-0.00005218,-0.00166244,0.00145731,-0.00051110,0.000
 41202,-0.00038708,-0.00066272,-0.00006961,0.00064950,0.00023981,0.0000
 4464,0.00006400,-0.00027907,-0.00000876,0.00001702,0.00003677,-0.00003
 075,-0.00000293,-0.00000717,0.00002031,-0.00007933,-0.00002343,-0.0000
 1251,0.00004868,-0.00001340,0.00000878,-0.00001294,0.00001923,-0.00000
 644,-0.00001685,0.00002176,0.00000232,0.00004706,-0.00003165,-0.000028
 55,-0.00001596,0.00005445,0.00001732,-0.00001560,-0.00002112,0.0000052
 2,0.00000962,-0.00000639,0.00076870,0.00044270,-0.00032473,0.00251108,
 -0.00384435,0.00172437,-0.00041010,-0.00026723,-0.00033461,0.00286426,
 -0.00232788,0.00508286,-0.00319357,-0.00307042,0.00637504,0.12135853,0
 .04040040,-0.11197310,0.01467268,0.00666815,-0.00499708,0.00061757,-0.
 00034010,0.00079527,-0.00035501,0.00014486,-0.00117622,-0.00000841,0.0
 0000873,-0.00001227,-0.00000084,-0.00000049,0.00000055,-0.00000066,0.0
 0000003,-0.00000228,-0.00000076,0.00000003,-0.00000041,-0.00000149,0.0
 0000097,0.00000041,0.00000662,-0.00000320,-0.00000138,-0.00000431,0.00
 001022,0.00000805,-0.00000102,0.00000521,-0.00000025,0.00001753,-0.000
 02699,-0.00001383,-0.00000366,-0.00000813,0.00000457,-0.00000566,-0.00
 000408,0.00000050,-0.00000169,0.00000515,0.00000451,0.00000347,0.00001
 969,0.00000160,0.00001126,-0.00005909,0.00002046,0.00005261,-0.0000152
 4,0.00002227,-0.00000479,0.00000508,0.00000120,-0.00000249,-0.00000648
 ,-0.00000370,0.00000131,-0.00000217,-0.00000394,0.00000224,0.00000086,
 0.00000586,-0.00000299,0.00000444,-0.00000020,-0.00000076,0.00000398,0
 .00000035,-0.00000108,-0.00000161,0.00000325,0.00000454,-0.00000193,0.
 00000893,0.00020266,-0.00019953,-0.00005782,-0.00042791,0.00026685,-0.
 00064258,-0.00013603,-0.00016957,0.00015349,-0.00252748,0.00142363,-0.
 00279455,-0.13405702,-0.04196415,0.10894463,-0.00037793,-0.00007972,0.
 00026313,0.00122367,0.00145738,0.00211933,-0.00346889,0.01822377,-0.02
 015859,-0.00286797,-0.00328960,-0.00278435,-0.00119112,-0.00066911,0.0
 0041202,0.00013070,0.00024072,0.00006887,-0.00009893,-0.00001463,0.000
 08840,-0.00015738,-0.00421995,-0.00121485,0.00762257,-0.00980911,0.012
 22334,0.00013805,0.00092727,0.00223449,0.00008861,-0.00024705,-0.00054
 805,-0.00041898,-0.00002350,-0.00009861,0.00009220,-0.00001915,0.00008
 774,-0.00010116,-0.00001573,-0.00000615,0.00007197,0.00003245,-0.00006
 205,0.00003411,-0.00001435,0.00007363,0.00002743,0.00008075,-0.0002214
 8,0.00020728,-0.00006529,0.00018304,0.00000942,-0.00000681,-0.00004391
 ,-0.00005565,0.00004501,0.00002491,0.00002996,-0.00005471,-0.00004407,
 -0.00002485,-0.00000987,0.00003539,-0.00000382,0.00000476,0.00000991,0
 .00000904,-0.00000389,-0.00000701,-0.00001056,0.00002281,0.00000592,0.
 00000914,-0.00001876,-0.00000194,-0.00000803,0.00000502,-0.00000065,0.
 00000482,0.00000093,-0.00000871,-0.00001376,-0.00001257,0.00003337,0.0
 0001959,0.00000755,-0.00004016,-0.00001224,0.00001090,0.00001647,0.000
 00639,-0.00001025,-0.00001093,-0.00000533,0.00003204,0.00001419,0.0000
 0388,-0.00001941,-0.00000739,-0.00001625,0.00003175,0.00002148,0.00001
 960,0.00000471,-0.00001299,0.00000455,-0.00000750,-0.00000892,0.000010
 38,0.00000710,-0.00000998,0.00001600,0.00000723,0.00000340,-0.00027655
 ,-0.00015752,0.00013016,0.00000556,0.00007800,-0.00010485,-0.08000743,
 0.05075325,-0.07355715,0.00001572,0.00000243,0.00000539,0.00022740,0.0
 0011107,0.00020546,0.00012019,-0.00003465,-0.00000287,-0.00019397,0.00
 080739,-0.00099274,0.00004488,-0.00003269,-0.00000457,-0.00000828,0.00
 007435,-0.00002800,0.00002094,0.00003073,0.00001548,0.00058336,-0.0007
 4749,0.00035174,-0.00023674,-0.00075237,-0.00030952,0.00000194,-0.0000
 0954,0.00000194,0.00000385,0.00000047,0.00000890,0.00000279,-0.0000002
 6,0.00000072,-0.00000107,-0.00000022,-0.00000159,-0.00000934,0.0000037
 9,-0.00000131,0.00000174,-0.00000255,-0.00000056,0.00000254,0.00000170
 ,0.00000297,-0.00000184,0.00000029,0.00000075,0.00000041,-0.00000122,-
 0.00000131,0.00000181,-0.00000287,-0.00000030,0.00000065,-0.00000328,-
 0.00000082,0.00000107,0.00000135,-0.00000252,-0.00000088,0.00000041,0.
 00000233,0.00000322,0.00000409,-0.00000184,0.00000364,0.00000171,-0.00
 000192,0.00000183,0.00000359,0.00000079,-0.00000156,0.00000437,0.00000
 405,0.00000207,-0.00000537,0.00000141,0.07876027,0.00005389,-0.0001305
 0,-0.00039810,0.00137484,-0.00038407,-0.00137199,-0.00400618,0.0065042
 6,-0.00449519,-0.00224912,0.00117426,0.00092154,-0.00037177,-0.0003658
 0,-0.00074143,0.00019646,-0.00006653,0.00002558,0.00004569,-0.00006450
 ,-0.00008576,-0.00485568,-0.00056979,0.00182056,0.00986689,-0.00995845
 ,0.01676124,0.00211388,-0.00067338,-0.00127040,-0.00104582,-0.00026375
 ,0.00038265,0.00023546,0.00025053,-0.00039863,-0.00014603,-0.00001871,
 -0.00011186,0.00011046,0.00000825,0.00001999,-0.00002808,-0.00001899,0
 .00005384,0.00004467,0.00002979,-0.00008139,0.00010297,-0.00003803,0.0
 0001918,0.00022749,0.00011969,0.00000433,0.00005992,-0.00004402,-0.000
 07655,-0.00003446,0.00004466,0.00004460,0.00007980,-0.00012086,-0.0000
 2467,-0.00003606,-0.00000807,0.00003666,-0.00000556,0.00001043,0.00001
 419,0.00001414,-0.00001160,-0.00001276,-0.00001509,0.00004560,0.000005
 77,0.00000493,-0.00004259,0.00000960,0.00000553,0.00001264,-0.00001272
 ,0.00000507,-0.00000396,-0.00001003,-0.00001301,-0.00001086,0.00003276
 ,0.00001798,0.00000595,-0.00003956,-0.00001033,0.00001176,0.00001629,0
 .00000613,-0.00001465,-0.00001080,-0.00000415,0.00004371,0.00001173,0.
 00002126,-0.00001669,-0.00002117,-0.00001400,0.00002375,0.00002071,0.0
 0001756,0.00000819,-0.00001180,-0.00000058,-0.00000541,-0.00001049,0.0
 0000135,0.00001102,0.00000244,-0.00000645,-0.00002333,-0.00001975,-0.0
 0018905,0.00019304,0.00017792,-0.00003369,0.00006322,-0.00002233,0.051
 00682,-0.15972535,0.13665057,0.00005166,0.00001587,0.00002877,-0.00008
 260,-0.00002187,-0.00000385,0.00015767,0.00000230,0.00006756,-0.000291
 28,0.00030410,-0.00021665,0.00000315,0.00002233,-0.00007249,-0.0000207
 8,0.00000387,0.00006812,0.00004483,0.00000182,0.00000379,0.00031667,-0
 .00028783,0.00111412,-0.00017046,-0.00048973,-0.00111579,-0.00000598,0
 .00001058,-0.00003391,0.00000402,0.00000501,0.00000740,0.00000580,0.00
 000166,0.00000204,0.00001376,0.00000395,0.00000395,-0.00001069,0.00000
 760,-0.00000200,0.00000291,-0.00000375,-0.00000036,-0.00000160,0.00000
 354,0.00000305,-0.00000321,0.00000012,0.00000156,0.00000130,-0.0000007
 8,-0.00000160,0.00000138,-0.00000260,-0.00000064,0.00000034,-0.0000037
 9,-0.00000102,0.00000132,0.00000111,-0.00000230,-0.00000016,0.00000040
 ,0.00000359,0.00000389,0.00000533,-0.00000132,0.00000459,0.00000145,-0
 .00000130,0.00000224,0.00000310,0.00000200,-0.00000155,0.00000303,0.00
 000422,0.00000417,-0.00000547,0.00000674,-0.05262496,0.16444691,0.0001
 4638,-0.00050752,-0.00021645,0.00229761,-0.00117763,-0.00075803,-0.003
 22363,0.01116188,-0.00717616,-0.00360484,0.00001845,0.00187877,0.00031
 220,-0.00073936,-0.00009415,0.00011036,-0.00007409,-0.00008833,0.00007
 134,-0.00008361,-0.00008580,-0.00089607,0.00263139,0.00346701,-0.00160
 952,0.00402828,-0.00295224,-0.00006127,-0.00209135,-0.00274047,-0.0009
 7765,-0.00163927,-0.00007950,0.00037203,0.00010621,0.00019148,-0.00011
 766,-0.00003059,-0.00012662,0.00013954,0.00002440,-0.00000637,-0.00005
 980,-0.00004132,0.00008642,-0.00002673,0.00003066,-0.00008296,-0.00005
 559,-0.00006456,0.00020800,-0.00004914,0.00015835,-0.00033252,0.000075
 39,-0.00001206,-0.00002560,-0.00002702,0.00008333,0.00003276,0.0000062
 7,-0.00014831,-0.00000131,-0.00002260,-0.00000909,0.00001976,-0.000004
 45,0.00000855,0.00000119,0.00000760,-0.00001102,-0.00000714,-0.0000074
 8,0.00003498,-0.00000103,-0.00000377,-0.00003677,0.00001651,0.00001702
 ,0.00001165,-0.00001778,0.00000109,-0.00000679,-0.00000106,0.00000016,
 0.00000250,0.00000021,0.00000094,-0.00000313,-0.00000059,-0.00000029,0
 .00000247,0.00000124,-0.00000017,-0.00000615,0.00000094,-0.00000443,0.
 00002148,0.00001107,0.00000631,-0.00001143,-0.00001362,-0.00000615,0.0
 0001261,0.00000939,0.00000863,0.00000004,-0.00000609,-0.00000233,-0.00
 000387,0.00000077,0.00000519,-0.00000186,0.00000018,0.00000130,-0.0000
 0596,0.00000475,0.00064071,0.00026280,0.00006552,0.00008361,-0.0001361
 7,0.00020585,-0.07383091,0.13532385,-0.18907121,-0.00003005,-0.0000095
 7,-0.00000946,-0.00006048,0.00001758,-0.00000122,0.00026305,0.00004694
 ,0.00008697,-0.00018983,0.00060283,-0.00018540,-0.00002369,0.00006741,
 -0.00003471,0.00001944,-0.00004135,0.00004712,0.00000220,-0.00001267,-
 0.00002179,-0.00041348,0.00039114,0.00019973,-0.00090163,-0.00061966,-
 0.00044433,0.00000661,0.00000203,-0.00002096,-0.00000161,0.00000578,-0
 .00000147,-0.00000012,0.00000201,-0.00000056,-0.00000516,0.00000578,-0
 .00000338,-0.00000252,0.00000439,-0.00000078,0.00000164,-0.00000213,0.
 00000030,-0.00000489,0.00000252,0.00000106,-0.00000237,-0.00000017,0.0
 0000157,0.00000078,0.00000044,-0.00000075,0.00000021,-0.00000009,0.000
 00002,-0.00000038,-0.00000047,-0.00000036,-0.00000005,-0.00000022,0.00
 000008,-0.00000034,-0.00000061,0.00000118,0.00000050,0.00000176,-0.000
 00042,0.00000045,0.00000031,-0.00000063,-0.00000077,-0.00000006,0.0000
 0006,-0.00000099,-0.00000037,-0.00000062,-0.00000366,0.00000755,0.0000
 0172,0.08159564,-0.14766681,0.19811981,-0.00013789,-0.00003175,-0.0000
 1830,0.00020499,0.00019735,-0.00004351,-0.00034492,-0.00011818,-0.0000
 8676,-0.00001376,-0.00014137,0.00001494,-0.00013221,0.00013867,-0.0000
 3283,0.00008618,-0.00013243,0.00009344,-0.00008129,0.00011246,0.000036
 35,-0.00006885,-0.00013792,-0.00022248,-0.00043921,-0.00002344,0.00000
 308,0.00192679,0.00083365,-0.00163447,0.00085276,-0.00017079,0.0013904
 3,-0.00033163,0.00005845,-0.00104703,0.00062715,0.00000359,0.00090190,
 -0.00051617,-0.00011946,-0.00013231,-0.00020417,-0.00015407,-0.0000474
 4,-0.00031006,0.00013262,-0.00042851,-0.00061717,-0.00000598,0.0013027
 1,-0.00188043,-0.00135593,-0.00516745,-0.00100035,0.00816683,0.0032137
 1,-0.01736285,-0.03170547,-0.01129925,-0.07158037,0.02185761,-0.039873
 21,0.00417350,0.00324565,-0.00135612,-0.00072423,0.00031514,0.00054697
 ,0.00031039,-0.00025447,0.00017983,-0.00026275,0.00066668,0.00017102,0
 .00011435,-0.00049552,0.00008675,-0.00004600,0.00011058,-0.00013873,0.
 00003623,-0.00004462,-0.00007422,-0.00029766,-0.00000589,0.00047233,0.
 00027880,0.00013989,-0.00058958,-0.00015935,0.00014669,0.00021354,0.00
 041864,-0.00008567,-0.00004865,0.00072763,-0.00325466,-0.00166642,0.00
 026601,0.00246046,0.00064505,0.00044418,-0.00253590,-0.00112931,-0.001
 19026,0.00054616,0.00103746,-0.00011436,0.00058479,0.00020477,-0.00022
 591,0.00060492,0.00047770,-0.00198430,-0.00268435,-0.00008814,0.000942
 66,-0.00008206,0.01785482,-0.03771013,0.04523588,0.01543450,0.00028346
 ,-0.00018724,-0.00017750,0.00001021,0.00001763,-0.00000623,0.00001053,
 -0.00000192,0.00000290,0.00002309,-0.00001253,0.00000697,0.00001029,-0
 .00000416,0.00000342,0.00004249,-0.00000769,-0.00003333,0.00001567,-0.
 00003082,-0.00002606,0.00003716,-0.00001540,0.00000671,-0.00004594,0.0
 0000283,-0.00000782,-0.00000234,0.00005217,-0.00004477,-0.00002029,0.0
 0000524,0.00002665,-0.00001061,0.00002085,0.00000858,0.00002625,-0.000
 01583,-0.00001201,0.00000551,0.00003795,0.00002415,-0.00023311,0.00017
 133,-0.00021409,0.00005359,-0.00004584,-0.00000575,0.00003728,0.000055
 80,0.00004172,-0.00001853,0.00000154,0.00003284,0.00002647,-0.00000705
 ,-0.00003099,0.00002788,-0.00003949,-0.00000861,0.00001022,-0.00004278
 ,-0.00001325,0.00001615,0.00001338,-0.00003416,-0.00004277,0.00000324,
 -0.00003378,0.00004181,0.00022330,-0.00004529,-0.00001902,-0.00003362,
 0.00001197,-0.00001122,0.00000584,0.00002084,0.00004585,0.00002058,-0.
 00001404,0.00003695,-0.00003796,0.00004380,-0.00001469,0.00004548,0.00
 003932,0.12598367,0.00013870,0.00008451,0.00013343,-0.00031745,-0.0005
 3528,0.00011221,0.00008035,0.00036017,-0.00019488,-0.00009198,-0.00033
 423,0.00005352,0.00033051,0.00024346,0.00029328,-0.00021216,-0.0002621
 4,0.00010265,0.00034202,0.00016726,-0.00013224,-0.00035970,0.00034774,
 -0.00023904,0.00087936,0.00038502,-0.00001453,-0.00252719,-0.00068353,
 0.00542873,-0.00214741,-0.00056612,-0.00222940,0.00051265,-0.00034966,
 0.00208311,-0.00122592,0.00006251,-0.00196848,0.00140735,0.00031801,0.
 00026995,0.00024093,-0.00027021,0.00054549,0.00044835,0.00026364,0.000
 39491,0.00083585,0.00055425,-0.00275764,0.00382300,-0.00132716,0.00549
 096,-0.00240442,0.00163952,-0.00167035,-0.01268718,-0.01068039,-0.0070
 9477,0.01213863,0.00284440,0.00741311,0.00055398,0.00021907,-0.0003304
 6,-0.00011049,0.00037177,0.00011261,0.00023342,-0.00051242,-0.00016488
 ,-0.00016641,0.00098035,0.00011006,-0.00006615,-0.00089739,0.00035018,
 0.00046589,0.00026169,-0.00039047,0.00002480,-0.00010746,-0.00013476,-
 0.00009448,-0.00002144,0.00017396,0.00013709,-0.00001641,-0.00020830,-
 0.00007755,0.00010897,0.00012426,0.00013488,-0.00015602,0.00008545,0.0
 0022765,-0.00152853,-0.00068717,0.00009800,0.00108984,0.00029608,0.000
 24143,-0.00142585,-0.00057852,-0.00082231,0.00023105,0.00067548,0.0000
 8020,0.00057748,-0.00004244,-0.00002689,-0.00017475,0.00032491,-0.0004
 5429,-0.00142466,-0.00017182,0.00119847,-0.00139387,-0.02869122,0.0420
 6318,-0.05026481,-0.01596100,-0.00015796,-0.00035534,-0.00016424,-0.00
 002486,-0.00001893,0.00000980,-0.00002754,0.00001441,-0.00005106,-0.00
 001096,-0.00000698,-0.00003190,-0.00003690,-0.00002572,0.00000318,-0.0
 0005241,0.00003905,0.00011408,0.00000213,-0.00001951,-0.00002172,-0.00
 006628,0.00000516,0.00000748,0.00021533,-0.00051047,-0.00006407,-0.000
 00960,-0.00006810,0.00032807,-0.00001597,0.00003498,-0.00000873,0.0000
 0882,0.00005173,0.00001819,-0.00002336,-0.00001063,0.00003702,-0.00003
 459,0.00014344,0.00001768,-0.00008283,0.00014885,-0.00013809,-0.000018
 83,-0.00004019,0.00001251,-0.00013613,0.00002037,0.00005648,-0.0000994
 8,-0.00000159,0.00003382,0.00001334,-0.00000123,-0.00003088,0.00002041
 ,-0.00002154,-0.00000186,-0.00000441,-0.00002436,-0.00001219,0.0000015
 2,0.00000068,-0.00001221,-0.00007669,-0.00005559,0.00001734,-0.0000253
 7,0.00005715,-0.00004175,0.00000385,-0.00001464,0.00001189,0.00000255,
 0.00000685,0.00003046,-0.00000102,0.00002200,-0.00003741,0.00004070,-0
 .00001875,0.00007526,-0.00003521,-0.00000913,0.00011371,-0.04221295,0.
 06247962,0.00026708,0.00009956,0.00017071,-0.00042971,-0.00044347,0.00
 004662,0.00030569,0.00034042,-0.00006859,-0.00015205,-0.00017697,-0.00
 011634,0.00070064,-0.00029360,0.00106915,-0.00017713,0.00063601,-0.000
 81532,-0.00038307,-0.00031832,0.00029216,-0.00059362,0.00031116,-0.000
 48368,0.00078012,0.00009120,0.00034738,-0.00228122,-0.00079351,0.00314
 771,-0.00217090,-0.00015982,-0.00298228,0.00069411,-0.00029038,0.00241
 038,-0.00164906,0.00011669,-0.00258124,0.00193169,0.00048977,0.0002091
 2,0.00024769,-0.00032180,0.00084274,0.00039895,0.00045708,0.00020274,0
 .00046759,0.00051147,-0.00322849,0.00433181,-0.00324201,0.00401716,-0.
 00245816,0.00535526,0.00018629,-0.01411873,-0.02218568,-0.00821732,-0.
 03677976,0.01242494,-0.02033431,0.00359495,0.00399074,-0.00000689,-0.0
 0057217,0.00015626,0.00064453,0.00035792,-0.00063175,-0.00000348,-0.00
 010656,0.00049354,0.00046228,0.00010891,-0.00007210,-0.00020901,-0.000
 13518,-0.00002055,0.00016312,0.00000816,0.00013266,-0.00039247,0.00000
 242,-0.00032604,0.00026465,0.00016410,0.00018471,-0.00054476,-0.000033
 51,0.00014081,0.00016733,-0.00010399,-0.00010333,-0.00041993,0.0008260
 9,-0.00227859,-0.00189573,0.00026088,0.00206843,0.00037571,0.00032290,
 -0.00217442,-0.00091182,-0.00113983,0.00050345,0.00096998,-0.00001277,
 0.00079000,-0.00009404,-0.00012607,0.00016226,0.00055623,-0.00143426,-
 0.00247378,0.00011369,0.00624631,-0.00717281,-0.03581737,0.02150867,-0
 .02506376,-0.00120701,-0.00029956,0.00010307,-0.00008540,-0.00002026,-
 0.00002544,0.00000399,-0.00002349,0.00000319,-0.00005194,-0.00003960,0
 .00001456,-0.00002853,-0.00004589,-0.00003551,-0.00000368,0.00013084,0
 .00002373,0.00003382,0.00010885,0.00000464,-0.00003707,-0.00002775,0.0
 0003032,-0.00004399,0.00017191,-0.00043962,0.00004850,0.00002113,-0.00
 011836,0.00018524,-0.00000345,0.00003210,-0.00002159,0.00002010,0.0000
 4338,0.00002135,-0.00002656,-0.00004632,0.00003039,-0.00002883,0.00014
 364,0.00002015,-0.00036334,0.00022504,-0.00042268,0.00004571,-0.000017
 77,-0.00001510,0.00004619,0.00007198,0.00005818,-0.00005378,-0.0000140
 9,-0.00002098,0.00002707,0.00000404,-0.00004424,-0.00000576,-0.0000289
 2,-0.00001876,0.00000414,-0.00006235,-0.00001293,0.00001849,0.00000594
 ,-0.00002149,0.00006369,0.00008215,0.00002487,0.00010974,0.00030685,0.
 00001613,0.00003051,-0.00002379,0.00002665,0.00002017,0.00000043,0.000
 06675,0.00002125,0.00003676,-0.00002188,0.00009238,-0.00004885,0.00015
 047,0.00005589,-0.00000172,-0.00004958,0.02128124,0.03881715,0.0638837
 7\\0.00000294,-0.00000020,0.00000376,-0.00000369,0.00000101,-0.0000047
 3,0.00000345,-0.00000177,0.00000141,0.00000451,0.00000458,-0.00000205,
 -0.00001006,0.00000298,-0.00000317,0.00000646,0.00000181,0.00000128,-0
 .00000434,-0.00000676,0.00000113,0.00000622,-0.00000052,0.00000772,-0.
 00000778,-0.00000078,-0.00000834,0.00001102,0.00000471,0.00000260,0.00
 000042,-0.00000027,0.00000378,-0.00000667,-0.00000158,-0.00000210,0.00
 000745,0.00000111,0.00000187,-0.00000369,-0.00000043,-0.00000003,0.000
 00217,-0.00000046,0.00000110,-0.00000666,-0.00000218,-0.00000215,0.000
 00771,0.00000058,0.00000702,-0.00000796,-0.00000134,-0.00001166,-0.000
 00585,0.00000598,0.00000927,0.00001178,-0.00001581,-0.00001070,-0.0000
 0532,0.00002060,0.00000099,-0.00000564,-0.00000095,0.00000773,0.000002
 36,-0.00000546,-0.00000306,-0.00000210,0.00000481,0.00000052,0.0000089
 7,-0.00001173,0.00000107,-0.00000634,0.00000835,0.00000070,0.00000103,
 0.00000537,-0.00000443,-0.00000338,-0.00000311,0.00000594,-0.00000264,
 0.00000446,-0.00000165,0.00000181,-0.00000419,0.00000040,0.00000012,0.
 00000337,-0.00000116,0.00000328,0.00000045,-0.00000358,0.00000005,0.00
 000243,0.00000077,0.00000727,0.00000125,-0.00000501,-0.00000329,-0.000
 00095,0.00000164,0.00000152,-0.00000075,0.00000027,-0.00000227,-0.0000
 0043,0.00000103,0.00000071,0.00000344,0.00000020,-0.00000370,-0.000006
 09,0.00000113,-0.00000242,0.00000437,0.00000908,0.00001516,-0.00001289
 ,-0.00000355,-0.00000540,-0.00000441,0.00000103,-0.00000137,-0.0000003
 0,-0.00000072,-0.00000013,0.00000023,-0.00000065,-0.00000029,0.0000003
 4,-0.00000077,-0.00000070,-0.00000162,0.00000114,0.00000085,0.00000073
 ,0.00000012,0.00000063,0.00000076,0.00000071,0.00000070,0.00000193,-0.
 00000045,-0.00000059,0.00000069,-0.00000228,-0.00000112,0.00000001,-0.
 00000235,-0.00000130,-0.00000064,-0.00000066,-0.00000003,-0.00000083,-
 0.00000015,-0.00000009,0.00000024,-0.00000024,0.00000062,0.00000007,0.
 00000054,-0.00000031,-0.00000588,0.00000244,-0.00000009,-0.00000021,0.
 00000050,-0.00000112,0.00000093,-0.00000019,-0.00000010,0.00000162,0.0
 0000032,0.00000035,0.00000187,-0.00000093,-0.00000012,0.00000012,0.,0.
 00000004,0.00000027,0.00000021,0.00000074,-0.00000031,-0.00000073,-0.0
 0000080,0.00000038,0.00000177,0.00000010,-0.00000113,-0.00000037,0.000
 00049,0.00000020,0.00000002,0.00000018,0.00000002,-0.00000052,0.000000
 64,-0.00000042,0.00000060,0.00000047,-0.00000051,-0.00000031,0.0000025
 1,0.00000257,0.00000011,-0.00000741,0.00000020,-0.00000322\\\@
 The archive entry for this job was punched.


 I WISH TO HAVE NO CONNECTION WITH ANY SHIP THAT DOES NOT SAIL FAST,
 FOR I INTEND TO GO IN HARM'S WAY.
     -- JOHN PAUL JONES, USN 1747-1792
 Job cpu time:       1 days  0 hours 56 minutes 26.4 seconds.
 Elapsed time:       0 days  0 hours 47 minutes  4.3 seconds.
 File lengths (MBytes):  RWF=   7112 Int=      0 D2E=      0 Chk=     53 Scr=      1
 Normal termination of Gaussian 16 at Thu Aug  1 14:22:09 2024.
