 Entering Gaussian System, Link 0=g16
 Initial command:
 /public/software/apps/Gaussian/g16/l1.exe "/public/home/LJQ_HG/tmp/Gau-48969.inp" -scrdir="/public/home/LJQ_HG/tmp/"
 Entering Link 1 = /public/software/apps/Gaussian/g16/l1.exe PID=     48970.
  
 Copyright (c) 1988-2019, Gaussian, Inc.  All Rights Reserved.
  
 This is part of the Gaussian(R) 16 program.  It is based on
 the Gaussian(R) 09 system (copyright 2009, Gaussian, Inc.),
 the Gaussian(R) 03 system (copyright 2003, Gaussian, Inc.),
 the Gaussian(R) 98 system (copyright 1998, Gaussian, Inc.),
 the Gaussian(R) 94 system (copyright 1995, Gaussian, Inc.),
 the Gaussian 92(TM) system (copyright 1992, Gaussian, Inc.),
 the Gaussian 90(TM) system (copyright 1990, Gaussian, Inc.),
 the Gaussian 88(TM) system (copyright 1988, Gaussian, Inc.),
 the Gaussian 86(TM) system (copyright 1986, Carnegie Mellon
 University), and the Gaussian 82(TM) system (copyright 1983,
 Carnegie Mellon University). Gaussian is a federally registered
 trademark of Gaussian, Inc.
  
 This software contains proprietary and confidential information,
 including trade secrets, belonging to Gaussian, Inc.
  
 This software is provided under written license and may be
 used, copied, transmitted, or stored only in accord with that
 written license.
  
 The following legend is applicable only to US Government
 contracts under FAR:
  
                    RESTRICTED RIGHTS LEGEND
  
 Use, reproduction and disclosure by the US Government is
 subject to restrictions as set forth in subparagraphs (a)
 and (c) of the Commercial Computer Software - Restricted
 Rights clause in FAR 52.227-19.
  
 Gaussian, Inc.
 340 Quinnipiac St., Bldg. 40, Wallingford CT 06492
  
  
 ---------------------------------------------------------------
 Warning -- This program may not be used in any manner that
 competes with the business of Gaussian, Inc. or will provide
 assistance to any competitor of Gaussian, Inc.  The licensee
 of this program is prohibited from giving any competitor of
 Gaussian, Inc. access to this program.  By using this program,
 the user acknowledges that Gaussian, Inc. is engaged in the
 business of creating and licensing software in the field of
 computational chemistry and represents and warrants to the
 licensee that it is not a competitor of Gaussian, Inc. and that
 it will not use this program in any manner prohibited above.
 ---------------------------------------------------------------
  

 Cite this work as:
 Gaussian 16, Revision C.01,
 M. J. Frisch, G. W. Trucks, H. B. Schlegel, G. E. Scuseria, 
 M. A. Robb, J. R. Cheeseman, G. Scalmani, V. Barone, 
 G. A. Petersson, H. Nakatsuji, X. Li, M. Caricato, A. V. Marenich, 
 J. Bloino, B. G. Janesko, R. Gomperts, B. Mennucci, H. P. Hratchian, 
 J. V. Ortiz, A. F. Izmaylov, J. L. Sonnenberg, D. Williams-Young, 
 F. Ding, F. Lipparini, F. Egidi, J. Goings, B. Peng, A. Petrone, 
 T. Henderson, D. Ranasinghe, V. G. Zakrzewski, J. Gao, N. Rega, 
 G. Zheng, W. Liang, M. Hada, M. Ehara, K. Toyota, R. Fukuda, 
 J. Hasegawa, M. Ishida, T. Nakajima, Y. Honda, O. Kitao, H. Nakai, 
 T. Vreven, K. Throssell, J. A. Montgomery, Jr., J. E. Peralta, 
 F. Ogliaro, M. J. Bearpark, J. J. Heyd, E. N. Brothers, K. N. Kudin, 
 V. N. Staroverov, T. A. Keith, R. Kobayashi, J. Normand, 
 K. Raghavachari, A. P. Rendell, J. C. Burant, S. S. Iyengar, 
 J. Tomasi, M. Cossi, J. M. Millam, M. Klene, C. Adamo, R. Cammi, 
 J. W. Ochterski, R. L. Martin, K. Morokuma, O. Farkas, 
 J. B. Foresman, and D. J. Fox, Gaussian, Inc., Wallingford CT, 2019.
 
 ******************************************
 Gaussian 16:  ES64L-G16RevC.01  3-Jul-2019
                 8-Mar-2024 
 ******************************************
 %nprocshared=32
 Will use up to   32 processors via shared memory.
 %mem=100GB
 ------------------------------------------
 #p opt freq b3lyp/def2svpp em=gd3bj nosymm
 ------------------------------------------
 1/18=20,19=15,26=3,38=1/1,3;
 2/9=110,12=2,15=1,17=6,18=5,40=1/2;
 3/5=43,7=202,11=2,25=1,30=1,71=1,74=-5,124=41/1,2,3;
 4//1;
 5/5=2,38=5/2;
 6/7=2,8=2,9=2,10=2,28=1/1;
 7/30=1/1,2,3,16;
 1/18=20,19=15,26=3/3(2);
 2/9=110,15=1/2;
 99//99;
 2/9=110,15=1/2;
 3/5=43,7=202,11=2,25=1,30=1,71=1,74=-5,124=41/1,2,3;
 4/5=5,16=3,69=1/1;
 5/5=2,38=5/2;
 7/30=1/1,2,3,16;
 1/18=20,19=15,26=3/3(-5);
 2/9=110,15=1/2;
 6/7=2,8=2,9=2,10=2,19=2,28=1/1;
 99/9=1/99;
 Leave Link    1 at Fri Mar  8 02:26:36 2024, MaxMem= 13421772800 cpu:               1.3 elap:               0.0
 (Enter /public/software/apps/Gaussian/g16/l101.exe)
 ------------------
 $$$$Title####0????
 ------------------
 Symbolic Z-matrix:
 Charge =  0 Multiplicity = 2
 C                    -3.11646   5.44555   2.31058 
 O                    -2.067     4.96511   1.47669 
 C                    -1.87919   3.61755   1.13407 
 C                    -0.80401   3.28982   0.30476 
 C                    -0.56556   1.96557  -0.06705 
 C                    -1.40116   0.92854   0.39469 
 C                    -1.17727  -0.42933   0.04384 
 C                    -0.01723  -0.84572  -0.79005 
 C                    -0.25778  -1.31499  -2.09465 
 O                    -1.55953  -1.41957  -2.57427 
 C                     0.80383  -1.68524  -2.92102 
 C                     2.11673  -1.6072   -2.46056 
 C                     2.3844   -1.17302  -1.15492 
 C                     3.70875  -1.1179   -0.69148 
 C                     3.98792  -0.70342   0.62314 
 O                     5.2948   -0.63177   1.12862 
 C                     6.4648   -0.95931   0.38607 
 C                     2.93225  -0.35096   1.46723 
 C                     1.61123  -0.39965   1.01859 
 C                     1.3152   -0.79774  -0.30077 
 C                    -2.08317  -1.41399   0.47959 
 O                    -1.91119  -2.74219   0.103 
 C                    -3.16629  -1.07101   1.28966 
 C                    -3.37268   0.25423   1.66778 
 C                    -2.50433   1.26074   1.22309 
 C                    -2.73184   2.59666   1.59092 
 H                    -3.02242   6.54593   2.41379 
 H                    -3.04346   4.98642   3.3191 
 H                    -4.10247   5.21435   1.85499 
 H                    -0.14696   4.07056  -0.05738 
 H                     0.27313   1.76478  -0.72032 
 H                     0.60911  -2.03721  -3.9262 
 H                     2.92364  -1.89885  -3.12252 
 H                     4.51532  -1.40202  -1.35525 
 H                     6.55206  -0.29691  -0.50098 
 H                     7.35594  -0.81028   1.02949 
 H                     6.42999  -2.02272   0.06799 
 H                     3.13782  -0.03773   2.48313 
 H                     0.82844  -0.12797   1.71423 
 H                    -3.85314  -1.83705   1.62672 
 H                    -4.22022   0.49436   2.29894 
 H                    -3.57411   2.83551   2.22762 
 Cu                   -2.6704   -2.78487  -1.70624 
 
 ITRead=  0  0  0  0  0  0  0  0  0  0  0  0  0  0  0  0  0  0  0  0
 ITRead=  0  0  0  0  0  0  0  0  0  0  0  0  0  0  0  0  0  0  0  0
 ITRead=  0  0  0
 MicOpt= -1 -1 -1 -1 -1 -1 -1 -1 -1 -1 -1 -1 -1 -1 -1 -1 -1 -1 -1 -1
 MicOpt= -1 -1 -1 -1 -1 -1 -1 -1 -1 -1 -1 -1 -1 -1 -1 -1 -1 -1 -1 -1
 MicOpt= -1 -1 -1
 NAtoms=     43 NQM=       43 NQMF=       0 NMMI=      0 NMMIF=      0
                NMic=       0 NMicF=      0.
                    Isotopes and Nuclear Properties:
 (Nuclear quadrupole moments (NQMom) in fm**2, nuclear magnetic moments (NMagM)
  in nuclear magnetons)

  Atom         1           2           3           4           5           6           7           8           9          10
 IAtWgt=          12          16          12          12          12          12          12          12          12          16
 AtmWgt=  12.0000000  15.9949146  12.0000000  12.0000000  12.0000000  12.0000000  12.0000000  12.0000000  12.0000000  15.9949146
 NucSpn=           0           0           0           0           0           0           0           0           0           0
 AtZEff=  -0.0000000  -0.0000000  -0.0000000  -0.0000000  -0.0000000  -0.0000000  -0.0000000  -0.0000000  -0.0000000  -0.0000000
 NQMom=    0.0000000   0.0000000   0.0000000   0.0000000   0.0000000   0.0000000   0.0000000   0.0000000   0.0000000   0.0000000
 NMagM=    0.0000000   0.0000000   0.0000000   0.0000000   0.0000000   0.0000000   0.0000000   0.0000000   0.0000000   0.0000000
 AtZNuc=   6.0000000   8.0000000   6.0000000   6.0000000   6.0000000   6.0000000   6.0000000   6.0000000   6.0000000   8.0000000

  Atom        11          12          13          14          15          16          17          18          19          20
 IAtWgt=          12          12          12          12          12          16          12          12          12          12
 AtmWgt=  12.0000000  12.0000000  12.0000000  12.0000000  12.0000000  15.9949146  12.0000000  12.0000000  12.0000000  12.0000000
 NucSpn=           0           0           0           0           0           0           0           0           0           0
 AtZEff=  -0.0000000  -0.0000000  -0.0000000  -0.0000000  -0.0000000  -0.0000000  -0.0000000  -0.0000000  -0.0000000  -0.0000000
 NQMom=    0.0000000   0.0000000   0.0000000   0.0000000   0.0000000   0.0000000   0.0000000   0.0000000   0.0000000   0.0000000
 NMagM=    0.0000000   0.0000000   0.0000000   0.0000000   0.0000000   0.0000000   0.0000000   0.0000000   0.0000000   0.0000000
 AtZNuc=   6.0000000   6.0000000   6.0000000   6.0000000   6.0000000   8.0000000   6.0000000   6.0000000   6.0000000   6.0000000

  Atom        21          22          23          24          25          26          27          28          29          30
 IAtWgt=          12          16          12          12          12          12           1           1           1           1
 AtmWgt=  12.0000000  15.9949146  12.0000000  12.0000000  12.0000000  12.0000000   1.0078250   1.0078250   1.0078250   1.0078250
 NucSpn=           0           0           0           0           0           0           1           1           1           1
 AtZEff=  -0.0000000  -0.0000000  -0.0000000  -0.0000000  -0.0000000  -0.0000000  -0.0000000  -0.0000000  -0.0000000  -0.0000000
 NQMom=    0.0000000   0.0000000   0.0000000   0.0000000   0.0000000   0.0000000   0.0000000   0.0000000   0.0000000   0.0000000
 NMagM=    0.0000000   0.0000000   0.0000000   0.0000000   0.0000000   0.0000000   2.7928460   2.7928460   2.7928460   2.7928460
 AtZNuc=   6.0000000   8.0000000   6.0000000   6.0000000   6.0000000   6.0000000   1.0000000   1.0000000   1.0000000   1.0000000

  Atom        31          32          33          34          35          36          37          38          39          40
 IAtWgt=           1           1           1           1           1           1           1           1           1           1
 AtmWgt=   1.0078250   1.0078250   1.0078250   1.0078250   1.0078250   1.0078250   1.0078250   1.0078250   1.0078250   1.0078250
 NucSpn=           1           1           1           1           1           1           1           1           1           1
 AtZEff=  -0.0000000  -0.0000000  -0.0000000  -0.0000000  -0.0000000  -0.0000000  -0.0000000  -0.0000000  -0.0000000  -0.0000000
 NQMom=    0.0000000   0.0000000   0.0000000   0.0000000   0.0000000   0.0000000   0.0000000   0.0000000   0.0000000   0.0000000
 NMagM=    2.7928460   2.7928460   2.7928460   2.7928460   2.7928460   2.7928460   2.7928460   2.7928460   2.7928460   2.7928460
 AtZNuc=   1.0000000   1.0000000   1.0000000   1.0000000   1.0000000   1.0000000   1.0000000   1.0000000   1.0000000   1.0000000

  Atom        41          42          43
 IAtWgt=           1           1          63
 AtmWgt=   1.0078250   1.0078250  62.9295992
 NucSpn=           1           1           3
 AtZEff=  -0.0000000  -0.0000000  -0.0000000
 NQMom=    0.0000000   0.0000000 -22.0000000
 NMagM=    2.7928460   2.7928460   2.2233000
 AtZNuc=   1.0000000   1.0000000  29.0000000
 Leave Link  101 at Fri Mar  8 02:26:36 2024, MaxMem= 13421772800 cpu:               3.2 elap:               0.1
 (Enter /public/software/apps/Gaussian/g16/l103.exe)

 GradGradGradGradGradGradGradGradGradGradGradGradGradGradGradGradGradGrad
 Berny optimization.
 Initialization pass.
                           ----------------------------
                           !    Initial Parameters    !
                           ! (Angstroms and Degrees)  !
 --------------------------                            --------------------------
 ! Name  Definition              Value          Derivative Info.                !
 --------------------------------------------------------------------------------
 ! R1    R(1,2)                  1.4239         estimate D2E/DX2                !
 ! R2    R(1,27)                 1.1092         estimate D2E/DX2                !
 ! R3    R(1,28)                 1.1105         estimate D2E/DX2                !
 ! R4    R(1,29)                 1.1105         estimate D2E/DX2                !
 ! R5    R(2,3)                  1.4031         estimate D2E/DX2                !
 ! R6    R(3,4)                  1.3968         estimate D2E/DX2                !
 ! R7    R(3,26)                 1.4064         estimate D2E/DX2                !
 ! R8    R(4,5)                  1.396          estimate D2E/DX2                !
 ! R9    R(4,30)                 1.0828         estimate D2E/DX2                !
 ! R10   R(5,6)                  1.4096         estimate D2E/DX2                !
 ! R11   R(5,31)                 1.0819         estimate D2E/DX2                !
 ! R12   R(6,7)                  1.4202         estimate D2E/DX2                !
 ! R13   R(6,25)                 1.419          estimate D2E/DX2                !
 ! R14   R(7,8)                  1.4881         estimate D2E/DX2                !
 ! R15   R(7,21)                 1.4071         estimate D2E/DX2                !
 ! R16   R(8,9)                  1.4071         estimate D2E/DX2                !
 ! R17   R(8,20)                 1.4202         estimate D2E/DX2                !
 ! R18   R(9,10)                 1.3912         estimate D2E/DX2                !
 ! R19   R(9,11)                 1.3953         estimate D2E/DX2                !
 ! R20   R(10,43)                1.9625         estimate D2E/DX2                !
 ! R21   R(11,12)                1.3935         estimate D2E/DX2                !
 ! R22   R(11,32)                1.0827         estimate D2E/DX2                !
 ! R23   R(12,13)                1.4017         estimate D2E/DX2                !
 ! R24   R(12,33)                1.0837         estimate D2E/DX2                !
 ! R25   R(13,14)                1.4042         estimate D2E/DX2                !
 ! R26   R(13,20)                1.419          estimate D2E/DX2                !
 ! R27   R(14,15)                1.4064         estimate D2E/DX2                !
 ! R28   R(14,34)                1.0825         estimate D2E/DX2                !
 ! R29   R(15,16)                1.4031         estimate D2E/DX2                !
 ! R30   R(15,18)                1.3968         estimate D2E/DX2                !
 ! R31   R(16,17)                1.4239         estimate D2E/DX2                !
 ! R32   R(17,35)                1.1105         estimate D2E/DX2                !
 ! R33   R(17,36)                1.1092         estimate D2E/DX2                !
 ! R34   R(17,37)                1.1105         estimate D2E/DX2                !
 ! R35   R(18,19)                1.396          estimate D2E/DX2                !
 ! R36   R(18,38)                1.0828         estimate D2E/DX2                !
 ! R37   R(19,20)                1.4096         estimate D2E/DX2                !
 ! R38   R(19,39)                1.0819         estimate D2E/DX2                !
 ! R39   R(21,22)                1.3912         estimate D2E/DX2                !
 ! R40   R(21,23)                1.3953         estimate D2E/DX2                !
 ! R41   R(22,43)                1.9625         estimate D2E/DX2                !
 ! R42   R(23,24)                1.3935         estimate D2E/DX2                !
 ! R43   R(23,40)                1.0827         estimate D2E/DX2                !
 ! R44   R(24,25)                1.4017         estimate D2E/DX2                !
 ! R45   R(24,41)                1.0837         estimate D2E/DX2                !
 ! R46   R(25,26)                1.4042         estimate D2E/DX2                !
 ! R47   R(26,42)                1.0825         estimate D2E/DX2                !
 ! A1    A(2,1,27)             109.0707         estimate D2E/DX2                !
 ! A2    A(2,1,28)             110.115          estimate D2E/DX2                !
 ! A3    A(2,1,29)             110.1141         estimate D2E/DX2                !
 ! A4    A(27,1,28)            108.6673         estimate D2E/DX2                !
 ! A5    A(27,1,29)            108.662          estimate D2E/DX2                !
 ! A6    A(28,1,29)            110.1728         estimate D2E/DX2                !
 ! A7    A(1,2,3)              124.4526         estimate D2E/DX2                !
 ! A8    A(2,3,4)              118.2524         estimate D2E/DX2                !
 ! A9    A(2,3,26)             122.4593         estimate D2E/DX2                !
 ! A10   A(4,3,26)             119.2881         estimate D2E/DX2                !
 ! A11   A(3,4,5)              120.8086         estimate D2E/DX2                !
 ! A12   A(3,4,30)             119.7666         estimate D2E/DX2                !
 ! A13   A(5,4,30)             119.4247         estimate D2E/DX2                !
 ! A14   A(4,5,6)              120.6244         estimate D2E/DX2                !
 ! A15   A(4,5,31)             117.9883         estimate D2E/DX2                !
 ! A16   A(6,5,31)             121.3867         estimate D2E/DX2                !
 ! A17   A(5,6,7)              121.9404         estimate D2E/DX2                !
 ! A18   A(5,6,25)             118.6767         estimate D2E/DX2                !
 ! A19   A(7,6,25)             119.3799         estimate D2E/DX2                !
 ! A20   A(6,7,8)              121.9277         estimate D2E/DX2                !
 ! A21   A(6,7,21)             119.4092         estimate D2E/DX2                !
 ! A22   A(8,7,21)             118.6584         estimate D2E/DX2                !
 ! A23   A(7,8,9)              118.6584         estimate D2E/DX2                !
 ! A24   A(7,8,20)             121.9277         estimate D2E/DX2                !
 ! A25   A(9,8,20)             119.4092         estimate D2E/DX2                !
 ! A26   A(8,9,10)             120.3078         estimate D2E/DX2                !
 ! A27   A(8,9,11)             120.4979         estimate D2E/DX2                !
 ! A28   A(10,9,11)            119.1939         estimate D2E/DX2                !
 ! A29   A(9,10,43)            115.4321         estimate D2E/DX2                !
 ! A30   A(9,11,12)            120.4151         estimate D2E/DX2                !
 ! A31   A(9,11,32)            119.9516         estimate D2E/DX2                !
 ! A32   A(12,11,32)           119.6332         estimate D2E/DX2                !
 ! A33   A(11,12,13)           120.3342         estimate D2E/DX2                !
 ! A34   A(11,12,33)           118.9874         estimate D2E/DX2                !
 ! A35   A(13,12,33)           120.6738         estimate D2E/DX2                !
 ! A36   A(12,13,14)           119.9785         estimate D2E/DX2                !
 ! A37   A(12,13,20)           119.9142         estimate D2E/DX2                !
 ! A38   A(14,13,20)           120.1061         estimate D2E/DX2                !
 ! A39   A(13,14,15)           120.4833         estimate D2E/DX2                !
 ! A40   A(13,14,34)           119.3437         estimate D2E/DX2                !
 ! A41   A(15,14,34)           120.1725         estimate D2E/DX2                !
 ! A42   A(14,15,16)           122.4593         estimate D2E/DX2                !
 ! A43   A(14,15,18)           119.2881         estimate D2E/DX2                !
 ! A44   A(16,15,18)           118.2523         estimate D2E/DX2                !
 ! A45   A(15,16,17)           124.4526         estimate D2E/DX2                !
 ! A46   A(16,17,35)           110.115          estimate D2E/DX2                !
 ! A47   A(16,17,36)           109.0707         estimate D2E/DX2                !
 ! A48   A(16,17,37)           110.1141         estimate D2E/DX2                !
 ! A49   A(35,17,36)           108.6674         estimate D2E/DX2                !
 ! A50   A(35,17,37)           110.1728         estimate D2E/DX2                !
 ! A51   A(36,17,37)           108.662          estimate D2E/DX2                !
 ! A52   A(15,18,19)           120.8086         estimate D2E/DX2                !
 ! A53   A(15,18,38)           119.7667         estimate D2E/DX2                !
 ! A54   A(19,18,38)           119.4247         estimate D2E/DX2                !
 ! A55   A(18,19,20)           120.6244         estimate D2E/DX2                !
 ! A56   A(18,19,39)           117.9882         estimate D2E/DX2                !
 ! A57   A(20,19,39)           121.3867         estimate D2E/DX2                !
 ! A58   A(8,20,13)            119.3799         estimate D2E/DX2                !
 ! A59   A(8,20,19)            121.9404         estimate D2E/DX2                !
 ! A60   A(13,20,19)           118.6766         estimate D2E/DX2                !
 ! A61   A(7,21,22)            120.3079         estimate D2E/DX2                !
 ! A62   A(7,21,23)            120.4979         estimate D2E/DX2                !
 ! A63   A(22,21,23)           119.1939         estimate D2E/DX2                !
 ! A64   A(21,22,43)           102.855          estimate D2E/DX2                !
 ! A65   A(21,23,24)           120.415          estimate D2E/DX2                !
 ! A66   A(21,23,40)           119.9516         estimate D2E/DX2                !
 ! A67   A(24,23,40)           119.6332         estimate D2E/DX2                !
 ! A68   A(23,24,25)           120.3342         estimate D2E/DX2                !
 ! A69   A(23,24,41)           118.9874         estimate D2E/DX2                !
 ! A70   A(25,24,41)           120.6739         estimate D2E/DX2                !
 ! A71   A(6,25,24)            119.9144         estimate D2E/DX2                !
 ! A72   A(6,25,26)            120.106          estimate D2E/DX2                !
 ! A73   A(24,25,26)           119.9784         estimate D2E/DX2                !
 ! A74   A(3,26,25)            120.4833         estimate D2E/DX2                !
 ! A75   A(3,26,42)            120.1725         estimate D2E/DX2                !
 ! A76   A(25,26,42)           119.3437         estimate D2E/DX2                !
 ! A77   A(10,43,22)           100.0            estimate D2E/DX2                !
 ! D1    D(27,1,2,3)           179.8831         estimate D2E/DX2                !
 ! D2    D(28,1,2,3)            60.7216         estimate D2E/DX2                !
 ! D3    D(29,1,2,3)           -60.9625         estimate D2E/DX2                !
 ! D4    D(1,2,3,4)            179.9931         estimate D2E/DX2                !
 ! D5    D(1,2,3,26)             0.1686         estimate D2E/DX2                !
 ! D6    D(2,3,4,5)            179.8494         estimate D2E/DX2                !
 ! D7    D(2,3,4,30)            -0.279          estimate D2E/DX2                !
 ! D8    D(26,3,4,5)            -0.3203         estimate D2E/DX2                !
 ! D9    D(26,3,4,30)          179.5513         estimate D2E/DX2                !
 ! D10   D(2,3,26,25)         -179.9396         estimate D2E/DX2                !
 ! D11   D(2,3,26,42)            0.3224         estimate D2E/DX2                !
 ! D12   D(4,3,26,25)            0.2376         estimate D2E/DX2                !
 ! D13   D(4,3,26,42)         -179.5004         estimate D2E/DX2                !
 ! D14   D(3,4,5,6)             -0.4235         estimate D2E/DX2                !
 ! D15   D(3,4,5,31)           179.2961         estimate D2E/DX2                !
 ! D16   D(30,4,5,6)           179.7044         estimate D2E/DX2                !
 ! D17   D(30,4,5,31)           -0.5759         estimate D2E/DX2                !
 ! D18   D(4,5,6,7)           -179.4216         estimate D2E/DX2                !
 ! D19   D(4,5,6,25)             1.2247         estimate D2E/DX2                !
 ! D20   D(31,5,6,7)             0.8684         estimate D2E/DX2                !
 ! D21   D(31,5,6,25)         -178.4853         estimate D2E/DX2                !
 ! D22   D(5,6,7,8)              2.3687         estimate D2E/DX2                !
 ! D23   D(5,6,7,21)          -176.8305         estimate D2E/DX2                !
 ! D24   D(25,6,7,8)          -178.282          estimate D2E/DX2                !
 ! D25   D(25,6,7,21)            2.5187         estimate D2E/DX2                !
 ! D26   D(5,6,25,24)          178.3068         estimate D2E/DX2                !
 ! D27   D(5,6,25,26)           -1.2991         estimate D2E/DX2                !
 ! D28   D(7,6,25,24)           -1.0638         estimate D2E/DX2                !
 ! D29   D(7,6,25,26)          179.3303         estimate D2E/DX2                !
 ! D30   D(6,7,8,9)           -111.0343         estimate D2E/DX2                !
 ! D31   D(6,7,8,20)            69.7603         estimate D2E/DX2                !
 ! D32   D(21,7,8,9)            68.1708         estimate D2E/DX2                !
 ! D33   D(21,7,8,20)         -111.0347         estimate D2E/DX2                !
 ! D34   D(6,7,21,22)          177.4642         estimate D2E/DX2                !
 ! D35   D(6,7,21,23)           -2.3119         estimate D2E/DX2                !
 ! D36   D(8,7,21,22)           -1.7613         estimate D2E/DX2                !
 ! D37   D(8,7,21,23)          178.4626         estimate D2E/DX2                !
 ! D38   D(7,8,9,10)            -1.7617         estimate D2E/DX2                !
 ! D39   D(7,8,9,11)           178.4621         estimate D2E/DX2                !
 ! D40   D(20,8,9,10)          177.4642         estimate D2E/DX2                !
 ! D41   D(20,8,9,11)           -2.312          estimate D2E/DX2                !
 ! D42   D(7,8,20,13)         -178.2814         estimate D2E/DX2                !
 ! D43   D(7,8,20,19)            2.3692         estimate D2E/DX2                !
 ! D44   D(9,8,20,13)            2.519          estimate D2E/DX2                !
 ! D45   D(9,8,20,19)         -176.8305         estimate D2E/DX2                !
 ! D46   D(8,9,10,43)          -67.5276         estimate D2E/DX2                !
 ! D47   D(11,9,10,43)         112.2515         estimate D2E/DX2                !
 ! D48   D(8,9,11,12)            0.6135         estimate D2E/DX2                !
 ! D49   D(8,9,11,32)         -179.4835         estimate D2E/DX2                !
 ! D50   D(10,9,11,12)        -179.1652         estimate D2E/DX2                !
 ! D51   D(10,9,11,32)           0.7378         estimate D2E/DX2                !
 ! D52   D(9,10,43,22)          31.7851         estimate D2E/DX2                !
 ! D53   D(9,11,12,13)           0.8802         estimate D2E/DX2                !
 ! D54   D(9,11,12,33)        -179.8861         estimate D2E/DX2                !
 ! D55   D(32,11,12,13)       -179.0231         estimate D2E/DX2                !
 ! D56   D(32,11,12,33)          0.2106         estimate D2E/DX2                !
 ! D57   D(11,12,13,14)        178.9665         estimate D2E/DX2                !
 ! D58   D(11,12,13,20)         -0.64           estimate D2E/DX2                !
 ! D59   D(33,12,13,14)         -0.2542         estimate D2E/DX2                !
 ! D60   D(33,12,13,20)       -179.8606         estimate D2E/DX2                !
 ! D61   D(12,13,14,15)       -179.0247         estimate D2E/DX2                !
 ! D62   D(12,13,14,34)          0.7156         estimate D2E/DX2                !
 ! D63   D(20,13,14,15)          0.581          estimate D2E/DX2                !
 ! D64   D(20,13,14,34)       -179.6788         estimate D2E/DX2                !
 ! D65   D(12,13,20,8)          -1.064          estimate D2E/DX2                !
 ! D66   D(12,13,20,19)        178.3067         estimate D2E/DX2                !
 ! D67   D(14,13,20,8)         179.3301         estimate D2E/DX2                !
 ! D68   D(14,13,20,19)         -1.2992         estimate D2E/DX2                !
 ! D69   D(13,14,15,16)       -179.9394         estimate D2E/DX2                !
 ! D70   D(13,14,15,18)          0.2377         estimate D2E/DX2                !
 ! D71   D(34,14,15,16)          0.3225         estimate D2E/DX2                !
 ! D72   D(34,14,15,18)       -179.5003         estimate D2E/DX2                !
 ! D73   D(14,15,16,17)          0.1692         estimate D2E/DX2                !
 ! D74   D(18,15,16,17)        179.9939         estimate D2E/DX2                !
 ! D75   D(14,15,18,19)         -0.3205         estimate D2E/DX2                !
 ! D76   D(14,15,18,38)        179.5512         estimate D2E/DX2                !
 ! D77   D(16,15,18,19)        179.8491         estimate D2E/DX2                !
 ! D78   D(16,15,18,38)         -0.2792         estimate D2E/DX2                !
 ! D79   D(15,16,17,35)         60.7214         estimate D2E/DX2                !
 ! D80   D(15,16,17,36)        179.8829         estimate D2E/DX2                !
 ! D81   D(15,16,17,37)        -60.9627         estimate D2E/DX2                !
 ! D82   D(15,18,19,20)         -0.4234         estimate D2E/DX2                !
 ! D83   D(15,18,19,39)        179.2963         estimate D2E/DX2                !
 ! D84   D(38,18,19,20)        179.7044         estimate D2E/DX2                !
 ! D85   D(38,18,19,39)         -0.5759         estimate D2E/DX2                !
 ! D86   D(18,19,20,8)        -179.4214         estimate D2E/DX2                !
 ! D87   D(18,19,20,13)          1.2248         estimate D2E/DX2                !
 ! D88   D(39,19,20,8)           0.8685         estimate D2E/DX2                !
 ! D89   D(39,19,20,13)       -178.4853         estimate D2E/DX2                !
 ! D90   D(7,21,22,43)         -80.8746         estimate D2E/DX2                !
 ! D91   D(23,21,22,43)         98.9044         estimate D2E/DX2                !
 ! D92   D(7,21,23,24)           0.6136         estimate D2E/DX2                !
 ! D93   D(7,21,23,40)        -179.4835         estimate D2E/DX2                !
 ! D94   D(22,21,23,24)       -179.165          estimate D2E/DX2                !
 ! D95   D(22,21,23,40)          0.7379         estimate D2E/DX2                !
 ! D96   D(21,22,43,10)         57.696          estimate D2E/DX2                !
 ! D97   D(21,23,24,25)          0.8801         estimate D2E/DX2                !
 ! D98   D(21,23,24,41)       -179.8862         estimate D2E/DX2                !
 ! D99   D(40,23,24,25)       -179.0231         estimate D2E/DX2                !
 ! D100  D(40,23,24,41)          0.2106         estimate D2E/DX2                !
 ! D101  D(23,24,25,6)          -0.64           estimate D2E/DX2                !
 ! D102  D(23,24,25,26)        178.9664         estimate D2E/DX2                !
 ! D103  D(41,24,25,6)        -179.8606         estimate D2E/DX2                !
 ! D104  D(41,24,25,26)         -0.2542         estimate D2E/DX2                !
 ! D105  D(6,25,26,3)            0.581          estimate D2E/DX2                !
 ! D106  D(6,25,26,42)        -179.6789         estimate D2E/DX2                !
 ! D107  D(24,25,26,3)        -179.0246         estimate D2E/DX2                !
 ! D108  D(24,25,26,42)          0.7155         estimate D2E/DX2                !
 --------------------------------------------------------------------------------
 Trust Radius=3.00D-01 FncErr=1.00D-07 GrdErr=1.00D-06 EigMax=2.50D+02 EigMin=1.00D-04
 Number of steps in this run=    242 maximum allowed number of steps=    258.
 GradGradGradGradGradGradGradGradGradGradGradGradGradGradGradGradGradGrad

 Leave Link  103 at Fri Mar  8 02:26:37 2024, MaxMem= 13421772800 cpu:               0.3 elap:               0.0
 (Enter /public/software/apps/Gaussian/g16/l202.exe)
                          Input orientation:                          
 ---------------------------------------------------------------------
 Center     Atomic      Atomic             Coordinates (Angstroms)
 Number     Number       Type             X           Y           Z
 ---------------------------------------------------------------------
      1          6           0       -3.116455    5.445550    2.310577
      2          8           0       -2.067005    4.965114    1.476687
      3          6           0       -1.879188    3.617551    1.134067
      4          6           0       -0.804005    3.289818    0.304759
      5          6           0       -0.565562    1.965567   -0.067050
      6          6           0       -1.401155    0.928541    0.394694
      7          6           0       -1.177271   -0.429333    0.043842
      8          6           0       -0.017229   -0.845722   -0.790045
      9          6           0       -0.257777   -1.314991   -2.094647
     10          8           0       -1.559525   -1.419566   -2.574274
     11          6           0        0.803833   -1.685240   -2.921022
     12          6           0        2.116734   -1.607197   -2.460558
     13          6           0        2.384400   -1.173015   -1.154924
     14          6           0        3.708754   -1.117899   -0.691482
     15          6           0        3.987921   -0.703422    0.623135
     16          8           0        5.294804   -0.631770    1.128616
     17          6           0        6.464795   -0.959309    0.386068
     18          6           0        2.932246   -0.350963    1.467234
     19          6           0        1.611226   -0.399645    1.018595
     20          6           0        1.315195   -0.797741   -0.300772
     21          6           0       -2.083168   -1.413985    0.479587
     22          8           0       -1.911191   -2.742191    0.102997
     23          6           0       -3.166290   -1.071009    1.289656
     24          6           0       -3.372684    0.254229    1.667776
     25          6           0       -2.504334    1.260739    1.223093
     26          6           0       -2.731838    2.596659    1.590915
     27          1           0       -3.022421    6.545933    2.413791
     28          1           0       -3.043463    4.986418    3.319101
     29          1           0       -4.102465    5.214348    1.854993
     30          1           0       -0.146955    4.070561   -0.057379
     31          1           0        0.273125    1.764782   -0.720315
     32          1           0        0.609108   -2.037209   -3.926202
     33          1           0        2.923641   -1.898845   -3.122519
     34          1           0        4.515320   -1.402024   -1.355247
     35          1           0        6.552058   -0.296908   -0.500983
     36          1           0        7.355940   -0.810279    1.029487
     37          1           0        6.429995   -2.022719    0.067986
     38          1           0        3.137819   -0.037729    2.483129
     39          1           0        0.828442   -0.127972    1.714231
     40          1           0       -3.853137   -1.837048    1.626719
     41          1           0       -4.220216    0.494363    2.298944
     42          1           0       -3.574109    2.835513    2.227617
     43         29           0       -2.670401   -2.784868   -1.706243
 ---------------------------------------------------------------------
                    Distance matrix (angstroms):
                    1          2          3          4          5
     1  C    0.000000
     2  O    1.423916   0.000000
     3  C    2.501317   1.403064   0.000000
     4  C    3.744050   2.403165   1.396846   0.000000
     5  C    4.926505   3.692525   2.428445   1.395972   0.000000
     6  C    5.197714   4.231783   2.829481   2.437274   1.409555
     7  C    6.588837   5.651967   4.249535   3.746931   2.474274
     8  C    7.668061   6.565476   5.204796   4.349748   2.954105
     9  C    8.560546   7.447647   6.114208   5.221090   3.868842
    10  O    8.568291   7.578388   6.263108   5.571170   4.328194
    11  C    9.674009   8.474005   7.194577   6.143452   4.832059
    12  C    9.994560   8.729309   7.495780   6.337070   5.068356
    13  C    9.277635   8.026021   6.809345   5.675692   4.442572
    14  C    9.933514   8.663913   7.548656   6.386349   5.307302
    15  C    9.546176   8.338044   7.304439   6.245789   5.322975
    16  O   10.444143   9.254323   8.338041   7.297470   6.520711
    17  C   11.684447  10.444130   9.546162   8.420044   7.627984
    18  C    8.420070   7.297484   6.245799   5.344736   4.467102
    19  C    7.628007   6.520726   5.322987   4.467106   3.392825
    20  C    8.089335   6.914415   5.635393   4.643901   3.350783
    21  C    7.174498   6.456576   5.078022   4.877764   3.744771
    22  O    8.565347   7.830316   6.442860   6.136098   4.899247
    23  C    6.596234   6.138256   4.864508   5.056404   4.221994
    24  C    5.237238   4.892213   3.718509   4.203656   3.717288
    25  C    4.366916   3.738711   2.439938   2.802074   2.433123
    26  C    2.963448   2.462647   1.406393   2.418927   2.799978
    27  H    1.109206   2.071225   3.394127   4.468967   5.759382
    28  H    1.110518   2.085285   2.829082   4.120665   5.170257
    29  H    1.110507   2.085265   2.830628   4.121514   5.172863
    30  H    4.039275   2.615373   2.150673   1.082783   2.146235
    31  H    5.850095   4.532676   3.391745   2.129958   1.081881
    32  H   10.429234   9.240418   7.985878   6.948031   5.682880
    33  H   10.951777   9.652625   8.462642   7.250090   6.036896
    34  H   10.889055   9.585786   8.501914   7.284519   6.230207
    35  H   11.591412  10.290204   9.438341   8.223472   7.481150
    36  H   12.265710  11.061060  10.242275   9.160826   8.465099
    37  H   12.326352  11.091134  10.099094   8.978300   8.053724
    38  H    8.319379   7.289140   6.352275   5.599629   4.922564
    39  H    6.854341   5.863409   4.657982   4.041384   3.082063
    40  H    7.351639   7.034357   5.821669   6.109790   5.304421
    41  H    5.072739   5.029914   4.073285   4.843742   4.595527
    42  H    2.651155   2.714859   2.163375   3.402536   3.882481
    43  Cu   9.169165   8.399842   7.048713   6.665536   5.448296
                    6          7          8          9         10
     6  C    0.000000
     7  C    1.420226   0.000000
     8  C    2.543004   1.488101   0.000000
     9  C    3.540843   2.490581   1.407147   0.000000
    10  O    3.788596   2.825104   2.427230   1.391232   0.000000
    11  C    4.763171   3.780541   2.433104   1.395348   2.403389
    12  C    5.192107   4.302308   2.815005   2.420243   3.682800
    13  C    4.598726   3.830875   2.451138   2.807906   4.198796
    14  C    5.610603   4.988794   3.737211   4.212017   5.602738
    15  C    5.635391   5.204797   4.249536   5.078022   6.442860
    16  O    6.914411   6.565476   5.651967   6.456576   7.830316
    17  C    8.089328   7.668061   6.588837   7.174499   8.565347
    18  C    4.643903   4.349749   3.746932   4.877765   6.136099
    19  C    3.350786   2.954106   2.474273   3.744771   4.899246
    20  C    3.292762   2.543004   1.420227   2.441265   3.717458
    21  C    2.441265   1.407147   2.490581   3.157298   3.098435
    22  O    3.717458   2.427231   2.825104   3.098438   3.006790
    23  C    2.813336   2.433104   3.780542   4.469058   4.199183
    24  C    2.441795   2.815006   4.302308   5.130392   4.907558
    25  C    1.419015   2.451137   3.830874   4.763276   4.743068
    26  C    2.446279   3.737210   4.988793   5.916532   5.903658
    27  H    6.185495   7.594444   8.598390   9.474355   9.511574
    28  H    5.264570   6.598511   7.749647   8.762218   8.830095
    29  H    5.272352   6.609702   7.772376   8.544797   8.372202
    30  H    3.413162   4.617450   4.972270   5.759072   6.202549
    31  H    2.178476   2.738928   2.627527   3.414037   4.115318
    32  H    5.613107   4.640869   3.412832   2.151205   2.629099
    33  H    6.250501   5.385424   3.898489   3.393940   4.541922
    34  H    6.595340   5.942152   4.601405   4.830812   6.195973
    35  H    8.096762   7.749639   6.598506   7.067539   8.447288
    36  H    8.950596   8.598390   7.594444   8.245219   9.635551
    37  H    8.375177   7.772384   6.609708   7.064287   8.436691
    38  H    5.088961   4.972271   4.617450   5.841019   7.039307
    39  H    2.797946   2.627528   2.738927   4.134784   5.075616
    40  H    3.895970   3.412832   4.640869   5.200742   4.804507
    41  H    3.429546   3.898489   5.385423   6.186948   5.872874
    42  H    3.423139   4.601405   5.942152   6.848847   6.724760
    43  Cu   4.451329   3.292534   3.411602   2.851693   1.962542
                   11         12         13         14         15
    11  C    0.000000
    12  C    1.393494   0.000000
    13  C    2.424803   1.401727   0.000000
    14  C    3.705576   2.429726   1.404183   0.000000
    15  C    4.864507   3.718509   2.439937   1.406394   0.000000
    16  O    6.138256   4.892214   3.738710   2.462648   1.403064
    17  C    6.596235   5.237239   4.366915   2.963448   2.501316
    18  C    5.056405   4.203657   2.802074   2.418928   1.396847
    19  C    4.221992   3.717287   2.433122   2.799978   2.428446
    20  C    2.813335   2.441794   1.419016   2.446279   2.829481
    21  C    4.469060   5.130396   4.763282   5.916539   6.114215
    22  O    4.199189   4.907566   4.743077   5.903669   6.263118
    23  C    5.819705   6.500919   6.066015   7.154952   7.194589
    24  C    6.500915   7.116302   6.568765   7.589176   7.495791
    25  C    6.066008   6.568760   5.956328   6.922859   6.809350
    26  C    7.154943   7.589169   6.922858   7.777435   7.548662
    27  H   10.528659  10.800172  10.077281  10.662352  10.242289
    28  H    9.912207  10.173881   9.349717   9.946854   9.438372
    29  H    9.720411  10.189990   9.588400  10.372899  10.099100
    30  H    6.498746   6.567838   5.925154   6.495283   6.352260
    31  H    4.126429   4.218718   3.643764   4.484889   4.657961
    32  H    1.082676   2.146150   3.402716   4.573440   5.821669
    33  H    2.140050   1.083674   2.165419   2.671370   4.073285
    34  H    4.038192   2.648966   2.152532   1.082525   2.163375
    35  H    6.389534   5.022837   4.308663   2.965585   2.829080
    36  H    7.700791   6.345453   5.442374   4.044543   3.394126
    37  H    6.379793   5.017012   4.310956   2.966588   2.830629
    38  H    6.112825   5.286387   3.884835   3.401601   2.150674
    39  H    4.889914   4.612664   3.427123   3.881186   3.391746
    40  H    6.510942   7.238648   6.861876   7.941878   7.985893
    41  H    7.565698   8.199168   7.637428   8.626158   8.462655
    42  H    8.130933   8.608272   7.938118   8.785824   8.501925
    43  Cu   3.841246   4.987240   5.334139   6.670993   7.354704
                   16         17         18         19         20
    16  O    0.000000
    17  C    1.423917   0.000000
    18  C    2.403164   3.744050   0.000000
    19  C    3.692524   4.926504   1.395973   0.000000
    20  C    4.231783   5.197714   2.437275   1.409555   0.000000
    21  C    7.447655   8.560558   5.221096   3.868845   3.540846
    22  O    7.578399   8.568310   5.571175   4.328194   3.788599
    23  C    8.474018   9.674024   6.143463   4.832066   4.763176
    24  C    8.729320   9.994571   6.337083   5.068367   5.192112
    25  C    8.026025   9.277634   5.675702   4.442581   4.598729
    26  C    8.663917   9.933510   6.386362   5.307315   5.610607
    27  H   11.061073  12.265708   9.160852   8.465123   8.950604
    28  H   10.290236  11.591433   8.223512   7.481185   8.096782
    29  H   11.091140  12.326344   8.978318   8.053741   8.375176
    30  H    7.289118   8.319343   5.599625   4.922567   5.088957
    31  H    5.863384   6.854308   4.041370   3.082056   2.797937
    32  H    7.034358   7.351640   6.109791   5.304420   3.895970
    33  H    5.029915   5.072739   4.843743   4.595526   3.429546
    34  H    2.714859   2.651156   3.402536   3.882480   3.423138
    35  H    2.085285   1.110518   4.120660   5.170251   5.264566
    36  H    2.071225   1.109206   4.468967   5.759382   6.185495
    37  H    2.085266   1.110508   4.121518   5.172868   5.272356
    38  H    2.615373   4.039275   1.082783   2.146236   3.413163
    39  H    4.532675   5.850095   2.129959   1.081881   2.178476
    40  H    9.240434  10.429255   6.948043   5.682887   5.613113
    41  H    9.652639  10.951791   7.250106   6.036908   6.250506
    42  H    9.585795  10.889057   7.284536   6.230223   6.595345
    43  Cu   8.724491   9.547892   6.883640   5.607705   4.670010
                   21         22         23         24         25
    21  C    0.000000
    22  O    1.391232   0.000000
    23  C    1.395349   2.403390   0.000000
    24  C    2.420244   3.682802   1.393495   0.000000
    25  C    2.807905   4.198795   2.424802   1.401726   0.000000
    26  C    4.212017   5.602739   3.705576   2.429726   1.404184
    27  H    8.245219   9.635551   7.700791   6.345452   5.442376
    28  H    7.067543   8.447293   6.389535   5.022835   4.308665
    29  H    7.064283   8.436687   6.379792   5.017012   4.310956
    30  H    5.841019   7.039307   6.112825   5.286386   3.884835
    31  H    4.134784   5.075617   4.889915   4.612664   3.427123
    32  H    5.200744   4.804514   6.510941   7.238643   6.861867
    33  H    6.186953   5.872886   7.565703   8.199168   7.637423
    34  H    6.848854   6.724773   8.130942   8.608278   7.938116
    35  H    8.762220   8.830107   9.912210  10.173877   9.349703
    36  H    9.474366   9.511592  10.528675  10.800183  10.077281
    37  H    8.544818   8.372231   9.720438  10.190012   9.588410
    38  H    5.759077   6.202551   6.498756   6.567853   5.925167
    39  H    3.414037   4.115313   4.126435   4.218731   3.643780
    40  H    2.151205   2.629100   1.082675   2.146150   3.402715
    41  H    3.393940   4.541923   2.140049   1.083673   2.165419
    42  H    4.830812   6.195974   4.038193   2.648966   2.152533
    43  Cu   2.646132   1.962542   3.486923   4.594923   4.997552
                   26         27         28         29         30
    26  C    0.000000
    27  H    4.044543   0.000000
    28  H    2.965583   1.803362   0.000000
    29  H    2.966589   1.803294   1.821277   0.000000
    30  H    3.401600   4.527963   4.541935   4.539986   0.000000
    31  H    3.881186   6.598685   6.139672   6.138200   2.435686
    32  H    7.941866  11.271816  10.731590  10.402222   7.269407
    33  H    8.626150  11.718390  11.158299  11.168675   7.379529
    34  H    8.785820  11.584179  10.945178  11.329088   7.305509
    35  H    9.946833  12.123986  11.600888  12.224706   8.009266
    36  H   10.662349  12.796114  12.124010  12.971994   9.016502
    37  H   10.372905  12.971999  12.224735  12.903536   8.966607
    38  H    6.495300   9.016539   8.009316   8.966637   5.841401
    39  H    4.484910   7.736895   6.612431   7.271454   4.660223
    40  H    4.573440   8.460729   7.076681   7.059494   7.174386
    41  H    2.671371   6.170041   4.754369   4.742280   5.910407
    42  H    1.082525   3.755827   2.469679   2.465130   4.300225
    43  Cu   6.311565  10.206000   9.262081   8.872467   7.488888
                   31         32         33         34         35
    31  H    0.000000
    32  H    4.984549   0.000000
    33  H    5.120350   2.454000   0.000000
    34  H    5.331793   4.719297   2.429717   0.000000
    35  H    6.612388   7.076682   4.754373   2.469686   0.000000
    36  H    7.736861   8.460730   6.170041   3.755828   1.803362
    37  H    7.271426   7.059495   4.742276   2.465124   1.821277
    38  H    4.660211   7.174387   5.910407   4.300226   4.541930
    39  H    3.133354   5.958840   5.560576   4.963665   6.139666
    40  H    5.958841   7.126474   8.275494   8.894517  10.731600
    41  H    5.560576   8.275486   9.281939   9.657069  11.158297
    42  H    4.963666   8.894505   9.657062   9.809816  10.945162
    43  Cu   5.507787   4.030185   5.838166   7.325984   9.627894
                   36         37         38         39         40
    36  H    0.000000
    37  H    1.803294   0.000000
    38  H    4.527963   4.539992   0.000000
    39  H    6.598685   6.138207   2.435687   0.000000
    40  H   11.271839  10.402256   7.269419   4.984554   0.000000
    41  H   11.718404  11.168700   7.379548   5.120365   2.453999
    42  H   11.584183  11.329101   7.305531   5.331816   4.719297
    43  Cu  10.578787   9.303008   7.670269   5.567822   3.661402
                   41         42         43
    41  H    0.000000
    42  H    2.429717   0.000000
    43  Cu   5.403407   6.919583   0.000000
 Symmetry turned off by external request.
 Stoichiometry    C22H16CuO4(2)
 Framework group  C1[X(C22H16CuO4)]
 Deg. of freedom   123
 Full point group                 C1      NOp   1
 Rotational constants (GHZ):           0.1793132           0.1350395           0.0876691
 Leave Link  202 at Fri Mar  8 02:26:37 2024, MaxMem= 13421772800 cpu:               0.2 elap:               0.0
 (Enter /public/software/apps/Gaussian/g16/l301.exe)
 Standard basis: def2SVPP (5D, 7F)
 Ernie: Thresh=  0.10000D-02 Tol=  0.10000D-05 Strict=F.
   420 basis functions,   785 primitive gaussians,   448 cartesian basis functions
   105 alpha electrons      104 beta electrons
       nuclear repulsion energy      2771.2779028295 Hartrees.
 IExCor=  402 DFT=T Ex+Corr=B3LYP ExCW=0 ScaHFX=  0.200000
 ScaDFX=  0.800000  0.720000  1.000000  0.810000 ScalE2=  1.000000  1.000000
 IRadAn=      5 IRanWt=     -1 IRanGd=            0 ICorTp=0 IEmpDi=141
 NAtoms=   43 NActive=   43 NUniq=   43 SFac= 1.00D+00 NAtFMM=   60 NAOKFM=F Big=F
 Integral buffers will be    131072 words long.
 Raffenetti 2 integral format.
 Two-electron integral symmetry is turned off.
 R6Disp:  Grimme-D3(BJ) Dispersion energy=       -0.1103388464 Hartrees.
 Nuclear repulsion after empirical dispersion term =     2771.1675639831 Hartrees.
 Leave Link  301 at Fri Mar  8 02:26:37 2024, MaxMem= 13421772800 cpu:               0.7 elap:               0.0
 (Enter /public/software/apps/Gaussian/g16/l302.exe)
 NPDir=0 NMtPBC=     1 NCelOv=     1 NCel=       1 NClECP=     1 NCelD=      1
         NCelK=      1 NCelE2=     1 NClLst=     1 CellRange=     0.0.
 One-electron integrals computed using PRISM.
   1 Symmetry operations used in ECPInt.
 ECPInt:  NShTT=   19701 NPrTT=   82236 LenC2=   17387 LenP2D=   47091.
 LDataN:  DoStor=T MaxTD1= 4 Len=   56
 NBasis=   420 RedAO= T EigKep=  1.89D-04  NBF=   420
 NBsUse=   420 1.00D-06 EigRej= -1.00D+00 NBFU=   420
 Precomputing XC quadrature grid using
 IXCGrd= 4 IRadAn=           5 IRanWt=          -1 IRanGd=           0 AccXCQ= 0.00D+00.
 Generated NRdTot=       0 NPtTot=           0 NUsed=           0 NTot=          32
 NSgBfM=   440   440   440   440   440 MxSgAt=    43 MxSgA2=    43.
 Leave Link  302 at Fri Mar  8 02:26:37 2024, MaxMem= 13421772800 cpu:              13.7 elap:               0.4
 (Enter /public/software/apps/Gaussian/g16/l303.exe)
 DipDrv:  MaxL=1.
 Leave Link  303 at Fri Mar  8 02:26:37 2024, MaxMem= 13421772800 cpu:               1.3 elap:               0.1
 (Enter /public/software/apps/Gaussian/g16/l401.exe)
 ExpMin= 3.30D-02 ExpMax= 7.64D+04 ExpMxC= 1.15D+04 IAcc=3 IRadAn=         5 AccDes= 0.00D+00
 Harris functional with IExCor=  402 and IRadAn=       5 diagonalized for initial guess.
 HarFok:  IExCor=  402 AccDes= 0.00D+00 IRadAn=         5 IDoV= 1 UseB2=F ITyADJ=14
 ICtDFT=  3500011 ScaDFX=  1.000000  1.000000  1.000000  1.000000
 FoFCou: FMM=F IPFlag=           0 FMFlag=      100000 FMFlg1=           0
         NFxFlg=           0 DoJE=T BraDBF=F KetDBF=T FulRan=T
         wScrn=  0.000000 ICntrl=       500 IOpCl=  0 I1Cent=   200000004 NGrid=           0
         NMat0=    1 NMatS0=      1 NMatT0=    0 NMatD0=    1 NMtDS0=    0 NMtDT0=    0
 Symmetry not used in FoFCou.
 Harris En= -2788.62050659402    
 JPrj=0 DoOrth=F DoCkMO=F.
 Initial guess <Sx>= 0.0000 <Sy>= 0.0000 <Sz>= 0.5000 <S**2>= 0.7500 S= 0.5000
 Leave Link  401 at Fri Mar  8 02:26:38 2024, MaxMem= 13421772800 cpu:              27.6 elap:               0.9
 (Enter /public/software/apps/Gaussian/g16/l502.exe)
 Two-electron integral symmetry not used.
 UHF open shell SCF:
 Using DIIS extrapolation, IDIIS=  1040.
 NGot= 13421772800 LenX= 13421352328 LenY= 13421151176
 Requested convergence on RMS density matrix=1.00D-08 within 128 cycles.
 Requested convergence on MAX density matrix=1.00D-06.
 Requested convergence on             energy=1.00D-06.
 No special actions if energy rises.
 Fock matrices will be formed incrementally for  20 cycles.

 Cycle   1  Pass 1  IDiag  1:
 FoFJK:  IHMeth= 1 ICntrl=       0 DoSepK=F KAlg= 0 I1Cent=           0 FoldK=F
 IRaf= 810000000 NMat=       1 IRICut=       1 DoRegI=T DoRafI=F ISym2E= 0 IDoP0=0 IntGTp=1.
 FoFCou: FMM=F IPFlag=           0 FMFlag=      100000 FMFlg1=           0
         NFxFlg=           0 DoJE=F BraDBF=F KetDBF=F FulRan=T
         wScrn=  0.000000 ICntrl=         0 IOpCl=  1 I1Cent=           0 NGrid=           0
         NMat0=    1 NMatS0=      1 NMatT0=    0 NMatD0=    1 NMtDS0=    0 NMtDT0=    0
 Symmetry not used in FoFCou.
 E= -2775.07963566847    
 DIIS: error= 3.59D-01 at cycle   1 NSaved=   1.
 NSaved= 1 IEnMin= 1 EnMin= -2775.07963566847     IErMin= 1 ErrMin= 3.59D-01
 ErrMax= 3.59D-01  0.00D+00 EMaxC= 1.00D-01 BMatC= 4.72D+01 BMatP= 4.72D+01
 IDIUse=3 WtCom= 0.00D+00 WtEn= 1.00D+00
 Coeff-Com:  0.100D+01
 Coeff-En:   0.100D+01
 Coeff:      0.100D+01
 Gap=     0.228 Goal=   None    Shift=    0.000
 Gap=    -0.043 Goal=   None    Shift=    0.000
 GapD=   -0.043 DampG=0.250 DampE=0.125 DampFc=0.1250 IDamp=-1.
 Damping current iteration by 1.25D-01
 RMSDP=6.30D-02 MaxDP=7.86D+00              OVMax= 9.86D-01

 Cycle   2  Pass 1  IDiag  1:
 RMSU=  7.87D-03    CP:  1.02D+00
 E= -2779.58053848427     Delta-E=       -4.500902815800 Rises=F Damp=T
 DIIS: error= 2.38D-01 at cycle   2 NSaved=   2.
 NSaved= 2 IEnMin= 2 EnMin= -2779.58053848427     IErMin= 2 ErrMin= 2.38D-01
 ErrMax= 2.38D-01  0.00D+00 EMaxC= 1.00D-01 BMatC= 1.84D+01 BMatP= 4.72D+01
 IDIUse=3 WtCom= 0.00D+00 WtEn= 1.00D+00
 Coeff-Com: -0.122D+01 0.222D+01
 Coeff-En:   0.000D+00 0.100D+01
 Coeff:      0.000D+00 0.100D+01
 Gap=    -0.028 Goal=   None    Shift=    0.000
 Gap=    -0.051 Goal=   None    Shift=    0.000
 RMSDP=1.81D-02 MaxDP=2.93D+00 DE=-4.50D+00 OVMax= 9.06D-01

 Cycle   3  Pass 1  IDiag  1:
 RMSU=  1.56D-02    CP:  9.42D-01  2.13D+00
 E= -2767.19847632950     Delta-E=       12.382062154777 Rises=F Damp=F
 DIIS: error= 2.58D-01 at cycle   3 NSaved=   3.
 NSaved= 3 IEnMin= 2 EnMin= -2779.58053848427     IErMin= 2 ErrMin= 2.38D-01
 ErrMax= 2.58D-01  0.00D+00 EMaxC= 1.00D-01 BMatC= 5.61D+01 BMatP= 1.84D+01
 IDIUse=2 WtCom= 0.00D+00 WtEn= 1.00D+00
 EnCoef did   100 forward-backward iterations
 Coeff-En:   0.552D+00 0.322D-01 0.416D+00
 Coeff:      0.552D+00 0.322D-01 0.416D+00
 Gap=     0.163 Goal=   None    Shift=    0.000
 Gap=    -0.062 Goal=   None    Shift=    0.000
 RMSDP=2.24D-02 MaxDP=3.83D+00 DE= 1.24D+01 OVMax= 7.86D-01

 Cycle   4  Pass 1  IDiag  1:
 RMSU=  7.42D-03    CP:  8.89D-01  8.17D-02  1.34D-01
 E= -2784.14620631241     Delta-E=      -16.947729982916 Rises=F Damp=F
 DIIS: error= 1.38D-01 at cycle   4 NSaved=   4.
 NSaved= 4 IEnMin= 4 EnMin= -2784.14620631241     IErMin= 4 ErrMin= 1.38D-01
 ErrMax= 1.38D-01  0.00D+00 EMaxC= 1.00D-01 BMatC= 1.55D+01 BMatP= 1.84D+01
 IDIUse=3 WtCom= 0.00D+00 WtEn= 1.00D+00
 EnCoef did   100 forward-backward iterations
 Coeff-Com: -0.586D+00 0.124D+01 0.915D-01 0.256D+00
 Coeff-En:   0.317D+00 0.835D-02 0.959D-01 0.579D+00
 Coeff:      0.317D+00 0.835D-02 0.959D-01 0.579D+00
 Gap=     0.244 Goal=   None    Shift=    0.000
 Gap=     0.072 Goal=   None    Shift=    0.000
 RMSDP=1.17D-02 MaxDP=9.59D-01 DE=-1.69D+01 OVMax= 7.87D-01

 Cycle   5  Pass 1  IDiag  1:
 RMSU=  9.69D-03    CP:  8.89D-01  1.26D-01  2.34D-01  1.53D-01
 E= -2774.60638822690     Delta-E=        9.539818085514 Rises=F Damp=F
 DIIS: error= 9.79D-02 at cycle   5 NSaved=   5.
 NSaved= 5 IEnMin= 4 EnMin= -2784.14620631241     IErMin= 5 ErrMin= 9.79D-02
 ErrMax= 9.79D-02  0.00D+00 EMaxC= 1.00D-01 BMatC= 3.57D+01 BMatP= 1.55D+01
 IDIUse=2 WtCom= 0.00D+00 WtEn= 1.00D+00
 EnCoef did   100 forward-backward iterations
 Coeff-En:   0.200D+00 0.626D-02 0.000D+00 0.595D+00 0.199D+00
 Coeff:      0.200D+00 0.626D-02 0.000D+00 0.595D+00 0.199D+00
 Gap=     0.370 Goal=   None    Shift=    0.000
 Gap=    -0.123 Goal=   None    Shift=    0.000
 RMSDP=8.38D-03 MaxDP=3.40D-01 DE= 9.54D+00 OVMax= 7.56D-01

 Cycle   6  Pass 1  IDiag  1:
 RMSU=  4.77D-03    CP:  8.85D-01  8.87D-02  1.79D-01  3.97D-01  3.21D-01
 E= -2786.80646370304     Delta-E=      -12.200075476137 Rises=F Damp=F
 DIIS: error= 2.86D-02 at cycle   6 NSaved=   6.
 NSaved= 6 IEnMin= 6 EnMin= -2786.80646370304     IErMin= 6 ErrMin= 2.86D-02
 ErrMax= 2.86D-02  0.00D+00 EMaxC= 1.00D-01 BMatC= 3.20D+00 BMatP= 1.55D+01
 IDIUse=3 WtCom= 7.14D-01 WtEn= 2.86D-01
 EnCoef did   100 forward-backward iterations
 Coeff-Com: -0.244D-01 0.208D+00-0.163D-01 0.239D+00 0.756D-01 0.518D+00
 Coeff-En:   0.155D+00 0.180D-02 0.000D+00 0.214D+00 0.000D+00 0.629D+00
 Coeff:      0.269D-01 0.149D+00-0.117D-01 0.232D+00 0.540D-01 0.550D+00
 Gap=     0.021 Goal=   None    Shift=    0.000
 Gap=     0.015 Goal=   None    Shift=    0.000
 RMSDP=8.46D-03 MaxDP=8.86D-01 DE=-1.22D+01 OVMax= 7.65D-01

 Cycle   7  Pass 1  IDiag  1:
 RMSU=  6.71D-03    CP:  9.11D-01  3.35D-02  1.02D-01  4.93D-01  1.83D-01
                    CP:  9.75D-03
 E= -2783.69589833725     Delta-E=        3.110565365784 Rises=F Damp=F
 DIIS: error= 4.23D-02 at cycle   7 NSaved=   7.
 NSaved= 7 IEnMin= 6 EnMin= -2786.80646370304     IErMin= 6 ErrMin= 2.86D-02
 ErrMax= 4.23D-02  0.00D+00 EMaxC= 1.00D-01 BMatC= 1.23D+01 BMatP= 3.20D+00
 IDIUse=2 WtCom= 0.00D+00 WtEn= 1.00D+00
 EnCoef did     8 forward-backward iterations
 Coeff-En:   0.865D-01 0.000D+00 0.000D+00 0.142D+00 0.000D+00 0.573D+00
 Coeff-En:   0.199D+00
 Coeff:      0.865D-01 0.000D+00 0.000D+00 0.142D+00 0.000D+00 0.573D+00
 Coeff:      0.199D+00
 Gap=     0.142 Goal=   None    Shift=    0.000
 Gap=     0.049 Goal=   None    Shift=    0.000
 RMSDP=5.97D-03 MaxDP=4.57D-01 DE= 3.11D+00 OVMax= 8.06D-01

 Cycle   8  Pass 1  IDiag  1:
 RMSU=  2.82D-03    CP:  8.92D-01 -1.34D-02  1.02D-01  6.08D-01  9.65D-02
                    CP:  3.52D-01  2.80D-01
 E= -2788.13484613612     Delta-E=       -4.438947798868 Rises=F Damp=F
 DIIS: error= 1.36D-02 at cycle   8 NSaved=   8.
 NSaved= 8 IEnMin= 8 EnMin= -2788.13484613612     IErMin= 8 ErrMin= 1.36D-02
 ErrMax= 1.36D-02  0.00D+00 EMaxC= 1.00D-01 BMatC= 8.41D-01 BMatP= 3.20D+00
 IDIUse=3 WtCom= 8.64D-01 WtEn= 1.36D-01
 Coeff-Com: -0.620D-01 0.103D+00 0.679D-02 0.153D-01 0.217D-01 0.264D+00
 Coeff-Com:  0.923D-01 0.559D+00
 Coeff-En:   0.000D+00 0.000D+00 0.000D+00 0.000D+00 0.000D+00 0.160D+00
 Coeff-En:   0.000D+00 0.840D+00
 Coeff:     -0.536D-01 0.889D-01 0.587D-02 0.132D-01 0.187D-01 0.250D+00
 Coeff:      0.797D-01 0.597D+00
 Gap=     0.189 Goal=   None    Shift=    0.000
 Gap=     0.057 Goal=   None    Shift=    0.000
 RMSDP=2.30D-03 MaxDP=1.46D-01 DE=-4.44D+00 OVMax= 3.22D-01

 Cycle   9  Pass 1  IDiag  1:
 RMSU=  2.01D-03    CP:  8.87D-01 -1.18D-02  1.22D-01  5.41D-01  1.62D-01
                    CP:  4.37D-01  2.34D-01  8.28D-01
 E= -2788.31817255500     Delta-E=       -0.183326418885 Rises=F Damp=F
 DIIS: error= 1.12D-02 at cycle   9 NSaved=   9.
 NSaved= 9 IEnMin= 9 EnMin= -2788.31817255500     IErMin= 9 ErrMin= 1.12D-02
 ErrMax= 1.12D-02  0.00D+00 EMaxC= 1.00D-01 BMatC= 3.37D-01 BMatP= 8.41D-01
 IDIUse=3 WtCom= 8.88D-01 WtEn= 1.12D-01
 Coeff-Com: -0.515D-01 0.714D-01 0.626D-02-0.231D-01 0.101D-01 0.106D+00
 Coeff-Com:  0.795D-02 0.388D+00 0.484D+00
 Coeff-En:   0.000D+00 0.000D+00 0.000D+00 0.000D+00 0.000D+00 0.000D+00
 Coeff-En:   0.000D+00 0.184D+00 0.816D+00
 Coeff:     -0.457D-01 0.634D-01 0.556D-02-0.205D-01 0.895D-02 0.944D-01
 Coeff:      0.706D-02 0.365D+00 0.522D+00
 Gap=     0.159 Goal=   None    Shift=    0.000
 Gap=     0.024 Goal=   None    Shift=    0.000
 RMSDP=1.44D-03 MaxDP=9.17D-02 DE=-1.83D-01 OVMax= 2.62D-01

 Cycle  10  Pass 1  IDiag  1:
 RMSU=  1.04D-03    CP:  8.85D-01 -8.91D-04  1.27D-01  5.58D-01  1.67D-01
                    CP:  4.68D-01  2.06D-01  8.18D-01  5.32D-01
 E= -2788.37511328092     Delta-E=       -0.056940725911 Rises=F Damp=F
 DIIS: error= 1.11D-02 at cycle  10 NSaved=  10.
 NSaved=10 IEnMin=10 EnMin= -2788.37511328092     IErMin=10 ErrMin= 1.11D-02
 ErrMax= 1.11D-02  0.00D+00 EMaxC= 1.00D-01 BMatC= 1.40D-01 BMatP= 3.37D-01
 IDIUse=3 WtCom= 8.89D-01 WtEn= 1.11D-01
 Coeff-Com: -0.491D-01 0.822D-01 0.326D-03-0.309D-01 0.373D-04 0.390D-01
 Coeff-Com: -0.685D-02 0.160D+00 0.370D+00 0.436D+00
 Coeff-En:   0.000D+00 0.000D+00 0.000D+00 0.000D+00 0.000D+00 0.000D+00
 Coeff-En:   0.000D+00 0.000D+00 0.239D+00 0.761D+00
 Coeff:     -0.437D-01 0.731D-01 0.289D-03-0.275D-01 0.331D-04 0.347D-01
 Coeff:     -0.609D-02 0.142D+00 0.355D+00 0.472D+00
 Gap=     0.103 Goal=   None    Shift=    0.000
 Gap=     0.028 Goal=   None    Shift=    0.000
 RMSDP=7.79D-04 MaxDP=4.08D-02 DE=-5.69D-02 OVMax= 2.07D-01

 Cycle  11  Pass 1  IDiag  1:
 RMSU=  4.80D-04    CP:  8.85D-01 -1.79D-03  1.28D-01  5.50D-01  1.69D-01
                    CP:  4.71D-01  1.96D-01  7.58D-01  7.78D-01  7.06D-01
 E= -2788.38770542012     Delta-E=       -0.012592139208 Rises=F Damp=F
 DIIS: error= 1.37D-02 at cycle  11 NSaved=  11.
 NSaved=11 IEnMin=11 EnMin= -2788.38770542012     IErMin=10 ErrMin= 1.11D-02
 ErrMax= 1.37D-02  0.00D+00 EMaxC= 1.00D-01 BMatC= 8.61D-02 BMatP= 1.40D-01
 IDIUse=3 WtCom= 8.89D-01 WtEn= 1.11D-01
 Coeff-Com: -0.382D-01 0.677D-01-0.569D-03-0.348D-01-0.857D-03 0.303D-01
 Coeff-Com: -0.737D-02 0.155D+00 0.208D+00 0.277D+00 0.344D+00
 Coeff-En:   0.000D+00 0.000D+00 0.000D+00 0.000D+00 0.000D+00 0.000D+00
 Coeff-En:   0.000D+00 0.000D+00 0.000D+00 0.288D+00 0.712D+00
 Coeff:     -0.339D-01 0.602D-01-0.506D-03-0.310D-01-0.762D-03 0.270D-01
 Coeff:     -0.655D-02 0.137D+00 0.185D+00 0.278D+00 0.385D+00
 Gap=     0.104 Goal=   None    Shift=    0.000
 Gap=     0.034 Goal=   None    Shift=    0.000
 RMSDP=2.83D-04 MaxDP=1.34D-02 DE=-1.26D-02 OVMax= 8.08D-02

 Cycle  12  Pass 1  IDiag  1:
 RMSU=  1.77D-04    CP:  8.85D-01 -2.34D-03  1.27D-01  5.48D-01  1.67D-01
                    CP:  4.74D-01  1.96D-01  7.83D-01  7.27D-01  7.77D-01
                    CP:  6.59D-01
 E= -2788.39659954569     Delta-E=       -0.008894125569 Rises=F Damp=F
 DIIS: error= 1.00D-02 at cycle  12 NSaved=  12.
 NSaved=12 IEnMin=12 EnMin= -2788.39659954569     IErMin=12 ErrMin= 1.00D-02
 ErrMax= 1.00D-02  0.00D+00 EMaxC= 1.00D-01 BMatC= 4.06D-02 BMatP= 8.61D-02
 IDIUse=3 WtCom= 9.00D-01 WtEn= 1.00D-01
 Coeff-Com: -0.209D-01 0.392D-01-0.416D-03-0.281D-01 0.433D-03 0.188D-01
 Coeff-Com: -0.224D-02 0.139D+00-0.642D-01-0.198D+00-0.135D+00 0.125D+01
 Coeff-En:   0.000D+00 0.000D+00 0.000D+00 0.000D+00 0.000D+00 0.000D+00
 Coeff-En:   0.000D+00 0.000D+00 0.000D+00 0.000D+00 0.000D+00 0.100D+01
 Coeff:     -0.188D-01 0.353D-01-0.374D-03-0.253D-01 0.390D-03 0.169D-01
 Coeff:     -0.201D-02 0.125D+00-0.578D-01-0.178D+00-0.122D+00 0.123D+01
 Gap=     0.113 Goal=   None    Shift=    0.000
 Gap=     0.039 Goal=   None    Shift=    0.000
 RMSDP=2.32D-04 MaxDP=2.55D-02 DE=-8.89D-03 OVMax= 1.81D-02

 Cycle  13  Pass 1  IDiag  1:
 RMSU=  1.73D-04    CP:  8.86D-01 -5.01D-03  1.24D-01  5.42D-01  1.64D-01
                    CP:  4.74D-01  2.00D-01  8.01D-01  6.81D-01  7.57D-01
                    CP:  8.14D-01  8.63D-01
 E= -2788.40158171304     Delta-E=       -0.004982167347 Rises=F Damp=F
 DIIS: error= 3.99D-03 at cycle  13 NSaved=  13.
 NSaved=13 IEnMin=13 EnMin= -2788.40158171304     IErMin=13 ErrMin= 3.99D-03
 ErrMax= 3.99D-03  0.00D+00 EMaxC= 1.00D-01 BMatC= 8.13D-03 BMatP= 4.06D-02
 IDIUse=3 WtCom= 9.60D-01 WtEn= 3.99D-02
 Coeff-Com: -0.663D-02 0.119D-01 0.517D-03-0.846D-02 0.777D-03 0.162D-02
 Coeff-Com:  0.115D-02 0.355D-01-0.103D+00-0.281D+00-0.483D+00 0.923D+00
 Coeff-Com:  0.908D+00
 Coeff-En:   0.000D+00 0.000D+00 0.000D+00 0.000D+00 0.000D+00 0.000D+00
 Coeff-En:   0.000D+00 0.000D+00 0.000D+00 0.000D+00 0.000D+00 0.000D+00
 Coeff-En:   0.100D+01
 Coeff:     -0.636D-02 0.114D-01 0.496D-03-0.812D-02 0.746D-03 0.155D-02
 Coeff:      0.110D-02 0.341D-01-0.990D-01-0.270D+00-0.464D+00 0.887D+00
 Coeff:      0.911D+00
 Gap=     0.114 Goal=   None    Shift=    0.000
 Gap=     0.042 Goal=   None    Shift=    0.000
 RMSDP=1.86D-04 MaxDP=9.14D-03 DE=-4.98D-03 OVMax= 3.41D-02

 Cycle  14  Pass 1  IDiag  1:
 RMSU=  1.03D-04    CP:  8.86D-01 -3.74D-03  1.23D-01  5.38D-01  1.62D-01
                    CP:  4.79D-01  1.96D-01  8.11D-01  6.59D-01  7.73D-01
                    CP:  7.53D-01  1.60D+00  9.69D-01
 E= -2788.40283501061     Delta-E=       -0.001253297571 Rises=F Damp=F
 DIIS: error= 4.58D-04 at cycle  14 NSaved=  14.
 NSaved=14 IEnMin=14 EnMin= -2788.40283501061     IErMin=14 ErrMin= 4.58D-04
 ErrMax= 4.58D-04  0.00D+00 EMaxC= 1.00D-01 BMatC= 1.23D-03 BMatP= 8.13D-03
 IDIUse=3 WtCom= 9.95D-01 WtEn= 4.58D-03
 Coeff-Com: -0.428D-02 0.724D-02 0.214D-03-0.989D-03 0.222D-03-0.117D-02
 Coeff-Com:  0.107D-02-0.678D-02-0.328D-01-0.112D+00-0.249D+00 0.284D+00
 Coeff-Com:  0.576D+00 0.539D+00
 Coeff-En:   0.000D+00 0.000D+00 0.000D+00 0.000D+00 0.000D+00 0.000D+00
 Coeff-En:   0.000D+00 0.000D+00 0.000D+00 0.000D+00 0.000D+00 0.000D+00
 Coeff-En:   0.977D-01 0.902D+00
 Coeff:     -0.426D-02 0.721D-02 0.213D-03-0.985D-03 0.221D-03-0.117D-02
 Coeff:      0.106D-02-0.675D-02-0.326D-01-0.112D+00-0.248D+00 0.283D+00
 Coeff:      0.574D+00 0.540D+00
 Gap=     0.112 Goal=   None    Shift=    0.000
 Gap=     0.041 Goal=   None    Shift=    0.000
 RMSDP=7.95D-05 MaxDP=5.20D-03 DE=-1.25D-03 OVMax= 1.19D-02

 Cycle  15  Pass 1  IDiag  1:
 RMSU=  4.66D-05    CP:  8.86D-01 -3.24D-03  1.23D-01  5.37D-01  1.63D-01
                    CP:  4.80D-01  1.94D-01  8.02D-01  6.67D-01  7.89D-01
                    CP:  7.96D-01  1.52D+00  1.10D+00  6.19D-01
 E= -2788.40317373916     Delta-E=       -0.000338728550 Rises=F Damp=F
 DIIS: error= 4.90D-04 at cycle  15 NSaved=  15.
 NSaved=15 IEnMin=15 EnMin= -2788.40317373916     IErMin=14 ErrMin= 4.58D-04
 ErrMax= 4.90D-04  0.00D+00 EMaxC= 1.00D-01 BMatC= 2.02D-04 BMatP= 1.23D-03
 IDIUse=3 WtCom= 9.95D-01 WtEn= 4.58D-03
 Coeff-Com: -0.188D-02 0.320D-02 0.830D-04-0.169D-04-0.677D-04-0.552D-03
 Coeff-Com:  0.572D-03-0.649D-02-0.780D-02-0.414D-01-0.839D-01 0.544D-01
 Coeff-Com:  0.206D+00 0.289D+00 0.589D+00
 Coeff-En:   0.000D+00 0.000D+00 0.000D+00 0.000D+00 0.000D+00 0.000D+00
 Coeff-En:   0.000D+00 0.000D+00 0.000D+00 0.000D+00 0.000D+00 0.000D+00
 Coeff-En:   0.000D+00 0.000D+00 0.100D+01
 Coeff:     -0.187D-02 0.318D-02 0.826D-04-0.168D-04-0.674D-04-0.550D-03
 Coeff:      0.569D-03-0.646D-02-0.777D-02-0.413D-01-0.836D-01 0.542D-01
 Coeff:      0.205D+00 0.288D+00 0.591D+00
 Gap=     0.111 Goal=   None    Shift=    0.000
 Gap=     0.041 Goal=   None    Shift=    0.000
 RMSDP=2.50D-05 MaxDP=1.41D-03 DE=-3.39D-04 OVMax= 3.31D-03

 Cycle  16  Pass 1  IDiag  1:
 RMSU=  2.08D-05    CP:  8.86D-01 -3.15D-03  1.23D-01  5.37D-01  1.62D-01
                    CP:  4.81D-01  1.94D-01  8.02D-01  6.68D-01  7.89D-01
                    CP:  7.94D-01  1.54D+00  1.10D+00  7.35D-01  9.27D-01
 E= -2788.40321650459     Delta-E=       -0.000042765429 Rises=F Damp=F
 DIIS: error= 1.37D-04 at cycle  16 NSaved=  16.
 NSaved=16 IEnMin=16 EnMin= -2788.40321650459     IErMin=16 ErrMin= 1.37D-04
 ErrMax= 1.37D-04  0.00D+00 EMaxC= 1.00D-01 BMatC= 3.92D-05 BMatP= 2.02D-04
 IDIUse=3 WtCom= 9.99D-01 WtEn= 1.37D-03
 Coeff-Com: -0.273D-03 0.467D-03-0.443D-05 0.111D-03 0.314D-04 0.178D-03
 Coeff-Com: -0.107D-03-0.536D-03 0.383D-02 0.896D-03 0.249D-01-0.483D-01
 Coeff-Com: -0.489D-01 0.769D-02 0.354D+00 0.706D+00
 Coeff-En:   0.000D+00 0.000D+00 0.000D+00 0.000D+00 0.000D+00 0.000D+00
 Coeff-En:   0.000D+00 0.000D+00 0.000D+00 0.000D+00 0.000D+00 0.000D+00
 Coeff-En:   0.000D+00 0.000D+00 0.000D+00 0.100D+01
 Coeff:     -0.272D-03 0.466D-03-0.442D-05 0.111D-03 0.313D-04 0.178D-03
 Coeff:     -0.107D-03-0.535D-03 0.382D-02 0.894D-03 0.249D-01-0.482D-01
 Coeff:     -0.488D-01 0.768D-02 0.353D+00 0.707D+00
 Gap=     0.111 Goal=   None    Shift=    0.000
 Gap=     0.041 Goal=   None    Shift=    0.000
 RMSDP=1.67D-05 MaxDP=1.41D-03 DE=-4.28D-05 OVMax= 3.44D-03

 Cycle  17  Pass 1  IDiag  1:
 RMSU=  1.05D-05    CP:  8.86D-01 -3.20D-03  1.23D-01  5.37D-01  1.62D-01
                    CP:  4.81D-01  1.93D-01  8.03D-01  6.68D-01  7.88D-01
                    CP:  7.88D-01  1.54D+00  1.12D+00  7.71D-01  1.14D+00
                    CP:  1.10D+00
 E= -2788.40323037439     Delta-E=       -0.000013869803 Rises=F Damp=F
 DIIS: error= 1.15D-04 at cycle  17 NSaved=  17.
 NSaved=17 IEnMin=17 EnMin= -2788.40323037439     IErMin=17 ErrMin= 1.15D-04
 ErrMax= 1.15D-04  0.00D+00 EMaxC= 1.00D-01 BMatC= 9.29D-06 BMatP= 3.92D-05
 IDIUse=3 WtCom= 9.99D-01 WtEn= 1.15D-03
 Coeff-Com:  0.374D-04-0.709D-04-0.312D-05 0.806D-04-0.730D-05 0.297D-03
 Coeff-Com: -0.103D-03 0.289D-03 0.625D-03 0.185D-02 0.205D-01-0.196D-01
 Coeff-Com: -0.307D-01-0.231D-01 0.844D-01 0.281D+00 0.684D+00
 Coeff-En:   0.000D+00 0.000D+00 0.000D+00 0.000D+00 0.000D+00 0.000D+00
 Coeff-En:   0.000D+00 0.000D+00 0.000D+00 0.000D+00 0.000D+00 0.000D+00
 Coeff-En:   0.000D+00 0.000D+00 0.000D+00 0.000D+00 0.100D+01
 Coeff:      0.374D-04-0.708D-04-0.312D-05 0.805D-04-0.730D-05 0.296D-03
 Coeff:     -0.103D-03 0.288D-03 0.625D-03 0.185D-02 0.205D-01-0.196D-01
 Coeff:     -0.307D-01-0.231D-01 0.843D-01 0.281D+00 0.685D+00
 Gap=     0.111 Goal=   None    Shift=    0.000
 Gap=     0.041 Goal=   None    Shift=    0.000
 RMSDP=8.61D-06 MaxDP=5.07D-04 DE=-1.39D-05 OVMax= 2.49D-03

 Cycle  18  Pass 1  IDiag  1:
 RMSU=  5.59D-06    CP:  8.86D-01 -3.13D-03  1.23D-01  5.37D-01  1.62D-01
                    CP:  4.81D-01  1.93D-01  8.03D-01  6.67D-01  7.88D-01
                    CP:  7.85D-01  1.54D+00  1.12D+00  7.88D-01  1.23D+00
                    CP:  1.30D+00  1.04D+00
 E= -2788.40323281553     Delta-E=       -0.000002441132 Rises=F Damp=F
 DIIS: error= 1.38D-04 at cycle  18 NSaved=  18.
 NSaved=18 IEnMin=18 EnMin= -2788.40323281553     IErMin=17 ErrMin= 1.15D-04
 ErrMax= 1.38D-04  0.00D+00 EMaxC= 1.00D-01 BMatC= 1.02D-05 BMatP= 9.29D-06
 IDIUse=3 WtCom= 9.99D-01 WtEn= 1.15D-03
 Coeff-Com: -0.596D-04 0.775D-04-0.875D-05 0.397D-04-0.179D-05 0.115D-03
 Coeff-Com: -0.834D-04 0.676D-04-0.132D-02 0.185D-02 0.117D-01 0.363D-02
 Coeff-Com: -0.462D-02-0.249D-01-0.701D-01-0.689D-01 0.488D+00 0.664D+00
 Coeff-En:   0.000D+00 0.000D+00 0.000D+00 0.000D+00 0.000D+00 0.000D+00
 Coeff-En:   0.000D+00 0.000D+00 0.000D+00 0.000D+00 0.000D+00 0.000D+00
 Coeff-En:   0.000D+00 0.000D+00 0.000D+00 0.000D+00 0.000D+00 0.100D+01
 Coeff:     -0.595D-04 0.774D-04-0.874D-05 0.396D-04-0.179D-05 0.115D-03
 Coeff:     -0.833D-04 0.676D-04-0.132D-02 0.185D-02 0.117D-01 0.363D-02
 Coeff:     -0.462D-02-0.248D-01-0.700D-01-0.688D-01 0.488D+00 0.665D+00
 Gap=     0.111 Goal=   None    Shift=    0.000
 Gap=     0.041 Goal=   None    Shift=    0.000
 RMSDP=8.39D-06 MaxDP=5.06D-04 DE=-2.44D-06 OVMax= 2.33D-03

 Cycle  19  Pass 1  IDiag  1:
 RMSU=  3.90D-06    CP:  8.86D-01 -3.10D-03  1.23D-01  5.37D-01  1.63D-01
                    CP:  4.81D-01  1.93D-01  8.02D-01  6.67D-01  7.91D-01
                    CP:  7.82D-01  1.53D+00  1.12D+00  8.01D-01  1.32D+00
                    CP:  1.45D+00  1.32D+00  1.20D+00
 E= -2788.40323606268     Delta-E=       -0.000003247157 Rises=F Damp=F
 DIIS: error= 2.25D-05 at cycle  19 NSaved=  19.
 NSaved=19 IEnMin=19 EnMin= -2788.40323606268     IErMin=19 ErrMin= 2.25D-05
 ErrMax= 2.25D-05  0.00D+00 EMaxC= 1.00D-01 BMatC= 1.59D-06 BMatP= 9.29D-06
 IDIUse=1 WtCom= 1.00D+00 WtEn= 0.00D+00
 Coeff-Com: -0.266D-04 0.250D-04-0.387D-05 0.155D-04-0.166D-04-0.916D-04
 Coeff-Com:  0.179D-04-0.431D-04-0.914D-03 0.142D-02 0.802D-02 0.178D-02
 Coeff-Com: -0.252D-02-0.216D-01-0.775D-01-0.130D+00 0.106D+00 0.368D+00
 Coeff-Com:  0.748D+00
 Coeff:     -0.266D-04 0.250D-04-0.387D-05 0.155D-04-0.166D-04-0.916D-04
 Coeff:      0.179D-04-0.431D-04-0.914D-03 0.142D-02 0.802D-02 0.178D-02
 Coeff:     -0.252D-02-0.216D-01-0.775D-01-0.130D+00 0.106D+00 0.368D+00
 Coeff:      0.748D+00
 Gap=     0.111 Goal=   None    Shift=    0.000
 Gap=     0.041 Goal=   None    Shift=    0.000
 RMSDP=7.66D-06 MaxDP=3.80D-04 DE=-3.25D-06 OVMax= 2.45D-03

 Cycle  20  Pass 1  IDiag  1:
 RMSU=  2.74D-06    CP:  8.86D-01 -3.06D-03  1.23D-01  5.37D-01  1.63D-01
                    CP:  4.81D-01  1.92D-01  8.02D-01  6.67D-01  7.92D-01
                    CP:  7.81D-01  1.53D+00  1.12D+00  8.12D-01  1.41D+00
                    CP:  1.62D+00  1.53D+00  1.65D+00  1.50D+00
 E= -2788.40323733911     Delta-E=       -0.000001276423 Rises=F Damp=F
 DIIS: error= 3.26D-05 at cycle  20 NSaved=  20.
 NSaved=20 IEnMin=20 EnMin= -2788.40323733911     IErMin=19 ErrMin= 2.25D-05
 ErrMax= 3.26D-05  0.00D+00 EMaxC= 1.00D-01 BMatC= 1.37D-06 BMatP= 1.59D-06
 IDIUse=1 WtCom= 1.00D+00 WtEn= 0.00D+00
 Coeff-Com:  0.367D-04-0.697D-04-0.116D-06-0.152D-04-0.617D-05-0.162D-03
 Coeff-Com:  0.385D-04 0.407D-04 0.439D-03 0.161D-02 0.766D-02-0.703D-02
 Coeff-Com: -0.799D-02-0.156D-01-0.374D-01-0.568D-01 0.149D-01 0.873D-01
 Coeff-Com:  0.410D+00 0.604D+00
 Coeff:      0.367D-04-0.697D-04-0.116D-06-0.152D-04-0.617D-05-0.162D-03
 Coeff:      0.385D-04 0.407D-04 0.439D-03 0.161D-02 0.766D-02-0.703D-02
 Coeff:     -0.799D-02-0.156D-01-0.374D-01-0.568D-01 0.149D-01 0.873D-01
 Coeff:      0.410D+00 0.604D+00
 Gap=     0.111 Goal=   None    Shift=    0.000
 Gap=     0.041 Goal=   None    Shift=    0.000
 RMSDP=4.17D-06 MaxDP=2.07D-04 DE=-1.28D-06 OVMax= 1.34D-03

 Cycle  21  Pass 1  IDiag  1:
 Restarting incremental Fock formation.
 E= -2788.40323778116     Delta-E=       -0.000000442051 Rises=F Damp=F
 DIIS: error= 3.43D-05 at cycle  21 NSaved=  20.
 NSaved=20 IEnMin=20 EnMin= -2788.40323778116     IErMin=18 ErrMin= 2.25D-05
 ErrMax= 3.43D-05  0.00D+00 EMaxC= 1.00D-01 BMatC= 1.15D-06 BMatP= 1.37D-06
 IDIUse=1 WtCom= 1.00D+00 WtEn= 0.00D+00
 Coeff-Com:  0.950D-04-0.154D-03-0.407D-04 0.417D-05-0.103D-03 0.364D-04
 Coeff-Com:  0.104D-03 0.132D-02 0.148D-02 0.543D-02-0.998D-02-0.664D-02
 Coeff-Com: -0.581D-02-0.104D-01-0.403D-02 0.521D-01 0.109D-01-0.116D+00
 Coeff-Com:  0.249D+00 0.833D+00
 Coeff:      0.950D-04-0.154D-03-0.407D-04 0.417D-05-0.103D-03 0.364D-04
 Coeff:      0.104D-03 0.132D-02 0.148D-02 0.543D-02-0.998D-02-0.664D-02
 Coeff:     -0.581D-02-0.104D-01-0.403D-02 0.521D-01 0.109D-01-0.116D+00
 Coeff:      0.249D+00 0.833D+00
 Gap=     0.111 Goal=   None    Shift=    0.000
 Gap=     0.041 Goal=   None    Shift=    0.000
 RMSDP=3.45D-06 MaxDP=1.58D-04 DE=-4.42D-07 OVMax= 1.01D-03

 Cycle  22  Pass 1  IDiag  1:
 RMSU=  3.45D-06    CP:  1.00D+00
 E= -2788.40323818395     Delta-E=       -0.000000402797 Rises=F Damp=F
 DIIS: error= 1.51D-05 at cycle  22 NSaved=  20.
 NSaved=20 IEnMin=20 EnMin= -2788.40323818395     IErMin=20 ErrMin= 1.51D-05
 ErrMax= 1.51D-05  0.00D+00 EMaxC= 1.00D-01 BMatC= 4.70D-07 BMatP= 1.15D-06
 IDIUse=1 WtCom= 1.00D+00 WtEn= 0.00D+00
 Coeff-Com:  0.634D-04-0.100D-03-0.269D-04-0.313D-04 0.162D-04-0.112D-03
 Coeff-Com:  0.961D-03 0.102D-02 0.157D-02-0.409D-02 0.750D-03 0.238D-02
 Coeff-Com: -0.597D-02-0.138D-01 0.510D-01 0.654D-01-0.160D+00-0.352D+00
 Coeff-Com:  0.142D+00 0.127D+01
 Coeff:      0.634D-04-0.100D-03-0.269D-04-0.313D-04 0.162D-04-0.112D-03
 Coeff:      0.961D-03 0.102D-02 0.157D-02-0.409D-02 0.750D-03 0.238D-02
 Coeff:     -0.597D-02-0.138D-01 0.510D-01 0.654D-01-0.160D+00-0.352D+00
 Coeff:      0.142D+00 0.127D+01
 Gap=     0.111 Goal=   None    Shift=    0.000
 Gap=     0.041 Goal=   None    Shift=    0.000
 RMSDP=3.84D-06 MaxDP=1.80D-04 DE=-4.03D-07 OVMax= 1.15D-03

 Cycle  23  Pass 1  IDiag  1:
 RMSU=  1.29D-06    CP:  1.00D+00  2.05D+00
 E= -2788.40323846857     Delta-E=       -0.000000284619 Rises=F Damp=F
 DIIS: error= 5.02D-06 at cycle  23 NSaved=  20.
 NSaved=20 IEnMin=20 EnMin= -2788.40323846857     IErMin=20 ErrMin= 5.02D-06
 ErrMax= 5.02D-06  0.00D+00 EMaxC= 1.00D-01 BMatC= 1.15D-07 BMatP= 4.70D-07
 IDIUse=1 WtCom= 1.00D+00 WtEn= 0.00D+00
 Coeff-Com:  0.855D-06 0.880D-06 0.161D-04-0.110D-05-0.130D-03 0.145D-03
 Coeff-Com: -0.905D-04-0.154D-02 0.221D-02 0.524D-02 0.517D-02-0.151D-02
 Coeff-Com: -0.150D-01 0.139D-01 0.566D-01-0.588D-01-0.463D+00-0.401D+00
 Coeff-Com:  0.110D+01 0.756D+00
 Coeff:      0.855D-06 0.880D-06 0.161D-04-0.110D-05-0.130D-03 0.145D-03
 Coeff:     -0.905D-04-0.154D-02 0.221D-02 0.524D-02 0.517D-02-0.151D-02
 Coeff:     -0.150D-01 0.139D-01 0.566D-01-0.588D-01-0.463D+00-0.401D+00
 Coeff:      0.110D+01 0.756D+00
 Gap=     0.111 Goal=   None    Shift=    0.000
 Gap=     0.041 Goal=   None    Shift=    0.000
 RMSDP=3.19D-06 MaxDP=1.30D-04 DE=-2.85D-07 OVMax= 9.57D-04

 Cycle  24  Pass 1  IDiag  1:
 RMSU=  7.52D-07    CP:  1.00D+00  2.93D+00  1.37D+00
 E= -2788.40323855381     Delta-E=       -0.000000085242 Rises=F Damp=F
 DIIS: error= 9.12D-06 at cycle  24 NSaved=  20.
 NSaved=20 IEnMin=20 EnMin= -2788.40323855381     IErMin=19 ErrMin= 5.02D-06
 ErrMax= 9.12D-06  0.00D+00 EMaxC= 1.00D-01 BMatC= 5.71D-08 BMatP= 1.15D-07
 IDIUse=1 WtCom= 1.00D+00 WtEn= 0.00D+00
 Coeff-Com:  0.677D-05 0.785D-05-0.242D-05-0.379D-04 0.163D-04-0.275D-03
 Coeff-Com: -0.811D-03 0.113D-02 0.230D-02 0.229D-02 0.228D-02-0.181D-02
 Coeff-Com: -0.245D-02-0.963D-03-0.402D-01-0.188D+00-0.138D+00 0.428D+00
 Coeff-Com:  0.415D+00 0.522D+00
 Coeff:      0.677D-05 0.785D-05-0.242D-05-0.379D-04 0.163D-04-0.275D-03
 Coeff:     -0.811D-03 0.113D-02 0.230D-02 0.229D-02 0.228D-02-0.181D-02
 Coeff:     -0.245D-02-0.963D-03-0.402D-01-0.188D+00-0.138D+00 0.428D+00
 Coeff:      0.415D+00 0.522D+00
 Gap=     0.111 Goal=   None    Shift=    0.000
 Gap=     0.041 Goal=   None    Shift=    0.000
 RMSDP=5.75D-07 MaxDP=3.04D-05 DE=-8.52D-08 OVMax= 1.72D-04

 Cycle  25  Pass 1  IDiag  1:
 RMSU=  4.19D-07    CP:  1.00D+00  3.00D+00  1.44D+00  9.07D-01
 E= -2788.40323856770     Delta-E=       -0.000000013882 Rises=F Damp=F
 DIIS: error= 6.16D-06 at cycle  25 NSaved=  20.
 NSaved=20 IEnMin=20 EnMin= -2788.40323856770     IErMin=18 ErrMin= 5.02D-06
 ErrMax= 6.16D-06  0.00D+00 EMaxC= 1.00D-01 BMatC= 2.06D-08 BMatP= 5.71D-08
 IDIUse=1 WtCom= 1.00D+00 WtEn= 0.00D+00
 Coeff-Com:  0.418D-05 0.358D-05 0.667D-05-0.228D-04-0.256D-03-0.243D-03
 Coeff-Com:  0.174D-03 0.538D-03 0.738D-03 0.351D-02 0.468D-02-0.651D-02
 Coeff-Com: -0.237D-01-0.261D-01-0.483D-02 0.476D-01 0.260D-01 0.677D-01
 Coeff-Com:  0.213D+00 0.698D+00
 Coeff:      0.418D-05 0.358D-05 0.667D-05-0.228D-04-0.256D-03-0.243D-03
 Coeff:      0.174D-03 0.538D-03 0.738D-03 0.351D-02 0.468D-02-0.651D-02
 Coeff:     -0.237D-01-0.261D-01-0.483D-02 0.476D-01 0.260D-01 0.677D-01
 Coeff:      0.213D+00 0.698D+00
 Gap=     0.111 Goal=   None    Shift=    0.000
 Gap=     0.041 Goal=   None    Shift=    0.000
 RMSDP=2.77D-07 MaxDP=1.98D-05 DE=-1.39D-08 OVMax= 6.44D-05

 Cycle  26  Pass 1  IDiag  1:
 RMSU=  1.64D-07    CP:  1.00D+00  3.00D+00  1.43D+00  9.79D-01  1.51D+00
 E= -2788.40323857362     Delta-E=       -0.000000005921 Rises=F Damp=F
 DIIS: error= 2.29D-06 at cycle  26 NSaved=  20.
 NSaved=20 IEnMin=20 EnMin= -2788.40323857362     IErMin=20 ErrMin= 2.29D-06
 ErrMax= 2.29D-06  0.00D+00 EMaxC= 1.00D-01 BMatC= 3.72D-09 BMatP= 2.06D-08
 IDIUse=1 WtCom= 1.00D+00 WtEn= 0.00D+00
 Coeff-Com:  0.223D-05 0.713D-05-0.445D-04 0.109D-04 0.381D-03-0.563D-03
 Coeff-Com: -0.100D-02-0.766D-03 0.172D-02 0.532D-02-0.443D-03-0.164D-01
 Coeff-Com:  0.461D-02 0.968D-01 0.103D+00-0.221D+00-0.221D+00-0.274D+00
[...]
 0.00076917,-0.00028468,-0.00000658,0.00002056,0.00000748,-0.00002122,-
 0.00002007,0.00003515,-0.00004637,-0.00001767,0.00000834,0.00000916,0.
 00000790,-0.00001947,0.00005527,0.00007282,-0.00009175,0.00000935,-0.0
 0000732,-0.00000355,-0.00010160,-0.00011683,-0.00042416,0.00006373,0.0
 0017244,-0.00004027,0.00000251,-0.00001778,0.00006438,-0.00008427,0.00
 002031,0.00002004,-0.00002611,0.00004419,0.00006135,0.00047818,0.00150
 490,0.00044055,-0.14215733,0.04390560,0.17023617,-0.00004534,0.0000234
 9,0.00005392,0.00003502,-0.00015216,-0.00005233,-0.00013023,0.00023527
 ,-0.00038083,0.00001083,0.00004449,0.00011711,-0.00011960,-0.00008600,
 -0.00022627,0.00001329,0.00082905,-0.00032679,-0.00125136,0.00198615,0
 .00403510,0.00000219,-0.00105303,-0.00056080,0.00048424,0.00028028,0.0
 0057465,-0.00068488,-0.00027792,-0.00003874,-0.00021229,0.00005070,0.0
 0009442,0.00012535,0.00007789,0.00024190,-0.00012782,0.00000161,-0.000
 27223,0.00012828,0.00004065,0.00022330,0.00000440,-0.00006591,-0.00021
 809,0.00008835,0.00001051,0.00004245,-0.00003989,0.00000685,0.00002719
 ,-0.00007666,0.00000323,-0.00001853,0.00004000,-0.00002872,0.00000625,
 -0.00005567,0.00014132,0.00017476,-0.01008098,-0.01838703,0.00939668,0
 .00078808,0.00033998,-0.00405129,-0.14914402,-0.12253437,0.06935873,0.
 00663274,0.00481430,-0.00080406,0.00407620,0.00074637,0.00404505,0.000
 06752,-0.00004497,-0.00000984,-0.00000024,-0.00000698,-0.00000348,0.00
 000584,0.00000910,-0.00001083,0.00000724,0.00000375,-0.00000528,-0.000
 01522,-0.00000921,-0.00001465,0.00000080,0.00000544,0.00002286,-0.0000
 0898,-0.00000079,0.00000863,-0.00000363,-0.00000486,0.00000264,-0.0000
 0665,-0.00000627,0.00000149,0.00000007,0.00000250,-0.00000848,0.000002
 64,-0.00000047,0.00000073,-0.00000136,-0.00000448,-0.00000522,-0.00000
 932,0.00000321,-0.00000013,0.00001329,-0.00000566,0.00003159,0.1509187
 8,-0.00001959,0.00001090,0.00001121,-0.00005881,-0.00005123,0.00005474
 ,-0.00001510,-0.00044039,0.00005143,0.00007848,-0.00007717,-0.00010945
 ,-0.00005732,0.00016068,0.00015789,0.00050896,0.00015182,-0.00025811,0
 .00048448,-0.00020925,-0.00115691,0.00019980,0.00061983,0.00060454,-0.
 00037093,-0.00013529,-0.00064750,0.00066597,0.00016075,0.00037439,0.00
 021983,-0.00012305,-0.00011060,-0.00015585,-0.00007294,-0.00028887,0.0
 0020592,0.00002654,0.00025184,-0.00018333,-0.00007897,-0.00035527,0.00
 019483,0.00008266,0.00034648,-0.00038194,-0.00001726,-0.00013978,0.000
 15104,-0.00003104,-0.00008828,-0.00003410,0.00002095,0.00004645,0.0000
 0035,0.00004165,0.00008239,-0.00006232,-0.00009457,-0.00012455,0.00632
 905,0.00644589,-0.00498226,0.00026875,0.00090810,0.00091718,-0.1231711
 9,-0.20035864,0.07110715,-0.01880106,-0.01536118,0.01208580,0.00142518
 ,-0.00376514,-0.00342420,-0.00080393,0.00005397,0.00066773,0.00000081,
 -0.00000364,-0.00000054,0.00000448,-0.00000300,0.00000369,-0.00000084,
 -0.00000155,-0.00000435,-0.00000337,0.00000212,0.00000784,-0.00000746,
 0.00001273,-0.00000179,0.00001547,0.00000385,0.00000134,-0.00001603,0.
 00000992,0.00000041,-0.00000550,0.00000335,0.00000477,-0.00000668,-0.0
 0000083,0.00002756,-0.00001687,-0.00000052,-0.00000442,-0.00000544,0.0
 0001484,0.00002404,-0.00000699,-0.00000795,-0.00001143,0.00000004,-0.0
 0001730,-0.00002135,0.13291690,0.21101177,0.00003212,-0.00001246,-0.00
 000756,-0.00005994,0.00006983,0.00000894,-0.00037248,-0.00016242,-0.00
 029315,0.00011197,-0.00006082,0.00003387,-0.00017342,0.00016955,-0.000
 21789,-0.00014751,-0.00090396,-0.00039659,0.00364008,-0.00218557,0.000
 03026,0.00060436,0.00103993,0.00015714,0.00011740,0.00005818,-0.000231
 03,0.00013352,0.00008066,0.00005669,0.00008796,-0.00013928,-0.00003562
 ,-0.00001728,-0.00004598,-0.00016700,0.00021672,-0.00006839,0.00006155
 ,-0.00011843,-0.00005476,-0.00024454,0.00011333,0.00003964,0.00019546,
 -0.00021512,-0.00000999,-0.00008686,0.00008367,-0.00001496,-0.00004849
 ,-0.00007756,0.00001449,0.00005261,0.00001109,0.00005096,0.00012930,-0
 .00018728,-0.00012533,-0.00032846,0.01126372,0.01682386,-0.00150165,-0
 .00347971,-0.00008938,0.00014303,0.07111808,0.06944164,-0.08274595,-0.
 00517493,-0.00670935,0.00727514,0.00417088,-0.00297123,0.00484921,-0.0
 0013365,0.00010820,0.00036306,-0.00000250,0.00000242,-0.00000135,-0.00
 000338,-0.00000071,0.00000307,-0.00000919,-0.00000446,-0.00000047,-0.0
 0002041,0.00001409,-0.00002031,0.00002864,0.00000951,0.00002662,0.0000
 2104,0.00000469,-0.00001316,-0.00000442,0.00001649,-0.00000263,0.00000
 199,0.00000268,0.00000054,-0.00000408,-0.00000193,0.00001542,-0.000008
 35,-0.00000003,-0.00000082,-0.00000394,0.00000978,0.00001314,-0.000003
 64,-0.00000280,-0.00000552,-0.00001379,-0.00000244,-0.00002610,-0.0787
 2547,-0.07550473,0.07585915,-0.00003637,-0.00000899,0.00007361,0.00012
 755,0.00005770,0.00004882,-0.00018017,-0.00024155,-0.00013849,0.000050
 99,-0.00000938,-0.00008094,-0.00048898,0.00072124,0.00061184,0.0009987
 6,-0.00352842,0.00227346,-0.00037708,-0.00058463,-0.00040209,-0.000231
 50,0.00023013,0.00005470,-0.00025047,-0.00006912,-0.00048724,0.0004697
 9,0.00016246,0.00019368,0.00016253,-0.00011413,-0.00011037,-0.00011645
 ,-0.00004453,-0.00019985,0.00017163,0.00003441,0.00014121,-0.00014590,
 -0.00006429,-0.00027889,0.00018182,0.00006010,0.00027645,-0.00032650,-
 0.00001556,-0.00012289,0.00012669,-0.00002424,-0.00007167,-0.00005481,
 0.00002033,0.00003630,0.00000043,0.00003365,0.00010811,-0.00015944,-0.
 00006518,-0.00003619,0.00519118,-0.00018735,0.00341879,-0.00058462,0.0
 0014650,0.00011476,0.00151107,-0.00104229,0.00308930,-0.19314498,0.049
 60898,0.13715268,-0.00953766,0.00660877,0.01194000,-0.00039522,0.00201
 319,-0.00168739,0.00001154,0.00001026,-0.00001601,-0.00001591,-0.00000
 867,-0.00003595,-0.00000175,-0.00001311,0.00001114,0.00004568,-0.00002
 660,-0.00000379,-0.00010127,-0.00018426,0.00015490,0.00001814,0.000007
 21,-0.00000081,-0.00001354,0.00000657,0.00000090,-0.00000795,0.0000017
 2,0.00000348,-0.00000578,-0.00000002,0.00002306,-0.00001491,-0.0000003
 2,-0.00000391,-0.00000538,0.00001163,0.00002024,-0.00001247,-0.0000045
 4,-0.00001135,0.00000480,-0.00000454,-0.00000139,-0.00168628,0.0007560
 8,-0.00303599,0.19852516,-0.00006724,0.00001338,0.00005432,0.00003114,
 -0.00007457,-0.00004068,0.00039953,0.00022935,-0.00026359,-0.00012768,
 0.00024246,0.00013495,-0.00078842,0.00040773,0.00065638,-0.00220271,-0
 .00297517,0.00070951,0.00044529,-0.00049307,-0.00021295,0.00002499,-0.
 00008741,-0.00045188,0.00034810,0.00010642,0.00046532,-0.00054126,-0.0
 0013269,-0.00029020,-0.00020522,0.00007759,0.00011508,0.00014980,0.000
 06134,0.00023369,-0.00017845,-0.00005311,-0.00018984,0.00016836,0.0000
 7447,0.00031023,-0.00018052,-0.00007641,-0.00031081,0.00034312,0.00001
 653,0.00012641,-0.00013581,0.00002693,0.00007905,0.00003958,-0.0000171
 4,-0.00003000,0.00000433,-0.00000977,-0.00009857,0.00012634,0.00003577
 ,0.00006739,-0.00258904,-0.00399256,-0.00031054,0.00116598,-0.00083527
 ,-0.00145510,0.02342923,-0.00328268,-0.02067416,0.04965747,-0.07619437
 ,-0.04703378,-0.01566368,0.00861861,0.01387146,-0.00094245,0.00093215,
 0.00121940,0.00001710,0.00000887,-0.00001115,-0.00001669,0.00000686,-0
 .00002373,0.00002653,-0.00000266,0.00002057,0.00002643,-0.00002444,-0.
 00002827,-0.00019981,-0.00027381,0.00012062,-0.00001184,-0.00000415,-0
 .00000498,0.00001556,-0.00000477,-0.00000140,0.00000779,-0.00000283,-0
 .00000416,0.00000616,0.00000049,-0.00002512,0.00001532,0.00000061,0.00
 000410,0.00000512,-0.00001272,-0.00002170,0.00000762,0.00000539,0.0000
 1157,-0.00000219,-0.00000511,0.00002245,0.00010077,0.00111023,0.001103
 28,-0.05330189,0.07686903,0.00014005,-0.00002941,-0.00006040,0.0000002
 2,0.00013950,0.00018541,-0.00013314,0.00012314,-0.00015503,-0.00011486
 ,0.00002686,0.00002936,0.00043487,-0.00048615,-0.00031789,0.00256391,0
 .00200984,0.00252149,-0.00073025,0.00025860,-0.00014570,-0.00030314,-0
 .00004659,-0.00052110,0.00006509,-0.00007445,0.00002284,-0.00007617,0.
 00013818,-0.00019002,-0.00003822,-0.00001950,0.00000993,0.00003598,0.0
 0001753,0.00003465,-0.00003826,0.00000004,-0.00004633,0.00002578,0.000
 00515,0.00006016,-0.00008547,-0.00000758,-0.00006238,0.00012924,0.0000
 0182,0.00003315,-0.00005317,0.00001092,0.00003027,0.00002392,-0.000002
 74,-0.00001513,-0.00001325,-0.00000881,0.00000730,-0.00005745,0.000039
 78,0.00003641,0.00312791,-0.00156462,0.00640786,-0.00015039,-0.0001862
 7,-0.00059980,0.00711452,-0.00116832,-0.00068732,0.13706169,-0.0468766
 5,-0.15932981,0.00869457,-0.00496033,-0.00426687,-0.00200624,-0.000992
 79,-0.00118002,-0.00001740,0.00000180,0.00000604,-0.00000014,0.0000041
 6,0.00000550,-0.00004195,0.00000552,-0.00001225,0.00000633,0.00002360,
 0.00004748,0.00014936,0.00017401,0.00003779,0.00000538,0.00000066,-0.0
 0001028,0.00000872,0.00000173,-0.00000258,0.00000298,-0.00000363,-0.00
 000342,0.00000289,-0.00000044,-0.00000898,0.00000674,0.00000030,0.0000
 0237,0.00000243,-0.00000463,-0.00000845,0.00000106,-0.00000061,0.00000
 409,-0.00000012,0.00001310,-0.00000848,-0.00311572,0.00053679,-0.00276
 814,-0.15268974,0.05228982,0.16057101,-0.00058466,0.00089657,0.0003321
 6,-0.00087978,0.00103254,-0.00214580,-0.00871807,0.00723606,0.01241597
 ,0.00124383,-0.00373211,0.00285664,0.00015332,-0.00045030,-0.00047431,
 0.00312747,0.00013435,0.00171512,-0.00019741,-0.00019652,0.00042732,0.
 00005227,0.00009640,0.00012189,-0.00000219,-0.00000276,-0.00013685,0.0
 0011627,-0.00001176,0.00015983,0.00006825,-0.00003192,-0.00005397,-0.0
 0005060,-0.00002848,-0.00010548,0.00009611,0.00000574,0.00006624,-0.00
 007908,-0.00003241,-0.00016678,0.00014157,0.00003217,0.00016231,-0.000
 23230,-0.00001125,-0.00008401,0.00008868,-0.00001722,-0.00004815,-0.00
 004864,0.00001814,0.00002878,-0.00000028,0.00002493,0.00006609,-0.0000
 7575,-0.00005100,-0.00003029,0.00023907,0.00005964,-0.00025416,-0.0000
 1378,-0.00015269,-0.00006532,0.00005984,0.00033229,-0.00009452,-0.0010
 2551,-0.00144610,-0.00237750,-0.00054902,0.00057726,0.00297276,-0.1987
 3830,0.04346293,0.14467990,0.00034174,0.00025644,-0.00060845,-0.000051
 16,-0.00052551,-0.00077455,0.00037507,0.00112923,0.00045926,-0.0004581
 1,0.00038567,0.00063142,-0.00032450,0.00006230,-0.00033233,0.00000703,
 -0.00000043,0.00000227,-0.00001056,0.00000130,0.00000216,-0.00000572,0
 .00000276,0.00000250,-0.00000459,0.00000054,0.00001586,-0.00001124,0.0
 0000013,-0.00000309,-0.00000409,0.00000761,0.00001401,-0.00001122,-0.0
 0000076,-0.00000849,0.00000298,-0.00000889,0.00000862,0.00010160,0.000
 01088,0.00012803,0.00035163,0.00037622,-0.00005287,0.20552401,-0.00095
 266,-0.00265843,0.00046564,0.00219076,0.00051848,-0.00128765,-0.016111
 31,0.01165456,0.01441895,-0.00227231,-0.00330059,0.00075993,-0.0002246
 8,-0.00074175,0.00012484,-0.00095519,-0.00500023,-0.00069055,0.0011460
 4,0.00025801,-0.00088255,-0.00005295,-0.00037864,-0.00001754,0.0000409
 0,-0.00001870,0.00003319,-0.00004214,0.00002534,-0.00006659,-0.0000165
 2,0.00003239,0.00000243,0.00002161,0.00000016,0.00001548,-0.00001743,0
 .00001613,-0.00001891,0.00001478,0.00000758,0.00003833,-0.00004667,-0.
 00000614,-0.00003266,0.00007132,0.00000375,0.00002546,-0.00002564,0.00
 000407,0.00001520,0.00003223,-0.00000175,-0.00000384,-0.00000718,-0.00
 001407,-0.00001413,0.00001398,0.00003774,-0.00002980,0.00021093,0.0000
 5410,-0.00016622,-0.00011460,0.00005519,0.00017906,-0.00030975,0.00017
 287,0.00027671,0.00180658,0.00112593,-0.00083096,0.02207726,-0.0035210
 8,-0.01937684,0.04443208,-0.07108237,-0.04238954,-0.00010393,0.0000372
 5,0.00015043,-0.00006432,-0.00131257,-0.00047084,0.00034853,-0.0016914
 5,-0.00014347,-0.00088019,0.00033055,0.00075011,0.00008886,0.00000866,
 0.00003108,0.00000138,-0.00000239,-0.00000425,0.00000463,-0.00000317,0
 .00000001,0.00000314,-0.00000209,-0.00000045,0.00000203,-0.00000022,-0
 .00000506,0.00000325,0.00000012,0.00000063,0.00000144,-0.00000195,-0.0
 0000449,0.00000596,0.00000014,0.00000383,-0.00000326,0.00000274,-0.000
 00668,-0.00001736,0.00001293,-0.00001672,-0.00086856,-0.00037573,0.000
 65049,-0.04943678,0.07576921,0.00012673,-0.00110280,-0.00057878,-0.001
 99200,-0.00017277,-0.00195126,0.00915261,-0.00527342,-0.00331860,0.002
 97150,0.00188075,0.00302083,-0.00058352,0.00015394,0.00012475,0.001730
 66,-0.00162965,0.00352024,0.00050915,0.00045887,0.00005426,0.00002786,
 -0.00022528,-0.00022905,0.00027343,0.00001359,0.00022325,-0.00026546,-
 0.00005388,-0.00009452,-0.00007134,0.00003392,0.00002009,0.00005541,0.
 00001046,0.00005129,-0.00003449,-0.00001599,-0.00006441,0.00003803,0.0
 0001566,0.00005898,-0.00005668,-0.00001495,-0.00007612,0.00009848,0.00
 000056,0.00002551,-0.00004307,0.00000864,0.00002519,-0.00000316,0.0000
 0022,-0.00000787,-0.00001122,0.00000098,0.00000699,-0.00001758,-0.0000
 0622,-0.00001908,-0.00011817,0.00018808,0.00010292,-0.00002207,-0.0001
 0048,-0.00005634,-0.00019280,-0.00024416,-0.00006705,-0.00190056,0.001
 90205,-0.00179418,0.00597228,-0.00118400,-0.00211496,0.14475019,-0.041
 46222,-0.15931422,-0.00065598,-0.00014220,0.00010137,0.00018080,-0.001
 48090,0.00010654,-0.00056745,0.00061972,-0.00003579,0.00044376,-0.0002
 9807,-0.00018161,-0.00030497,0.00000841,-0.00047082,0.00000105,-0.0000
 0499,-0.00000739,0.00000623,-0.00000307,-0.00000047,0.00000327,0.00000
 024,-0.00000345,0.00000131,-0.00000021,-0.00000724,0.00000511,0.000000
 38,0.00000220,0.00000174,-0.00000379,-0.00000669,-0.00000184,0.0000018
 9,0.00000239,0.00000029,0.00000195,0.00000352,0.00012331,-0.00005616,0
 .00013908,-0.00020959,-0.00040911,0.00033372,-0.15946917,0.04855980,0.
 16245758,0.00039601,-0.00020269,-0.00030967,-0.00021331,0.00113453,0.0
 0032983,-0.00021143,-0.00095668,0.00002525,-0.00021910,0.00018878,-0.0
 0003881,0.00001557,-0.00001660,0.00019845,0.00069916,-0.00046367,-0.00
 008834,-0.00154264,-0.00021245,-0.00111654,0.00281347,-0.00154823,0.00
 540123,-0.03048179,-0.01212687,-0.00389346,-0.00542331,-0.02780593,0.0
 2578908,0.00370101,0.00009690,-0.00147137,-0.00220041,-0.00069623,-0.0
 0295336,0.00230941,0.00030514,0.00168938,-0.00191663,-0.00049866,-0.00
 261388,0.00043056,0.00054413,0.00238217,-0.00133984,-0.00007824,-0.000
 62323,0.00055206,-0.00012104,-0.00034289,-0.00003639,0.00004361,0.0004
 9853,0.00038640,0.00041666,0.00068224,-0.00322973,-0.00007006,-0.00052
 467,0.00012226,-0.00460141,-0.00567576,-0.00297029,-0.00239531,-0.0140
 5446,0.00015370,0.00233056,0.00067117,-0.00054538,0.00033242,0.0000637
 0,-0.00041740,-0.00035136,0.00012879,0.00038384,0.00057436,-0.00021096
 ,-0.00001224,0.00004996,0.00001674,-0.00005298,-0.00002822,0.00006234,
 -0.00008124,-0.00002652,0.00002857,0.00002024,0.00005052,-0.00000031,0
 .00011275,0.00006682,0.00004627,-0.00006341,-0.00002216,0.00015884,0.0
 0010195,-0.00012102,0.00006737,-0.00002510,0.00001371,-0.00002298,-0.0
 0001448,-0.00001727,0.00010537,-0.00004498,0.00000178,-0.00000084,-0.0
 0001279,0.00007571,0.00008925,0.00002430,-0.00002560,-0.00003343,-0.00
 004359,0.00002307,-0.00011492,0.00015365,-0.00025264,0.00010788,-0.000
 05401,0.00021703,0.00011432,-0.00001420,0.00000575,0.00004796,0.038790
 34,-0.00005040,0.00000266,0.00003379,-0.00003764,-0.00018073,0.0000369
 1,0.00065692,0.00037839,-0.00056496,0.00001413,0.00026934,-0.00014467,
 0.00032172,0.00018289,0.00015180,0.00060538,-0.00171449,-0.00038698,-0
 .00156083,0.00102473,-0.00331989,0.00355126,-0.00111103,0.00459985,-0.
 02884442,-0.00988448,-0.00546148,-0.02112949,-0.05024512,0.04119427,0.
 00620969,0.00051873,-0.00011793,-0.00120660,-0.00093060,-0.00251384,0.
 00184193,0.00003289,0.00097014,-0.00129124,-0.00027132,-0.00142690,-0.
 00009803,0.00029654,0.00122101,-0.00013508,-0.00004214,-0.00016626,0.0
 0008381,0.00002773,-0.00005347,0.00008195,-0.00011827,0.00040855,0.000
 48130,0.00034036,0.00052792,-0.00312954,0.00030710,-0.00002592,-0.0003
 6620,-0.01308365,-0.01532108,-0.00082960,0.00319611,0.00353598,-0.0003
 7811,0.00064748,0.00096424,-0.00064040,-0.00155224,0.00013836,-0.00008
 482,0.00110388,0.00014190,-0.00027814,-0.00129580,0.00017462,0.0000036
 8,0.00001137,-0.00000288,-0.00000571,0.00001059,-0.00000517,0.00002191
 ,0.00001159,0.00000856,-0.00002663,0.00002045,-0.00000594,0.00003062,-
 0.00002712,0.00005358,-0.00033785,0.00017695,0.00003573,0.00036179,-0.
 00003073,0.00008514,0.00000777,0.00002904,-0.00004497,0.00000738,-0.00
 002025,0.00002207,0.00000308,0.00000190,0.00000564,0.00000689,0.000012
 45,0.00000823,0.00004848,0.00001296,0.00000534,-0.00000471,0.00012140,
 -0.00002743,0.00001238,-0.00001455,0.00002777,-0.00007877,0.00008621,-
 0.00003981,-0.00000522,-0.00001457,0.00002422,0.04616739,0.07171334,-0
 .00058168,0.00032678,0.00056141,0.00017811,-0.00184901,-0.00041065,0.0
 0169633,0.00236186,-0.00110472,0.00040800,0.00026330,-0.00043481,0.000
 55272,0.00119228,-0.00010242,0.00136907,-0.00354253,-0.00202731,0.0020
 7684,0.00960248,-0.00165309,-0.00409582,-0.00333254,-0.00388546,0.0114
 0952,0.00020872,0.00805671,0.01514732,0.04004978,-0.03605545,-0.003100
 16,0.00033506,0.00127102,0.00136943,0.00020256,0.00172659,-0.00144739,
 -0.00036119,-0.00135901,0.00114218,0.00045401,0.00177236,-0.00091687,-
 0.00041483,-0.00166710,0.00158849,0.00008894,0.00057716,-0.00067066,0.
 00012725,0.00038140,0.00028108,-0.00017983,-0.00022995,-0.00035044,0.0
 0002528,-0.00063122,0.00135884,0.00048167,-0.00012850,0.00003450,-0.03
 761796,-0.01934931,-0.01731718,0.01568438,-0.09241510,-0.00339710,0.00
 501910,0.00467648,-0.00176443,-0.00455338,0.00069018,0.00024027,0.0038
 6909,0.00029249,-0.00120826,-0.00389357,0.00049738,0.00002129,-0.00005
 664,-0.00002382,0.00005647,0.00006893,-0.00012052,0.00012632,0.0000526
 3,-0.00002877,-0.00003490,0.00000262,0.00004621,-0.00000791,-0.0001207
 2,0.00008526,0.00008247,0.00007289,-0.00024448,-0.00000792,0.00001782,
 -0.00002426,0.00003631,-0.00000115,-0.00001356,0.00003257,0.00001048,-
 0.00012817,0.00007006,-0.00000026,0.00001839,0.00002562,-0.00006266,-0
 .00009837,0.00000603,-0.00000706,0.00004987,0.00004537,0.00006237,0.00
 009286,0.00026631,-0.00007510,-0.00026996,-0.00012287,0.00027611,0.000
 01358,0.00001694,-0.00004188,0.00001923,-0.00461485,-0.02474605,0.1415
 7744\\-0.00001157,0.00000507,0.00000873,0.00000709,0.00000036,-0.00000
 672,-0.00000624,0.00000251,0.00000441,0.00001409,-0.00002111,-0.000015
 75,0.00001520,0.00002733,-0.00000689,-0.00002642,-0.00003628,0.0000106
 7,0.00000866,0.00006068,0.00000013,0.00003578,-0.00000063,0.00002459,-
 0.00004534,-0.00000376,-0.00000310,0.00000811,0.00001512,-0.00001983,0
 .00003750,-0.00000201,-0.00000244,-0.00000415,-0.00000279,-0.00000779,
 -0.00000799,0.00000332,0.00001901,0.00000288,0.00000062,0.00000038,0.0
 0000398,-0.00000215,-0.00000811,-0.00000136,0.00000294,0.00000884,0.00
 001059,-0.00000207,-0.00000777,-0.00002797,0.00000261,0.00000338,0.000
 01274,0.00000829,0.00002615,-0.00000756,-0.00001458,-0.00003880,0.0000
 0296,-0.00006313,-0.00001942,-0.00000025,0.00001176,0.00003402,-0.0000
 1465,0.00002748,0.00001867,-0.00000483,-0.00000963,0.00000196,0.000013
 44,0.00000770,-0.00001241,-0.00000248,-0.00000205,0.00000209,0.0000011
 6,0.00000065,-0.00000269,0.00000110,0.00000005,-0.00000161,0.00000046,
 -0.00000055,-0.00000256,-0.00000539,0.00000521,0.00000417,-0.00000271,
 -0.00000616,0.00000165,-0.00000840,0.00000091,0.00000153,0.,-0.0000008
 9,0.00000326,-0.00000150,-0.00000082,-0.00000107,-0.00000112,0.0000008
 1,0.00000029,-0.00000062,0.00000103,0.00000183,-0.00000114,-0.00000029
 ,0.00000106,0.00000847,-0.00000049,-0.00000222,-0.00000255,-0.00000051
 ,-0.00000516,0.00000514,-0.00000540,-0.00000206,0.00000151,0.00000231,
 -0.00000191,-0.00000047,-0.00000155,-0.00000091,-0.00000615,-0.0000099
 3,-0.00000761\\\@
 The archive entry for this job was punched.


 IBM COMPATIBILITY IS LIKE PREGNANCY. YOU ARE OR
 OR YOU ARE NOT. -- ADAM OSBORNE
 Job cpu time:       0 days  5 hours 26 minutes 44.4 seconds.
 Elapsed time:       0 days  0 hours 10 minutes 16.4 seconds.
 File lengths (MBytes):  RWF=   1954 Int=      0 D2E=      0 Chk=     22 Scr=      2
 Normal termination of Gaussian 16 at Fri Mar  8 02:51:10 2024.
