 Entering Gaussian System, Link 0=g16
 Initial command:
 /public/software/apps/Gaussian/g16/l1.exe "/public/home/LJQ_HG/tmp/Gau-122769.inp" -scrdir="/public/home/LJQ_HG/tmp/"
 Entering Link 1 = /public/software/apps/Gaussian/g16/l1.exe PID=    122770.
  
 Copyright (c) 1988-2019, Gaussian, Inc.  All Rights Reserved.
  
 This is part of the Gaussian(R) 16 program.  It is based on
 the Gaussian(R) 09 system (copyright 2009, Gaussian, Inc.),
 the Gaussian(R) 03 system (copyright 2003, Gaussian, Inc.),
 the Gaussian(R) 98 system (copyright 1998, Gaussian, Inc.),
 the Gaussian(R) 94 system (copyright 1995, Gaussian, Inc.),
 the Gaussian 92(TM) system (copyright 1992, Gaussian, Inc.),
 the Gaussian 90(TM) system (copyright 1990, Gaussian, Inc.),
 the Gaussian 88(TM) system (copyright 1988, Gaussian, Inc.),
 the Gaussian 86(TM) system (copyright 1986, Carnegie Mellon
 University), and the Gaussian 82(TM) system (copyright 1983,
 Carnegie Mellon University). Gaussian is a federally registered
 trademark of Gaussian, Inc.
  
 This software contains proprietary and confidential information,
 including trade secrets, belonging to Gaussian, Inc.
  
 This software is provided under written license and may be
 used, copied, transmitted, or stored only in accord with that
 written license.
  
 The following legend is applicable only to US Government
 contracts under FAR:
  
                    RESTRICTED RIGHTS LEGEND
  
 Use, reproduction and disclosure by the US Government is
 subject to restrictions as set forth in subparagraphs (a)
 and (c) of the Commercial Computer Software - Restricted
 Rights clause in FAR 52.227-19.
  
 Gaussian, Inc.
 340 Quinnipiac St., Bldg. 40, Wallingford CT 06492
  
  
 ---------------------------------------------------------------
 Warning -- This program may not be used in any manner that
 competes with the business of Gaussian, Inc. or will provide
 assistance to any competitor of Gaussian, Inc.  The licensee
 of this program is prohibited from giving any competitor of
 Gaussian, Inc. access to this program.  By using this program,
 the user acknowledges that Gaussian, Inc. is engaged in the
 business of creating and licensing software in the field of
 computational chemistry and represents and warrants to the
 licensee that it is not a competitor of Gaussian, Inc. and that
 it will not use this program in any manner prohibited above.
 ---------------------------------------------------------------
  

 Cite this work as:
 Gaussian 16, Revision C.01,
 M. J. Frisch, G. W. Trucks, H. B. Schlegel, G. E. Scuseria, 
 M. A. Robb, J. R. Cheeseman, G. Scalmani, V. Barone, 
 G. A. Petersson, H. Nakatsuji, X. Li, M. Caricato, A. V. Marenich, 
 J. Bloino, B. G. Janesko, R. Gomperts, B. Mennucci, H. P. Hratchian, 
 J. V. Ortiz, A. F. Izmaylov, J. L. Sonnenberg, D. Williams-Young, 
 F. Ding, F. Lipparini, F. Egidi, J. Goings, B. Peng, A. Petrone, 
 T. Henderson, D. Ranasinghe, V. G. Zakrzewski, J. Gao, N. Rega, 
 G. Zheng, W. Liang, M. Hada, M. Ehara, K. Toyota, R. Fukuda, 
 J. Hasegawa, M. Ishida, T. Nakajima, Y. Honda, O. Kitao, H. Nakai, 
 T. Vreven, K. Throssell, J. A. Montgomery, Jr., J. E. Peralta, 
 F. Ogliaro, M. J. Bearpark, J. J. Heyd, E. N. Brothers, K. N. Kudin, 
 V. N. Staroverov, T. A. Keith, R. Kobayashi, J. Normand, 
 K. Raghavachari, A. P. Rendell, J. C. Burant, S. S. Iyengar, 
 J. Tomasi, M. Cossi, J. M. Millam, M. Klene, C. Adamo, R. Cammi, 
 J. W. Ochterski, R. L. Martin, K. Morokuma, O. Farkas, 
 J. B. Foresman, and D. J. Fox, Gaussian, Inc., Wallingford CT, 2019.
 
 ******************************************
 Gaussian 16:  ES64L-G16RevC.01  3-Jul-2019
                 8-Mar-2024 
 ******************************************
 %nprocshared=32
 Will use up to   32 processors via shared memory.
 %mem=100GB
 ------------------------------------------
 #p opt freq b3lyp/def2svpp em=gd3bj nosymm
 ------------------------------------------
 1/18=20,19=15,26=3,38=1/1,3;
 2/9=110,12=2,15=1,17=6,18=5,40=1/2;
 3/5=43,7=202,11=2,25=1,30=1,71=1,74=-5,124=41/1,2,3;
 4//1;
 5/5=2,38=5/2;
 6/7=2,8=2,9=2,10=2,28=1/1;
 7/30=1/1,2,3,16;
 1/18=20,19=15,26=3/3(2);
 2/9=110,15=1/2;
 99//99;
 2/9=110,15=1/2;
 3/5=43,7=202,11=2,25=1,30=1,71=1,74=-5,124=41/1,2,3;
 4/5=5,16=3,69=1/1;
 5/5=2,38=5/2;
 7/30=1/1,2,3,16;
 1/18=20,19=15,26=3/3(-5);
 2/9=110,15=1/2;
 6/7=2,8=2,9=2,10=2,19=2,28=1/1;
 99/9=1/99;
 Leave Link    1 at Fri Mar  8 02:34:00 2024, MaxMem= 13421772800 cpu:               1.2 elap:               0.0
 (Enter /public/software/apps/Gaussian/g16/l101.exe)
 ------------------
 $$$$Title####0????
 ------------------
 Symbolic Z-matrix:
 Charge =  0 Multiplicity = 2
 C                    -3.8882    0.74697  -3.53176 
 O                    -3.61616   0.50473  -2.15561 
 C                    -4.06333   1.31481  -1.09794 
 C                    -4.86319   2.44775  -1.3193 
 C                    -5.31935   3.21925  -0.24896 
 C                    -4.99252   2.88226   1.08346 
 C                    -5.47853   3.70409   2.29577 
 C                    -4.25891   4.25121   3.06902 
 C                    -6.36152   4.91109   1.8967 
 C                    -6.31473   2.80103   3.22889 
 C                    -4.18283   1.74531   1.29243 
 C                    -3.71209   0.97217   0.21991 
 C                    -2.86238  -0.20927   0.49512 
 C                    -3.35293  -1.23548   1.31207 
 C                    -2.56831  -2.36036   1.59454 
 C                    -3.06988  -3.37502   2.42559 
 C                    -2.28857  -4.49262   2.72212 
 C                    -1.00135  -4.6063    2.1976 
 C                    -0.48818  -3.6066    1.36814 
 C                    -1.26568  -2.4736    1.04468 
 C                    -0.77558  -1.44422   0.20187 
 C                     0.572    -1.52028  -0.42258 
 C                     1.58221  -0.66306   0.04995 
 O                     1.28279   0.27104   1.03947 
 C                     2.88174  -0.72805  -0.48174 
 C                     3.95804   0.15058   0.03137 
 C                     4.60956   1.02651  -0.85066 
 C                     5.63867   1.88653  -0.41103 
 C                     6.31897   2.83706  -1.41855 
 C                     7.43025   3.70485  -0.77989 
 C                     5.26417   3.7928   -2.01746 
 C                     6.96465   2.01029  -2.55211 
 C                     5.99749   1.83615   0.95441 
 C                     5.36065   0.95915   1.83432 
 C                     4.34228   0.10366   1.3833 
 O                     3.70621  -0.80903   2.24194 
 C                     3.99015  -0.94756   3.62998 
 C                     3.16071  -1.62425  -1.52105 
 C                     2.16029  -2.4613   -2.03024 
 C                     2.45288  -3.3456   -3.08104 
 C                     1.45758  -4.17311  -3.60253 
 C                     0.16345  -4.12357  -3.08504 
 C                    -0.1436   -3.25074  -2.03877 
 C                     0.85057  -2.41362  -1.48771 
 C                    -1.56626  -0.30628  -0.03996 
 O                    -1.04876   0.74053  -0.80001 
 H                    -3.47296   1.73111  -3.83523 
 H                    -3.40568  -0.04477  -4.1406 
 H                    -4.98299   0.71927  -3.71537 
 H                    -5.14681   2.74052  -2.32096 
 H                    -5.93185   4.07549  -0.48809 
 H                    -3.6357    3.43137   3.48315 
 H                    -4.58481   4.88421   3.92282 
 H                    -3.62229   4.86891   2.39911 
 H                    -7.27482   4.5736    1.36056 
 H                    -6.6925    5.4725    2.7975 
 H                    -5.797     5.61959   1.25263 
 H                    -5.70843   1.97006   3.64601 
 H                    -7.17295   2.36286   2.67473 
 H                    -6.71397   3.38342   4.08758 
 H                    -3.90065   1.45738   2.29675 
 H                    -4.3519   -1.15496   1.72706 
 H                    -4.0649   -3.30189   2.84855 
 H                    -2.68031  -5.27062   3.36461 
 H                    -0.39696  -5.47195   2.4364 
 H                     0.5183   -3.72677   0.98967 
 H                     4.29685   1.03996  -1.88664 
 H                     8.23656   3.06736  -0.35675 
 H                     7.01508   4.35382   0.02136 
 H                     7.89576   4.37073  -1.53894 
 H                     4.75878   4.3651   -1.2096 
 H                     5.73892   4.51721  -2.71441 
 H                     4.48994   3.24062  -2.59001 
 H                     6.20479   1.44461  -3.13055 
 H                     7.5003    2.67191  -3.26708 
 H                     7.69519   1.28491  -2.13298 
 H                     6.77319   2.46477   1.36498 
 H                     5.67591   0.95074   2.86876 
 H                     3.78795   0.00812   4.15811 
 H                     3.33466  -1.73426   4.05637 
 H                     5.04879  -1.24965   3.77495 
 H                     4.16359  -1.66834  -1.93201 
 H                     3.45054  -3.39414  -3.50131 
 H                     1.68913  -4.85145  -4.41359 
 H                    -0.60645  -4.76278  -3.49775 
 H                    -1.16137  -3.23464  -1.6719 
 Cu                    0.36336   1.74295   0.12329 
 
 ITRead=  0  0  0  0  0  0  0  0  0  0  0  0  0  0  0  0  0  0  0  0
 ITRead=  0  0  0  0  0  0  0  0  0  0  0  0  0  0  0  0  0  0  0  0
 ITRead=  0  0  0  0  0  0  0  0  0  0  0  0  0  0  0  0  0  0  0  0
 ITRead=  0  0  0  0  0  0  0  0  0  0  0  0  0  0  0  0  0  0  0  0
 ITRead=  0  0  0  0  0  0  0
 MicOpt= -1 -1 -1 -1 -1 -1 -1 -1 -1 -1 -1 -1 -1 -1 -1 -1 -1 -1 -1 -1
 MicOpt= -1 -1 -1 -1 -1 -1 -1 -1 -1 -1 -1 -1 -1 -1 -1 -1 -1 -1 -1 -1
 MicOpt= -1 -1 -1 -1 -1 -1 -1 -1 -1 -1 -1 -1 -1 -1 -1 -1 -1 -1 -1 -1
 MicOpt= -1 -1 -1 -1 -1 -1 -1 -1 -1 -1 -1 -1 -1 -1 -1 -1 -1 -1 -1 -1
 MicOpt= -1 -1 -1 -1 -1 -1 -1
 NAtoms=     87 NQM=       87 NQMF=       0 NMMI=      0 NMMIF=      0
                NMic=       0 NMicF=      0.
                    Isotopes and Nuclear Properties:
 (Nuclear quadrupole moments (NQMom) in fm**2, nuclear magnetic moments (NMagM)
  in nuclear magnetons)

  Atom         1           2           3           4           5           6           7           8           9          10
 IAtWgt=          12          16          12          12          12          12          12          12          12          12
 AtmWgt=  12.0000000  15.9949146  12.0000000  12.0000000  12.0000000  12.0000000  12.0000000  12.0000000  12.0000000  12.0000000
 NucSpn=           0           0           0           0           0           0           0           0           0           0
 AtZEff=  -0.0000000  -0.0000000  -0.0000000  -0.0000000  -0.0000000  -0.0000000  -0.0000000  -0.0000000  -0.0000000  -0.0000000
 NQMom=    0.0000000   0.0000000   0.0000000   0.0000000   0.0000000   0.0000000   0.0000000   0.0000000   0.0000000   0.0000000
 NMagM=    0.0000000   0.0000000   0.0000000   0.0000000   0.0000000   0.0000000   0.0000000   0.0000000   0.0000000   0.0000000
 AtZNuc=   6.0000000   8.0000000   6.0000000   6.0000000   6.0000000   6.0000000   6.0000000   6.0000000   6.0000000   6.0000000

  Atom        11          12          13          14          15          16          17          18          19          20
 IAtWgt=          12          12          12          12          12          12          12          12          12          12
 AtmWgt=  12.0000000  12.0000000  12.0000000  12.0000000  12.0000000  12.0000000  12.0000000  12.0000000  12.0000000  12.0000000
 NucSpn=           0           0           0           0           0           0           0           0           0           0
 AtZEff=  -0.0000000  -0.0000000  -0.0000000  -0.0000000  -0.0000000  -0.0000000  -0.0000000  -0.0000000  -0.0000000  -0.0000000
 NQMom=    0.0000000   0.0000000   0.0000000   0.0000000   0.0000000   0.0000000   0.0000000   0.0000000   0.0000000   0.0000000
 NMagM=    0.0000000   0.0000000   0.0000000   0.0000000   0.0000000   0.0000000   0.0000000   0.0000000   0.0000000   0.0000000
 AtZNuc=   6.0000000   6.0000000   6.0000000   6.0000000   6.0000000   6.0000000   6.0000000   6.0000000   6.0000000   6.0000000

  Atom        21          22          23          24          25          26          27          28          29          30
 IAtWgt=          12          12          12          16          12          12          12          12          12          12
 AtmWgt=  12.0000000  12.0000000  12.0000000  15.9949146  12.0000000  12.0000000  12.0000000  12.0000000  12.0000000  12.0000000
 NucSpn=           0           0           0           0           0           0           0           0           0           0
 AtZEff=  -0.0000000  -0.0000000  -0.0000000  -0.0000000  -0.0000000  -0.0000000  -0.0000000  -0.0000000  -0.0000000  -0.0000000
 NQMom=    0.0000000   0.0000000   0.0000000   0.0000000   0.0000000   0.0000000   0.0000000   0.0000000   0.0000000   0.0000000
 NMagM=    0.0000000   0.0000000   0.0000000   0.0000000   0.0000000   0.0000000   0.0000000   0.0000000   0.0000000   0.0000000
 AtZNuc=   6.0000000   6.0000000   6.0000000   8.0000000   6.0000000   6.0000000   6.0000000   6.0000000   6.0000000   6.0000000

  Atom        31          32          33          34          35          36          37          38          39          40
 IAtWgt=          12          12          12          12          12          16          12          12          12          12
 AtmWgt=  12.0000000  12.0000000  12.0000000  12.0000000  12.0000000  15.9949146  12.0000000  12.0000000  12.0000000  12.0000000
 NucSpn=           0           0           0           0           0           0           0           0           0           0
 AtZEff=  -0.0000000  -0.0000000  -0.0000000  -0.0000000  -0.0000000  -0.0000000  -0.0000000  -0.0000000  -0.0000000  -0.0000000
 NQMom=    0.0000000   0.0000000   0.0000000   0.0000000   0.0000000   0.0000000   0.0000000   0.0000000   0.0000000   0.0000000
 NMagM=    0.0000000   0.0000000   0.0000000   0.0000000   0.0000000   0.0000000   0.0000000   0.0000000   0.0000000   0.0000000
 AtZNuc=   6.0000000   6.0000000   6.0000000   6.0000000   6.0000000   8.0000000   6.0000000   6.0000000   6.0000000   6.0000000

  Atom        41          42          43          44          45          46          47          48          49          50
 IAtWgt=          12          12          12          12          12          16           1           1           1           1
 AtmWgt=  12.0000000  12.0000000  12.0000000  12.0000000  12.0000000  15.9949146   1.0078250   1.0078250   1.0078250   1.0078250
 NucSpn=           0           0           0           0           0           0           1           1           1           1
 AtZEff=  -0.0000000  -0.0000000  -0.0000000  -0.0000000  -0.0000000  -0.0000000  -0.0000000  -0.0000000  -0.0000000  -0.0000000
 NQMom=    0.0000000   0.0000000   0.0000000   0.0000000   0.0000000   0.0000000   0.0000000   0.0000000   0.0000000   0.0000000
 NMagM=    0.0000000   0.0000000   0.0000000   0.0000000   0.0000000   0.0000000   2.7928460   2.7928460   2.7928460   2.7928460
 AtZNuc=   6.0000000   6.0000000   6.0000000   6.0000000   6.0000000   8.0000000   1.0000000   1.0000000   1.0000000   1.0000000

  Atom        51          52          53          54          55          56          57          58          59          60
 IAtWgt=           1           1           1           1           1           1           1           1           1           1
 AtmWgt=   1.0078250   1.0078250   1.0078250   1.0078250   1.0078250   1.0078250   1.0078250   1.0078250   1.0078250   1.0078250
 NucSpn=           1           1           1           1           1           1           1           1           1           1
 AtZEff=  -0.0000000  -0.0000000  -0.0000000  -0.0000000  -0.0000000  -0.0000000  -0.0000000  -0.0000000  -0.0000000  -0.0000000
 NQMom=    0.0000000   0.0000000   0.0000000   0.0000000   0.0000000   0.0000000   0.0000000   0.0000000   0.0000000   0.0000000
 NMagM=    2.7928460   2.7928460   2.7928460   2.7928460   2.7928460   2.7928460   2.7928460   2.7928460   2.7928460   2.7928460
 AtZNuc=   1.0000000   1.0000000   1.0000000   1.0000000   1.0000000   1.0000000   1.0000000   1.0000000   1.0000000   1.0000000

  Atom        61          62          63          64          65          66          67          68          69          70
 IAtWgt=           1           1           1           1           1           1           1           1           1           1
 AtmWgt=   1.0078250   1.0078250   1.0078250   1.0078250   1.0078250   1.0078250   1.0078250   1.0078250   1.0078250   1.0078250
 NucSpn=           1           1           1           1           1           1           1           1           1           1
 AtZEff=  -0.0000000  -0.0000000  -0.0000000  -0.0000000  -0.0000000  -0.0000000  -0.0000000  -0.0000000  -0.0000000  -0.0000000
 NQMom=    0.0000000   0.0000000   0.0000000   0.0000000   0.0000000   0.0000000   0.0000000   0.0000000   0.0000000   0.0000000
 NMagM=    2.7928460   2.7928460   2.7928460   2.7928460   2.7928460   2.7928460   2.7928460   2.7928460   2.7928460   2.7928460
 AtZNuc=   1.0000000   1.0000000   1.0000000   1.0000000   1.0000000   1.0000000   1.0000000   1.0000000   1.0000000   1.0000000

  Atom        71          72          73          74          75          76          77          78          79          80
 IAtWgt=           1           1           1           1           1           1           1           1           1           1
 AtmWgt=   1.0078250   1.0078250   1.0078250   1.0078250   1.0078250   1.0078250   1.0078250   1.0078250   1.0078250   1.0078250
 NucSpn=           1           1           1           1           1           1           1           1           1           1
 AtZEff=  -0.0000000  -0.0000000  -0.0000000  -0.0000000  -0.0000000  -0.0000000  -0.0000000  -0.0000000  -0.0000000  -0.0000000
 NQMom=    0.0000000   0.0000000   0.0000000   0.0000000   0.0000000   0.0000000   0.0000000   0.0000000   0.0000000   0.0000000
 NMagM=    2.7928460   2.7928460   2.7928460   2.7928460   2.7928460   2.7928460   2.7928460   2.7928460   2.7928460   2.7928460
 AtZNuc=   1.0000000   1.0000000   1.0000000   1.0000000   1.0000000   1.0000000   1.0000000   1.0000000   1.0000000   1.0000000

  Atom        81          82          83          84          85          86          87
 IAtWgt=           1           1           1           1           1           1          63
 AtmWgt=   1.0078250   1.0078250   1.0078250   1.0078250   1.0078250   1.0078250  62.9295992
 NucSpn=           1           1           1           1           1           1           3
 AtZEff=  -0.0000000  -0.0000000  -0.0000000  -0.0000000  -0.0000000  -0.0000000  -0.0000000
 NQMom=    0.0000000   0.0000000   0.0000000   0.0000000   0.0000000   0.0000000 -22.0000000
 NMagM=    2.7928460   2.7928460   2.7928460   2.7928460   2.7928460   2.7928460   2.2233000
 AtZNuc=   1.0000000   1.0000000   1.0000000   1.0000000   1.0000000   1.0000000  29.0000000
 Leave Link  101 at Fri Mar  8 02:34:00 2024, MaxMem= 13421772800 cpu:               4.4 elap:               0.1
 (Enter /public/software/apps/Gaussian/g16/l103.exe)

 GradGradGradGradGradGradGradGradGradGradGradGradGradGradGradGradGradGrad
 Berny optimization.
 Initialization pass.
                           ----------------------------
                           !    Initial Parameters    !
                           ! (Angstroms and Degrees)  !
 --------------------------                            --------------------------
 ! Name  Definition              Value          Derivative Info.                !
 --------------------------------------------------------------------------------
 ! R1    R(1,2)                  1.4235         estimate D2E/DX2                !
 ! R2    R(1,47)                 1.1104         estimate D2E/DX2                !
 ! R3    R(1,48)                 1.1092         estimate D2E/DX2                !
 ! R4    R(1,49)                 1.1104         estimate D2E/DX2                !
 ! R5    R(2,3)                  1.4053         estimate D2E/DX2                !
 ! R6    R(3,4)                  1.4044         estimate D2E/DX2                !
 ! R7    R(3,12)                 1.4062         estimate D2E/DX2                !
 ! R8    R(4,5)                  1.396          estimate D2E/DX2                !
 ! R9    R(4,50)                 1.0814         estimate D2E/DX2                !
 ! R10   R(5,6)                  1.4127         estimate D2E/DX2                !
 ! R11   R(5,51)                 1.0796         estimate D2E/DX2                !
 ! R12   R(6,7)                  1.5431         estimate D2E/DX2                !
 ! R13   R(6,11)                 1.4114         estimate D2E/DX2                !
 ! R14   R(7,8)                  1.5443         estimate D2E/DX2                !
 ! R15   R(7,9)                  1.5478         estimate D2E/DX2                !
 ! R16   R(7,10)                 1.5445         estimate D2E/DX2                !
 ! R17   R(8,52)                 1.11           estimate D2E/DX2                !
 ! R18   R(8,53)                 1.1117         estimate D2E/DX2                !
 ! R19   R(8,54)                 1.1116         estimate D2E/DX2                !
 ! R20   R(9,55)                 1.1115         estimate D2E/DX2                !
 ! R21   R(9,56)                 1.1118         estimate D2E/DX2                !
 ! R22   R(9,57)                 1.1115         estimate D2E/DX2                !
 ! R23   R(10,58)                1.11           estimate D2E/DX2                !
 ! R24   R(10,59)                1.1116         estimate D2E/DX2                !
 ! R25   R(10,60)                1.1117         estimate D2E/DX2                !
 ! R26   R(11,12)                1.4034         estimate D2E/DX2                !
 ! R27   R(11,61)                1.0822         estimate D2E/DX2                !
 ! R28   R(12,13)                1.4811         estimate D2E/DX2                !
 ! R29   R(13,14)                1.4004         estimate D2E/DX2                !
 ! R30   R(13,45)                1.4056         estimate D2E/DX2                !
 ! R31   R(14,15)                1.4003         estimate D2E/DX2                !
 ! R32   R(14,62)                1.0847         estimate D2E/DX2                !
 ! R33   R(15,16)                1.4042         estimate D2E/DX2                !
 ! R34   R(15,20)                1.4184         estimate D2E/DX2                !
 ! R35   R(16,17)                1.3955         estimate D2E/DX2                !
 ! R36   R(16,63)                1.0837         estimate D2E/DX2                !
 ! R37   R(17,18)                1.3946         estimate D2E/DX2                !
 ! R38   R(17,64)                1.0824         estimate D2E/DX2                !
 ! R39   R(18,19)                1.3967         estimate D2E/DX2                !
 ! R40   R(18,65)                1.0824         estimate D2E/DX2                !
 ! R41   R(19,20)                1.4117         estimate D2E/DX2                !
 ! R42   R(19,66)                1.082          estimate D2E/DX2                !
 ! R43   R(20,21)                1.4178         estimate D2E/DX2                !
 ! R44   R(21,22)                1.4872         estimate D2E/DX2                !
 ! R45   R(21,45)                1.4066         estimate D2E/DX2                !
 ! R46   R(22,23)                1.4066         estimate D2E/DX2                !
 ! R47   R(22,44)                1.4178         estimate D2E/DX2                !
 ! R48   R(23,24)                1.3933         estimate D2E/DX2                !
 ! R49   R(23,25)                1.4056         estimate D2E/DX2                !
 ! R50   R(24,87)                1.9625         estimate D2E/DX2                !
 ! R51   R(25,26)                1.4811         estimate D2E/DX2                !
 ! R52   R(25,38)                1.4004         estimate D2E/DX2                !
 ! R53   R(26,27)                1.4035         estimate D2E/DX2                !
 ! R54   R(26,35)                1.4063         estimate D2E/DX2                !
 ! R55   R(27,28)                1.4114         estimate D2E/DX2                !
 ! R56   R(27,67)                1.0822         estimate D2E/DX2                !
 ! R57   R(28,29)                1.5432         estimate D2E/DX2                !
 ! R58   R(28,33)                1.4127         estimate D2E/DX2                !
 ! R59   R(29,30)                1.5479         estimate D2E/DX2                !
 ! R60   R(29,31)                1.5443         estimate D2E/DX2                !
 ! R61   R(29,32)                1.5445         estimate D2E/DX2                !
 ! R62   R(30,68)                1.1116         estimate D2E/DX2                !
 ! R63   R(30,69)                1.1115         estimate D2E/DX2                !
 ! R64   R(30,70)                1.1119         estimate D2E/DX2                !
 ! R65   R(31,71)                1.1116         estimate D2E/DX2                !
 ! R66   R(31,72)                1.1117         estimate D2E/DX2                !
 ! R67   R(31,73)                1.11           estimate D2E/DX2                !
 ! R68   R(32,74)                1.1099         estimate D2E/DX2                !
 ! R69   R(32,75)                1.1117         estimate D2E/DX2                !
 ! R70   R(32,76)                1.1115         estimate D2E/DX2                !
 ! R71   R(33,34)                1.396          estimate D2E/DX2                !
 ! R72   R(33,77)                1.0796         estimate D2E/DX2                !
 ! R73   R(34,35)                1.4044         estimate D2E/DX2                !
 ! R74   R(34,78)                1.0815         estimate D2E/DX2                !
 ! R75   R(35,36)                1.4053         estimate D2E/DX2                !
 ! R76   R(36,37)                1.4235         estimate D2E/DX2                !
 ! R77   R(37,79)                1.1105         estimate D2E/DX2                !
 ! R78   R(37,80)                1.1092         estimate D2E/DX2                !
 ! R79   R(37,81)                1.1104         estimate D2E/DX2                !
 ! R80   R(38,39)                1.4003         estimate D2E/DX2                !
 ! R81   R(38,82)                1.0847         estimate D2E/DX2                !
 ! R82   R(39,40)                1.4042         estimate D2E/DX2                !
 ! R83   R(39,44)                1.4184         estimate D2E/DX2                !
 ! R84   R(40,41)                1.3955         estimate D2E/DX2                !
 ! R85   R(40,83)                1.0837         estimate D2E/DX2                !
 ! R86   R(41,42)                1.3947         estimate D2E/DX2                !
 ! R87   R(41,84)                1.0824         estimate D2E/DX2                !
 ! R88   R(42,43)                1.3967         estimate D2E/DX2                !
 ! R89   R(42,85)                1.0824         estimate D2E/DX2                !
 ! R90   R(43,44)                1.4117         estimate D2E/DX2                !
 ! R91   R(43,86)                1.082          estimate D2E/DX2                !
 ! R92   R(45,46)                1.3933         estimate D2E/DX2                !
 ! R93   R(46,87)                1.9625         estimate D2E/DX2                !
 ! A1    A(2,1,47)             110.093          estimate D2E/DX2                !
 ! A2    A(2,1,48)             109.0277         estimate D2E/DX2                !
 ! A3    A(2,1,49)             110.1217         estimate D2E/DX2                !
 ! A4    A(47,1,48)            108.6578         estimate D2E/DX2                !
 ! A5    A(47,1,49)            110.2187         estimate D2E/DX2                !
 ! A6    A(48,1,49)            108.6823         estimate D2E/DX2                !
 ! A7    A(1,2,3)              124.6576         estimate D2E/DX2                !
 ! A8    A(2,3,4)              121.8451         estimate D2E/DX2                !
 ! A9    A(2,3,12)             119.0379         estimate D2E/DX2                !
 ! A10   A(4,3,12)             119.1131         estimate D2E/DX2                !
 ! A11   A(3,4,5)              120.7346         estimate D2E/DX2                !
 ! A12   A(3,4,50)             120.915          estimate D2E/DX2                !
 ! A13   A(5,4,50)             118.349          estimate D2E/DX2                !
 ! A14   A(4,5,6)              121.0447         estimate D2E/DX2                !
 ! A15   A(4,5,51)             116.9917         estimate D2E/DX2                !
 ! A16   A(6,5,51)             121.9631         estimate D2E/DX2                !
 ! A17   A(5,6,7)              122.7555         estimate D2E/DX2                !
 ! A18   A(5,6,11)             117.6806         estimate D2E/DX2                !
 ! A19   A(7,6,11)             119.5636         estimate D2E/DX2                !
 ! A20   A(6,7,8)              109.4704         estimate D2E/DX2                !
 ! A21   A(6,7,9)              113.1051         estimate D2E/DX2                !
 ! A22   A(6,7,10)             109.4968         estimate D2E/DX2                !
 ! A23   A(8,7,9)              107.6601         estimate D2E/DX2                !
 ! A24   A(8,7,10)             109.4039         estimate D2E/DX2                !
 ! A25   A(9,7,10)             107.6293         estimate D2E/DX2                !
 ! A26   A(7,8,52)             111.627          estimate D2E/DX2                !
 ! A27   A(7,8,53)             110.7791         estimate D2E/DX2                !
 ! A28   A(7,8,54)             110.3299         estimate D2E/DX2                !
 ! A29   A(52,8,53)            107.3743         estimate D2E/DX2                !
 ! A30   A(52,8,54)            108.2849         estimate D2E/DX2                !
 ! A31   A(53,8,54)            108.3215         estimate D2E/DX2                !
 ! A32   A(7,9,55)             110.8752         estimate D2E/DX2                !
 ! A33   A(7,9,56)             110.7742         estimate D2E/DX2                !
 ! A34   A(7,9,57)             110.8987         estimate D2E/DX2                !
 ! A35   A(55,9,56)            107.4285         estimate D2E/DX2                !
 ! A36   A(55,9,57)            109.3508         estimate D2E/DX2                !
 ! A37   A(56,9,57)            107.3857         estimate D2E/DX2                !
 ! A38   A(7,10,58)            111.6555         estimate D2E/DX2                !
 ! A39   A(7,10,59)            110.3212         estimate D2E/DX2                !
 ! A40   A(7,10,60)            110.7798         estimate D2E/DX2                !
 ! A41   A(58,10,59)           108.2983         estimate D2E/DX2                !
 ! A42   A(58,10,60)           107.3424         estimate D2E/DX2                !
 ! A43   A(59,10,60)           108.3185         estimate D2E/DX2                !
 ! A44   A(6,11,12)            121.5376         estimate D2E/DX2                !
 ! A45   A(6,11,61)            120.0875         estimate D2E/DX2                !
 ! A46   A(12,11,61)           118.371          estimate D2E/DX2                !
 ! A47   A(3,12,11)            119.8788         estimate D2E/DX2                !
 ! A48   A(3,12,13)            120.7843         estimate D2E/DX2                !
 ! A49   A(11,12,13)           119.3321         estimate D2E/DX2                !
 ! A50   A(12,13,14)           119.4709         estimate D2E/DX2                !
 ! A51   A(12,13,45)           120.8873         estimate D2E/DX2                !
 ! A52   A(14,13,45)           119.6377         estimate D2E/DX2                !
 ! A53   A(13,14,15)           120.6686         estimate D2E/DX2                !
 ! A54   A(13,14,62)           119.4311         estimate D2E/DX2                !
 ! A55   A(15,14,62)           119.9002         estimate D2E/DX2                !
 ! A56   A(14,15,16)           119.9812         estimate D2E/DX2                !
 ! A57   A(14,15,20)           120.0336         estimate D2E/DX2                !
 ! A58   A(16,15,20)           119.9849         estimate D2E/DX2                !
 ! A59   A(15,16,17)           120.2959         estimate D2E/DX2                !
 ! A60   A(15,16,63)           120.6779         estimate D2E/DX2                !
 ! A61   A(17,16,63)           119.0258         estimate D2E/DX2                !
 ! A62   A(16,17,18)           120.141          estimate D2E/DX2                !
 ! A63   A(16,17,64)           119.9433         estimate D2E/DX2                !
 ! A64   A(18,17,64)           119.915          estimate D2E/DX2                !
 ! A65   A(17,18,19)           120.2737         estimate D2E/DX2                !
 ! A66   A(17,18,65)           119.8396         estimate D2E/DX2                !
 ! A67   A(19,18,65)           119.8865         estimate D2E/DX2                !
 ! A68   A(18,19,20)           120.543          estimate D2E/DX2                !
 ! A69   A(18,19,66)           118.035          estimate D2E/DX2                !
 ! A70   A(20,19,66)           121.4212         estimate D2E/DX2                !
 ! A71   A(15,20,19)           118.7531         estimate D2E/DX2                !
 ! A72   A(15,20,21)           119.3364         estimate D2E/DX2                !
 ! A73   A(19,20,21)           121.9064         estimate D2E/DX2                !
 ! A74   A(20,21,22)           121.7159         estimate D2E/DX2                !
 ! A75   A(20,21,45)           119.6858         estimate D2E/DX2                !
 ! A76   A(22,21,45)           118.59           estimate D2E/DX2                !
 ! A77   A(21,22,23)           118.5902         estimate D2E/DX2                !
 ! A78   A(21,22,44)           121.7158         estimate D2E/DX2                !
 ! A79   A(23,22,44)           119.6856         estimate D2E/DX2                !
 ! A80   A(22,23,24)           119.5244         estimate D2E/DX2                !
 ! A81   A(22,23,25)           120.5797         estimate D2E/DX2                !
 ! A82   A(24,23,25)           119.8886         estimate D2E/DX2                !
 ! A83   A(23,24,87)           105.781          estimate D2E/DX2                !
 ! A84   A(23,25,26)           120.8893         estimate D2E/DX2                !
 ! A85   A(23,25,38)           119.6361         estimate D2E/DX2                !
 ! A86   A(26,25,38)           119.4705         estimate D2E/DX2                !
 ! A87   A(25,26,27)           119.3319         estimate D2E/DX2                !
 ! A88   A(25,26,35)           120.785          estimate D2E/DX2                !
 ! A89   A(27,26,35)           119.8784         estimate D2E/DX2                !
 ! A90   A(26,27,28)           121.5366         estimate D2E/DX2                !
 ! A91   A(26,27,67)           118.3737         estimate D2E/DX2                !
 ! A92   A(28,27,67)           120.0857         estimate D2E/DX2                !
 ! A93   A(27,28,29)           119.565          estimate D2E/DX2                !
 ! A94   A(27,28,33)           117.6804         estimate D2E/DX2                !
 ! A95   A(29,28,33)           122.7542         estimate D2E/DX2                !
 ! A96   A(28,29,30)           113.1065         estimate D2E/DX2                !
 ! A97   A(28,29,31)           109.4696         estimate D2E/DX2                !
 ! A98   A(28,29,32)           109.4964         estimate D2E/DX2                !
 ! A99   A(30,29,31)           107.6641         estimate D2E/DX2                !
 ! A100  A(30,29,32)           107.626          estimate D2E/DX2                !
 ! A101  A(31,29,32)           109.4029         estimate D2E/DX2                !
 ! A102  A(29,30,68)           110.8745         estimate D2E/DX2                !
 ! A103  A(29,30,69)           110.8914         estimate D2E/DX2                !
 ! A104  A(29,30,70)           110.7725         estimate D2E/DX2                !
 ! A105  A(68,30,69)           109.3521         estimate D2E/DX2                !
 ! A106  A(68,30,70)           107.4361         estimate D2E/DX2                !
 ! A107  A(69,30,70)           107.3869         estimate D2E/DX2                !
 ! A108  A(29,31,71)           110.3246         estimate D2E/DX2                !
 ! A109  A(29,31,72)           110.7767         estimate D2E/DX2                !
 ! A110  A(29,31,73)           111.6288         estimate D2E/DX2                !
 ! A111  A(71,31,72)           108.3182         estimate D2E/DX2                !
 ! A112  A(71,31,73)           108.2922         estimate D2E/DX2                !
 ! A113  A(72,31,73)           107.3764         estimate D2E/DX2                !
 ! A114  A(29,32,74)           111.6606         estimate D2E/DX2                !
 ! A115  A(29,32,75)           110.7854         estimate D2E/DX2                !
 ! A116  A(29,32,76)           110.3252         estimate D2E/DX2                !
 ! A117  A(74,32,75)           107.3377         estimate D2E/DX2                !
 ! A118  A(74,32,76)           108.292          estimate D2E/DX2                !
 ! A119  A(75,32,76)           108.3141         estimate D2E/DX2                !
 ! A120  A(28,33,34)           121.047          estimate D2E/DX2                !
 ! A121  A(28,33,77)           121.9607         estimate D2E/DX2                !
 ! A122  A(34,33,77)           116.9918         estimate D2E/DX2                !
 ! A123  A(33,34,35)           120.7332         estimate D2E/DX2                !
 ! A124  A(33,34,78)           118.3466         estimate D2E/DX2                !
 ! A125  A(35,34,78)           120.9189         estimate D2E/DX2                !
 ! A126  A(26,35,34)           119.1138         estimate D2E/DX2                !
 ! A127  A(26,35,36)           119.0379         estimate D2E/DX2                !
 ! A128  A(34,35,36)           121.8445         estimate D2E/DX2                !
 ! A129  A(35,36,37)           124.6584         estimate D2E/DX2                !
 ! A130  A(36,37,79)           110.1003         estimate D2E/DX2                !
 ! A131  A(36,37,80)           109.0239         estimate D2E/DX2                !
 ! A132  A(36,37,81)           110.1167         estimate D2E/DX2                !
 ! A133  A(79,37,80)           108.6603         estimate D2E/DX2                !
 ! A134  A(79,37,81)           110.2206         estimate D2E/DX2                !
 ! A135  A(80,37,81)           108.6793         estimate D2E/DX2                !
 ! A136  A(25,38,39)           120.6703         estimate D2E/DX2                !
 ! A137  A(25,38,82)           119.4304         estimate D2E/DX2                !
 ! A138  A(39,38,82)           119.8992         estimate D2E/DX2                !
 ! A139  A(38,39,40)           119.9803         estimate D2E/DX2                !
 ! A140  A(38,39,44)           120.0334         estimate D2E/DX2                !
 ! A141  A(40,39,44)           119.986          estimate D2E/DX2                !
 ! A142  A(39,40,41)           120.2967         estimate D2E/DX2                !
 ! A143  A(39,40,83)           120.6814         estimate D2E/DX2                !
 ! A144  A(41,40,83)           119.0215         estimate D2E/DX2                !
 ! A145  A(40,41,42)           120.1392         estimate D2E/DX2                !
 ! A146  A(40,41,84)           119.9394         estimate D2E/DX2                !
 ! A147  A(42,41,84)           119.9207         estimate D2E/DX2                !
 ! A148  A(41,42,43)           120.2748         estimate D2E/DX2                !
 ! A149  A(41,42,85)           119.8384         estimate D2E/DX2                !
 ! A150  A(43,42,85)           119.8867         estimate D2E/DX2                !
 ! A151  A(42,43,44)           120.5424         estimate D2E/DX2                !
 ! A152  A(42,43,86)           118.0397         estimate D2E/DX2                !
 ! A153  A(44,43,86)           121.4172         estimate D2E/DX2                !
 ! A154  A(22,44,39)           119.3368         estimate D2E/DX2                !
 ! A155  A(22,44,43)           121.9063         estimate D2E/DX2                !
 ! A156  A(39,44,43)           118.7527         estimate D2E/DX2                !
 ! A157  A(13,45,21)           120.5792         estimate D2E/DX2                !
 ! A158  A(13,45,46)           119.8884         estimate D2E/DX2                !
 ! A159  A(21,45,46)           119.5251         estimate D2E/DX2                !
 ! A160  A(45,46,87)           113.2267         estimate D2E/DX2                !
 ! A161  A(24,87,46)            100.0           estimate D2E/DX2                !
 ! D1    D(47,1,2,3)            60.4003         estimate D2E/DX2                !
 ! D2    D(48,1,2,3)           179.5107         estimate D2E/DX2                !
 ! D3    D(49,1,2,3)           -61.3319         estimate D2E/DX2                !
 ! D4    D(1,2,3,4)              1.419          estimate D2E/DX2                !
 ! D5    D(1,2,3,12)          -179.3079         estimate D2E/DX2                !
 ! D6    D(2,3,4,5)            178.5577         estimate D2E/DX2                !
 ! D7    D(2,3,4,50)            -1.0131         estimate D2E/DX2                !
 ! D8    D(12,3,4,5)            -0.7149         estimate D2E/DX2                !
 ! D9    D(12,3,4,50)          179.7143         estimate D2E/DX2                !
 ! D10   D(2,3,12,11)         -178.0613         estimate D2E/DX2                !
 ! D11   D(2,3,12,13)            1.1407         estimate D2E/DX2                !
 ! D12   D(4,3,12,11)            1.232          estimate D2E/DX2                !
 ! D13   D(4,3,12,13)         -179.5661         estimate D2E/DX2                !
 ! D14   D(3,4,5,6)             -0.1119         estimate D2E/DX2                !
 ! D15   D(3,4,5,51)          -179.8641         estimate D2E/DX2                !
 ! D16   D(50,4,5,6)           179.4697         estimate D2E/DX2                !
 ! D17   D(50,4,5,51)           -0.2825         estimate D2E/DX2                !
 ! D18   D(4,5,6,7)           -179.8116         estimate D2E/DX2                !
 ! D19   D(4,5,6,11)             0.4076         estimate D2E/DX2                !
 ! D20   D(51,5,6,7)            -0.0719         estimate D2E/DX2                !
 ! D21   D(51,5,6,11)         -179.8527         estimate D2E/DX2                !
 ! D22   D(5,6,7,8)           -119.4745         estimate D2E/DX2                !
 ! D23   D(5,6,7,9)              0.5695         estimate D2E/DX2                !
 ! D24   D(5,6,7,10)           120.5928         estimate D2E/DX2                !
 ! D25   D(11,6,7,8)            60.3022         estimate D2E/DX2                !
 ! D26   D(11,6,7,9)          -179.6537         estimate D2E/DX2                !
 ! D27   D(11,6,7,10)          -59.6304         estimate D2E/DX2                !
 ! D28   D(5,6,11,12)            0.1241         estimate D2E/DX2                !
 ! D29   D(5,6,11,61)          179.3948         estimate D2E/DX2                !
 ! D30   D(7,6,11,12)         -179.6639         estimate D2E/DX2                !
 ! D31   D(7,6,11,61)           -0.3932         estimate D2E/DX2                !
 ! D32   D(6,7,8,52)           -62.8502         estimate D2E/DX2                !
 ! D33   D(6,7,8,53)           177.545          estimate D2E/DX2                !
 ! D34   D(6,7,8,54)            57.6019         estimate D2E/DX2                !
 ! D35   D(9,7,8,52)           173.8264         estimate D2E/DX2                !
 ! D36   D(9,7,8,53)            54.2216         estimate D2E/DX2                !
 ! D37   D(9,7,8,54)           -65.7215         estimate D2E/DX2                !
 ! D38   D(10,7,8,52)           57.1394         estimate D2E/DX2                !
 ! D39   D(10,7,8,53)          -62.4654         estimate D2E/DX2                !
 ! D40   D(10,7,8,54)          177.5915         estimate D2E/DX2                !
 ! D41   D(6,7,9,55)            60.615          estimate D2E/DX2                !
 ! D42   D(6,7,9,56)           179.7926         estimate D2E/DX2                !
 ! D43   D(6,7,9,57)           -61.0682         estimate D2E/DX2                !
 ! D44   D(8,7,9,55)          -178.3112         estimate D2E/DX2                !
 ! D45   D(8,7,9,56)           -59.1336         estimate D2E/DX2                !
 ! D46   D(8,7,9,57)            60.0057         estimate D2E/DX2                !
 ! D47   D(10,7,9,55)          -60.4708         estimate D2E/DX2                !
 ! D48   D(10,7,9,56)           58.7068         estimate D2E/DX2                !
 ! D49   D(10,7,9,57)          177.846          estimate D2E/DX2                !
 ! D50   D(6,7,10,58)           62.9327         estimate D2E/DX2                !
 ! D51   D(6,7,10,59)          -57.5493         estimate D2E/DX2                !
 ! D52   D(6,7,10,60)         -177.4835         estimate D2E/DX2                !
 ! D53   D(8,7,10,58)          -57.0407         estimate D2E/DX2                !
 ! D54   D(8,7,10,59)         -177.5227         estimate D2E/DX2                !
 ! D55   D(8,7,10,60)           62.5431         estimate D2E/DX2                !
 ! D56   D(9,7,10,58)         -173.7472         estimate D2E/DX2                !
 ! D57   D(9,7,10,59)           65.7708         estimate D2E/DX2                !
 ! D58   D(9,7,10,60)          -54.1634         estimate D2E/DX2                !
 ! D59   D(6,11,12,3)           -0.9502         estimate D2E/DX2                !
 ! D60   D(6,11,12,13)         179.8362         estimate D2E/DX2                !
 ! D61   D(61,11,12,3)         179.7669         estimate D2E/DX2                !
 ! D62   D(61,11,12,13)          0.5533         estimate D2E/DX2                !
 ! D63   D(3,12,13,14)        -121.066          estimate D2E/DX2                !
 ! D64   D(3,12,13,45)          59.6656         estimate D2E/DX2                !
 ! D65   D(11,12,13,14)         58.1403         estimate D2E/DX2                !
 ! D66   D(11,12,13,45)       -121.1282         estimate D2E/DX2                !
 ! D67   D(12,13,14,15)       -179.6578         estimate D2E/DX2                !
 ! D68   D(12,13,14,62)          0.4338         estimate D2E/DX2                !
 ! D69   D(45,13,14,15)         -0.38           estimate D2E/DX2                !
 ! D70   D(45,13,14,62)        179.7115         estimate D2E/DX2                !
 ! D71   D(12,13,45,21)       -178.6236         estimate D2E/DX2                !
 ! D72   D(12,13,45,46)          2.3659         estimate D2E/DX2                !
 ! D73   D(14,13,45,21)          2.1091         estimate D2E/DX2                !
 ! D74   D(14,13,45,46)       -176.9014         estimate D2E/DX2                !
 ! D75   D(13,14,15,16)        179.4081         estimate D2E/DX2                !
 ! D76   D(13,14,15,20)         -0.4137         estimate D2E/DX2                !
 ! D77   D(62,14,15,16)         -0.6839         estimate D2E/DX2                !
 ! D78   D(62,14,15,20)        179.4943         estimate D2E/DX2                !
 ! D79   D(14,15,16,17)       -179.3641         estimate D2E/DX2                !
 ! D80   D(14,15,16,63)          0.4173         estimate D2E/DX2                !
 ! D81   D(20,15,16,17)          0.4578         estimate D2E/DX2                !
 ! D82   D(20,15,16,63)       -179.7608         estimate D2E/DX2                !
 ! D83   D(14,15,20,19)        178.78           estimate D2E/DX2                !
 ! D84   D(14,15,20,21)         -0.4958         estimate D2E/DX2                !
 ! D85   D(16,15,20,19)         -1.0417         estimate D2E/DX2                !
 ! D86   D(16,15,20,21)        179.6824         estimate D2E/DX2                !
 ! D87   D(15,16,17,18)          0.2152         estimate D2E/DX2                !
 ! D88   D(15,16,17,64)        179.9042         estimate D2E/DX2                !
 ! D89   D(63,16,17,18)       -179.5698         estimate D2E/DX2                !
 ! D90   D(63,16,17,64)          0.1192         estimate D2E/DX2                !
 ! D91   D(16,17,18,19)         -0.2873         estimate D2E/DX2                !
 ! D92   D(16,17,18,65)        179.5717         estimate D2E/DX2                !
 ! D93   D(64,17,18,19)       -179.9764         estimate D2E/DX2                !
 ! D94   D(64,17,18,65)         -0.1174         estimate D2E/DX2                !
 ! D95   D(17,18,19,20)         -0.3189         estimate D2E/DX2                !
 ! D96   D(17,18,19,66)        179.3725         estimate D2E/DX2                !
 ! D97   D(65,18,19,20)        179.8221         estimate D2E/DX2                !
 ! D98   D(65,18,19,66)         -0.4864         estimate D2E/DX2                !
 ! D99   D(18,19,20,15)          0.9759         estimate D2E/DX2                !
 ! D100  D(18,19,20,21)       -179.7678         estimate D2E/DX2                !
 ! D101  D(66,19,20,15)       -178.705          estimate D2E/DX2                !
 ! D102  D(66,19,20,21)          0.5513         estimate D2E/DX2                !
 ! D103  D(15,20,21,22)       -178.873          estimate D2E/DX2                !
 ! D104  D(15,20,21,45)          2.1922         estimate D2E/DX2                !
 ! D105  D(19,20,21,22)          1.8749         estimate D2E/DX2                !
 ! D106  D(19,20,21,45)       -177.0599         estimate D2E/DX2                !
 ! D107  D(20,21,22,23)       -108.698          estimate D2E/DX2                !
 ! D108  D(20,21,22,44)         72.356          estimate D2E/DX2                !
 ! D109  D(45,21,22,23)         70.2481         estimate D2E/DX2                !
 ! D110  D(45,21,22,44)       -108.6979         estimate D2E/DX2                !
 ! D111  D(20,21,45,13)         -3.017          estimate D2E/DX2                !
 ! D112  D(20,21,45,46)        175.997          estimate D2E/DX2                !
 ! D113  D(22,21,45,13)        178.015          estimate D2E/DX2                !
 ! D114  D(22,21,45,46)         -2.971          estimate D2E/DX2                !
 ! D115  D(21,22,23,24)         -2.9467         estimate D2E/DX2                !
 ! D116  D(21,22,23,25)        178.0339         estimate D2E/DX2                !
 ! D117  D(44,22,23,24)        176.0212         estimate D2E/DX2                !
 ! D118  D(44,22,23,25)         -2.9982         estimate D2E/DX2                !
 ! D119  D(21,22,44,39)       -178.888          estimate D2E/DX2                !
 ! D120  D(21,22,44,43)          1.8615         estimate D2E/DX2                !
 ! D121  D(23,22,44,39)          2.1774         estimate D2E/DX2                !
 ! D122  D(23,22,44,43)       -177.0731         estimate D2E/DX2                !
 ! D123  D(22,23,24,87)        -78.2694         estimate D2E/DX2                !
 ! D124  D(25,23,24,87)        100.7569         estimate D2E/DX2                !
 ! D125  D(22,23,25,26)       -178.6406         estimate D2E/DX2                !
 ! D126  D(22,23,25,38)          2.0948         estimate D2E/DX2                !
 ! D127  D(24,23,25,26)          2.3435         estimate D2E/DX2                !
 ! D128  D(24,23,25,38)       -176.921          estimate D2E/DX2                !
 ! D129  D(23,24,87,46)         53.0887         estimate D2E/DX2                !
 ! D130  D(23,25,26,27)       -121.1119         estimate D2E/DX2                !
 ! D131  D(23,25,26,35)         59.6738         estimate D2E/DX2                !
 ! D132  D(38,25,26,27)         58.1538         estimate D2E/DX2                !
 ! D133  D(38,25,26,35)       -121.0605         estimate D2E/DX2                !
 ! D134  D(23,25,38,39)         -0.3742         estimate D2E/DX2                !
 ! D135  D(23,25,38,82)        179.7157         estimate D2E/DX2                !
 ! D136  D(26,25,38,39)       -179.6493         estimate D2E/DX2                !
 ! D137  D(26,25,38,82)          0.4406         estimate D2E/DX2                !
 ! D138  D(25,26,27,28)        179.8245         estimate D2E/DX2                !
 ! D139  D(25,26,27,67)          0.5475         estimate D2E/DX2                !
 ! D140  D(35,26,27,28)         -0.9539         estimate D2E/DX2                !
 ! D141  D(35,26,27,67)        179.769          estimate D2E/DX2                !
 ! D142  D(25,26,35,34)       -179.556          estimate D2E/DX2                !
 ! D143  D(25,26,35,36)          1.1471         estimate D2E/DX2                !
 ! D144  D(27,26,35,34)          1.234          estimate D2E/DX2                !
 ! D145  D(27,26,35,36)       -178.0629         estimate D2E/DX2                !
 ! D146  D(26,27,28,29)       -179.6624         estimate D2E/DX2                !
 ! D147  D(26,27,28,33)          0.1281         estimate D2E/DX2                !
 ! D148  D(67,27,28,29)         -0.3975         estimate D2E/DX2                !
 ! D149  D(67,27,28,33)        179.3929         estimate D2E/DX2                !
 ! D150  D(27,28,29,30)       -179.6412         estimate D2E/DX2                !
 ! D151  D(27,28,29,31)         60.3094         estimate D2E/DX2                !
 ! D152  D(27,28,29,32)        -59.6214         estimate D2E/DX2                !
 ! D153  D(33,28,29,30)          0.5794         estimate D2E/DX2                !
 ! D154  D(33,28,29,31)       -119.47           estimate D2E/DX2                !
 ! D155  D(33,28,29,32)        120.5992         estimate D2E/DX2                !
 ! D156  D(27,28,33,34)          0.405          estimate D2E/DX2                !
 ! D157  D(27,28,33,77)       -179.8561         estimate D2E/DX2                !
 ! D158  D(29,28,33,34)       -179.8117         estimate D2E/DX2                !
 ! D159  D(29,28,33,77)         -0.0728         estimate D2E/DX2                !
 ! D160  D(28,29,30,68)         60.603          estimate D2E/DX2                !
 ! D161  D(28,29,30,69)        -61.0764         estimate D2E/DX2                !
 ! D162  D(28,29,30,70)        179.7886         estimate D2E/DX2                !
 ! D163  D(31,29,30,68)       -178.3206         estimate D2E/DX2                !
 ! D164  D(31,29,30,69)         60.0            estimate D2E/DX2                !
 ! D165  D(31,29,30,70)        -59.135          estimate D2E/DX2                !
 ! D166  D(32,29,30,68)        -60.4809         estimate D2E/DX2                !
 ! D167  D(32,29,30,69)        177.8397         estimate D2E/DX2                !
 ! D168  D(32,29,30,70)         58.7047         estimate D2E/DX2                !
 ! D169  D(28,29,31,71)         57.6127         estimate D2E/DX2                !
 ! D170  D(28,29,31,72)        177.5467         estimate D2E/DX2                !
 ! D171  D(28,29,31,73)        -62.8462         estimate D2E/DX2                !
 ! D172  D(30,29,31,71)        -65.7144         estimate D2E/DX2                !
 ! D173  D(30,29,31,72)         54.2196         estimate D2E/DX2                !
 ! D174  D(30,29,31,73)        173.8267         estimate D2E/DX2                !
 ! D175  D(32,29,31,71)        177.6007         estimate D2E/DX2                !
 ! D176  D(32,29,31,72)        -62.4653         estimate D2E/DX2                !
 ! D177  D(32,29,31,73)         57.1418         estimate D2E/DX2                !
 ! D178  D(28,29,32,74)         62.9326         estimate D2E/DX2                !
 ! D179  D(28,29,32,75)       -177.4823         estimate D2E/DX2                !
 ! D180  D(28,29,32,76)        -57.5475         estimate D2E/DX2                !
 ! D181  D(30,29,32,74)       -173.7479         estimate D2E/DX2                !
 ! D182  D(30,29,32,75)        -54.1628         estimate D2E/DX2                !
 ! D183  D(30,29,32,76)         65.7721         estimate D2E/DX2                !
 ! D184  D(31,29,32,74)        -57.0389         estimate D2E/DX2                !
 ! D185  D(31,29,32,75)         62.5461         estimate D2E/DX2                !
 ! D186  D(31,29,32,76)       -177.519          estimate D2E/DX2                !
 ! D187  D(28,33,34,35)         -0.1108         estimate D2E/DX2                !
 ! D188  D(28,33,34,78)        179.4723         estimate D2E/DX2                !
 ! D189  D(77,33,34,35)       -179.8623         estimate D2E/DX2                !
 ! D190  D(77,33,34,78)         -0.2792         estimate D2E/DX2                !
 ! D191  D(33,34,35,26)         -0.7156         estimate D2E/DX2                !
 ! D192  D(33,34,35,36)        178.5608         estimate D2E/DX2                !
 ! D193  D(78,34,35,26)        179.7121         estimate D2E/DX2                !
 ! D194  D(78,34,35,36)         -1.0115         estimate D2E/DX2                !
 ! D195  D(26,35,36,37)       -179.3075         estimate D2E/DX2                !
 ! D196  D(34,35,36,37)          1.4155         estimate D2E/DX2                !
 ! D197  D(35,36,37,79)         60.4147         estimate D2E/DX2                !
 ! D198  D(35,36,37,80)        179.5302         estimate D2E/DX2                !
 ! D199  D(35,36,37,81)        -61.3213         estimate D2E/DX2                !
 ! D200  D(25,38,39,40)        179.4017         estimate D2E/DX2                !
 ! D201  D(25,38,39,44)         -0.4156         estimate D2E/DX2                !
 ! D202  D(82,38,39,40)         -0.6886         estimate D2E/DX2                !
 ! D203  D(82,38,39,44)        179.494          estimate D2E/DX2                !
 ! D204  D(38,39,40,41)       -179.3535         estimate D2E/DX2                !
 ! D205  D(38,39,40,83)          0.427          estimate D2E/DX2                !
 ! D206  D(44,39,40,41)          0.4639         estimate D2E/DX2                !
 ! D207  D(44,39,40,83)       -179.7556         estimate D2E/DX2                !
 ! D208  D(38,39,44,22)         -0.4894         estimate D2E/DX2                !
 ! D209  D(38,39,44,43)        178.7849         estimate D2E/DX2                !
 ! D210  D(40,39,44,22)        179.6933         estimate D2E/DX2                !
 ! D211  D(40,39,44,43)         -1.0325         estimate D2E/DX2                !
 ! D212  D(39,40,41,42)          0.2            estimate D2E/DX2                !
 ! D213  D(39,40,41,84)        179.9025         estimate D2E/DX2                !
 ! D214  D(83,40,41,42)       -179.5841         estimate D2E/DX2                !
 ! D215  D(83,40,41,84)          0.1183         estimate D2E/DX2                !
 ! D216  D(40,41,42,43)         -0.2788         estimate D2E/DX2                !
 ! D217  D(40,41,42,85)        179.5827         estimate D2E/DX2                !
 ! D218  D(84,41,42,43)       -179.9813         estimate D2E/DX2                !
 ! D219  D(84,41,42,85)         -0.1198         estimate D2E/DX2                !
 ! D220  D(41,42,43,44)         -0.3118         estimate D2E/DX2                !
 ! D221  D(41,42,43,86)        179.3802         estimate D2E/DX2                !
 ! D222  D(85,42,43,44)        179.8268         estimate D2E/DX2                !
 ! D223  D(85,42,43,86)         -0.4812         estimate D2E/DX2                !
 ! D224  D(42,43,44,22)       -179.7853         estimate D2E/DX2                !
 ! D225  D(42,43,44,39)          0.9599         estimate D2E/DX2                !
 ! D226  D(86,43,44,22)          0.5332         estimate D2E/DX2                !
 ! D227  D(86,43,44,39)       -178.7215         estimate D2E/DX2                !
 ! D228  D(13,45,46,87)        108.4876         estimate D2E/DX2                !
 ! D229  D(21,45,46,87)        -70.5333         estimate D2E/DX2                !
 ! D230  D(45,46,87,24)         38.0512         estimate D2E/DX2                !
 --------------------------------------------------------------------------------
 Trust Radius=3.00D-01 FncErr=1.00D-07 GrdErr=1.00D-06 EigMax=2.50D+02 EigMin=1.00D-04
 Number of steps in this run=    494 maximum allowed number of steps=    522.
 GradGradGradGradGradGradGradGradGradGradGradGradGradGradGradGradGradGrad

 Leave Link  103 at Fri Mar  8 02:34:00 2024, MaxMem= 13421772800 cpu:               0.4 elap:               0.0
 (Enter /public/software/apps/Gaussian/g16/l202.exe)
 Symmetry turned off by external request.
 Stoichiometry    C42H40CuO4(2)
 Framework group  C1[X(C42H40CuO4)]
 Deg. of freedom   255
 Full point group                 C1      NOp   1
                          Input orientation:                          
 ---------------------------------------------------------------------
 Center     Atomic      Atomic             Coordinates (Angstroms)
 Number     Number       Type             X           Y           Z
 ---------------------------------------------------------------------
      1          6           0       -3.888203    0.746972   -3.531756
      2          8           0       -3.616156    0.504734   -2.155607
      3          6           0       -4.063334    1.314813   -1.097937
      4          6           0       -4.863188    2.447752   -1.319302
      5          6           0       -5.319354    3.219246   -0.248955
      6          6           0       -4.992516    2.882258    1.083458
      7          6           0       -5.478528    3.704093    2.295766
      8          6           0       -4.258905    4.251213    3.069017
      9          6           0       -6.361524    4.911090    1.896699
     10          6           0       -6.314727    2.801027    3.228892
     11          6           0       -4.182825    1.745310    1.292429
     12          6           0       -3.712089    0.972172    0.219911
     13          6           0       -2.862381   -0.209270    0.495124
     14          6           0       -3.352930   -1.235480    1.312074
     15          6           0       -2.568307   -2.360364    1.594542
     16          6           0       -3.069882   -3.375025    2.425586
     17          6           0       -2.288565   -4.492618    2.722118
     18          6           0       -1.001347   -4.606298    2.197601
     19          6           0       -0.488182   -3.606599    1.368144
     20          6           0       -1.265684   -2.473597    1.044678
     21          6           0       -0.775575   -1.444222    0.201873
     22          6           0        0.571998   -1.520279   -0.422576
     23          6           0        1.582209   -0.663059    0.049949
     24          8           0        1.282792    0.271039    1.039466
     25          6           0        2.881737   -0.728046   -0.481739
     26          6           0        3.958037    0.150575    0.031366
     27          6           0        4.609556    1.026513   -0.850656
     28          6           0        5.638672    1.886527   -0.411032
     29          6           0        6.318971    2.837060   -1.418547
     30          6           0        7.430249    3.704848   -0.779885
     31          6           0        5.264167    3.792799   -2.017460
     32          6           0        6.964653    2.010286   -2.552105
     33          6           0        5.997487    1.836151    0.954405
     34          6           0        5.360649    0.959153    1.834315
     35          6           0        4.342280    0.103662    1.383302
     36          8           0        3.706206   -0.809034    2.241938
     37          6           0        3.990148   -0.947564    3.629982
     38          6           0        3.160708   -1.624246   -1.521047
     39          6           0        2.160290   -2.461299   -2.030235
     40          6           0        2.452881   -3.345597   -3.081036
     41          6           0        1.457584   -4.173108   -3.602529
     42          6           0        0.163445   -4.123571   -3.085036
     43          6           0       -0.143604   -3.250742   -2.038766
     44          6           0        0.850567   -2.413616   -1.487706
     45          6           0       -1.566262   -0.306276   -0.039955
     46          8           0       -1.048759    0.740526   -0.800012
     47          1           0       -3.472961    1.731110   -3.835230
     48          1           0       -3.405675   -0.044765   -4.140601
     49          1           0       -4.982992    0.719267   -3.715367
     50          1           0       -5.146806    2.740522   -2.320956
     51          1           0       -5.931845    4.075486   -0.488087
     52          1           0       -3.635703    3.431370    3.483145
     53          1           0       -4.584811    4.884205    3.922824
     54          1           0       -3.622291    4.868905    2.399112
     55          1           0       -7.274823    4.573602    1.360557
     56          1           0       -6.692500    5.472496    2.797498
     57          1           0       -5.796998    5.619593    1.252625
     58          1           0       -5.708428    1.970062    3.646008
     59          1           0       -7.172946    2.362861    2.674729
     60          1           0       -6.713968    3.383421    4.087583
     61          1           0       -3.900647    1.457380    2.296746
     62          1           0       -4.351898   -1.154959    1.727060
     63          1           0       -4.064899   -3.301887    2.848550
     64          1           0       -2.680310   -5.270620    3.364610
     65          1           0       -0.396960   -5.471949    2.436403
     66          1           0        0.518300   -3.726774    0.989674
     67          1           0        4.296845    1.039960   -1.886636
     68          1           0        8.236557    3.067359   -0.356745
     69          1           0        7.015082    4.353822    0.021360
     70          1           0        7.895763    4.370733   -1.538943
     71          1           0        4.758777    4.365102   -1.209604
     72          1           0        5.738921    4.517209   -2.714405
     73          1           0        4.489944    3.240623   -2.590005
     74          1           0        6.204793    1.444612   -3.130548
     75          1           0        7.500297    2.671913   -3.267077
     76          1           0        7.695189    1.284913   -2.132977
     77          1           0        6.773192    2.464765    1.364983
     78          1           0        5.675906    0.950735    2.868763
     79          1           0        3.787953    0.008115    4.158110
     80          1           0        3.334655   -1.734262    4.056370
     81          1           0        5.048789   -1.249650    3.774946
     82          1           0        4.163588   -1.668341   -1.932009
     83          1           0        3.450541   -3.394139   -3.501307
     84          1           0        1.689128   -4.851450   -4.413585
     85          1           0       -0.606453   -4.762779   -3.497746
     86          1           0       -1.161372   -3.234642   -1.671896
     87         29           0        0.363358    1.742950    0.123291
 ---------------------------------------------------------------------
 Rotational constants (GHZ):           0.0796660           0.0415852           0.0353324
 Leave Link  202 at Fri Mar  8 02:34:00 2024, MaxMem= 13421772800 cpu:               1.2 elap:               0.0
 (Enter /public/software/apps/Gaussian/g16/l301.exe)
 Standard basis: def2SVPP (5D, 7F)
 Ernie: Thresh=  0.10000D-02 Tol=  0.10000D-05 Strict=F.
   748 basis functions,  1381 primitive gaussians,   796 cartesian basis functions
   177 alpha electrons      176 beta electrons
       nuclear repulsion energy      6453.7761736654 Hartrees.
 IExCor=  402 DFT=T Ex+Corr=B3LYP ExCW=0 ScaHFX=  0.200000
 ScaDFX=  0.800000  0.720000  1.000000  0.810000 ScalE2=  1.000000  1.000000
 IRadAn=      5 IRanWt=     -1 IRanGd=            0 ICorTp=0 IEmpDi=141
 NAtoms=   87 NActive=   87 NUniq=   87 SFac= 1.00D+00 NAtFMM=   60 NAOKFM=T Big=T
 Integral buffers will be    131072 words long.
 Raffenetti 2 integral format.
 Two-electron integral symmetry is turned off.
 R6Disp:  Grimme-D3(BJ) Dispersion energy=       -0.2213856990 Hartrees.
 Nuclear repulsion after empirical dispersion term =     6453.5547879664 Hartrees.
 Leave Link  301 at Fri Mar  8 02:34:00 2024, MaxMem= 13421772800 cpu:               0.8 elap:               0.0
 (Enter /public/software/apps/Gaussian/g16/l302.exe)
 NPDir=0 NMtPBC=     1 NCelOv=     1 NCel=       1 NClECP=     1 NCelD=      1
         NCelK=      1 NCelE2=     1 NClLst=     1 CellRange=     0.0.
 One-electron integrals computed using PRISM.
   1 Symmetry operations used in ECPInt.
 ECPInt:  NShTT=   67161 NPrTT=  274928 LenC2=   52432 LenP2D=  127906.
 LDataN:  DoStor=T MaxTD1= 4 Len=   56
 NBasis=   748 RedAO= T EigKep=  1.65D-04  NBF=   748
 NBsUse=   748 1.00D-06 EigRej= -1.00D+00 NBFU=   748
 Precomputing XC quadrature grid using
 IXCGrd= 4 IRadAn=           5 IRanWt=          -1 IRanGd=           0 AccXCQ= 0.00D+00.
 Generated NRdTot=       0 NPtTot=           0 NUsed=           0 NTot=          32
 NSgBfM=   765   765   765   765   765 MxSgAt=    87 MxSgA2=    87.
 Leave Link  302 at Fri Mar  8 02:34:01 2024, MaxMem= 13421772800 cpu:              39.0 elap:               1.2
 (Enter /public/software/apps/Gaussian/g16/l303.exe)
 DipDrv:  MaxL=1.
 Leave Link  303 at Fri Mar  8 02:34:01 2024, MaxMem= 13421772800 cpu:               3.4 elap:               0.1
 (Enter /public/software/apps/Gaussian/g16/l401.exe)
 ExpMin= 3.30D-02 ExpMax= 7.64D+04 ExpMxC= 1.15D+04 IAcc=3 IRadAn=         5 AccDes= 0.00D+00
 Harris functional with IExCor=  402 and IRadAn=       5 diagonalized for initial guess.
 HarFok:  IExCor=  402 AccDes= 0.00D+00 IRadAn=         5 IDoV= 1 UseB2=F ITyADJ=14
 ICtDFT=  3500011 ScaDFX=  1.000000  1.000000  1.000000  1.000000
 FoFCou: FMM=F IPFlag=           0 FMFlag=      100000 FMFlg1=        2001
         NFxFlg=           0 DoJE=T BraDBF=F KetDBF=T FulRan=T
         wScrn=  0.000000 ICntrl=       500 IOpCl=  0 I1Cent=   200000004 NGrid=           0
         NMat0=    1 NMatS0=      1 NMatT0=    0 NMatD0=    1 NMtDS0=    0 NMtDT0=    0
 Symmetry not used in FoFCou.
 Harris En= -3564.74880360004    
 JPrj=0 DoOrth=F DoCkMO=F.
 Initial guess <Sx>= 0.0000 <Sy>= 0.0000 <Sz>= 0.5000 <S**2>= 0.7500 S= 0.5000
 Leave Link  401 at Fri Mar  8 02:34:04 2024, MaxMem= 13421772800 cpu:              81.8 elap:               2.6
 (Enter /public/software/apps/Gaussian/g16/l502.exe)
 Two-electron integral symmetry not used.
 UHF open shell SCF:
 Using DIIS extrapolation, IDIIS=  1040.
 NGot= 13421772800 LenX= 13420471252 LenY= 13419836840
 Requested convergence on RMS density matrix=1.00D-08 within 128 cycles.
 Requested convergence on MAX density matrix=1.00D-06.
 Requested convergence on             energy=1.00D-06.
 No special actions if energy rises.
 Fock matrices will be formed incrementally for  20 cycles.

 Cycle   1  Pass 1  IDiag  1:
 FoFJK:  IHMeth= 1 ICntrl=       0 DoSepK=F KAlg= 0 I1Cent=           0 FoldK=F
 IRaf= 890000000 NMat=       1 IRICut=       1 DoRegI=T DoRafI=F ISym2E= 0 IDoP0=0 IntGTp=1.
 FoFCou: FMM=T IPFlag=           0 FMFlag=      100000 FMFlg1=        2001
         NFxFlg=           0 DoJE=F BraDBF=F KetDBF=F FulRan=T
         wScrn=  0.000000 ICntrl=         0 IOpCl=  1 I1Cent=           0 NGrid=           0
         NMat0=    1 NMatS0=      1 NMatT0=    0 NMatD0=    1 NMtDS0=    0 NMtDT0=    0
 Symmetry not used in FoFCou.
 FMM levels:  10  Number of levels for PrismC:   9
 E= -3548.24026205095    
 DIIS: error= 3.91D-01 at cycle   1 NSaved=   1.
 NSaved= 1 IEnMin= 1 EnMin= -3548.24026205095     IErMin= 1 ErrMin= 3.91D-01
 ErrMax= 3.91D-01  0.00D+00 EMaxC= 1.00D-01 BMatC= 7.12D+01 BMatP= 7.12D+01
 IDIUse=3 WtCom= 0.00D+00 WtEn= 1.00D+00
 Coeff-Com:  0.100D+01
 Coeff-En:   0.100D+01
 Coeff:      0.100D+01
 Gap=     0.105 Goal=   None    Shift=    0.000
 Gap=    -0.159 Goal=   None    Shift=    0.000
 GapD=   -0.159 DampG=0.250 DampE=0.125 DampFc=0.1250 IDamp=-1.
 Damping current iteration by 1.25D-01
 RMSDP=5.39D-02 MaxDP=8.64D+00              OVMax= 9.88D-01

 Cycle   2  Pass 1  IDiag  1:
 RMSU=  6.73D-03    CP:  1.02D+00
 E= -3553.38788433503     Delta-E=       -5.147622284083 Rises=F Damp=T
 DIIS: error= 2.61D-01 at cycle   2 NSaved=   2.
 NSaved= 2 IEnMin= 2 EnMin= -3553.38788433503     IErMin= 2 ErrMin= 2.61D-01
 ErrMax= 2.61D-01  0.00D+00 EMaxC= 1.00D-01 BMatC= 2.70D+01 BMatP= 7.12D+01
 IDIUse=3 WtCom= 0.00D+00 WtEn= 1.00D+00
 Coeff-Com: -0.117D+01 0.217D+01
 Coeff-En:   0.000D+00 0.100D+01
 Coeff:      0.000D+00 0.100D+01
 Gap=    -0.177 Goal=   None    Shift=    0.000
 Gap=    -0.087 Goal=   None    Shift=    0.000
 RMSDP=1.31D-02 MaxDP=3.33D+00 DE=-5.15D+00 OVMax= 9.51D-01

 Cycle   3  Pass 1  IDiag  1:
 RMSU=  1.29D-02    CP:  9.52D-01  1.31D+00
 E= -3535.17936399302     Delta-E=       18.208520342005 Rises=F Damp=F
 DIIS: error= 2.24D-01 at cycle   3 NSaved=   3.
 NSaved= 3 IEnMin= 2 EnMin= -3553.38788433503     IErMin= 3 ErrMin= 2.24D-01
 ErrMax= 2.24D-01  0.00D+00 EMaxC= 1.00D-01 BMatC= 7.72D+01 BMatP= 2.70D+01
 IDIUse=2 WtCom= 0.00D+00 WtEn= 1.00D+00
 EnCoef did     6 forward-backward iterations
 Coeff-En:   0.602D+00 0.755D-03 0.398D+00
 Coeff:      0.602D+00 0.755D-03 0.398D+00
 Gap=     0.889 Goal=   None    Shift=    0.000
 Gap=     0.092 Goal=   None    Shift=    0.000
 RMSDP=1.91D-02 MaxDP=2.52D+00 DE= 1.82D+01 OVMax= 9.60D-01

 Cycle   4  Pass 1  IDiag  1:
 RMSU=  1.42D-02    CP:  9.06D-01  3.32D-01  1.39D-01
 E= -3516.44878818004     Delta-E=       18.730575812981 Rises=F Damp=F
 DIIS: error= 1.71D-01 at cycle   4 NSaved=   4.
 NSaved= 4 IEnMin= 2 EnMin= -3553.38788433503     IErMin= 4 ErrMin= 1.71D-01
 ErrMax= 1.71D-01  0.00D+00 EMaxC= 1.00D-01 BMatC= 9.83D+01 BMatP= 2.70D+01
 IDIUse=2 WtCom= 0.00D+00 WtEn= 1.00D+00
 EnCoef did   100 forward-backward iterations
 Coeff-En:   0.545D+00 0.673D-03 0.328D+00 0.126D+00
 Coeff:      0.545D+00 0.673D-03 0.328D+00 0.126D+00
 Gap=     0.098 Goal=   None    Shift=    0.000
 Gap=     0.268 Goal=   None    Shift=    0.000
 RMSDP=1.39D-02 MaxDP=1.65D+00 DE= 1.87D+01 OVMax= 8.08D-01

 Cycle   5  Pass 1  IDiag  1:
 RMSU=  4.21D-03    CP:  8.90D-01  2.27D-02  1.16D-01  7.33D-02
 E= -3562.76808213485     Delta-E=      -46.319293954812 Rises=F Damp=F
 DIIS: error= 1.57D-01 at cycle   5 NSaved=   5.
 NSaved= 5 IEnMin= 5 EnMin= -3562.76808213485     IErMin= 5 ErrMin= 1.57D-01
 ErrMax= 1.57D-01  0.00D+00 EMaxC= 1.00D-01 BMatC= 8.14D+00 BMatP= 2.70D+01
 IDIUse=3 WtCom= 0.00D+00 WtEn= 1.00D+00
 EnCoef did   100 forward-backward iterations
 Coeff-Com: -0.478D+00 0.975D+00 0.645D-02-0.648D-01 0.562D+00
 Coeff-En:   0.172D+00 0.324D-02 0.000D+00 0.000D+00 0.825D+00
 Coeff:      0.172D+00 0.324D-02 0.000D+00 0.000D+00 0.825D+00
 Gap=     0.146 Goal=   None    Shift=    0.000
 Gap=     0.018 Goal=   None    Shift=    0.000
 RMSDP=4.11D-03 MaxDP=4.91D-01 DE=-4.63D+01 OVMax= 4.80D-01

 Cycle   6  Pass 1  IDiag  1:
 RMSU=  3.55D-03    CP:  9.10D-01  8.82D-02  1.03D-01  4.94D-02  5.32D-01
 E= -3562.68676113204     Delta-E=        0.081321002814 Rises=F Damp=F
 DIIS: error= 1.58D-01 at cycle   6 NSaved=   6.
 NSaved= 6 IEnMin= 5 EnMin= -3562.76808213485     IErMin= 5 ErrMin= 1.57D-01
 ErrMax= 1.58D-01  0.00D+00 EMaxC= 1.00D-01 BMatC= 9.53D+00 BMatP= 8.14D+00
 IDIUse=2 WtCom= 0.00D+00 WtEn= 1.00D+00
 EnCoef did     8 forward-backward iterations
 Coeff-En:   0.428D-01 0.000D+00 0.000D+00 0.000D+00 0.537D+00 0.421D+00
 Coeff:      0.428D-01 0.000D+00 0.000D+00 0.000D+00 0.537D+00 0.421D+00
 Gap=     0.002 Goal=   None    Shift=    0.000
 Gap=     0.060 Goal=   None    Shift=    0.000
 RMSDP=3.29D-03 MaxDP=7.32D-01 DE= 8.13D-02 OVMax= 5.21D-01

 Cycle   7  Pass 1  IDiag  1:
 RMSU=  1.80D-03    CP:  9.02D-01 -1.49D-02  6.47D-02  3.25D-02  7.34D-01
                    CP:  3.05D-01
 E= -3563.89217155086     Delta-E=       -1.205410418817 Rises=F Damp=F
 DIIS: error= 7.94D-02 at cycle   7 NSaved=   7.
 NSaved= 7 IEnMin= 7 EnMin= -3563.89217155086     IErMin= 7 ErrMin= 7.94D-02
 ErrMax= 7.94D-02  0.00D+00 EMaxC= 1.00D-01 BMatC= 2.74D+00 BMatP= 8.14D+00
 IDIUse=3 WtCom= 2.06D-01 WtEn= 7.94D-01
 EnCoef did     1 forward-backward iterations
 Coeff-Com: -0.637D-01 0.857D-01-0.138D-01-0.458D-02 0.396D+00 0.251D+00
 Coeff-Com:  0.349D+00
 Coeff-En:   0.000D+00 0.000D+00 0.000D+00 0.000D+00 0.283D+00 0.129D+00
 Coeff-En:   0.588D+00
 Coeff:     -0.131D-01 0.177D-01-0.285D-02-0.943D-03 0.307D+00 0.154D+00
 Coeff:      0.539D+00
 Gap=     0.350 Goal=   None    Shift=    0.000
 Gap=     0.278 Goal=   None    Shift=    0.000
 RMSDP=2.57D-03 MaxDP=4.87D-01 DE=-1.21D+00 OVMax= 4.83D-01

 Cycle   8  Pass 1  IDiag  1:
 RMSU=  1.23D-03    CP:  8.96D-01  2.46D-02  8.94D-02  6.73D-02  7.74D-01
                    CP:  4.94D-01 -1.35D-01
 E= -3563.98604440511     Delta-E=       -0.093872854248 Rises=F Damp=F
 DIIS: error= 5.68D-02 at cycle   8 NSaved=   8.
 NSaved= 8 IEnMin= 8 EnMin= -3563.98604440511     IErMin= 8 ErrMin= 5.68D-02
 ErrMax= 5.68D-02  0.00D+00 EMaxC= 1.00D-01 BMatC= 1.91D+00 BMatP= 2.74D+00
 IDIUse=3 WtCom= 4.32D-01 WtEn= 5.68D-01
 Coeff-Com: -0.428D-01 0.490D-01-0.515D-02-0.552D-02 0.128D+00 0.620D-01
 Coeff-Com:  0.433D+00 0.382D+00
 Coeff-En:   0.000D+00 0.000D+00 0.000D+00 0.000D+00 0.000D+00 0.000D+00
 Coeff-En:   0.473D+00 0.527D+00
 Coeff:     -0.185D-01 0.212D-01-0.222D-02-0.238D-02 0.551D-01 0.268D-01
 Coeff:      0.456D+00 0.465D+00
 Gap=     0.104 Goal=   None    Shift=    0.000
 Gap=    -0.011 Goal=   None    Shift=    0.000
 RMSDP=1.86D-03 MaxDP=3.52D-01 DE=-9.39D-02 OVMax= 6.04D-01

 Cycle   9  Pass 1  IDiag  1:
 RMSU=  8.84D-04    CP:  8.94D-01 -4.84D-03  7.50D-02  5.02D-02  8.16D-01
                    CP:  3.28D-01  4.99D-01  2.40D-01
 E= -3564.43512959357     Delta-E=       -0.449085188464 Rises=F Damp=F
 DIIS: error= 2.11D-02 at cycle   9 NSaved=   9.
 NSaved= 9 IEnMin= 9 EnMin= -3564.43512959357     IErMin= 9 ErrMin= 2.11D-02
 ErrMax= 2.11D-02  0.00D+00 EMaxC= 1.00D-01 BMatC= 2.89D-01 BMatP= 1.91D+00
 IDIUse=3 WtCom= 7.89D-01 WtEn= 2.11D-01
 EnCoef did     5 forward-backward iterations
 Coeff-Com: -0.223D-01 0.341D-01-0.445D-02-0.238D-02-0.143D-01 0.295D-01
 Coeff-Com:  0.210D+00 0.261D+00 0.509D+00
 Coeff-En:   0.000D+00 0.000D+00 0.000D+00 0.000D+00 0.000D+00 0.000D+00
 Coeff-En:   0.822D-01 0.896D-01 0.828D+00
 Coeff:     -0.176D-01 0.269D-01-0.351D-02-0.188D-02-0.113D-01 0.233D-01
 Coeff:      0.183D+00 0.225D+00 0.576D+00
 Gap=     0.143 Goal=   None    Shift=    0.000
 Gap=     0.030 Goal=   None    Shift=    0.000
 RMSDP=1.05D-03 MaxDP=8.45D-02 DE=-4.49D-01 OVMax= 4.38D-01

 Cycle  10  Pass 1  IDiag  1:
 RMSU=  7.52D-04    CP:  8.95D-01 -1.12D-02  6.92D-02  4.86D-02  7.71D-01
                    CP:  3.95D-01  4.29D-01  4.50D-01  3.20D-01
 E= -3564.46605991547     Delta-E=       -0.030930321904 Rises=F Damp=F
 DIIS: error= 7.81D-03 at cycle  10 NSaved=  10.
 NSaved=10 IEnMin=10 EnMin= -3564.46605991547     IErMin=10 ErrMin= 7.81D-03
 ErrMax= 7.81D-03  0.00D+00 EMaxC= 1.00D-01 BMatC= 1.54D-01 BMatP= 2.89D-01
 IDIUse=3 WtCom= 9.22D-01 WtEn= 7.81D-02
 Coeff-Com: -0.153D-01 0.261D-01-0.122D-02 0.382D-03-0.287D-01 0.135D-01
 Coeff-Com:  0.296D-01 0.590D-01 0.469D+00 0.448D+00
 Coeff-En:   0.000D+00 0.000D+00 0.000D+00 0.000D+00 0.000D+00 0.000D+00
 Coeff-En:   0.000D+00 0.000D+00 0.393D+00 0.607D+00
 Coeff:     -0.141D-01 0.240D-01-0.112D-02 0.352D-03-0.265D-01 0.124D-01
 Coeff:      0.273D-01 0.544D-01 0.463D+00 0.460D+00
 Gap=     0.121 Goal=   None    Shift=    0.000
 Gap=     0.031 Goal=   None    Shift=    0.000
 RMSDP=5.58D-04 MaxDP=4.97D-02 DE=-3.09D-02 OVMax= 2.50D-01

 Cycle  11  Pass 1  IDiag  1:
 RMSU=  2.72D-04    CP:  8.95D-01 -8.05D-03  7.02D-02  4.95D-02  7.81D-01
                    CP:  3.79D-01  4.40D-01  3.85D-01  7.02D-01  5.57D-01
 E= -3564.50119171172     Delta-E=       -0.035131796243 Rises=F Damp=F
 DIIS: error= 6.42D-03 at cycle  11 NSaved=  11.
 NSaved=11 IEnMin=11 EnMin= -3564.50119171172     IErMin=11 ErrMin= 6.42D-03
 ErrMax= 6.42D-03  0.00D+00 EMaxC= 1.00D-01 BMatC= 3.46D-02 BMatP= 1.54D-01
 IDIUse=3 WtCom= 9.36D-01 WtEn= 6.42D-02
 Coeff-Com: -0.128D-01 0.214D-01-0.325D-03 0.987D-03-0.154D-01 0.144D-01
 Coeff-Com:  0.319D-02-0.456D-03 0.259D+00 0.344D+00 0.386D+00
 Coeff-En:   0.000D+00 0.000D+00 0.000D+00 0.000D+00 0.000D+00 0.000D+00
 Coeff-En:   0.000D+00 0.000D+00 0.000D+00 0.144D+00 0.856D+00
[...]
 65,-0.00000006,0.00000067,0.00000289,-0.00000252,0.00000106,0.00000083
 ,0.00000236,-0.00000304,-0.00000388,-0.00000036,0.00000153,0.00000196,
 0.00000051,-0.00000031,0.00000431,-0.00000261,0.00000054,0.00000124,0.
 00000341,-0.00000237,-0.00000531,-0.00000258,0.00000444,-0.00000197,-0
 .00000750,0.00000301,-0.00002196,0.00000157,-0.00000175,0.00000761,-0.
 00000854,0.00000092,0.00000472,-0.00002071,0.00000801,-0.00000344,-0.0
 0012934,0.00002179,-0.00006135,-0.00000388,0.00000309,-0.00000528,-0.0
 0000156,-0.00000054,0.00000089,-0.00000077,-0.00000197,0.00000073,0.00
 000229,0.00000253,-0.00000258,-0.00000043,-0.00000250,0.00000141,0.000
 00193,0.00000356,-0.00000384,0.00000032,-0.00000124,0.00000302,-0.0000
 0042,0.00000039,0.00000187,0.00000276,0.00000103,-0.00000419,-0.000000
 60,-0.00000019,0.00000134,0.00000259,0.00000141,0.00000096,-0.00000209
 ,0.00000156,0.00000204,-0.00000604,-0.00000358,-0.00000446,-0.00000268
 ,0.00000103,-0.00000089,0.00000973,-0.00000365,0.00000640,-0.00021848,
 -0.00021209,-0.00011186,-0.00011608,0.00022665,-0.00010271,-0.00000526
 ,-0.00018114,-0.00004014,0.00045463,0.00123039,-0.00066377,0.30260055,
 0.00001192,-0.00003074,-0.00001825,-0.00014009,0.00026697,0.00020075,0
 .00004697,-0.00011794,-0.00024715,-0.00002872,0.00005873,0.00004619,0.
 00000929,-0.00001837,-0.00002328,0.00000281,0.,0.00002265,0.00000585,0
 .00000069,0.00000319,-0.00000166,0.00000184,-0.00000040,-0.00000065,-0
 .00000130,-0.00000082,-0.00000261,0.00000403,-0.00000091,-0.00000837,-
 0.00000271,0.00001476,-0.00002501,0.00001172,0.00004264,-0.00025544,0.
 00001839,0.00021532,-0.00020817,0.00048956,-0.00025248,0.00010801,-0.0
 0029968,0.00014643,-0.00013382,0.00032043,-0.00016973,0.00024133,-0.00
 013739,-0.00003978,-0.00006115,-0.00021114,0.00010519,0.00007284,0.000
 05394,0.00001690,0.00006065,0.00017471,-0.00026204,0.00063378,-0.00130
 432,-0.00107926,0.00176352,-0.00081805,0.00107708,-0.00073473,-0.00047
 753,-0.00010182,0.00027607,0.00053127,0.00062628,-0.00026234,-0.000147
 37,0.00026404,-0.00002442,0.00001415,-0.00005708,-0.00001307,-0.000018
 96,0.00003071,0.00001890,0.00000436,0.00002945,-0.00000916,-0.00000982
 ,0.00001214,0.00000087,0.00000210,-0.00000704,0.00000358,0.00000112,-0
 .00000496,-0.00000050,0.00000697,-0.00000262,0.00001350,0.00001448,-0.
 00001980,-0.00001054,-0.00001204,-0.00000356,-0.00003428,-0.00000690,-
 0.00000361,0.00005514,-0.00002253,0.00006266,-0.00000732,0.00003224,-0
 .00010370,-0.00089306,-0.00003017,0.00031041,-0.00227475,0.00112521,-0
 .00392169,-0.00031865,-0.00064810,-0.00004348,-0.00161895,0.00267914,-
 0.00604309,0.01711895,0.00333679,-0.00863298,0.00963006,-0.04599901,-0
 .01491808,-0.01508015,0.00487964,0.00780873,-0.00049548,0.00064305,-0.
 00125544,-0.00020750,-0.00107844,0.00083968,-0.00000192,0.00000721,-0.
 00000783,0.00002732,-0.00002292,0.00005962,-0.00002018,0.00001603,0.00
 000022,0.00000865,-0.00000755,0.00000333,-0.00000140,0.00000160,0.0000
 0347,0.00000202,0.00000158,0.00000012,0.00000061,-0.00000005,-0.000000
 05,-0.00000058,-0.00000273,0.00000245,-0.00000112,0.00000044,-0.000000
 84,0.00000071,-0.00000011,-0.00000031,-0.00000049,-0.00000134,0.000001
 49,0.00000249,-0.00000054,0.00000238,-0.00000235,0.00000028,-0.0000008
 9,0.00000011,-0.00000159,0.00000051,-0.00000003,0.00000833,0.00000639,
 0.00000522,0.00000181,0.00000092,0.00000662,-0.00000302,-0.00000111,0.
 00000627,0.00000641,0.00000733,-0.00000090,0.00001435,0.00001436,0.000
 03087,0.00003721,-0.00000490,-0.00000715,0.00000128,0.00000010,-0.0000
 0136,-0.00000141,0.00000204,-0.00000131,-0.00000291,0.00000092,0.00000
 338,0.00000430,-0.00000411,-0.00000108,-0.00000458,0.00000092,0.000003
 75,0.00000543,-0.00000567,0.00000109,-0.00000047,0.00000634,-0.0000003
 9,0.00000098,0.00000399,0.00000432,0.00000255,-0.00000618,-0.00000009,
 -0.00000117,0.00000248,0.00000316,0.00000298,0.00000274,-0.00000032,0.
 00000437,0.00000569,-0.00000644,-0.00000404,-0.00000133,-0.00000617,-0
 .00000094,0.00000461,0.00001378,-0.00000328,0.00001388,-0.00024178,-0.
 00003551,-0.00018749,0.00021120,-0.00057909,0.00052599,0.00068773,0.00
 008285,-0.00040705,0.00086866,-0.00246784,0.00299669,-0.00886720,0.039
 48311,-0.00005412,0.00007434,0.00007894,0.00011129,-0.00023418,-0.0002
 7056,-0.00010113,0.00017147,0.00026592,0.00003034,-0.00005910,-0.00003
 963,-0.00001238,0.00001784,0.00001552,0.00000070,-0.00000689,-0.000012
 18,-0.00000648,0.00001077,0.00000631,0.00000727,-0.00000475,-0.0000035
 3,0.00000006,-0.00000022,-0.00000399,0.00000216,-0.00000821,-0.0000028
 6,-0.00001466,0.00001970,0.00000133,0.00002308,-0.00003116,-0.00002776
 ,-0.00003444,0.00008919,0.00022498,-0.00011181,0.00011225,-0.00001955,
 -0.00006946,-0.00009441,0.00006970,-0.00013283,0.00027968,-0.00010173,
 0.00013503,-0.00004543,-0.00006818,0.00011410,-0.00001865,0.00005074,0
 .00016237,-0.00013183,0.00001868,-0.00022541,-0.00009602,-0.00199334,0
 .00027317,-0.00146633,-0.00067993,0.00024776,0.00172327,-0.00072023,-0
 .00019581,-0.00031811,-0.00077748,-0.00003970,0.00068087,0.00069898,-0
 .00045634,0.00013502,0.00034313,-0.00001568,-0.00002426,-0.00003271,-0
 .00000563,-0.00001265,0.00002275,0.00000584,0.00000358,0.00001439,-0.0
 0000538,-0.00000996,0.00000992,0.00000013,0.00000298,-0.00000561,0.000
 00466,0.00000191,-0.00000356,-0.00000105,0.00000521,-0.00000287,0.0000
 1087,0.00001123,-0.00000771,-0.00000324,-0.00000145,0.00000043,-0.0000
 1462,-0.00000538,0.00000724,0.00002717,0.00000596,0.00003738,-0.000004
 78,0.00000824,-0.00005857,-0.00066656,-0.00034516,0.00012867,-0.000857
 74,-0.00304516,0.00125966,-0.00102069,-0.00054985,-0.00085474,0.000998
 59,-0.00611971,-0.00041093,0.02326536,-0.00113193,-0.00508530,0.112095
 15,-0.01498833,-0.10208785,-0.01104541,0.00023234,0.00875901,-0.000358
 10,-0.00040145,-0.00011738,0.00029398,0.00017315,0.00005144,0.00000390
 ,-0.00001852,-0.00002265,0.00000824,0.00003396,-0.00007666,0.00001468,
 -0.00000367,-0.00001768,-0.00000968,0.00001215,-0.00000438,0.00000449,
 -0.00000177,-0.00000179,-0.00000015,0.00000220,0.00000080,-0.00000089,
 -0.00000294,-0.00000499,0.00000038,0.00000071,0.00000200,-0.00000275,0
 .00000039,0.00000038,0.00000160,-0.00000195,-0.00000303,0.00000018,0.0
 0000184,0.00000116,-0.00000067,0.00000096,0.00000113,-0.00000234,-0.00
 000004,0.00000081,0.00000282,-0.00000029,-0.00000486,0.00000355,-0.000
 00362,-0.00001299,-0.00001517,0.00000122,-0.00000483,-0.00000483,-0.00
 000527,0.00001025,-0.00000396,-0.00000459,0.00001268,-0.00001195,-0.00
 000890,-0.00000780,-0.00005553,0.00004003,-0.00003396,-0.00000333,-0.0
 0000474,-0.00000385,-0.00000244,-0.00000063,0.00000073,-0.00000064,-0.
 00000193,0.00000143,0.00000306,0.00000314,-0.00000314,-0.00000048,-0.0
 0000159,0.00000225,0.00000221,0.00000470,-0.00000444,0.00000093,-0.000
 00261,0.00000327,0.00000055,-0.00000056,0.00000389,0.00000400,0.000002
 46,-0.00000448,-0.00000206,-0.00000022,0.00000109,0.00000275,0.0000017
 0,0.00000218,0.00000093,0.00000188,0.00000349,-0.00000294,0.00000141,0
 .00000011,-0.00000255,-0.00000088,-0.00000010,0.00000841,-0.00000097,0
 .00000764,-0.00012958,-0.00012131,-0.00006130,-0.00006998,0.00049259,-
 0.00033674,0.00101599,-0.00000913,-0.00037942,-0.00106358,0.00283282,-
 0.00097314,-0.12206620,0.02231545,0.10322855,-0.00003462,0.00003923,-0
 .00032491,0.00035030,0.00013462,0.00040411,-0.00013699,-0.00011701,-0.
 00011441,0.00000484,0.00011714,0.00000823,0.00002665,-0.00000777,-0.00
 005120,-0.00003983,0.00007903,0.00006757,-0.00006486,0.00002437,0.0000
 3176,0.00001100,-0.00000991,-0.00003748,0.00001457,0.00001151,-0.00002
 777,0.00000626,-0.00003819,-0.00000784,0.00030426,0.00029930,0.0001165
 0,-0.00038317,0.00021765,-0.00020514,0.00388398,0.00132169,-0.00167699
 ,0.00074421,-0.00297961,0.00167445,-0.00005551,0.00201170,-0.00133103,
 0.00063812,-0.00219722,0.00130041,-0.00134529,0.00086159,0.00004796,-0
 .00001419,0.00050681,-0.00038129,-0.00028664,0.00041657,-0.00016518,-0
 .00164481,-0.00158953,0.00126545,-0.00116007,0.00642314,-0.00363053,-0
 .00158927,-0.00503087,-0.00366625,-0.00492350,0.01906988,0.01434200,-0
 .03958502,0.03334191,-0.03427770,0.00284929,-0.00106437,-0.00144055,-0
 .00024050,-0.00001814,-0.00012959,0.00027182,-0.00034088,0.00000219,-0
 .00009338,-0.00012434,-0.00000820,-0.00006629,0.00001494,-0.00000476,0
 .00001174,-0.00001514,-0.00001214,-0.00000288,0.00002562,-0.00001101,0
 .00001775,0.00002130,0.00001590,-0.00000134,-0.00003477,-0.00000421,0.
 00002100,-0.00009780,-0.00002646,0.00002900,0.00027071,-0.00020434,0.0
 0006631,-0.00032082,0.00031212,-0.00002717,0.00004703,-0.00018558,0.00
 093447,0.00173148,0.00186346,-0.00038394,-0.00126958,-0.00137361,0.000
 85489,0.00129677,0.00135007,-0.00114734,-0.00041638,-0.00008902,-0.000
 09102,-0.00033729,-0.00029652,-0.00032912,-0.00022083,-0.00027845,-0.0
 0102634,0.00124348,0.00115018,-0.01374323,-0.02698888,0.01184361,-0.05
 207257,-0.01754623,-0.04675352,0.00000134,-0.00000109,-0.00001105,-0.0
 0002057,0.00002707,0.00001627,0.00003721,-0.00001645,0.00004576,-0.000
 01298,-0.00001531,0.00001688,0.00001205,-0.00002083,0.00001071,-0.0000
 0422,-0.00002469,0.00005911,0.00003936,-0.00002850,-0.00003544,-0.0000
 0050,0.00005280,-0.00000534,0.00000202,0.00000054,0.00001428,0.0000118
 7,-0.00001711,-0.00002329,-0.00000487,0.00001569,0.00000451,-0.0000109
 7,-0.00000696,0.00001771,0.00000629,0.00000515,0.00001124,0.00001933,-
 0.00000925,-0.00003370,-0.00007140,-0.00005518,0.00003877,-0.00000931,
 0.00001015,-0.00019539,-0.00003217,-0.00001587,0.00002125,-0.00001535,
 0.00000601,0.00000337,0.00005364,0.00000516,-0.00000462,0.00003771,-0.
 00003161,0.00004670,-0.00004701,0.00007700,0.00005285,0.00001109,-0.00
 000555,0.00001431,-0.00000923,-0.00001357,-0.00000541,0.00000971,0.000
 01381,-0.00001609,-0.00001737,-0.00006424,-0.00003670,0.00005411,0.000
 01507,-0.00002538,-0.00000580,0.00002178,0.00007043,-0.00001092,0.0000
 0634,0.00001136,0.00001425,0.00001029,-0.00002380,0.00001240,-0.000013
 06,0.00000605,0.00000442,0.00001414,0.00001211,-0.00001255,0.00001553,
 0.00001405,0.00001600,-0.00000039,-0.00000673,-0.00001784,-0.00003116,
 0.00001115,0.00002202,-0.00000450,0.00002688,-0.00001499,0.00005055,-0
 .00011822,-0.00003261,0.00002073,0.00001915,-0.00001451,0.00001387,-0.
 00000322,0.00004598,-0.00001242,0.00000422,0.00004138,0.00005086,0.000
 01734,0.10936141,0.00001096,0.00019826,-0.00061678,0.00093201,-0.00037
 485,0.00017889,-0.00045113,0.00042788,0.00059393,-0.00018281,0.0000876
 0,0.00006530,0.00009209,-0.00019843,-0.00024354,0.00011420,-0.00026598
 ,0.00020172,0.00001925,0.00009455,0.00016061,0.00007946,0.00006107,-0.
 00009265,-0.00000010,-0.00001081,-0.00008036,-0.00002847,-0.00004002,-
 0.00007726,-0.00016755,0.00013132,0.00017598,-0.00064173,0.00049487,-0
 .00035500,0.00311498,0.00234964,-0.00166734,0.00100425,-0.00282057,0.0
 0106344,0.00004833,0.00160718,-0.00112778,0.00045638,-0.00188965,0.001
 20739,-0.00128745,0.00079363,0.00006090,-0.00000928,0.00040004,-0.0007
 3712,-0.00005018,0.00025564,0.00026645,-0.00130516,-0.00147524,0.00162
 802,-0.00348226,0.00104047,-0.00510379,0.00399111,0.00090356,0.0064056
 3,0.01407906,-0.03381498,-0.01888125,0.03573416,-0.03061556,0.03294205
 ,-0.00364647,0.00328403,0.00304848,0.00088745,0.00027627,0.00051949,0.
 00016329,0.00020052,-0.00017622,-0.00015883,-0.00019870,-0.00026096,0.
 00002124,0.00015782,-0.00015199,-0.00000251,-0.00003912,0.00008623,-0.
 00008605,0.00003521,0.00010508,0.00001258,-0.00008049,0.00007165,-0.00
 013876,-0.00020949,0.00020703,0.00018070,0.00008820,-0.00002503,0.0006
 6807,0.00049317,-0.00059943,-0.00114575,-0.00012229,-0.00015943,0.0000
 4361,-0.00001317,0.00061303,-0.00195086,-0.00279220,-0.00213616,0.0003
 4361,0.00165904,0.00191406,-0.00105034,-0.00180062,-0.00198343,0.00174
 359,0.00062235,0.00014070,0.00012338,0.00028448,0.00089606,0.00021869,
 0.00039068,-0.00007279,0.00141149,-0.00170904,-0.00239515,-0.01887932,
 -0.02684696,0.00750068,-0.02204874,-0.00664847,-0.02261250,-0.00006087
 ,-0.00002085,-0.00000766,-0.00003872,-0.00001400,-0.00000570,0.0000554
 1,-0.00005301,0.00008735,0.00002258,0.00000115,0.00003095,0.00004924,-
 0.00001527,0.00000953,0.00002902,0.00004472,-0.00001870,-0.00004842,-0
 .00003471,-0.00002124,0.00001339,-0.00009293,0.00006358,-0.00004064,0.
 00000273,-0.00000289,0.00001989,-0.00002256,-0.00001620,0.00000446,-0.
 00000476,0.00002857,0.00000672,-0.00000491,0.00003293,-0.00003619,-0.0
 0001459,0.00001144,0.00002810,-0.00000712,-0.00003081,-0.00002259,0.00
 006729,-0.00000523,0.00005620,0.00011568,-0.00027990,0.00002376,0.0000
 0737,0.00002636,0.00000919,0.00006815,0.00004008,0.00002061,0.00001576
 ,-0.00004824,0.00003483,0.00013350,0.00018581,0.00003206,0.00005727,0.
 00003936,0.00004748,-0.00000618,0.00000290,-0.00000447,0.00000957,-0.0
 0002915,-0.00003104,-0.00002603,0.00001649,-0.00003497,-0.00006860,-0.
 00008790,0.00003993,-0.00005623,0.00002196,-0.00002049,0.00005659,0.00
 003345,-0.00000418,0.00000816,-0.00003690,-0.00003834,-0.00000972,0.00
 003871,0.00003739,-0.00002032,-0.00001737,-0.00005349,-0.00000455,-0.0
 0001343,-0.00000446,0.00000518,-0.00002676,0.00007188,0.00000195,0.000
 03045,0.00004164,-0.00003314,0.00000834,-0.00008687,0.00000152,-0.0000
 8961,-0.00004528,0.00007530,0.00036710,-0.00001678,0.00001516,-0.00002
 973,0.00001000,0.00007789,-0.00002539,-0.00003014,0.00001866,0.0000504
 1,-0.00000931,0.00017893,-0.00016185,-0.00880671,0.09517612,-0.0001503
 7,-0.00027590,0.00025622,0.00054573,-0.00030472,-0.00070271,-0.0004446
 5,0.00041464,0.00074756,0.00006628,0.00003629,-0.00006778,0.00001049,0
 .00003627,-0.00004169,0.00002987,-0.00019729,-0.00000227,0.00002142,0.
 00011268,0.00010765,0.00006989,-0.00008062,-0.00000067,-0.00003202,-0.
 00004819,-0.00004594,-0.00000930,-0.00005106,-0.00005414,-0.00011982,-
 0.00000912,0.00012639,-0.00045343,0.00023030,-0.00017093,0.00242843,0.
 00225682,-0.00167643,0.00060540,-0.00103154,0.00013253,0.00014636,0.00
 054424,-0.00053772,0.00007358,-0.00051097,0.00030707,-0.00022587,0.000
 25741,-0.00009438,-0.00010620,0.00004447,-0.00009969,-0.00009270,0.000
 30111,-0.00023303,-0.00092740,-0.00050728,0.00069972,0.00001749,0.0034
 7130,-0.00134373,0.00016582,-0.00299919,-0.00078742,0.00225679,0.00068
 443,0.00442422,-0.02558306,0.02487434,-0.01724709,0.00121779,-0.001618
 07,-0.00159621,-0.00030120,-0.00002284,-0.00009655,-0.00007779,0.00004
 275,0.00009104,0.00003445,0.00013863,-0.00001746,-0.00000245,-0.000102
 82,0.00004638,-0.00002064,0.00005517,-0.00001454,0.00006753,0.00007174
 ,0.00003959,0.00000648,0.00004630,-0.00002555,-0.00002831,-0.00007759,
 -0.00000308,0.00010219,-0.00001700,-0.00008449,-0.00040267,-0.00036046
 ,0.00052003,0.00037124,0.00030335,-0.00067693,-0.00008838,0.00024370,0
 .00046280,0.00040576,0.00024700,-0.00008659,0.00010972,-0.00009029,-0.
 00026478,-0.00004018,0.00003109,0.00000386,0.00008981,-0.00004720,-0.0
 0011860,-0.00008798,0.00006031,0.00009091,-0.00011220,-0.00013548,-0.0
 0032479,-0.00053950,0.00017923,0.00032194,-0.00267372,-0.00903780,0.00
 622612,-0.03738330,-0.01663894,-0.02885458,-0.00004815,0.00019044,-0.0
 0007313,-0.00002699,-0.00005726,-0.00005351,0.00009831,0.00007298,-0.0
 0003263,-0.00006099,0.00000054,-0.00002632,0.00000601,0.00000093,-0.00
 000281,0.00002698,0.00009068,-0.00006804,-0.00005704,-0.00000355,-0.00
 002347,0.00002601,-0.00006649,0.00004289,-0.00004180,0.00000990,-0.000
 01475,0.00001650,-0.00001115,-0.00001039,0.00001144,0.00001272,0.00000
 989,0.00000450,0.00002175,0.00001156,-0.00003636,-0.00001091,0.0000001
 7,0.00002388,-0.00000025,-0.00001915,0.00008405,0.00007690,-0.00012565
 ,0.00008095,0.00014567,-0.00014560,0.00001436,0.00000177,0.00001034,0.
 00000397,0.00001905,0.00001685,0.00001539,0.00002929,0.00000545,0.0000
 0976,0.00004904,0.00004954,0.00007335,-0.00005378,-0.00013033,-0.00003
 247,0.00000132,-0.00001504,0.00000722,-0.00001532,-0.00000008,0.000012
 38,0.00000402,-0.00000483,0.00003048,0.00003231,0.00003710,-0.00004523
 ,0.00000886,-0.00001679,0.00000484,-0.00006488,-0.00008049,-0.00000173
 ,-0.00002276,-0.00000171,0.00001610,-0.00000259,-0.00001135,-0.0000251
 5,0.00001360,-0.00000026,-0.00000628,-0.00000230,-0.00000598,-0.000062
 14,0.00002066,-0.00003083,-0.00007128,-0.00015933,-0.00010934,-0.00000
 390,0.00006594,-0.00003777,0.00006442,-0.00008581,-0.00007201,0.000041
 39,-0.00010680,-0.00010014,0.00000897,-0.00000325,0.00000332,0.0000012
 8,-0.00000511,0.00000651,0.00000316,-0.00002920,0.00000998,-0.00000322
 ,-0.00001879,0.00000146,0.06089761,-0.00066800,0.04167308\\-0.00000212
 ,0.00000731,-0.00000231,-0.00000481,-0.00000636,0.00000367,0.00000526,
 0.00000450,-0.00000178,-0.00000110,-0.00000174,0.00000179,0.00000029,-
 0.00000238,0.00000136,0.00000155,-0.00000103,-0.00000167,0.00000090,0.
 00000022,0.00000112,0.00000073,0.00000101,0.00000057,-0.00000002,0.000
 00060,0.00000074,-0.00000131,-0.00000100,0.00000029,-0.00000242,0.0000
 0063,-0.00000121,-0.00000035,0.00000057,-0.00000096,-0.00000098,-0.000
 00025,0.00000091,-0.00000260,0.00000888,-0.00000533,-0.00000133,-0.000
 00343,0.00000230,0.00000083,0.00000155,-0.00000172,0.00000411,-0.00000
 065,-0.00000256,-0.00000429,-0.00000141,0.00000235,-0.00000395,0.00000
 710,-0.00000315,0.00000675,-0.00000991,0.00000304,0.00000278,0.0000024
 0,-0.00000529,0.00000348,0.00001071,0.00000883,-0.00001135,0.00000021,
 -0.00000024,0.00001086,-0.00001189,0.00000466,-0.00000212,-0.00000407,
 -0.00001007,0.00000644,0.00000097,0.00000827,-0.00000186,0.00000030,-0
 .00000027,-0.00000321,0.00000383,0.00000337,0.00000130,-0.00000110,-0.
 00000070,0.00000126,0.00000127,0.00000023,-0.00000158,0.00000213,-0.00
 000012,0.00000029,0.00000003,0.00000213,-0.00000001,-0.00000289,-0.000
 00245,0.00000011,-0.00000150,-0.00000118,0.00000081,0.00000256,-0.0000
 0127,-0.00000875,-0.00000276,-0.00000782,0.00000503,0.00000372,0.00000
 369,0.00000879,0.00000815,0.00001108,-0.00000256,-0.00000555,-0.000005
 74,0.00000059,0.00000344,0.00000321,-0.00000696,0.00000007,0.00000091,
 0.00000588,-0.00000158,-0.00000552,0.00000561,0.00000663,0.00000529,-0
 .00001027,-0.00000851,-0.00000822,0.00000348,0.00000409,0.00000004,-0.
 00000343,-0.00000985,-0.00000266,0.00000043,-0.00000100,0.00000110,0.0
 0000003,0.00000045,0.00000108,0.00000150,-0.00000052,0.00000036,0.0000
 0034,0.00000020,-0.00000176,-0.00000099,0.00000174,0.00000085,-0.00000
 079,0.00000099,0.00000086,0.00000021,-0.00000065,0.00000006,-0.0000001
 7,-0.00000091,0.00000128,0.00000098,0.00000033,0.00000096,0.00000080,-
 0.00000130,0.00000042,-0.00000016,-0.00000132,0.00000071,-0.00000051,0
 .00000097,0.00000009,0.00000075,-0.00000015,0.00000104,-0.00000016,-0.
 00000072,0.00000015,0.00000083,-0.00000004,0.00000055,-0.00000050,-0.0
 0000152,0.00000093,-0.00000100,-0.00000104,0.00000051,-0.00000184,-0.0
 0000108,0.00000066,0.00000219,-0.00000093,-0.00000139,0.00000150,-0.00
 000114,-0.00000072,0.00000056,-0.00000121,-0.00000111,-0.00000080,0.00
 000067,-0.00000013,0.00000030,-0.00000121,0.,-0.00000078,-0.00000106,0
 .00000062,0.00000054,-0.00000034,-0.00000017,-0.00000038,-0.00000030,0
 .00000080,0.00000175,0.00000174,0.00000025,-0.00000083,-0.00000001,0.0
 0000029,-0.00000027,-0.00000009,0.00000016,-0.00000058,0.00000061,-0.0
 0000071,0.00000123,0.00000013,0.00000042,0.00000021,-0.00000062,0.0000
 0136,-0.00000079,-0.00000154,-0.00000041,0.00000023,-0.00000057,-0.000
 00113,-0.00000148,-0.00000069,-0.00000076,-0.00000002,-0.00000033,-0.0
 0000196,0.00000072,-0.00000048,-0.00000155,0.00000165,-0.00000042,-0.0
 0000191,-0.00000290,0.00000049,0.00000010,-0.00000191,-0.00000065,-0.0
 0000115,0.00000037,0.00000849,0.00000164\\\@
 The archive entry for this job was punched.


 THE DIFFERENCE BETWEEN A NOOSE AND A HALO IS ONLY 12 INCHES.
 Job cpu time:       1 days 16 hours 37 minutes 33.6 seconds.
 Elapsed time:       0 days  1 hours 16 minutes 23.1 seconds.
 File lengths (MBytes):  RWF=  10689 Int=      0 D2E=      0 Chk=     68 Scr=      2
 Normal termination of Gaussian 16 at Fri Mar  8 04:50:20 2024.
