 Entering Gaussian System, Link 0=g16
 Initial command:
 /public/software/apps/Gaussian/g16/l1.exe "/public/home/LJQ_HG/tmp/Gau-5127.inp" -scrdir="/public/home/LJQ_HG/tmp/"
 Entering Link 1 = /public/software/apps/Gaussian/g16/l1.exe PID=      5128.
  
 Copyright (c) 1988-2019, Gaussian, Inc.  All Rights Reserved.
  
 This is part of the Gaussian(R) 16 program.  It is based on
 the Gaussian(R) 09 system (copyright 2009, Gaussian, Inc.),
 the Gaussian(R) 03 system (copyright 2003, Gaussian, Inc.),
 the Gaussian(R) 98 system (copyright 1998, Gaussian, Inc.),
 the Gaussian(R) 94 system (copyright 1995, Gaussian, Inc.),
 the Gaussian 92(TM) system (copyright 1992, Gaussian, Inc.),
 the Gaussian 90(TM) system (copyright 1990, Gaussian, Inc.),
 the Gaussian 88(TM) system (copyright 1988, Gaussian, Inc.),
 the Gaussian 86(TM) system (copyright 1986, Carnegie Mellon
 University), and the Gaussian 82(TM) system (copyright 1983,
 Carnegie Mellon University). Gaussian is a federally registered
 trademark of Gaussian, Inc.
  
 This software contains proprietary and confidential information,
 including trade secrets, belonging to Gaussian, Inc.
  
 This software is provided under written license and may be
 used, copied, transmitted, or stored only in accord with that
 written license.
  
 The following legend is applicable only to US Government
 contracts under FAR:
  
                    RESTRICTED RIGHTS LEGEND
  
 Use, reproduction and disclosure by the US Government is
 subject to restrictions as set forth in subparagraphs (a)
 and (c) of the Commercial Computer Software - Restricted
 Rights clause in FAR 52.227-19.
  
 Gaussian, Inc.
 340 Quinnipiac St., Bldg. 40, Wallingford CT 06492
  
  
 ---------------------------------------------------------------
 Warning -- This program may not be used in any manner that
 competes with the business of Gaussian, Inc. or will provide
 assistance to any competitor of Gaussian, Inc.  The licensee
 of this program is prohibited from giving any competitor of
 Gaussian, Inc. access to this program.  By using this program,
 the user acknowledges that Gaussian, Inc. is engaged in the
 business of creating and licensing software in the field of
 computational chemistry and represents and warrants to the
 licensee that it is not a competitor of Gaussian, Inc. and that
 it will not use this program in any manner prohibited above.
 ---------------------------------------------------------------
  

 Cite this work as:
 Gaussian 16, Revision C.01,
 M. J. Frisch, G. W. Trucks, H. B. Schlegel, G. E. Scuseria, 
 M. A. Robb, J. R. Cheeseman, G. Scalmani, V. Barone, 
 G. A. Petersson, H. Nakatsuji, X. Li, M. Caricato, A. V. Marenich, 
 J. Bloino, B. G. Janesko, R. Gomperts, B. Mennucci, H. P. Hratchian, 
 J. V. Ortiz, A. F. Izmaylov, J. L. Sonnenberg, D. Williams-Young, 
 F. Ding, F. Lipparini, F. Egidi, J. Goings, B. Peng, A. Petrone, 
 T. Henderson, D. Ranasinghe, V. G. Zakrzewski, J. Gao, N. Rega, 
 G. Zheng, W. Liang, M. Hada, M. Ehara, K. Toyota, R. Fukuda, 
 J. Hasegawa, M. Ishida, T. Nakajima, Y. Honda, O. Kitao, H. Nakai, 
 T. Vreven, K. Throssell, J. A. Montgomery, Jr., J. E. Peralta, 
 F. Ogliaro, M. J. Bearpark, J. J. Heyd, E. N. Brothers, K. N. Kudin, 
 V. N. Staroverov, T. A. Keith, R. Kobayashi, J. Normand, 
 K. Raghavachari, A. P. Rendell, J. C. Burant, S. S. Iyengar, 
 J. Tomasi, M. Cossi, J. M. Millam, M. Klene, C. Adamo, R. Cammi, 
 J. W. Ochterski, R. L. Martin, K. Morokuma, O. Farkas, 
 J. B. Foresman, and D. J. Fox, Gaussian, Inc., Wallingford CT, 2019.
 
 ******************************************
 Gaussian 16:  ES64L-G16RevC.01  3-Jul-2019
                 8-Mar-2024 
 ******************************************
 %nprocshared=32
 Will use up to   32 processors via shared memory.
 %mem=100GB
 ------------------------------------------
 #p opt freq b3lyp/def2svpp em=gd3bj nosymm
 ------------------------------------------
 1/18=20,19=15,26=3,38=1/1,3;
 2/9=110,12=2,15=1,17=6,18=5,40=1/2;
 3/5=43,7=202,11=2,25=1,30=1,71=1,74=-5,124=41/1,2,3;
 4//1;
 5/5=2,38=5/2;
 6/7=2,8=2,9=2,10=2,28=1/1;
 7/30=1/1,2,3,16;
 1/18=20,19=15,26=3/3(2);
 2/9=110,15=1/2;
 99//99;
 2/9=110,15=1/2;
 3/5=43,7=202,11=2,25=1,30=1,71=1,74=-5,124=41/1,2,3;
 4/5=5,16=3,69=1/1;
 5/5=2,38=5/2;
 7/30=1/1,2,3,16;
 1/18=20,19=15,26=3/3(-5);
 2/9=110,15=1/2;
 6/7=2,8=2,9=2,10=2,19=2,28=1/1;
 99/9=1/99;
 Leave Link    1 at Fri Mar  8 02:37:39 2024, MaxMem= 13421772800 cpu:               2.3 elap:               0.1
 (Enter /public/software/apps/Gaussian/g16/l101.exe)
 ------------------
 $$$$Title####0????
 ------------------
 Symbolic Z-matrix:
 Charge =  0 Multiplicity = 2
 O                    -0.62527   1.12302  -0.37857 
 C                    -1.2962    0.01171   0.12767 
 C                    -2.69115   0.05068   0.28251 
 C                    -3.46116   1.25111  -0.11428 
 C                    -4.05603   2.02234   0.89642 
 C                    -4.76583   3.18126   0.58305 
 C                    -4.89735   3.58848  -0.74375 
 C                    -4.32666   2.83015  -1.77569 
 C                    -4.47341   3.23728  -3.11116 
 C                    -3.92229   2.47643  -4.14327 
 C                    -3.22652   1.30243  -3.85429 
 C                    -3.06991   0.88341  -2.53094 
 C                    -3.60543   1.64469  -1.46998 
 C                    -3.3605   -1.04519   0.83774 
 C                    -2.65175  -2.18553   1.23584 
 C                    -3.33451  -3.27324   1.80352 
 C                    -2.63306  -4.40672   2.21647 
 C                    -1.24704  -4.46365   2.07245 
 C                    -0.55293  -3.39077   1.50861 
 C                    -1.24348  -2.24012   1.07069 
 C                    -0.56881  -1.13731   0.48735 
 C                     0.90064  -1.14824   0.25706 
 C                     1.70984  -0.30238   1.03691 
 O                     1.12339   0.52419   1.99294 
 C                     3.10233  -0.28211   0.85753 
 C                     3.95591   0.60931   1.67485 
 C                     4.81642   0.02417   2.61674 
 C                     5.6205    0.81687   3.43544 
 C                     5.5826    2.20616   3.32589 
 C                     4.74391   2.81825   2.38377 
 C                     4.71928   4.21713   2.26833 
 C                     3.8992    4.83052   1.32011 
 C                     3.10277   4.05634   0.47622 
 C                     3.11437   2.66321   0.57818 
 C                     3.92378   2.02164   1.54014 
 C                     3.69398  -1.12247  -0.09165 
 C                     2.90519  -1.95397  -0.89633 
 C                     3.50914  -2.76832  -1.86775 
 C                     2.72742  -3.58008  -2.69072 
 C                     1.33924  -3.58273  -2.557 
 C                     0.72296  -2.78056  -1.59398 
 C                     1.49495  -1.96381  -0.73967 
 H                    -3.95734   1.73066   1.93525 
 H                    -5.2129    3.76951   1.37407 
 H                    -5.45076   4.49373  -0.96414 
 H                    -5.01753   4.14169  -3.35663 
 H                    -4.04019   2.79476  -5.17104 
 H                    -2.80879   0.71204  -4.65966 
 H                    -2.53574  -0.03981  -2.34946 
 H                    -4.43739  -1.00465   0.96087 
 H                    -4.41025  -3.24512   1.93111 
 H                    -3.165    -5.24136   2.65464 
 H                    -0.70702  -5.34214   2.40153 
 H                     0.5229   -3.46891   1.42466 
 H                     4.85432  -1.05314   2.72623 
 H                     6.27382   0.35141   4.16217 
 H                     6.21392   2.80267   3.97387 
 H                     5.33705   4.83549   2.90886 
 H                     3.88564   5.90946   1.23492 
 H                     2.47539   4.5376   -0.26302 
 H                     2.49324   2.09804  -0.10397 
 H                     4.77129  -1.10876  -0.21697 
 H                     4.58535  -2.77243  -1.99441 
 H                     3.19876  -4.20381  -3.43929 
 H                     0.73708  -4.20764  -3.20393 
 H                    -0.3568   -2.80285  -1.52923 
 Cu                    0.07693   1.99923   1.23098 
 
 ITRead=  0  0  0  0  0  0  0  0  0  0  0  0  0  0  0  0  0  0  0  0
 ITRead=  0  0  0  0  0  0  0  0  0  0  0  0  0  0  0  0  0  0  0  0
 ITRead=  0  0  0  0  0  0  0  0  0  0  0  0  0  0  0  0  0  0  0  0
 ITRead=  0  0  0  0  0  0  0
 MicOpt= -1 -1 -1 -1 -1 -1 -1 -1 -1 -1 -1 -1 -1 -1 -1 -1 -1 -1 -1 -1
 MicOpt= -1 -1 -1 -1 -1 -1 -1 -1 -1 -1 -1 -1 -1 -1 -1 -1 -1 -1 -1 -1
 MicOpt= -1 -1 -1 -1 -1 -1 -1 -1 -1 -1 -1 -1 -1 -1 -1 -1 -1 -1 -1 -1
 MicOpt= -1 -1 -1 -1 -1 -1 -1
 NAtoms=     67 NQM=       67 NQMF=       0 NMMI=      0 NMMIF=      0
                NMic=       0 NMicF=      0.
                    Isotopes and Nuclear Properties:
 (Nuclear quadrupole moments (NQMom) in fm**2, nuclear magnetic moments (NMagM)
  in nuclear magnetons)

  Atom         1           2           3           4           5           6           7           8           9          10
 IAtWgt=          16          12          12          12          12          12          12          12          12          12
 AtmWgt=  15.9949146  12.0000000  12.0000000  12.0000000  12.0000000  12.0000000  12.0000000  12.0000000  12.0000000  12.0000000
 NucSpn=           0           0           0           0           0           0           0           0           0           0
 AtZEff=  -0.0000000  -0.0000000  -0.0000000  -0.0000000  -0.0000000  -0.0000000  -0.0000000  -0.0000000  -0.0000000  -0.0000000
 NQMom=    0.0000000   0.0000000   0.0000000   0.0000000   0.0000000   0.0000000   0.0000000   0.0000000   0.0000000   0.0000000
 NMagM=    0.0000000   0.0000000   0.0000000   0.0000000   0.0000000   0.0000000   0.0000000   0.0000000   0.0000000   0.0000000
 AtZNuc=   8.0000000   6.0000000   6.0000000   6.0000000   6.0000000   6.0000000   6.0000000   6.0000000   6.0000000   6.0000000

  Atom        11          12          13          14          15          16          17          18          19          20
 IAtWgt=          12          12          12          12          12          12          12          12          12          12
 AtmWgt=  12.0000000  12.0000000  12.0000000  12.0000000  12.0000000  12.0000000  12.0000000  12.0000000  12.0000000  12.0000000
 NucSpn=           0           0           0           0           0           0           0           0           0           0
 AtZEff=  -0.0000000  -0.0000000  -0.0000000  -0.0000000  -0.0000000  -0.0000000  -0.0000000  -0.0000000  -0.0000000  -0.0000000
 NQMom=    0.0000000   0.0000000   0.0000000   0.0000000   0.0000000   0.0000000   0.0000000   0.0000000   0.0000000   0.0000000
 NMagM=    0.0000000   0.0000000   0.0000000   0.0000000   0.0000000   0.0000000   0.0000000   0.0000000   0.0000000   0.0000000
 AtZNuc=   6.0000000   6.0000000   6.0000000   6.0000000   6.0000000   6.0000000   6.0000000   6.0000000   6.0000000   6.0000000

  Atom        21          22          23          24          25          26          27          28          29          30
 IAtWgt=          12          12          12          16          12          12          12          12          12          12
 AtmWgt=  12.0000000  12.0000000  12.0000000  15.9949146  12.0000000  12.0000000  12.0000000  12.0000000  12.0000000  12.0000000
 NucSpn=           0           0           0           0           0           0           0           0           0           0
 AtZEff=  -0.0000000  -0.0000000  -0.0000000  -0.0000000  -0.0000000  -0.0000000  -0.0000000  -0.0000000  -0.0000000  -0.0000000
 NQMom=    0.0000000   0.0000000   0.0000000   0.0000000   0.0000000   0.0000000   0.0000000   0.0000000   0.0000000   0.0000000
 NMagM=    0.0000000   0.0000000   0.0000000   0.0000000   0.0000000   0.0000000   0.0000000   0.0000000   0.0000000   0.0000000
 AtZNuc=   6.0000000   6.0000000   6.0000000   8.0000000   6.0000000   6.0000000   6.0000000   6.0000000   6.0000000   6.0000000

  Atom        31          32          33          34          35          36          37          38          39          40
 IAtWgt=          12          12          12          12          12          12          12          12          12          12
 AtmWgt=  12.0000000  12.0000000  12.0000000  12.0000000  12.0000000  12.0000000  12.0000000  12.0000000  12.0000000  12.0000000
 NucSpn=           0           0           0           0           0           0           0           0           0           0
 AtZEff=  -0.0000000  -0.0000000  -0.0000000  -0.0000000  -0.0000000  -0.0000000  -0.0000000  -0.0000000  -0.0000000  -0.0000000
 NQMom=    0.0000000   0.0000000   0.0000000   0.0000000   0.0000000   0.0000000   0.0000000   0.0000000   0.0000000   0.0000000
 NMagM=    0.0000000   0.0000000   0.0000000   0.0000000   0.0000000   0.0000000   0.0000000   0.0000000   0.0000000   0.0000000
 AtZNuc=   6.0000000   6.0000000   6.0000000   6.0000000   6.0000000   6.0000000   6.0000000   6.0000000   6.0000000   6.0000000

  Atom        41          42          43          44          45          46          47          48          49          50
 IAtWgt=          12          12           1           1           1           1           1           1           1           1
 AtmWgt=  12.0000000  12.0000000   1.0078250   1.0078250   1.0078250   1.0078250   1.0078250   1.0078250   1.0078250   1.0078250
 NucSpn=           0           0           1           1           1           1           1           1           1           1
 AtZEff=  -0.0000000  -0.0000000  -0.0000000  -0.0000000  -0.0000000  -0.0000000  -0.0000000  -0.0000000  -0.0000000  -0.0000000
 NQMom=    0.0000000   0.0000000   0.0000000   0.0000000   0.0000000   0.0000000   0.0000000   0.0000000   0.0000000   0.0000000
 NMagM=    0.0000000   0.0000000   2.7928460   2.7928460   2.7928460   2.7928460   2.7928460   2.7928460   2.7928460   2.7928460
 AtZNuc=   6.0000000   6.0000000   1.0000000   1.0000000   1.0000000   1.0000000   1.0000000   1.0000000   1.0000000   1.0000000

  Atom        51          52          53          54          55          56          57          58          59          60
 IAtWgt=           1           1           1           1           1           1           1           1           1           1
 AtmWgt=   1.0078250   1.0078250   1.0078250   1.0078250   1.0078250   1.0078250   1.0078250   1.0078250   1.0078250   1.0078250
 NucSpn=           1           1           1           1           1           1           1           1           1           1
 AtZEff=  -0.0000000  -0.0000000  -0.0000000  -0.0000000  -0.0000000  -0.0000000  -0.0000000  -0.0000000  -0.0000000  -0.0000000
 NQMom=    0.0000000   0.0000000   0.0000000   0.0000000   0.0000000   0.0000000   0.0000000   0.0000000   0.0000000   0.0000000
 NMagM=    2.7928460   2.7928460   2.7928460   2.7928460   2.7928460   2.7928460   2.7928460   2.7928460   2.7928460   2.7928460
 AtZNuc=   1.0000000   1.0000000   1.0000000   1.0000000   1.0000000   1.0000000   1.0000000   1.0000000   1.0000000   1.0000000

  Atom        61          62          63          64          65          66          67
 IAtWgt=           1           1           1           1           1           1          63
 AtmWgt=   1.0078250   1.0078250   1.0078250   1.0078250   1.0078250   1.0078250  62.9295992
 NucSpn=           1           1           1           1           1           1           3
 AtZEff=  -0.0000000  -0.0000000  -0.0000000  -0.0000000  -0.0000000  -0.0000000  -0.0000000
 NQMom=    0.0000000   0.0000000   0.0000000   0.0000000   0.0000000   0.0000000 -22.0000000
 NMagM=    2.7928460   2.7928460   2.7928460   2.7928460   2.7928460   2.7928460   2.2233000
 AtZNuc=   1.0000000   1.0000000   1.0000000   1.0000000   1.0000000   1.0000000  29.0000000
 Leave Link  101 at Fri Mar  8 02:37:40 2024, MaxMem= 13421772800 cpu:               4.3 elap:               0.1
 (Enter /public/software/apps/Gaussian/g16/l103.exe)

 GradGradGradGradGradGradGradGradGradGradGradGradGradGradGradGradGradGrad
 Berny optimization.
 Initialization pass.
                           ----------------------------
                           !    Initial Parameters    !
                           ! (Angstroms and Degrees)  !
 --------------------------                            --------------------------
 ! Name  Definition              Value          Derivative Info.                !
 --------------------------------------------------------------------------------
 ! R1    R(1,2)                  1.3934         estimate D2E/DX2                !
 ! R2    R(1,67)                 1.9625         estimate D2E/DX2                !
 ! R3    R(2,3)                  1.4041         estimate D2E/DX2                !
 ! R4    R(2,21)                 1.4067         estimate D2E/DX2                !
 ! R5    R(3,4)                  1.4803         estimate D2E/DX2                !
 ! R6    R(3,14)                 1.399          estimate D2E/DX2                !
 ! R7    R(4,5)                  1.4036         estimate D2E/DX2                !
 ! R8    R(4,13)                 1.419          estimate D2E/DX2                !
 ! R9    R(5,6)                  1.3947         estimate D2E/DX2                !
 ! R10   R(5,43)                 1.0835         estimate D2E/DX2                !
 ! R11   R(6,7)                  1.3941         estimate D2E/DX2                !
 ! R12   R(6,44)                 1.0824         estimate D2E/DX2                !
 ! R13   R(7,8)                  1.402          estimate D2E/DX2                !
 ! R14   R(7,45)                 1.0836         estimate D2E/DX2                !
 ! R15   R(8,9)                  1.4038         estimate D2E/DX2                !
 ! R16   R(8,13)                 1.4209         estimate D2E/DX2                !
 ! R17   R(9,10)                 1.3957         estimate D2E/DX2                !
 ! R18   R(9,46)                 1.0836         estimate D2E/DX2                !
 ! R19   R(10,11)                1.395          estimate D2E/DX2                !
 ! R20   R(10,47)                1.0824         estimate D2E/DX2                !
 ! R21   R(11,12)                1.3969         estimate D2E/DX2                !
 ! R22   R(11,48)                1.0824         estimate D2E/DX2                !
 ! R23   R(12,13)                1.4114         estimate D2E/DX2                !
 ! R24   R(12,49)                1.0819         estimate D2E/DX2                !
 ! R25   R(14,15)                1.4004         estimate D2E/DX2                !
 ! R26   R(14,50)                1.0847         estimate D2E/DX2                !
 ! R27   R(15,16)                1.4041         estimate D2E/DX2                !
 ! R28   R(15,20)                1.419          estimate D2E/DX2                !
 ! R29   R(16,17)                1.3955         estimate D2E/DX2                !
 ! R30   R(16,51)                1.0836         estimate D2E/DX2                !
 ! R31   R(17,18)                1.3946         estimate D2E/DX2                !
 ! R32   R(17,52)                1.0824         estimate D2E/DX2                !
 ! R33   R(18,19)                1.3967         estimate D2E/DX2                !
 ! R34   R(18,53)                1.0824         estimate D2E/DX2                !
 ! R35   R(19,20)                1.4116         estimate D2E/DX2                !
 ! R36   R(19,54)                1.0819         estimate D2E/DX2                !
 ! R37   R(20,21)                1.4183         estimate D2E/DX2                !
 ! R38   R(21,22)                1.4874         estimate D2E/DX2                !
 ! R39   R(22,23)                1.4066         estimate D2E/DX2                !
 ! R40   R(22,42)                1.4184         estimate D2E/DX2                !
 ! R41   R(23,24)                1.3932         estimate D2E/DX2                !
 ! R42   R(23,25)                1.4041         estimate D2E/DX2                !
 ! R43   R(24,67)                1.9625         estimate D2E/DX2                !
 ! R44   R(25,26)                1.4803         estimate D2E/DX2                !
 ! R45   R(25,36)                1.399          estimate D2E/DX2                !
 ! R46   R(26,27)                1.4036         estimate D2E/DX2                !
 ! R47   R(26,35)                1.4191         estimate D2E/DX2                !
 ! R48   R(27,28)                1.3947         estimate D2E/DX2                !
 ! R49   R(27,55)                1.0835         estimate D2E/DX2                !
 ! R50   R(28,29)                1.3941         estimate D2E/DX2                !
 ! R51   R(28,56)                1.0824         estimate D2E/DX2                !
 ! R52   R(29,30)                1.402          estimate D2E/DX2                !
 ! R53   R(29,57)                1.0836         estimate D2E/DX2                !
 ! R54   R(30,31)                1.4039         estimate D2E/DX2                !
 ! R55   R(30,35)                1.4209         estimate D2E/DX2                !
 ! R56   R(31,32)                1.3957         estimate D2E/DX2                !
 ! R57   R(31,58)                1.0836         estimate D2E/DX2                !
 ! R58   R(32,33)                1.3949         estimate D2E/DX2                !
 ! R59   R(32,59)                1.0824         estimate D2E/DX2                !
 ! R60   R(33,34)                1.3969         estimate D2E/DX2                !
 ! R61   R(33,60)                1.0824         estimate D2E/DX2                !
 ! R62   R(34,35)                1.4114         estimate D2E/DX2                !
 ! R63   R(34,61)                1.0819         estimate D2E/DX2                !
 ! R64   R(36,37)                1.4004         estimate D2E/DX2                !
 ! R65   R(36,62)                1.0847         estimate D2E/DX2                !
 ! R66   R(37,38)                1.4041         estimate D2E/DX2                !
 ! R67   R(37,42)                1.419          estimate D2E/DX2                !
 ! R68   R(38,39)                1.3955         estimate D2E/DX2                !
 ! R69   R(38,63)                1.0837         estimate D2E/DX2                !
 ! R70   R(39,40)                1.3946         estimate D2E/DX2                !
 ! R71   R(39,64)                1.0824         estimate D2E/DX2                !
 ! R72   R(40,41)                1.3967         estimate D2E/DX2                !
 ! R73   R(40,65)                1.0824         estimate D2E/DX2                !
 ! R74   R(41,42)                1.4117         estimate D2E/DX2                !
 ! R75   R(41,66)                1.0819         estimate D2E/DX2                !
 ! A1    A(2,1,67)             103.3211         estimate D2E/DX2                !
 ! A2    A(1,2,3)              119.757          estimate D2E/DX2                !
 ! A3    A(1,2,21)             119.6963         estimate D2E/DX2                !
 ! A4    A(3,2,21)             120.5455         estimate D2E/DX2                !
 ! A5    A(2,3,4)              120.646          estimate D2E/DX2                !
 ! A6    A(2,3,14)             119.8257         estimate D2E/DX2                !
 ! A7    A(4,3,14)             119.5195         estimate D2E/DX2                !
 ! A8    A(3,4,5)              118.2298         estimate D2E/DX2                !
 ! A9    A(3,4,13)             122.2681         estimate D2E/DX2                !
 ! A10   A(5,4,13)             119.5007         estimate D2E/DX2                !
 ! A11   A(4,5,6)              120.6957         estimate D2E/DX2                !
 ! A12   A(4,5,43)             120.2551         estimate D2E/DX2                !
 ! A13   A(6,5,43)             119.0438         estimate D2E/DX2                !
 ! A14   A(5,6,7)              120.3038         estimate D2E/DX2                !
 ! A15   A(5,6,44)             119.8415         estimate D2E/DX2                !
 ! A16   A(7,6,44)             119.8542         estimate D2E/DX2                !
 ! A17   A(6,7,8)              120.2719         estimate D2E/DX2                !
 ! A18   A(6,7,45)             119.0617         estimate D2E/DX2                !
 ! A19   A(8,7,45)             120.6653         estimate D2E/DX2                !
 ! A20   A(7,8,9)              120.0512         estimate D2E/DX2                !
 ! A21   A(7,8,13)             119.9682         estimate D2E/DX2                !
 ! A22   A(9,8,13)             119.9797         estimate D2E/DX2                !
 ! A23   A(8,9,10)             120.2727         estimate D2E/DX2                !
 ! A24   A(8,9,46)             120.6654         estimate D2E/DX2                !
 ! A25   A(10,9,46)            119.0615         estimate D2E/DX2                !
 ! A26   A(9,10,11)            120.1699         estimate D2E/DX2                !
 ! A27   A(9,10,47)            119.9246         estimate D2E/DX2                !
 ! A28   A(11,10,47)           119.9044         estimate D2E/DX2                !
 ! A29   A(10,11,12)           120.3063         estimate D2E/DX2                !
 ! A30   A(10,11,48)           119.8272         estimate D2E/DX2                !
 ! A31   A(12,11,48)           119.8662         estimate D2E/DX2                !
 ! A32   A(11,12,13)           120.5175         estimate D2E/DX2                !
 ! A33   A(11,12,49)           118.0479         estimate D2E/DX2                !
 ! A34   A(13,12,49)           121.4329         estimate D2E/DX2                !
 ! A35   A(4,13,8)             119.2461         estimate D2E/DX2                !
 ! A36   A(4,13,12)            122.0049         estimate D2E/DX2                !
 ! A37   A(8,13,12)            118.7426         estimate D2E/DX2                !
 ! A38   A(3,14,15)            120.5654         estimate D2E/DX2                !
 ! A39   A(3,14,50)            119.3925         estimate D2E/DX2                !
 ! A40   A(15,14,50)           120.0419         estimate D2E/DX2                !
 ! A41   A(14,15,16)           119.9757         estimate D2E/DX2                !
 ! A42   A(14,15,20)           120.035          estimate D2E/DX2                !
 ! A43   A(16,15,20)           119.9889         estimate D2E/DX2                !
 ! A44   A(15,16,17)           120.2945         estimate D2E/DX2                !
 ! A45   A(15,16,51)           120.6774         estimate D2E/DX2                !
 ! A46   A(17,16,51)           119.0277         estimate D2E/DX2                !
 ! A47   A(16,17,18)           120.1425         estimate D2E/DX2                !
 ! A48   A(16,17,52)           119.9401         estimate D2E/DX2                !
 ! A49   A(18,17,52)           119.9166         estimate D2E/DX2                !
 ! A50   A(17,18,19)           120.2798         estimate D2E/DX2                !
 ! A51   A(17,18,53)           119.838          estimate D2E/DX2                !
 ! A52   A(19,18,53)           119.882          estimate D2E/DX2                !
 ! A53   A(18,19,20)           120.5487         estimate D2E/DX2                !
 ! A54   A(18,19,54)           118.0354         estimate D2E/DX2                !
 ! A55   A(20,19,54)           121.4152         estimate D2E/DX2                !
 ! A56   A(15,20,19)           118.7356         estimate D2E/DX2                !
 ! A57   A(15,20,21)           119.3433         estimate D2E/DX2                !
 ! A58   A(19,20,21)           121.9172         estimate D2E/DX2                !
 ! A59   A(2,21,20)            119.6246         estimate D2E/DX2                !
 ! A60   A(2,21,22)            118.5071         estimate D2E/DX2                !
 ! A61   A(20,21,22)           121.8633         estimate D2E/DX2                !
 ! A62   A(21,22,23)           118.5605         estimate D2E/DX2                !
 ! A63   A(21,22,42)           121.8006         estimate D2E/DX2                !
 ! A64   A(23,22,42)           119.6261         estimate D2E/DX2                !
 ! A65   A(22,23,24)           119.6734         estimate D2E/DX2                !
 ! A66   A(22,23,25)           120.5555         estimate D2E/DX2                !
 ! A67   A(24,23,25)           119.7709         estimate D2E/DX2                !
 ! A68   A(23,24,67)           113.8249         estimate D2E/DX2                !
 ! A69   A(23,25,26)           120.6637         estimate D2E/DX2                !
 ! A70   A(23,25,36)           119.8283         estimate D2E/DX2                !
 ! A71   A(26,25,36)           119.504          estimate D2E/DX2                !
 ! A72   A(25,26,27)           118.229          estimate D2E/DX2                !
 ! A73   A(25,26,35)           122.266          estimate D2E/DX2                !
 ! A74   A(27,26,35)           119.504          estimate D2E/DX2                !
 ! A75   A(26,27,28)           120.6925         estimate D2E/DX2                !
 ! A76   A(26,27,55)           120.2486         estimate D2E/DX2                !
 ! A77   A(28,27,55)           119.0539         estimate D2E/DX2                !
 ! A78   A(27,28,29)           120.3046         estimate D2E/DX2                !
 ! A79   A(27,28,56)           119.8468         estimate D2E/DX2                !
 ! A80   A(29,28,56)           119.848          estimate D2E/DX2                !
 ! A81   A(28,29,30)           120.274          estimate D2E/DX2                !
 ! A82   A(28,29,57)           119.0606         estimate D2E/DX2                !
 ! A83   A(30,29,57)           120.6643         estimate D2E/DX2                !
 ! A84   A(29,30,31)           120.0519         estimate D2E/DX2                !
 ! A85   A(29,30,35)           119.9667         estimate D2E/DX2                !
 ! A86   A(31,30,35)           119.9805         estimate D2E/DX2                !
 ! A87   A(30,31,32)           120.2726         estimate D2E/DX2                !
 ! A88   A(30,31,58)           120.664          estimate D2E/DX2                !
 ! A89   A(32,31,58)           119.063          estimate D2E/DX2                !
 ! A90   A(31,32,33)           120.1707         estimate D2E/DX2                !
 ! A91   A(31,32,59)           119.9292         estimate D2E/DX2                !
 ! A92   A(33,32,59)           119.8989         estimate D2E/DX2                !
 ! A93   A(32,33,34)           120.3051         estimate D2E/DX2                !
 ! A94   A(32,33,60)           119.8225         estimate D2E/DX2                !
 ! A95   A(34,33,60)           119.8721         estimate D2E/DX2                !
 ! A96   A(33,34,35)           120.5198         estimate D2E/DX2                !
 ! A97   A(33,34,61)           118.046          estimate D2E/DX2                !
 ! A98   A(35,34,61)           121.4327         estimate D2E/DX2                !
 ! A99   A(26,35,30)           119.2443         estimate D2E/DX2                !
 ! A100  A(26,35,34)           122.0099         estimate D2E/DX2                !
 ! A101  A(30,35,34)           118.7395         estimate D2E/DX2                !
 ! A102  A(25,36,37)           120.552          estimate D2E/DX2                !
 ! A103  A(25,36,62)           119.3952         estimate D2E/DX2                !
 ! A104  A(37,36,62)           120.0373         estimate D2E/DX2                !
 ! A105  A(36,37,38)           119.9754         estimate D2E/DX2                !
 ! A106  A(36,37,42)           120.0318         estimate D2E/DX2                !
 ! A107  A(38,37,42)           119.9896         estimate D2E/DX2                !
 ! A108  A(37,38,39)           120.2939         estimate D2E/DX2                !
 ! A109  A(37,38,63)           120.6793         estimate D2E/DX2                !
 ! A110  A(39,38,63)           119.0257         estimate D2E/DX2                !
 ! A111  A(38,39,40)           120.1428         estimate D2E/DX2                !
 ! A112  A(38,39,64)           119.9432         estimate D2E/DX2                !
 ! A113  A(40,39,64)           119.9126         estimate D2E/DX2                !
 ! A114  A(39,40,41)           120.2807         estimate D2E/DX2                !
 ! A115  A(39,40,65)           119.837          estimate D2E/DX2                !
 ! A116  A(41,40,65)           119.8822         estimate D2E/DX2                !
 ! A117  A(40,41,42)           120.5484         estimate D2E/DX2                !
 ! A118  A(40,41,66)           118.0212         estimate D2E/DX2                !
 ! A119  A(42,41,66)           121.4298         estimate D2E/DX2                !
 ! A120  A(22,42,37)           119.3426         estimate D2E/DX2                !
 ! A121  A(22,42,41)           121.9243         estimate D2E/DX2                !
 ! A122  A(37,42,41)           118.7306         estimate D2E/DX2                !
 ! A123  A(1,67,24)            100.0001         estimate D2E/DX2                !
 ! D1    D(67,1,2,3)            99.4215         estimate D2E/DX2                !
 ! D2    D(67,1,2,21)          -80.179          estimate D2E/DX2                !
 ! D3    D(2,1,67,24)           56.8676         estimate D2E/DX2                !
 ! D4    D(1,2,3,4)              1.3294         estimate D2E/DX2                !
 ! D5    D(1,2,3,14)          -177.586          estimate D2E/DX2                !
 ! D6    D(21,2,3,4)          -179.0736         estimate D2E/DX2                !
 ! D7    D(21,2,3,14)            2.011          estimate D2E/DX2                !
 ! D8    D(1,2,21,20)          176.5511         estimate D2E/DX2                !
 ! D9    D(1,2,21,22)           -2.652          estimate D2E/DX2                !
 ! D10   D(3,2,21,20)           -3.0462         estimate D2E/DX2                !
 ! D11   D(3,2,21,22)          177.7507         estimate D2E/DX2                !
 ! D12   D(2,3,4,5)           -111.241          estimate D2E/DX2                !
 ! D13   D(2,3,4,13)            68.316          estimate D2E/DX2                !
 ! D14   D(14,3,4,5)            67.6776         estimate D2E/DX2                !
 ! D15   D(14,3,4,13)         -112.7654         estimate D2E/DX2                !
 ! D16   D(2,3,14,15)           -0.2914         estimate D2E/DX2                !
 ! D17   D(2,3,14,50)          179.5519         estimate D2E/DX2                !
 ! D18   D(4,3,14,15)         -179.219          estimate D2E/DX2                !
 ! D19   D(4,3,14,50)            0.6243         estimate D2E/DX2                !
 ! D20   D(3,4,5,6)            178.4495         estimate D2E/DX2                !
 ! D21   D(3,4,5,43)            -0.7014         estimate D2E/DX2                !
 ! D22   D(13,4,5,6)            -1.1201         estimate D2E/DX2                !
 ! D23   D(13,4,5,43)          179.729          estimate D2E/DX2                !
 ! D24   D(3,4,13,8)          -178.2092         estimate D2E/DX2                !
 ! D25   D(3,4,13,12)            2.7241         estimate D2E/DX2                !
 ! D26   D(5,4,13,8)             1.3424         estimate D2E/DX2                !
 ! D27   D(5,4,13,12)         -177.7244         estimate D2E/DX2                !
 ! D28   D(4,5,6,7)              0.1752         estimate D2E/DX2                !
 ! D29   D(4,5,6,44)          -179.5548         estimate D2E/DX2                !
 ! D30   D(43,5,6,7)           179.3362         estimate D2E/DX2                !
 ! D31   D(43,5,6,44)           -0.3938         estimate D2E/DX2                !
 ! D32   D(5,6,7,8)              0.541          estimate D2E/DX2                !
 ! D33   D(5,6,7,45)          -179.8281         estimate D2E/DX2                !
 ! D34   D(44,6,7,8)          -179.729          estimate D2E/DX2                !
 ! D35   D(44,6,7,45)           -0.0981         estimate D2E/DX2                !
 ! D36   D(6,7,8,9)            179.3587         estimate D2E/DX2                !
 ! D37   D(6,7,8,13)            -0.2975         estimate D2E/DX2                !
 ! D38   D(45,7,8,9)            -0.2663         estimate D2E/DX2                !
 ! D39   D(45,7,8,13)         -179.9225         estimate D2E/DX2                !
 ! D40   D(7,8,9,10)          -179.1529         estimate D2E/DX2                !
 ! D41   D(7,8,9,46)             0.6097         estimate D2E/DX2                !
 ! D42   D(13,8,9,10)            0.5032         estimate D2E/DX2                !
 ! D43   D(13,8,9,46)         -179.7342         estimate D2E/DX2                !
 ! D44   D(7,8,13,4)            -0.6446         estimate D2E/DX2                !
 ! D45   D(7,8,13,12)          178.4528         estimate D2E/DX2                !
 ! D46   D(9,8,13,4)           179.699          estimate D2E/DX2                !
 ! D47   D(9,8,13,12)           -1.2036         estimate D2E/DX2                !
 ! D48   D(8,9,10,11)            0.2807         estimate D2E/DX2                !
 ! D49   D(8,9,10,47)          179.9033         estimate D2E/DX2                !
 ! D50   D(46,9,10,11)        -179.4857         estimate D2E/DX2                !
 ! D51   D(46,9,10,47)           0.1369         estimate D2E/DX2                !
 ! D52   D(9,10,11,12)          -0.3456         estimate D2E/DX2                !
 ! D53   D(9,10,11,48)         179.466          estimate D2E/DX2                !
 ! D54   D(47,10,11,12)       -179.9682         estimate D2E/DX2                !
 ! D55   D(47,10,11,48)         -0.1566         estimate D2E/DX2                !
 ! D56   D(10,11,12,13)         -0.3811         estimate D2E/DX2                !
 ! D57   D(10,11,12,49)        179.1613         estimate D2E/DX2                !
 ! D58   D(48,11,12,13)        179.8074         estimate D2E/DX2                !
 ! D59   D(48,11,12,49)         -0.6502         estimate D2E/DX2                !
 ! D60   D(11,12,13,4)        -179.7829         estimate D2E/DX2                !
 ! D61   D(11,12,13,8)           1.1458         estimate D2E/DX2                !
 ! D62   D(49,12,13,4)           0.6904         estimate D2E/DX2                !
 ! D63   D(49,12,13,8)        -178.3809         estimate D2E/DX2                !
 ! D64   D(3,14,15,16)         179.3873         estimate D2E/DX2                !
 ! D65   D(3,14,15,20)          -0.362          estimate D2E/DX2                !
 ! D66   D(50,14,15,16)         -0.455          estimate D2E/DX2                !
 ! D67   D(50,14,15,20)        179.7958         estimate D2E/DX2                !
 ! D68   D(14,15,16,17)       -179.2726         estimate D2E/DX2                !
 ! D69   D(14,15,16,51)          0.5026         estimate D2E/DX2                !
 ! D70   D(20,15,16,17)          0.4767         estimate D2E/DX2                !
 ! D71   D(20,15,16,51)       -179.7481         estimate D2E/DX2                !
 ! D72   D(14,15,20,19)        178.6117         estimate D2E/DX2                !
 ! D73   D(14,15,20,21)         -0.678          estimate D2E/DX2                !
 ! D74   D(16,15,20,19)         -1.1375         estimate D2E/DX2                !
 ! D75   D(16,15,20,21)        179.5728         estimate D2E/DX2                !
 ! D76   D(15,16,17,18)          0.2599         estimate D2E/DX2                !
 ! D77   D(15,16,17,52)        179.914          estimate D2E/DX2                !
 ! D78   D(51,16,17,18)       -179.5189         estimate D2E/DX2                !
 ! D79   D(51,16,17,52)          0.1352         estimate D2E/DX2                !
 ! D80   D(16,17,18,19)         -0.3171         estimate D2E/DX2                !
 ! D81   D(16,17,18,53)        179.5229         estimate D2E/DX2                !
 ! D82   D(52,17,18,19)       -179.9712         estimate D2E/DX2                !
 ! D83   D(52,17,18,53)         -0.1312         estimate D2E/DX2                !
 ! D84   D(17,18,19,20)         -0.3686         estimate D2E/DX2                !
 ! D85   D(17,18,19,54)        179.3096         estimate D2E/DX2                !
 ! D86   D(53,18,19,20)        179.7915         estimate D2E/DX2                !
 ! D87   D(53,18,19,54)         -0.5304         estimate D2E/DX2                !
 ! D88   D(18,19,20,15)          1.0871         estimate D2E/DX2                !
 ! D89   D(18,19,20,21)       -179.6423         estimate D2E/DX2                !
 ! D90   D(54,19,20,15)       -178.5801         estimate D2E/DX2                !
 ! D91   D(54,19,20,21)          0.6905         estimate D2E/DX2                !
 ! D92   D(15,20,21,2)           2.3625         estimate D2E/DX2                !
 ! D93   D(15,20,21,22)       -178.462          estimate D2E/DX2                !
 ! D94   D(19,20,21,2)        -176.9037         estimate D2E/DX2                !
 ! D95   D(19,20,21,22)          2.2718         estimate D2E/DX2                !
 ! D96   D(2,21,22,23)          68.7183         estimate D2E/DX2                !
 ! D97   D(2,21,22,42)        -109.9776         estimate D2E/DX2                !
 ! D98   D(20,21,22,23)       -110.4661         estimate D2E/DX2                !
 ! D99   D(20,21,22,42)         70.838          estimate D2E/DX2                !
 ! D100  D(21,22,23,24)         -0.3538         estimate D2E/DX2                !
 ! D101  D(21,22,23,25)        179.7985         estimate D2E/DX2                !
 ! D102  D(42,22,23,24)        178.3712         estimate D2E/DX2                !
 ! D103  D(42,22,23,25)         -1.4764         estimate D2E/DX2                !
 ! D104  D(21,22,42,37)       -178.7157         estimate D2E/DX2                !
 ! D105  D(21,22,42,41)          1.8782         estimate D2E/DX2                !
 ! D106  D(23,22,42,37)          2.6019         estimate D2E/DX2                !
 ! D107  D(23,22,42,41)       -176.8042         estimate D2E/DX2                !
 ! D108  D(22,23,24,67)        -70.1406         estimate D2E/DX2                !
 ! D109  D(25,23,24,67)        109.7083         estimate D2E/DX2                !
 ! D110  D(22,23,25,26)        179.8644         estimate D2E/DX2                !
 ! D111  D(22,23,25,36)         -0.8681         estimate D2E/DX2                !
 ! D112  D(24,23,25,26)          0.0169         estimate D2E/DX2                !
 ! D113  D(24,23,25,36)        179.2843         estimate D2E/DX2                !
 ! D114  D(23,24,67,1)          33.9643         estimate D2E/DX2                !
 ! D115  D(23,25,26,27)        111.2775         estimate D2E/DX2                !
 ! D116  D(23,25,26,35)        -68.3605         estimate D2E/DX2                !
 ! D117  D(36,25,26,27)        -67.9923         estimate D2E/DX2                !
 ! D118  D(36,25,26,35)        112.3697         estimate D2E/DX2                !
 ! D119  D(23,25,36,37)          2.0805         estimate D2E/DX2                !
 ! D120  D(23,25,36,62)       -179.3481         estimate D2E/DX2                !
 ! D121  D(26,25,36,37)       -178.6435         estimate D2E/DX2                !
 ! D122  D(26,25,36,62)         -0.0722         estimate D2E/DX2                !
 ! D123  D(25,26,27,28)       -178.5113         estimate D2E/DX2                !
 ! D124  D(25,26,27,55)          0.659          estimate D2E/DX2                !
 ! D125  D(35,26,27,28)          1.1369         estimate D2E/DX2                !
 ! D126  D(35,26,27,55)       -179.6928         estimate D2E/DX2                !
 ! D127  D(25,26,35,30)        178.265          estimate D2E/DX2                !
 ! D128  D(25,26,35,34)         -2.6631         estimate D2E/DX2                !
 ! D129  D(27,26,35,30)         -1.3685         estimate D2E/DX2                !
 ! D130  D(27,26,35,34)        177.7034         estimate D2E/DX2                !
 ! D131  D(26,27,28,29)         -0.1808         estimate D2E/DX2                !
 ! D132  D(26,27,28,56)        179.5549         estimate D2E/DX2                !
 ! D133  D(55,27,28,29)       -179.3609         estimate D2E/DX2                !
 ! D134  D(55,27,28,56)          0.3749         estimate D2E/DX2                !
 ! D135  D(27,28,29,30)         -0.5371         estimate D2E/DX2                !
 ! D136  D(27,28,29,57)        179.8393         estimate D2E/DX2                !
 ! D137  D(56,28,29,30)        179.7272         estimate D2E/DX2                !
 ! D138  D(56,28,29,57)          0.1036         estimate D2E/DX2                !
 ! D139  D(28,29,30,31)       -179.3666         estimate D2E/DX2                !
 ! D140  D(28,29,30,35)          0.2839         estimate D2E/DX2                !
 ! D141  D(57,29,30,31)          0.2509         estimate D2E/DX2                !
 ! D142  D(57,29,30,35)        179.9015         estimate D2E/DX2                !
 ! D143  D(29,30,31,32)        179.158          estimate D2E/DX2                !
 ! D144  D(29,30,31,58)         -0.6077         estimate D2E/DX2                !
 ! D145  D(35,30,31,32)         -0.4925         estimate D2E/DX2                !
 ! D146  D(35,30,31,58)        179.7419         estimate D2E/DX2                !
 ! D147  D(29,30,35,26)          0.6692         estimate D2E/DX2                !
 ! D148  D(29,30,35,34)       -178.4333         estimate D2E/DX2                !
 ! D149  D(31,30,35,26)       -179.68           estimate D2E/DX2                !
 ! D150  D(31,30,35,34)          1.2175         estimate D2E/DX2                !
 ! D151  D(30,31,32,33)         -0.2962         estimate D2E/DX2                !
 ! D152  D(30,31,32,59)       -179.911          estimate D2E/DX2                !
 ! D153  D(58,31,32,33)        179.4732         estimate D2E/DX2                !
 ! D154  D(58,31,32,59)         -0.1416         estimate D2E/DX2                !
 ! D155  D(31,32,33,34)          0.3407         estimate D2E/DX2                !
 ! D156  D(31,32,33,60)       -179.4643         estimate D2E/DX2                !
 ! D157  D(59,32,33,34)        179.9556         estimate D2E/DX2                !
 ! D158  D(59,32,33,60)          0.1506         estimate D2E/DX2                !
 ! D159  D(32,33,34,35)          0.4112         estimate D2E/DX2                !
 ! D160  D(32,33,34,61)       -179.1411         estimate D2E/DX2                !
 ! D161  D(60,33,34,35)       -179.7839         estimate D2E/DX2                !
 ! D162  D(60,33,34,61)          0.6637         estimate D2E/DX2                !
 ! D163  D(33,34,35,26)        179.7435         estimate D2E/DX2                !
 ! D164  D(33,34,35,30)         -1.1801         estimate D2E/DX2                !
 ! D165  D(61,34,35,26)         -0.7196         estimate D2E/DX2                !
 ! D166  D(61,34,35,30)        178.3569         estimate D2E/DX2                !
 ! D167  D(25,36,37,38)        178.4321         estimate D2E/DX2                !
 ! D168  D(25,36,37,42)         -0.9284         estimate D2E/DX2                !
 ! D169  D(62,36,37,38)         -0.1301         estimate D2E/DX2                !
 ! D170  D(62,36,37,42)       -179.4906         estimate D2E/DX2                !
 ! D171  D(36,37,38,39)       -178.7553         estimate D2E/DX2                !
 ! D172  D(36,37,38,63)          0.8748         estimate D2E/DX2                !
 ! D173  D(42,37,38,39)          0.6055         estimate D2E/DX2                !
 ! D174  D(42,37,38,63)       -179.7644         estimate D2E/DX2                !
 ! D175  D(36,37,42,22)         -1.4181         estimate D2E/DX2                !
 ! D176  D(36,37,42,41)        178.007          estimate D2E/DX2                !
 ! D177  D(38,37,42,22)        179.2215         estimate D2E/DX2                !
 ! D178  D(38,37,42,41)         -1.3534         estimate D2E/DX2                !
 ! D179  D(37,38,39,40)          0.2892         estimate D2E/DX2                !
 ! D180  D(37,38,39,64)        179.8527         estimate D2E/DX2                !
 ! D181  D(63,38,39,40)       -179.347          estimate D2E/DX2                !
 ! D182  D(63,38,39,64)          0.2164         estimate D2E/DX2                !
 ! D183  D(38,39,40,41)         -0.4141         estimate D2E/DX2                !
 ! D184  D(38,39,40,65)        179.4526         estimate D2E/DX2                !
 ! D185  D(64,39,40,41)       -179.9777         estimate D2E/DX2                !
 ! D186  D(64,39,40,65)         -0.1109         estimate D2E/DX2                !
 ! D187  D(39,40,41,42)         -0.3629         estimate D2E/DX2                !
 ! D188  D(39,40,41,66)        179.3437         estimate D2E/DX2                !
 ! D189  D(65,40,41,42)        179.7704         estimate D2E/DX2                !
 ! D190  D(65,40,41,66)         -0.523          estimate D2E/DX2                !
 ! D191  D(40,41,42,22)       -179.3537         estimate D2E/DX2                !
 ! D192  D(40,41,42,37)          1.2368         estimate D2E/DX2                !
 ! D193  D(66,41,42,22)          0.9499         estimate D2E/DX2                !
 ! D194  D(66,41,42,37)       -178.4597         estimate D2E/DX2                !
 --------------------------------------------------------------------------------
 Trust Radius=3.00D-01 FncErr=1.00D-07 GrdErr=1.00D-06 EigMax=2.50D+02 EigMin=1.00D-04
 Number of steps in this run=    402 maximum allowed number of steps=    402.
 GradGradGradGradGradGradGradGradGradGradGradGradGradGradGradGradGradGrad

 Leave Link  103 at Fri Mar  8 02:37:40 2024, MaxMem= 13421772800 cpu:               0.6 elap:               0.0
 (Enter /public/software/apps/Gaussian/g16/l202.exe)
 Symmetry turned off by external request.
 Stoichiometry    C40H24CuO2(2)
 Framework group  C1[X(C40H24CuO2)]
 Deg. of freedom   195
 Full point group                 C1      NOp   1
                          Input orientation:                          
 ---------------------------------------------------------------------
 Center     Atomic      Atomic             Coordinates (Angstroms)
 Number     Number       Type             X           Y           Z
 ---------------------------------------------------------------------
      1          8           0       -0.625273    1.123022   -0.378572
      2          6           0       -1.296198    0.011707    0.127666
      3          6           0       -2.691154    0.050682    0.282511
      4          6           0       -3.461156    1.251106   -0.114276
      5          6           0       -4.056035    2.022340    0.896422
      6          6           0       -4.765830    3.181260    0.583052
      7          6           0       -4.897353    3.588483   -0.743752
      8          6           0       -4.326660    2.830150   -1.775685
      9          6           0       -4.473414    3.237279   -3.111159
     10          6           0       -3.922292    2.476433   -4.143265
     11          6           0       -3.226522    1.302430   -3.854286
     12          6           0       -3.069913    0.883407   -2.530940
     13          6           0       -3.605429    1.644691   -1.469975
     14          6           0       -3.360502   -1.045191    0.837735
     15          6           0       -2.651753   -2.185527    1.235835
     16          6           0       -3.334507   -3.273239    1.803524
     17          6           0       -2.633057   -4.406725    2.216468
     18          6           0       -1.247040   -4.463654    2.072454
     19          6           0       -0.552926   -3.390773    1.508611
     20          6           0       -1.243479   -2.240124    1.070695
     21          6           0       -0.568807   -1.137313    0.487345
     22          6           0        0.900636   -1.148244    0.257056
     23          6           0        1.709842   -0.302378    1.036913
     24          8           0        1.123387    0.524193    1.992937
     25          6           0        3.102333   -0.282107    0.857525
     26          6           0        3.955907    0.609309    1.674851
     27          6           0        4.816423    0.024167    2.616744
     28          6           0        5.620498    0.816869    3.435444
     29          6           0        5.582595    2.206159    3.325892
     30          6           0        4.743907    2.818248    2.383772
     31          6           0        4.719281    4.217133    2.268330
     32          6           0        3.899201    4.830524    1.320111
     33          6           0        3.102771    4.056336    0.476220
     34          6           0        3.114373    2.663213    0.578179
     35          6           0        3.923778    2.021645    1.540139
     36          6           0        3.693976   -1.122472   -0.091654
     37          6           0        2.905192   -1.953973   -0.896334
     38          6           0        3.509136   -2.768321   -1.867746
     39          6           0        2.727420   -3.580083   -2.690723
     40          6           0        1.339239   -3.582732   -2.557000
     41          6           0        0.722963   -2.780558   -1.593984
     42          6           0        1.494948   -1.963813   -0.739673
     43          1           0       -3.957340    1.730662    1.935251
     44          1           0       -5.212900    3.769513    1.374069
     45          1           0       -5.450760    4.493726   -0.964143
     46          1           0       -5.017529    4.141688   -3.356628
     47          1           0       -4.040191    2.794762   -5.171044
     48          1           0       -2.808790    0.712039   -4.659658
     49          1           0       -2.535742   -0.039814   -2.349461
     50          1           0       -4.437388   -1.004652    0.960865
     51          1           0       -4.410251   -3.245118    1.931109
     52          1           0       -3.164997   -5.241355    2.654637
     53          1           0       -0.707018   -5.342136    2.401532
     54          1           0        0.522901   -3.468905    1.424662
     55          1           0        4.854317   -1.053139    2.726230
     56          1           0        6.273820    0.351409    4.162172
     57          1           0        6.213919    2.802670    3.973874
     58          1           0        5.337049    4.835493    2.908861
     59          1           0        3.885642    5.909464    1.234923
     60          1           0        2.475394    4.537597   -0.263015
     61          1           0        2.493237    2.098041   -0.103965
     62          1           0        4.771293   -1.108761   -0.216969
     63          1           0        4.585353   -2.772429   -1.994406
     64          1           0        3.198758   -4.203807   -3.439287
     65          1           0        0.737081   -4.207642   -3.203927
     66          1           0       -0.356795   -2.802849   -1.529229
     67         29           0        0.076931    1.999228    1.230981
 ---------------------------------------------------------------------
 Rotational constants (GHZ):           0.0968875           0.0629848           0.0496813
 Leave Link  202 at Fri Mar  8 02:37:40 2024, MaxMem= 13421772800 cpu:               1.4 elap:               0.1
 (Enter /public/software/apps/Gaussian/g16/l301.exe)
 Standard basis: def2SVPP (5D, 7F)
 Ernie: Thresh=  0.10000D-02 Tol=  0.10000D-05 Strict=F.
   660 basis functions,  1217 primitive gaussians,   704 cartesian basis functions
   155 alpha electrons      154 beta electrons
       nuclear repulsion energy      5376.6988243320 Hartrees.
 IExCor=  402 DFT=T Ex+Corr=B3LYP ExCW=0 ScaHFX=  0.200000
 ScaDFX=  0.800000  0.720000  1.000000  0.810000 ScalE2=  1.000000  1.000000
 IRadAn=      5 IRanWt=     -1 IRanGd=            0 ICorTp=0 IEmpDi=141
 NAtoms=   67 NActive=   67 NUniq=   67 SFac= 1.00D+00 NAtFMM=   60 NAOKFM=T Big=T
 Integral buffers will be    131072 words long.
 Raffenetti 2 integral format.
 Two-electron integral symmetry is turned off.
 R6Disp:  Grimme-D3(BJ) Dispersion energy=       -0.1984272613 Hartrees.
 Nuclear repulsion after empirical dispersion term =     5376.5003970707 Hartrees.
 Leave Link  301 at Fri Mar  8 02:37:40 2024, MaxMem= 13421772800 cpu:               1.8 elap:               0.1
 (Enter /public/software/apps/Gaussian/g16/l302.exe)
 NPDir=0 NMtPBC=     1 NCelOv=     1 NCel=       1 NClECP=     1 NCelD=      1
         NCelK=      1 NCelE2=     1 NClLst=     1 CellRange=     0.0.
 One-electron integrals computed using PRISM.
   1 Symmetry operations used in ECPInt.
 ECPInt:  NShTT=   48205 NPrTT=  198164 LenC2=   40183 LenP2D=  101861.
 LDataN:  DoStor=T MaxTD1= 4 Len=   56
 NBasis=   660 RedAO= T EigKep=  1.60D-04  NBF=   660
 NBsUse=   660 1.00D-06 EigRej= -1.00D+00 NBFU=   660
 Precomputing XC quadrature grid using
 IXCGrd= 4 IRadAn=           5 IRanWt=          -1 IRanGd=           0 AccXCQ= 0.00D+00.
 Generated NRdTot=       0 NPtTot=           0 NUsed=           0 NTot=          32
 NSgBfM=   686   686   686   686   686 MxSgAt=    67 MxSgA2=    67.
 Leave Link  302 at Fri Mar  8 02:37:41 2024, MaxMem= 13421772800 cpu:              26.9 elap:               0.9
 (Enter /public/software/apps/Gaussian/g16/l303.exe)
 DipDrv:  MaxL=1.
 Leave Link  303 at Fri Mar  8 02:37:41 2024, MaxMem= 13421772800 cpu:               3.2 elap:               0.1
 (Enter /public/software/apps/Gaussian/g16/l401.exe)
 ExpMin= 3.30D-02 ExpMax= 7.64D+04 ExpMxC= 1.15D+04 IAcc=3 IRadAn=         5 AccDes= 0.00D+00
 Harris functional with IExCor=  402 and IRadAn=       5 diagonalized for initial guess.
 HarFok:  IExCor=  402 AccDes= 0.00D+00 IRadAn=         5 IDoV= 1 UseB2=F ITyADJ=14
 ICtDFT=  3500011 ScaDFX=  1.000000  1.000000  1.000000  1.000000
 FoFCou: FMM=F IPFlag=           0 FMFlag=      100000 FMFlg1=        2001
         NFxFlg=           0 DoJE=T BraDBF=F KetDBF=T FulRan=T
         wScrn=  0.000000 ICntrl=       500 IOpCl=  0 I1Cent=   200000004 NGrid=           0
         NMat0=    1 NMatS0=      1 NMatT0=    0 NMatD0=    1 NMtDS0=    0 NMtDT0=    0
 Symmetry not used in FoFCou.
 Harris En= -3328.74689533191    
 JPrj=0 DoOrth=F DoCkMO=F.
 Initial guess <Sx>= 0.0000 <Sy>= 0.0000 <Sz>= 0.5000 <S**2>= 0.7500 S= 0.5000
 Leave Link  401 at Fri Mar  8 02:37:43 2024, MaxMem= 13421772800 cpu:              65.8 elap:               2.1
 (Enter /public/software/apps/Gaussian/g16/l502.exe)
 Two-electron integral symmetry not used.
 UHF open shell SCF:
 Using DIIS extrapolation, IDIIS=  1040.
 NGot= 13421772800 LenX= 13420751870 LenY= 13420255550
 Requested convergence on RMS density matrix=1.00D-08 within 128 cycles.
 Requested convergence on MAX density matrix=1.00D-06.
 Requested convergence on             energy=1.00D-06.
 No special actions if energy rises.
 Fock matrices will be formed incrementally for  20 cycles.

 Cycle   1  Pass 1  IDiag  1:
 FoFJK:  IHMeth= 1 ICntrl=       0 DoSepK=F KAlg= 0 I1Cent=           0 FoldK=F
 IRaf= 990000000 NMat=       1 IRICut=       1 DoRegI=T DoRafI=F ISym2E= 0 IDoP0=0 IntGTp=1.
 FoFCou: FMM=T IPFlag=           0 FMFlag=      100000 FMFlg1=        2001
         NFxFlg=           0 DoJE=F BraDBF=F KetDBF=F FulRan=T
         wScrn=  0.000000 ICntrl=         0 IOpCl=  1 I1Cent=           0 NGrid=           0
         NMat0=    1 NMatS0=      1 NMatT0=    0 NMatD0=    1 NMtDS0=    0 NMtDT0=    0
 Symmetry not used in FoFCou.
 FMM levels:  10  Number of levels for PrismC:   9
 E= -3294.41454625160    
 DIIS: error= 3.29D-01 at cycle   1 NSaved=   1.
 NSaved= 1 IEnMin= 1 EnMin= -3294.41454625160     IErMin= 1 ErrMin= 3.29D-01
 ErrMax= 3.29D-01  0.00D+00 EMaxC= 1.00D-01 BMatC= 7.49D+01 BMatP= 7.49D+01
 IDIUse=3 WtCom= 0.00D+00 WtEn= 1.00D+00
 Coeff-Com:  0.100D+01
 Coeff-En:   0.100D+01
 Coeff:      0.100D+01
 Gap=    -1.282 Goal=   None    Shift=    0.000
 Gap=    -4.888 Goal=   None    Shift=    0.000
 GapD=   -4.888 DampG=0.250 DampE=0.125 DampFc=0.1250 IDamp=-1.
 Damping current iteration by 1.25D-01
 RMSDP=3.33D-01 MaxDP=6.38D+01              OVMax= 9.94D-01

 Cycle   2  Pass 1  IDiag  1:
 RMSU=  4.12D-02    CP:  1.31D+00
 E= -3305.71092590832     Delta-E=      -11.296379656724 Rises=F Damp=T
 DIIS: error= 2.31D-01 at cycle   2 NSaved=   2.
 NSaved= 2 IEnMin= 2 EnMin= -3305.71092590832     IErMin= 2 ErrMin= 2.31D-01
 ErrMax= 2.31D-01  0.00D+00 EMaxC= 1.00D-01 BMatC= 3.10D+01 BMatP= 7.49D+01
 IDIUse=3 WtCom= 0.00D+00 WtEn= 1.00D+00
 Coeff-Com: -0.109D+01 0.209D+01
 Coeff-En:   0.000D+00 0.100D+01
 Coeff:      0.000D+00 0.100D+01
 Gap=     0.243 Goal=   None    Shift=    0.000
 Gap=    -0.372 Goal=   None    Shift=    0.000
 RMSDP=4.03D-02 MaxDP=7.08D+00 DE=-1.13D+01 OVMax= 9.48D-01

 Cycle   3  Pass 1  IDiag  1:
 RMSU=  3.54D-02    CP:  1.02D+00  5.53D-01
 E= -3238.12965479593     Delta-E=       67.581271112387 Rises=F Damp=F
 DIIS: error= 1.28D-01 at cycle   3 NSaved=   3.
 NSaved= 3 IEnMin= 2 EnMin= -3305.71092590832     IErMin= 3 ErrMin= 1.28D-01
 ErrMax= 1.28D-01  0.00D+00 EMaxC= 1.00D-01 BMatC= 9.58D+01 BMatP= 3.10D+01
 IDIUse=2 WtCom= 0.00D+00 WtEn= 1.00D+00
 EnCoef did    31 forward-backward iterations
 Coeff-En:   0.360D+00 0.348D+00 0.292D+00
 Coeff:      0.360D+00 0.348D+00 0.292D+00
 Gap=    -0.147 Goal=   None    Shift=    0.000
 Gap=    -0.258 Goal=   None    Shift=    0.000
 RMSDP=1.19D-01 MaxDP=2.50D+01 DE= 6.76D+01 OVMax= 9.90D-01

 Cycle   4  Pass 1  IDiag  1:
 RMSU=  1.14D-01    CP:  1.34D+00  2.18D-01  1.22D-01
 E= -3148.78256279145     Delta-E=       89.347092004486 Rises=F Damp=F
 DIIS: error= 2.04D-01 at cycle   4 NSaved=   4.
 NSaved= 4 IEnMin= 2 EnMin= -3305.71092590832     IErMin= 3 ErrMin= 1.28D-01
 ErrMax= 2.04D-01  0.00D+00 EMaxC= 1.00D-01 BMatC= 3.30D+02 BMatP= 3.10D+01
 IDIUse=2 WtCom= 0.00D+00 WtEn= 1.00D+00
 EnCoef did   100 forward-backward iterations
 Coeff-En:   0.542D+00 0.360D-01 0.317D+00 0.105D+00
 Coeff:      0.542D+00 0.360D-01 0.317D+00 0.105D+00
 Gap=     0.046 Goal=   None    Shift=    0.000
 Gap=    -0.112 Goal=   None    Shift=    0.000
 RMSDP=1.14D-01 MaxDP=2.52D+01 DE= 8.93D+01 OVMax= 9.70D-01

 Cycle   5  Pass 1  IDiag  1:
 RMSU=  7.61D-03    CP:  8.93D-01  2.98D-02  1.09D-01  3.98D-03
 E= -3322.64317085020     Delta-E=     -173.860608058749 Rises=F Damp=F
 DIIS: error= 2.01D-01 at cycle   5 NSaved=   5.
 NSaved= 5 IEnMin= 5 EnMin= -3322.64317085020     IErMin= 3 ErrMin= 1.28D-01
 ErrMax= 2.01D-01  0.00D+00 EMaxC= 1.00D-01 BMatC= 1.89D+01 BMatP= 3.10D+01
 IDIUse=3 WtCom= 0.00D+00 WtEn= 1.00D+00
 EnCoef did   100 forward-backward iterations
 Coeff-Com: -0.289D+00 0.751D+00 0.994D-01 0.142D-01 0.424D+00
 Coeff-En:   0.221D+00 0.612D-02 0.000D+00 0.000D+00 0.772D+00
 Coeff:      0.221D+00 0.612D-02 0.000D+00 0.000D+00 0.772D+00
 Gap=     0.371 Goal=   None    Shift=    0.000
 Gap=     0.210 Goal=   None    Shift=    0.000
 RMSDP=5.13D-02 MaxDP=1.42D+01 DE=-1.74D+02 OVMax= 9.71D-01

 Cycle   6  Pass 1  IDiag  1:
 RMSU=  5.09D-02    CP:  9.40D-01  1.44D-02  6.61D-02  2.06D-03  1.07D-01
 E= -3277.60164966170     Delta-E=       45.041521188499 Rises=F Damp=F
 DIIS: error= 1.23D-01 at cycle   6 NSaved=   6.
 NSaved= 6 IEnMin= 5 EnMin= -3322.64317085020     IErMin= 6 ErrMin= 1.23D-01
 ErrMax= 1.23D-01  0.00D+00 EMaxC= 1.00D-01 BMatC= 1.10D+02 BMatP= 1.89D+01
 IDIUse=2 WtCom= 0.00D+00 WtEn= 1.00D+00
 EnCoef did   100 forward-backward iterations
 Coeff-En:   0.194D+00 0.285D-02 0.000D+00 0.000D+00 0.722D+00 0.808D-01
 Coeff:      0.194D+00 0.285D-02 0.000D+00 0.000D+00 0.722D+00 0.808D-01
 Gap=    -0.267 Goal=   None    Shift=    0.000
 Gap=    -0.150 Goal=   None    Shift=    0.000
 RMSDP=5.03D-02 MaxDP=1.41D+01 DE= 4.50D+01 OVMax= 8.72D-01

 Cycle   7  Pass 1  IDiag  1:
 RMSU=  5.40D-03    CP:  8.77D-01  3.20D-03  4.81D-02  8.26D-05  3.15D-01
                    CP:  1.68D-02
 E= -3324.67220772594     Delta-E=      -47.070558064243 Rises=F Damp=F
 DIIS: error= 4.23D-02 at cycle   7 NSaved=   7.
 NSaved= 7 IEnMin= 7 EnMin= -3324.67220772594     IErMin= 7 ErrMin= 4.23D-02
 ErrMax= 4.23D-02  0.00D+00 EMaxC= 1.00D-01 BMatC= 1.02D+01 BMatP= 1.89D+01
 IDIUse=3 WtCom= 5.77D-01 WtEn= 4.23D-01
 EnCoef did   100 forward-backward iterations
 Coeff-Com: -0.204D+00 0.450D+00-0.232D-01 0.682D-02 0.279D+00 0.701D-02
 Coeff-Com:  0.485D+00
 Coeff-En:   0.124D+00 0.291D-02 0.000D+00 0.000D+00 0.414D+00 0.000D+00
 Coeff-En:   0.459D+00
 Coeff:     -0.651D-01 0.260D+00-0.134D-01 0.393D-02 0.336D+00 0.404D-02
 Coeff:      0.474D+00
 Gap=     0.001 Goal=   None    Shift=    0.000
 Gap=     0.084 Goal=   None    Shift=    0.000
 RMSDP=6.08D-03 MaxDP=1.02D+00 DE=-4.71D+01 OVMax= 8.00D-01

 Cycle   8  Pass 1  IDiag  1:
 RMSU=  4.50D-03    CP:  8.79D-01 -1.38D-03  2.05D-02  1.19D-03  4.55D-01
                    CP:  3.70D-03  3.02D-01
 E= -3325.50222414187     Delta-E=       -0.830016415935 Rises=F Damp=F
 DIIS: error= 8.38D-02 at cycle   8 NSaved=   8.
 NSaved= 8 IEnMin= 8 EnMin= -3325.50222414187     IErMin= 7 ErrMin= 4.23D-02
 ErrMax= 8.38D-02  0.00D+00 EMaxC= 1.00D-01 BMatC= 9.48D+00 BMatP= 1.02D+01
 IDIUse=3 WtCom= 5.77D-01 WtEn= 4.23D-01
 EnCoef did   100 forward-backward iterations
 Coeff-Com: -0.277D+00 0.523D+00-0.100D-01 0.162D-03 0.110D+00-0.745D-02
 Coeff-Com:  0.363D+00 0.298D+00
 Coeff-En:   0.797D-01 0.105D-02 0.000D+00 0.000D+00 0.259D+00 0.000D+00
 Coeff-En:   0.357D+00 0.303D+00
 Coeff:     -0.126D+00 0.302D+00-0.578D-02 0.936D-04 0.173D+00-0.430D-02
 Coeff:      0.361D+00 0.300D+00
 Gap=    -0.285 Goal=   None    Shift=    0.000
 Gap=     0.091 Goal=   None    Shift=    0.000
 RMSDP=3.78D-03 MaxDP=3.79D-01 DE=-8.30D-01 OVMax= 5.27D-01

 Cycle   9  Pass 1  IDiag  1:
 RMSU=  2.68D-03    CP:  8.68D-01 -7.02D-03  1.99D-02  2.53D-04  4.47D-01
                    CP:  3.53D-03  3.69D-01  4.17D-01
 E= -3327.84118723474     Delta-E=       -2.338963092865 Rises=F Damp=F
 DIIS: error= 6.47D-02 at cycle   9 NSaved=   9.
 NSaved= 9 IEnMin= 9 EnMin= -3327.84118723474     IErMin= 7 ErrMin= 4.23D-02
 ErrMax= 6.47D-02  0.00D+00 EMaxC= 1.00D-01 BMatC= 2.81D+00 BMatP= 9.48D+00
 IDIUse=3 WtCom= 5.77D-01 WtEn= 4.23D-01
 EnCoef did     2 forward-backward iterations
 Coeff-Com: -0.202D+00 0.372D+00-0.472D-02-0.222D-02-0.826D-01-0.409D-02
 Coeff-Com:  0.179D+00 0.263D+00 0.483D+00
 Coeff-En:   0.244D-01 0.000D+00 0.000D+00 0.000D+00 0.000D+00 0.000D+00
 Coeff-En:   0.000D+00 0.169D+00 0.806D+00
 Coeff:     -0.106D+00 0.214D+00-0.272D-02-0.128D-02-0.476D-01-0.236D-02
 Coeff:      0.103D+00 0.223D+00 0.620D+00
 Gap=     0.157 Goal=   None    Shift=    0.000
 Gap=     0.038 Goal=   None    Shift=    0.000
 RMSDP=2.65D-03 MaxDP=3.77D-01 DE=-2.34D+00 OVMax= 9.03D-01

 Cycle  10  Pass 1  IDiag  1:
 RMSU=  2.15D-03    CP:  8.67D-01 -5.86D-03  2.04D-02 -9.44D-04  3.81D-01
                    CP:  4.89D-03  4.86D-01  4.38D-01  5.08D-01
 E= -3327.94898340354     Delta-E=       -0.107796168802 Rises=F Damp=F
 DIIS: error= 3.03D-02 at cycle  10 NSaved=  10.
 NSaved=10 IEnMin=10 EnMin= -3327.94898340354     IErMin=10 ErrMin= 3.03D-02
 ErrMax= 3.03D-02  0.00D+00 EMaxC= 1.00D-01 BMatC= 1.92D+00 BMatP= 2.81D+00
 IDIUse=3 WtCom= 6.97D-01 WtEn= 3.03D-01
 EnCoef did     2 forward-backward iterations
 Coeff-Com: -0.935D-01 0.180D+00 0.129D-02-0.162D-02-0.137D+00-0.299D-02
 Coeff-Com:  0.177D-02 0.583D-01 0.514D+00 0.480D+00
 Coeff-En:   0.753D-02 0.000D+00 0.000D+00 0.000D+00 0.000D+00 0.000D+00
 Coeff-En:   0.000D+00 0.000D+00 0.463D+00 0.530D+00
 Coeff:     -0.628D-01 0.125D+00 0.899D-03-0.113D-02-0.953D-01-0.209D-02
 Coeff:      0.124D-02 0.406D-01 0.498D+00 0.495D+00
 Gap=     0.253 Goal=   None    Shift=    0.000
 Gap=    -0.020 Goal=   None    Shift=    0.000
 RMSDP=2.30D-03 MaxDP=2.99D-01 DE=-1.08D-01 OVMax= 7.24D-01

 Cycle  11  Pass 1  IDiag  1:
 RMSU=  1.21D-03    CP:  8.70D-01 -4.33D-03  1.70D-02 -3.84D-04  4.11D-01
                    CP:  3.72D-03  4.24D-01  4.67D-01  8.23D-01  2.09D-01
 E= -3328.25786818520     Delta-E=       -0.308884781662 Rises=F Damp=F
 DIIS: error= 1.44D-02 at cycle  11 NSaved=  11.
 NSaved=11 IEnMin=11 EnMin= -3328.25786818520     IErMin=11 ErrMin= 1.44D-02
 ErrMax= 1.44D-02  0.00D+00 EMaxC= 1.00D-01 BMatC= 7.46D-01 BMatP= 1.92D+00
 IDIUse=3 WtCom= 8.56D-01 WtEn= 1.44D-01
 Coeff-Com: -0.314D-01 0.686D-01-0.186D-02 0.240D-03-0.545D-01-0.742D-03
 Coeff-Com: -0.436D-02-0.514D-01 0.463D-01 0.416D+00 0.614D+00
 Coeff-En:   0.000D+00 0.000D+00 0.000D+00 0.000D+00 0.000D+00 0.000D+00
 Coeff-En:   0.000D+00 0.000D+00 0.000D+00 0.320D+00 0.680D+00
 Coeff:     -0.269D-01 0.587D-01-0.159D-02 0.205D-03-0.466D-01-0.635D-03
 Coeff:     -0.373D-02-0.440D-01 0.396D-01 0.402D+00 0.623D+00
 Gap=     0.169 Goal=   None    Shift=    0.000
 Gap=     0.086 Goal=   None    Shift=    0.000
 RMSDP=1.28D-03 MaxDP=1.31D-01 DE=-3.09D-01 OVMax= 1.94D-01

 Cycle  12  Pass 1  IDiag  1:
 RMSU=  9.70D-04    CP:  8.68D-01 -7.09D-03  1.76D-02 -7.21D-04  3.89D-01
                    CP:  4.10D-03  4.50D-01  3.91D-01  7.72D-01  4.62D-01
                    CP:  6.40D-01
 E= -3328.36693019172     Delta-E=       -0.109062006519 Rises=F Damp=F
 DIIS: error= 2.20D-02 at cycle  12 NSaved=  12.
 NSaved=12 IEnMin=12 EnMin= -3328.36693019172     IErMin=11 ErrMin= 1.44D-02
 ErrMax= 2.20D-02  0.00D+00 EMaxC= 1.00D-01 BMatC= 3.12D-01 BMatP= 7.46D-01
 IDIUse=3 WtCom= 8.56D-01 WtEn= 1.44D-01
 EnCoef did     5 forward-backward iterations
 Coeff-Com: -0.222D-02 0.142D-01-0.344D-02 0.476D-03-0.210D-01-0.917D-03
 Coeff-Com: -0.705D-02-0.284D-01-0.226D+00 0.146D+00 0.510D+00 0.618D+00
 Coeff-En:   0.000D+00 0.000D+00 0.000D+00 0.000D+00 0.000D+00 0.000D+00
 Coeff-En:   0.000D+00 0.000D+00 0.000D+00 0.117D+00 0.250D+00 0.633D+00
 Coeff:     -0.190D-02 0.121D-01-0.294D-02 0.407D-03-0.180D-01-0.785D-03
 Coeff:     -0.603D-02-0.243D-01-0.193D+00 0.142D+00 0.472D+00 0.620D+00
 Gap=     0.129 Goal=   None    Shift=    0.000
 Gap=     0.014 Goal=   None    Shift=    0.000
 RMSDP=9.04D-04 MaxDP=7.26D-02 DE=-1.09D-01 OVMax= 3.38D-01

 Cycle  13  Pass 1  IDiag  1:
 RMSU=  6.91D-04    CP:  8.71D-01 -3.69D-03  1.64D-02 -8.20D-04  3.90D-01
                    CP:  4.39D-03  4.58D-01  4.22D-01  6.73D-01  5.47D-01
                    CP:  9.52D-01  7.72D-01
 E= -3328.42962545832     Delta-E=       -0.062695266601 Rises=F Damp=F
 DIIS: error= 5.24D-03 at cycle  13 NSaved=  13.
 NSaved=13 IEnMin=13 EnMin= -3328.42962545832     IErMin=13 ErrMin= 5.24D-03
 ErrMax= 5.24D-03  0.00D+00 EMaxC= 1.00D-01 BMatC= 4.59D-02 BMatP= 3.12D-01
 IDIUse=3 WtCom= 9.48D-01 WtEn= 5.24D-02
 Coeff-Com: -0.584D-02 0.114D-01-0.567D-03 0.356D-03-0.437D-02-0.509D-03
 Coeff-Com: -0.285D-02-0.959D-03-0.108D+00 0.161D-01 0.174D+00 0.388D+00
 Coeff-Com:  0.533D+00
 Coeff-En:   0.000D+00 0.000D+00 0.000D+00 0.000D+00 0.000D+00 0.000D+00
 Coeff-En:   0.000D+00 0.000D+00 0.000D+00 0.000D+00 0.000D+00 0.141D+00
 Coeff-En:   0.859D+00
 Coeff:     -0.554D-02 0.108D-01-0.537D-03 0.337D-03-0.414D-02-0.482D-03
 Coeff:     -0.270D-02-0.908D-03-0.102D+00 0.152D-01 0.165D+00 0.375D+00
 Coeff:      0.550D+00
 Gap=     0.121 Goal=   None    Shift=    0.000
 Gap=     0.028 Goal=   None    Shift=    0.000
 RMSDP=3.50D-04 MaxDP=3.01D-02 DE=-6.27D-02 OVMax= 4.70D-02

 Cycle  14  Pass 1  IDiag  1:
 RMSU=  2.93D-04    CP:  8.70D-01 -5.09D-03  1.71D-02 -7.68D-04  3.88D-01
                    CP:  4.23D-03  4.53D-01  4.17D-01  6.77D-01  5.44D-01
                    CP:  8.79D-01  7.68D-01  7.80D-01
 E= -3328.43977095090     Delta-E=       -0.010145492573 Rises=F Damp=F
 DIIS: error= 1.19D-03 at cycle  14 NSaved=  14.
 NSaved=14 IEnMin=14 EnMin= -3328.43977095090     IErMin=14 ErrMin= 1.19D-03
 ErrMax= 1.19D-03  0.00D+00 EMaxC= 1.00D-01 BMatC= 7.87D-03 BMatP= 4.59D-02
 IDIUse=3 WtCom= 9.88D-01 WtEn= 1.19D-02
 Coeff-Com: -0.474D-02 0.738D-02 0.253D-03 0.255D-04-0.105D-02-0.290D-03
 Coeff-Com: -0.108D-02-0.294D-02-0.187D-01 0.492D-02 0.448D-01 0.127D+00
 Coeff-Com:  0.323D+00 0.522D+00
 Coeff-En:   0.000D+00 0.000D+00 0.000D+00 0.000D+00 0.000D+00 0.000D+00
 Coeff-En:   0.000D+00 0.000D+00 0.000D+00 0.000D+00 0.000D+00 0.000D+00
 Coeff-En:   0.801D-01 0.920D+00
 Coeff:     -0.468D-02 0.729D-02 0.250D-03 0.252D-04-0.104D-02-0.287D-03
 Coeff:     -0.107D-02-0.291D-02-0.185D-01 0.486D-02 0.443D-01 0.125D+00
 Coeff:      0.320D+00 0.526D+00
 Gap=     0.121 Goal=   None    Shift=    0.000
 Gap=     0.034 Goal=   None    Shift=    0.000
 RMSDP=1.99D-04 MaxDP=1.60D-02 DE=-1.01D-02 OVMax= 9.62D-02

 Cycle  15  Pass 1  IDiag  1:
 RMSU=  1.52D-04    CP:  8.70D-01 -5.01D-03  1.72D-02 -7.82D-04  3.89D-01
                    CP:  4.20D-03  4.53D-01  4.13D-01  6.74D-01  5.47D-01
                    CP:  8.40D-01  7.00D-01  9.21D-01  1.03D+00
 E= -3328.44164835117     Delta-E=       -0.001877400273 Rises=F Damp=F
 DIIS: error= 3.76D-03 at cycle  15 NSaved=  15.
 NSaved=15 IEnMin=15 EnMin= -3328.44164835117     IErMin=14 ErrMin= 1.19D-03
 ErrMax= 3.76D-03  0.00D+00 EMaxC= 1.00D-01 BMatC= 7.77D-03 BMatP= 7.87D-03
 IDIUse=3 WtCom= 9.88D-01 WtEn= 1.19D-02
 Coeff-Com: -0.471D-02 0.678D-02 0.174D-03 0.736D-04 0.532D-03-0.100D-03
 Coeff-Com:  0.133D-02-0.500D-02 0.406D-02 0.132D-01 0.348D-01 0.581D-01
 Coeff-Com:  0.130D+00 0.346D+00 0.415D+00
 Coeff-En:   0.000D+00 0.000D+00 0.000D+00 0.000D+00 0.000D+00 0.000D+00
 Coeff-En:   0.000D+00 0.000D+00 0.000D+00 0.000D+00 0.000D+00 0.000D+00
 Coeff-En:   0.000D+00 0.147D+00 0.853D+00
 Coeff:     -0.465D-02 0.670D-02 0.172D-03 0.727D-04 0.526D-03-0.993D-04
 Coeff:      0.131D-02-0.494D-02 0.401D-02 0.131D-01 0.344D-01 0.574D-01
 Coeff:      0.129D+00 0.344D+00 0.420D+00
 Gap=     0.118 Goal=   None    Shift=    0.000
 Gap=     0.036 Goal=   None    Shift=    0.000
 RMSDP=1.06D-04 MaxDP=8.95D-03 DE=-1.88D-03 OVMax= 4.75D-02

 Cycle  16  Pass 1  IDiag  1:
 RMSU=  6.68D-05    CP:  8.70D-01 -5.24D-03  1.75D-02 -7.61D-04  3.89D-01
                    CP:  4.21D-03  4.52D-01  4.10D-01  6.75D-01  5.41D-01
                    CP:  8.12D-01  6.60D-01  9.20D-01  1.21D+00  1.17D+00
 E= -3328.44306608749     Delta-E=       -0.001417736323 Rises=F Damp=F
 DIIS: error= 2.67D-03 at cycle  16 NSaved=  16.
 NSaved=16 IEnMin=16 EnMin= -3328.44306608749     IErMin=14 ErrMin= 1.19D-03
 ErrMax= 2.67D-03  0.00D+00 EMaxC= 1.00D-01 BMatC= 3.74D-03 BMatP= 7.77D-03
 IDIUse=3 WtCom= 9.88D-01 WtEn= 1.19D-02
 Coeff-Com: -0.248D-02 0.329D-02 0.162D-03 0.111D-04 0.756D-03-0.141D-03
 Coeff-Com:  0.129D-02-0.400D-02 0.142D-02 0.127D-01 0.408D-01 0.558D-01
 Coeff-Com: -0.134D-01 0.206D-01 0.255D-01 0.858D+00
 Coeff-En:   0.000D+00 0.000D+00 0.000D+00 0.000D+00 0.000D+00 0.000D+00
 Coeff-En:   0.000D+00 0.000D+00 0.000D+00 0.000D+00 0.000D+00 0.000D+00
 Coeff-En:   0.000D+00 0.000D+00 0.000D+00 0.100D+01
 Coeff:     -0.245D-02 0.325D-02 0.160D-03 0.110D-04 0.747D-03-0.140D-03
 Coeff:      0.128D-02-0.395D-02 0.140D-02 0.126D-01 0.403D-01 0.551D-01
 Coeff:     -0.133D-01 0.204D-01 0.252D-01 0.859D+00
 Gap=     0.118 Goal=   None    Shift=    0.000
 Gap=     0.038 Goal=   None    Shift=    0.000
 RMSDP=1.23D-04 MaxDP=1.14D-02 DE=-1.42D-03 OVMax= 6.64D-02

 Cycle  17  Pass 1  IDiag  1:
 RMSU=  3.95D-05    CP:  8.70D-01 -5.42D-03  1.77D-02 -7.43D-04  3.89D-01
                    CP:  4.19D-03  4.52D-01  4.07D-01  6.75D-01  5.35D-01
                    CP:  7.75D-01  6.19D-01  9.29D-01  1.38D+00  1.66D+00
                    CP:  1.55D+00
 E= -3328.44390034215     Delta-E=       -0.000834254663 Rises=F Damp=F
 DIIS: error= 2.50D-03 at cycle  17 NSaved=  17.
 NSaved=17 IEnMin=17 EnMin= -3328.44390034215     IErMin=14 ErrMin= 1.19D-03
 ErrMax= 2.50D-03  0.00D+00 EMaxC= 1.00D-01 BMatC= 2.95D-03 BMatP= 3.74D-03
 IDIUse=3 WtCom= 9.88D-01 WtEn= 1.19D-02
 Coeff-Com:  0.238D-03-0.756D-03 0.765D-04-0.190D-04 0.802D-03-0.148D-03
 Coeff-Com:  0.793D-03-0.163D-02-0.576D-02 0.826D-02 0.421D-01 0.629D-01
 Coeff-Com: -0.608D-01-0.172D+00-0.401D+00 0.662D+00 0.865D+00
 Coeff-En:   0.000D+00 0.000D+00 0.000D+00 0.000D+00 0.000D+00 0.000D+00
 Coeff-En:   0.000D+00 0.000D+00 0.000D+00 0.000D+00 0.000D+00 0.000D+00
 Coeff-En:   0.000D+00 0.000D+00 0.000D+00 0.000D+00 0.100D+01
 Coeff:      0.236D-03-0.747D-03 0.756D-04-0.188D-04 0.792D-03-0.146D-03
 Coeff:      0.784D-03-0.161D-02-0.569D-02 0.816D-02 0.416D-01 0.621D-01
 Coeff:     -0.600D-01-0.170D+00-0.396D+00 0.654D+00 0.867D+00
 Gap=     0.118 Goal=   None    Shift=    0.000
 Gap=     0.040 Goal=   None    Shift=    0.000
 RMSDP=1.43D-04 MaxDP=1.33D-02 DE=-8.34D-04 OVMax= 7.43D-02

 Cycle  18  Pass 1  IDiag  1:
 RMSU=  3.52D-05    CP:  8.70D-01 -5.57D-03  1.80D-02 -7.29D-04  3.90D-01
                    CP:  4.17D-03  4.52D-01  4.03D-01  6.78D-01  5.25D-01
                    CP:  7.33D-01  5.66D-01  9.19D-01  1.55D+00  2.16D+00
                    CP:  2.49D+00  1.70D+00
 E= -3328.44482146828     Delta-E=       -0.000921126124 Rises=F Damp=F
 DIIS: error= 1.96D-03 at cycle  18 NSaved=  18.
 NSaved=18 IEnMin=18 EnMin= -3328.44482146828     IErMin=14 ErrMin= 1.19D-03
 ErrMax= 1.96D-03  0.00D+00 EMaxC= 1.00D-01 BMatC= 1.39D-03 BMatP= 2.95D-03
 IDIUse=3 WtCom= 9.88D-01 WtEn= 1.19D-02
 Coeff-Com:  0.672D-03-0.112D-02-0.169D-05-0.159D-04 0.474D-03 0.338D-04
 Coeff-Com:  0.243D-03 0.514D-03-0.311D-02 0.575D-02 0.242D-01 0.416D-01
 Coeff-Com:  0.355D-01 0.497D-02-0.231D+00-0.276D+00 0.369D+00 0.103D+01
 Coeff-En:   0.000D+00 0.000D+00 0.000D+00 0.000D+00 0.000D+00 0.000D+00
 Coeff-En:   0.000D+00 0.000D+00 0.000D+00 0.000D+00 0.000D+00 0.000D+00
 Coeff-En:   0.000D+00 0.000D+00 0.000D+00 0.000D+00 0.000D+00 0.100D+01
 Coeff:      0.664D-03-0.111D-02-0.167D-05-0.157D-04 0.468D-03 0.334D-04
 Coeff:      0.240D-03 0.507D-03-0.307D-02 0.568D-02 0.239D-01 0.411D-01
 Coeff:      0.351D-01 0.491D-02-0.228D+00-0.272D+00 0.365D+00 0.103D+01
 Gap=     0.120 Goal=   None    Shift=    0.000
 Gap=     0.041 Goal=   None    Shift=    0.000
 RMSDP=9.92D-05 MaxDP=5.43D-03 DE=-9.21D-04 OVMax= 4.92D-02

 Cycle  19  Pass 1  IDiag  1:
 RMSU=  2.59D-05    CP:  8.69D-01 -5.67D-03  1.81D-02 -7.14D-04  3.91D-01
                    CP:  4.13D-03  4.51D-01  4.02D-01  6.79D-01  5.15D-01
                    CP:  7.06D-01  5.30D-01  9.05D-01  1.62D+00  2.51D+00
                    CP:  3.00D+00  2.63D+00  1.44D+00
 E= -3328.44525829827     Delta-E=       -0.000436829992 Rises=F Damp=F
 DIIS: error= 1.14D-03 at cycle  19 NSaved=  19.
 NSaved=19 IEnMin=19 EnMin= -3328.44525829827     IErMin=19 ErrMin= 1.14D-03
 ErrMax= 1.14D-03  0.00D+00 EMaxC= 1.00D-01 BMatC= 4.85D-04 BMatP= 1.39D-03
 IDIUse=3 WtCom= 9.89D-01 WtEn= 1.14D-02
 Coeff-Com:  0.880D-03-0.144D-02-0.505D-04 0.297D-04 0.574D-03 0.616D-04
 Coeff-Com:  0.256D-03 0.505D-03 0.111D-02 0.479D-02 0.313D-02 0.101D-01
 Coeff-Com:  0.838D-01 0.154D+00 0.650D-01-0.624D+00-0.317D+00 0.804D+00
 Coeff-Com:  0.814D+00
 Coeff-En:   0.000D+00 0.000D+00 0.000D+00 0.000D+00 0.000D+00 0.000D+00
 Coeff-En:   0.000D+00 0.000D+00 0.000D+00 0.000D+00 0.000D+00 0.000D+00
 Coeff-En:   0.000D+00 0.000D+00 0.000D+00 0.000D+00 0.000D+00 0.000D+00
 Coeff-En:   0.100D+01
 Coeff:      0.870D-03-0.142D-02-0.500D-04 0.294D-04 0.567D-03 0.609D-04
 Coeff:      0.253D-03 0.499D-03 0.110D-02 0.473D-02 0.309D-02 0.997D-02
 Coeff:      0.828D-01 0.152D+00 0.643D-01-0.617D+00-0.313D+00 0.795D+00
 Coeff:      0.816D+00
 Gap=     0.120 Goal=   None    Shift=    0.000
 Gap=     0.042 Goal=   None    Shift=    0.000
 RMSDP=7.32D-05 MaxDP=4.77D-03 DE=-4.37D-04 OVMax= 3.87D-02

 Cycle  20  Pass 1  IDiag  1:
 RMSU=  3.49D-05    CP:  8.69D-01 -5.67D-03  1.81D-02 -7.04D-04  3.91D-01
                    CP:  4.13D-03  4.51D-01  4.01D-01  6.81D-01  5.10D-01
                    CP:  6.87D-01  5.06D-01  8.99D-01  1.66D+00  2.73D+00
                    CP:  3.00D+00  3.00D+00  2.28D+00  1.45D+00
 E= -3328.44543891144     Delta-E=       -0.000180613171 Rises=F Damp=F
 DIIS: error= 1.06D-03 at cycle  20 NSaved=  20.
 NSaved=20 IEnMin=20 EnMin= -3328.44543891144     IErMin=20 ErrMin= 1.06D-03
 ErrMax= 1.06D-03  0.00D+00 EMaxC= 1.00D-01 BMatC= 3.38D-04 BMatP= 4.85D-04
 IDIUse=3 WtCom= 9.89D-01 WtEn= 1.06D-02
 Coeff-Com:  0.635D-03-0.112D-02-0.295D-04 0.415D-04 0.530D-03 0.456D-04
 Coeff-Com:  0.302D-03 0.474D-03 0.147D-02 0.544D-02-0.181D-02 0.176D-02
 Coeff-Com:  0.618D-01 0.132D+00 0.119D+00-0.414D+00-0.399D+00 0.224D+00
 Coeff-Com:  0.587D+00 0.681D+00
 Coeff-En:   0.000D+00 0.000D+00 0.000D+00 0.000D+00 0.000D+00 0.000D+00
 Coeff-En:   0.000D+00 0.000D+00 0.000D+00 0.000D+00 0.000D+00 0.000D+00
 Coeff-En:   0.000D+00 0.000D+00 0.000D+00 0.000D+00 0.000D+00 0.000D+00
 Coeff-En:   0.000D+00 0.100D+01
 Coeff:      0.628D-03-0.111D-02-0.292D-04 0.410D-04 0.524D-03 0.452D-04
 Coeff:      0.299D-03 0.469D-03 0.146D-02 0.538D-02-0.179D-02 0.174D-02
[...]
 .00000138,-0.00000092,-0.00000096,0.00000249,0.00000031,-0.00000408,0.
 00000262,-0.00000385,-0.00000720,0.00001782,-0.00000280,-0.00000592,-0
 .00004112,0.00001254,0.00000195,-0.00001355,0.00001084,-0.00000193,-0.
 00000616,0.00000272,0.00000413,-0.00000435,-0.00000552,0.00000568,-0.0
 0000213,0.00000195,0.00000024,0.00001173,0.00000190,0.00000023,-0.0000
 0037,-0.00000008,0.00000016,-0.00000208,0.00000048,-0.00000097,-0.0000
 0119,-0.00000024,-0.00000007,-0.00000141,0.00000137,-0.00000082,-0.000
 00085,0.00000281,0.00000230,-0.00000724,-0.00000343,-0.00000490,-0.000
 00675,-0.00003895,0.00001559,-0.00003584,0.00014809,0.00018332,-0.0000
 6769,-0.00024854,-0.00129170,0.00189157,0.10051230,0.14300445,-0.00005
 777,-0.00028872,0.00011277,-0.00008118,0.00027766,-0.00017038,-0.00011
 065,0.00002690,0.00006300,-0.00001316,0.00002391,-0.00000981,0.0000034
 4,-0.00000819,0.00000737,-0.00000129,0.00000222,0.00000427,0.00000345,
 -0.00000481,-0.00000113,-0.00000196,0.00000310,0.00000020,-0.00000026,
 0.00000011,0.00000216,0.00000168,-0.00000129,-0.00000052,0.00000484,0.
 00000269,-0.00000206,-0.00000235,0.00000290,0.00000036,0.00000700,-0.0
 0000664,-0.00000784,0.00001665,0.00012558,-0.00004661,-0.00001845,-0.0
 0010743,0.00004299,-0.00004150,0.00013637,-0.00004686,0.00011475,0.000
 00344,-0.00000198,0.00000026,-0.00001408,0.00004728,0.00005919,0.00000
 279,0.00003237,-0.00002603,-0.00000833,0.00000953,0.00013226,-0.000313
 81,0.00016392,-0.00067018,-0.00014732,0.00005272,0.00004437,0.00014559
 ,-0.00064211,-0.00012293,0.00001654,0.00007465,-0.00005263,-0.00008847
 ,0.00001904,0.00000259,-0.00002665,0.00004679,-0.00000461,0.00000645,-
 0.00000052,0.00000407,0.00000370,-0.00000184,0.00000080,0.00000261,0.0
 0000442,-0.00000410,-0.00000098,-0.00000099,0.00000259,-0.00000828,0.0
 0000134,-0.00000799,0.00000603,-0.00000451,-0.00000159,0.00000498,-0.0
 0000090,0.00001569,0.00000729,0.00001679,0.00000654,-0.00001667,-0.000
 02501,-0.00014366,0.00036252,-0.00038685,0.00049426,0.00043303,-0.0001
 5464,0.00080017,-0.00214669,0.00307037,0.00351872,0.00179449,0.0050295
 6,-0.09109101,-0.10375878,-0.14128461,-0.01329317,-0.01232573,-0.00781
 703,0.00319928,-0.00577753,0.00231832,-0.00000261,0.00000265,0.0000020
 7,0.00000204,-0.00000310,-0.00000185,0.00000045,-0.00000281,0.00000120
 ,0.00000087,-0.00000261,0.00000041,-0.00000074,-0.00000173,0.00000231,
 -0.00000358,-0.00000133,0.00000166,-0.00000657,-0.00000718,-0.00001509
 ,0.00000932,0.00000084,-0.00000946,0.00000790,-0.00000021,-0.00000585,
 0.00000537,0.00000370,-0.00001212,-0.00000837,0.00002182,-0.00003499,-
 0.00002205,-0.00001797,-0.00001944,-0.00000149,0.00000123,0.00000207,0
 .00000005,0.00000064,-0.00000099,-0.00000071,-0.00000080,-0.00000013,0
 .00000042,0.00000004,-0.00000175,0.00000075,-0.00000011,-0.00000031,0.
 00000071,0.00000492,-0.00000492,0.00000412,-0.00000924,-0.00000042,-0.
 00000638,-0.00004108,0.00000878,0.00020669,-0.00001193,0.00018741,-0.0
 0049933,0.00184114,-0.00114559,0.09779124,0.11666574,0.14222924,-0.000
 05337,-0.00036216,0.00009885,0.00000960,0.00011727,-0.00003307,-0.0002
 3875,-0.00001252,0.00009207,-0.00002453,0.00001576,-0.00000017,-0.0000
 0020,-0.00000621,0.00001342,-0.00000075,0.00000200,0.00000335,0.000002
 62,-0.00000497,-0.00000155,-0.00000500,0.00000814,0.00000107,-0.000002
 76,0.00000185,0.00000394,0.00000211,-0.00000541,0.00000498,0.00000230,
 -0.00000041,-0.00001550,-0.00000993,-0.00002707,0.00000543,0.00000877,
 -0.00000026,-0.00001751,-0.00011430,0.00032030,-0.00016434,0.00042748,
 -0.00011170,0.00008463,-0.00014881,0.00002632,-0.00007197,0.00000762,0
 .00002919,-0.00002609,0.00016953,0.00016471,0.00000265,-0.00012435,0.0
 0014591,0.00055999,-0.00024253,0.00053182,0.00156612,0.00030756,0.0002
 4287,0.00104264,0.00002303,0.00116302,0.00100167,-0.00026421,-0.000310
 32,-0.00033244,-0.00009248,0.00031209,0.00028460,-0.00013506,0.0000070
 9,0.00001565,0.00002153,0.00000976,0.00001042,-0.00001131,-0.00001335,
 -0.00000737,-0.00000107,0.00000444,0.00000613,-0.00000138,-0.00000689,
 -0.00000224,-0.00000837,-0.00001315,-0.00000725,-0.00000400,0.00000406
 ,0.00000102,-0.00000107,-0.00000202,0.00000435,0.00000362,-0.00000725,
 -0.00001437,0.00000675,0.00001181,0.00000482,0.00000028,-0.00000543,-0
 .00002526,-0.00071973,0.00019018,0.00019737,0.00030464,-0.00198056,-0.
 00192889,0.00071740,-0.00032735,-0.00039605,0.00124577,0.00132182,0.00
 199952,-0.00798048,-0.00126836,-0.00062092,-0.34020913,0.00501116,0.02
 440431,-0.01329619,0.00099571,0.00226266,-0.00000056,0.00000110,0.0000
 0006,0.00000193,-0.00000196,-0.00000053,0.00000052,-0.00000092,0.00000
 090,0.00000014,-0.00000066,0.00000133,0.00000072,-0.00000085,0.0000015
 1,0.00000208,-0.00000432,0.00001154,0.00003138,-0.00001730,-0.00001626
 ,-0.00000010,0.00000434,-0.00001612,-0.00000145,0.00000152,0.00000320,
 -0.00001271,-0.00000121,-0.00000574,-0.00000933,0.00000681,-0.00001550
 ,-0.00018455,-0.00001048,-0.00013581,0.00000047,-0.00000043,0.00000546
 ,0.00000030,-0.00000073,-0.00000158,0.00000068,-0.00000051,0.00000008,
 0.00000118,-0.00000018,-0.00000084,0.00000077,0.00000100,0.00000037,0.
 00000223,0.00000179,-0.00000505,-0.00000538,-0.00000783,-0.00000204,-0
 .00010911,-0.00017818,-0.00009324,-0.00008916,0.00005522,-0.00003005,-
 0.00037668,-0.00014829,-0.00005284,0.00085560,0.00032858,-0.00019930,0
 .36027460,-0.00016443,-0.00086380,0.00044456,-0.00030863,0.00050707,-0
 .00070829,-0.00026957,-0.00001029,0.00028494,-0.00004799,0.00002874,0.
 00001340,-0.00000080,-0.00000611,0.00001307,-0.00000176,0.00000375,0.0
 0000697,0.00000345,-0.00000938,-0.00000235,-0.00000524,0.00001283,0.00
 001082,-0.00000662,0.00000440,0.00000357,0.00000153,-0.00001078,0.0000
 0119,-0.00001605,0.00002648,-0.00000848,0.00003930,-0.00009691,0.00003
 115,0.00000062,0.00001319,-0.00004538,-0.00011559,0.00048997,-0.000260
 91,0.00014008,-0.00025575,0.00007592,-0.00002943,0.00030043,-0.0000938
 3,0.00013690,-0.00011653,0.00000835,-0.00002032,-0.00023593,0.00004227
 ,-0.00004688,0.00009893,0.00016682,0.00024647,0.00037115,-0.00043791,0
 .00055899,-0.00113654,-0.00041276,0.00136944,-0.00061208,0.00150673,-0
 .00039690,-0.00061370,-0.00030936,-0.00033373,0.00066350,0.00050063,-0
 .00035445,-0.00009754,0.00019817,-0.00003143,-0.00003247,-0.00004342,0
 .00000799,0.00001728,0.00000230,-0.00000804,-0.00001438,-0.00000347,-0
 .00000591,0.00000839,-0.00000637,-0.00000631,-0.00001692,-0.00000562,-
 0.00001598,0.00001623,-0.00000085,0.00000578,-0.00000607,0.00001830,-0
 .00000723,-0.00003136,-0.00003334,0.00001706,0.00003196,-0.00000389,0.
 00000511,0.00000648,-0.00001221,-0.00092015,-0.00006775,-0.00005817,-0
 .00087393,0.00046881,-0.00448131,-0.00028511,-0.00071162,-0.00015031,0
 .00063536,0.00198593,-0.00633105,0.02013137,0.00389427,-0.00229077,0.0
 0506277,-0.04661437,-0.01044390,-0.01881635,0.00440088,0.00210021,0.00
 000066,0.00000385,0.00000189,0.00000307,-0.00000137,0.00000034,-0.0000
 0004,0.00000023,0.00000195,0.00000032,0.00000123,0.00000256,0.00000029
 ,0.00000342,0.00000082,0.00000656,-0.00000460,0.00001232,0.00001111,-0
 .00000371,-0.00004359,0.00000955,0.00000033,-0.00001099,0.00000464,-0.
 00001039,-0.00000589,0.00000603,0.00000171,0.00000903,-0.00000532,-0.0
 0000034,0.00002941,0.00007696,0.00002910,-0.00004425,-0.00000339,-0.00
 000255,0.00000114,0.00000537,0.00000086,0.00000394,0.00000197,0.000004
 10,0.00000177,0.00000237,0.00000301,0.00000197,0.00000083,0.00000664,0
 .00000130,0.00000837,0.00000430,-0.00001042,-0.00000870,-0.00002890,0.
 00001082,-0.00016654,-0.00007366,-0.00023711,0.00005072,-0.00050666,0.
 00058153,0.00085405,0.00008441,-0.00014490,-0.00011856,-0.00211300,0.0
 0319623,-0.00620551,0.04067541,0.00004681,-0.00034318,0.00005847,-0.00
 030426,0.00018595,-0.00016616,-0.00027202,0.00006641,0.00025862,-0.000
 01037,-0.00003552,-0.00000808,-0.00001439,0.00001554,0.00000546,0.0000
 0474,-0.00001333,-0.00000573,-0.00000369,0.00000655,-0.00000704,-0.000
 00035,0.00000322,-0.00000646,0.00000641,-0.00001599,-0.00000284,-0.000
 00369,0.00001131,-0.00001706,0.00000074,-0.00001483,0.00000970,-0.0000
 4647,0.00006277,-0.00005348,0.00000646,-0.00000958,0.00004984,-0.00016
 713,0.00036598,-0.00013002,0.00003159,-0.00023011,0.00011579,-0.000152
 48,0.00045835,-0.00018941,0.00031599,-0.00009210,-0.00004115,0.0000336
 7,-0.00010120,0.00014099,0.00034795,0.00004875,-0.00071855,0.00072919,
 0.00000167,-0.00185628,0.00056564,-0.00144696,-0.00008108,0.00059565,0
 .00189191,-0.00068431,-0.00016925,-0.00011804,-0.00062263,-0.00022435,
 0.00057200,0.00064329,-0.00058111,0.00012385,0.00019690,-0.00002632,-0
 .00005550,-0.00001354,0.00001610,0.00001958,0.00000352,-0.00000763,-0.
 00001328,-0.00000374,-0.00000640,0.00000961,-0.00000872,-0.00000738,-0
 .00001638,-0.00000462,-0.00001845,0.00001529,-0.00000490,0.00000746,0.
 00000233,0.00001956,-0.00000627,-0.00002957,-0.00003472,0.00002978,0.0
 0004648,-0.00000662,0.00001860,-0.00000341,-0.00002403,-0.00103475,-0.
 00037451,-0.00004511,-0.00096335,-0.00405422,0.00044774,-0.00035294,-0
 .00070670,-0.00128382,0.00178312,-0.00608789,0.00140839,0.02120616,-0.
 00066931,0.00311692,0.02643985,-0.01084896,-0.05059790,-0.01849562,0.0
 0081056,0.00569935,0.00000501,0.00000083,-0.00001057,0.00000382,-0.000
 00047,-0.00000260,0.00000345,-0.00000294,-0.00000116,0.00000491,-0.000
 00363,-0.00000195,0.00000346,-0.00000236,0.00000375,0.00000146,0.00001
 226,-0.00001853,-0.00000223,0.00000783,0.00003506,-0.00001167,0.000010
 08,-0.00001926,-0.00000938,0.00000077,0.00001760,-0.00001789,-0.000006
 62,0.00001426,-0.00001658,-0.00000367,-0.00000917,-0.00012411,0.000073
 86,-0.00005803,-0.00000413,-0.00000068,0.00000071,0.00000341,0.0000008
 8,0.00000445,0.00000119,0.00000389,0.00000152,0.00000165,0.00000279,0.
 00000130,0.00000043,0.00000612,0.00000169,0.00000969,0.00000931,-0.000
 01055,-0.00000330,-0.00003094,0.00001970,-0.00015350,-0.00027329,-0.00
 010889,-0.00001817,0.00054195,-0.00044060,0.00094421,-0.00004083,-0.00
 000091,-0.00048417,0.00310661,-0.00175225,-0.02954221,0.01719564,0.046
 57118,-0.03269991,-0.00756415,-0.03969666,-0.01847821,-0.03358225,0.01
 119157,0.00804051,0.00176765,-0.00239639,-0.00014122,-0.00016321,0.000
 04512,0.00033106,0.00046735,0.00022306,-0.00006017,0.00012177,0.000082
 23,-0.00001345,0.00013157,-0.00002158,-0.00003674,0.00014028,-0.000082
 63,-0.00002325,0.00008240,0.00006417,0.00004179,-0.00004533,-0.0000344
 8,0.00006617,0.00013587,-0.00005622,0.00024548,-0.00005499,0.00010605,
 -0.00005657,0.00007766,-0.00003273,0.00022588,-0.00588099,0.00215885,0
 .00106594,0.00421184,-0.00193803,0.00023211,-0.00493012,0.00222301,-0.
 00274838,0.00200385,-0.00043133,0.00063838,0.00113803,-0.00058393,-0.0
 0109873,0.00076362,0.00017154,-0.00292920,-0.00360700,-0.00021718,-0.0
 0134300,0.01214502,-0.00503225,-0.00462524,-0.00038897,0.00172135,0.00
 139702,0.00720149,-0.00062491,-0.00321933,0.01585952,-0.01300761,-0.00
 141499,0.00171424,0.00034712,0.00033159,0.00020375,0.00003218,-0.00057
 063,-0.00066669,-0.00100514,-0.00007912,0.00093195,0.00007718,0.000631
 57,-0.00036944,0.00045463,-0.00126636,0.00162370,-0.00005365,0.0005563
 4,-0.00138437,0.00083433,-0.00136179,-0.00075480,-0.00130421,0.0012856
 9,-0.01014023,0.00502459,-0.01042799,0.00432501,0.00481048,-0.00900588
 ,0.00047686,-0.00480817,0.00011491,0.00031941,0.00125284,-0.00147093,-
 0.00013750,0.00004434,0.00031710,-0.00006404,-0.00027381,-0.00014869,0
 .00024920,0.00033542,0.00005232,-0.00023402,0.00001325,0.00023740,0.00
 071579,0.00028955,0.00154594,-0.00175413,-0.00112327,-0.00008230,-0.00
 012527,-0.00000967,-0.00005750,0.00000465,-0.00002104,-0.00000910,-0.0
 0001303,0.00000130,-0.00000561,-0.00001275,-0.00000971,-0.00001302,-0.
 00000875,0.00001509,-0.00003046,-0.00000580,0.00001879,0.00002889,-0.0
 0016582,0.00021705,-0.00000106,0.00007435,-0.00004133,-0.00010215,-0.0
 0001110,0.00005597,-0.00004525,-0.00002066,0.00001786,0.00009358,-0.00
 010086,0.00000391,0.00009724,-0.00014307,0.00015822,0.00004241,-0.0000
 5771,0.00012941,0.00001711,-0.00000123,0.00002486,0.00005374,-0.000003
 93,0.00005680,0.00011486,0.00005899,0.00001135,0.00014751,0.00024444,0
 .00000103,-0.00123565,-0.00047107,0.00051423,-0.00684227,-0.00037931,0
 .00543849,-0.00002322,-0.00002962,0.00010588,-0.00002134,0.00001697,-0
 .00002236,0.00001988,0.00003205,-0.00003210,0.00001278,0.00001608,0.00
 003507,0.00004560,0.00019178,0.00008739,0.08365791,-0.01963734,-0.0018
 9433,-0.02303382,-0.01731301,-0.02993022,0.00594511,0.00654685,0.00273
 107,-0.00207829,-0.00051266,0.00028755,0.00004680,-0.00002072,0.000150
 54,-0.00003751,-0.00001257,-0.00014069,-0.00000705,0.00000541,-0.00001
 519,-0.00006672,-0.00013378,0.00026757,-0.00003827,-0.00001285,-0.0000
 5220,0.00014583,0.00004488,-0.00011182,-0.00006903,0.00008665,0.000135
 62,-0.00014929,0.00008011,0.00008277,0.00005430,0.00004598,-0.00008232
 ,0.00017800,0.00061746,-0.00450140,0.00127440,0.00165222,0.00301725,-0
 .00177860,0.00004133,-0.00412928,0.00197804,-0.00223404,0.00180081,-0.
 00043733,0.00045291,0.00086311,-0.00066907,-0.00103648,0.00108457,0.00
 022043,-0.00333456,-0.00388217,0.00072683,-0.00022198,0.00775813,-0.00
 440621,0.00017524,0.00503860,0.00875306,0.01872418,-0.04002320,-0.0230
 3606,-0.00054350,-0.01797260,0.04284580,-0.00552256,0.00243697,0.00361
 594,0.00127019,-0.00090511,0.00059648,-0.00041040,0.00016418,-0.000301
 94,0.00027132,0.00070675,0.00024383,0.00053816,-0.00042191,0.00037613,
 -0.00063567,0.00216203,0.00071074,0.00105721,-0.00320371,0.00116481,-0
 .00342152,-0.00281823,-0.00564203,0.00743524,-0.00403931,0.00270099,-0
 .00086826,0.00722754,0.00095574,-0.00126650,0.00047814,-0.00187070,-0.
 00047664,-0.00423733,-0.00353802,-0.00111109,0.00300841,0.00302985,-0.
 00032201,-0.00338023,-0.00378017,0.00277559,0.00147062,0.00136845,-0.0
 0075816,0.00077306,0.00115215,0.00095369,0.00067223,0.00001565,0.00298
 415,-0.00370579,-0.00267091,-0.00000695,-0.00001428,-0.00001905,0.0000
 1463,0.00000640,-0.00000882,0.00001275,-0.00000506,-0.00000155,0.00000
 900,-0.00000516,0.00000139,-0.00000532,-0.00001447,0.00000091,-0.00001
 928,-0.00001382,-0.00000755,0.00003413,-0.00023651,0.00005205,0.000086
 83,0.00019511,-0.00008649,-0.00006562,-0.00000479,0.00007592,-0.000042
 07,0.00000443,0.00004291,0.00007127,-0.00007065,-0.00001915,0.00006601
 ,0.00002235,0.00016683,0.00002002,0.00002256,-0.00007177,-0.00006969,0
 .00001856,-0.00000777,-0.00003299,-0.00003383,-0.00001209,0.00010869,-
 0.00001082,0.00004331,0.00003443,-0.00003130,-0.00003792,-0.00249780,-
 0.00121188,0.00203990,0.00056198,0.00033288,-0.00143086,-0.00009101,0.
 00006057,0.00028888,0.00003982,-0.00001023,-0.00005801,0.00005682,0.00
 003289,-0.00002163,-0.00007034,-0.00001336,0.00002068,0.00000715,0.000
 13618,-0.00004492,0.01582506,0.08397374,-0.03427030,-0.01539177,-0.030
 06214,-0.00339806,-0.01165032,0.00595466,0.00441118,0.00140102,-0.0018
 3395,-0.00024558,0.00012083,-0.00006158,-0.00007815,-0.00001120,-0.000
 05975,0.00001574,-0.00018528,-0.00011104,-0.00002096,0.00005410,-0.000
 03697,-0.00002261,0.00010118,0.00004652,0.00002664,-0.00004981,0.00001
 417,0.00001156,0.00007910,-0.00009114,0.00011461,0.00005275,0.00000122
 ,0.00012347,0.00004712,-0.00000805,-0.00007594,-0.00006710,0.00024375,
 0.00060851,-0.00293158,0.00106334,-0.00012485,0.00195445,-0.00073833,0
 .00037714,-0.00204237,0.00077269,-0.00121311,0.00059617,-0.00007716,0.
 00023165,0.00050250,-0.00021853,-0.00058895,0.00010272,0.00005038,-0.0
 0052944,-0.00082587,-0.00029029,-0.00217464,0.00574819,-0.00119922,-0.
 00475365,-0.00507341,-0.00423736,-0.00370920,0.01250136,0.01533940,-0.
 00038276,0.01951658,-0.03405629,0.00506305,-0.00214412,-0.00192145,-0.
 00094868,0.00185133,-0.00020567,0.00021294,0.00029975,0.00038265,0.000
 00836,-0.00031302,-0.00016017,-0.00009551,0.00017422,-0.00021227,-0.00
 014037,-0.00224329,-0.00093982,-0.00103124,0.00019760,-0.00170641,0.00
 010561,0.00067257,0.00106295,-0.00010470,0.00187785,-0.00098474,0.0028
 9232,-0.00048061,0.00023636,-0.00023543,-0.00205938,0.00266072,0.00067
 546,0.00340201,0.00259201,-0.00093841,-0.00239926,-0.00197903,0.000684
 58,0.00206859,0.00205119,-0.00189805,-0.00063395,-0.00050319,0.0006925
 9,-0.00062323,-0.00074278,-0.00054982,0.00033766,0.00042908,-0.0000821
 9,0.00017776,-0.00020224,0.00011225,0.00006678,-0.00008676,0.00003450,
 0.00000284,-0.00000079,0.00001024,0.00001667,-0.00001280,-0.00000718,0
 .00000619,-0.00000670,-0.00001527,0.00000515,-0.00002658,-0.00002393,-
 0.00002705,-0.00007376,-0.00004015,-0.00010297,0.00013811,0.00007636,0
 .00013636,0.00006037,-0.00004078,0.00001408,0.00002119,0.00000004,-0.0
 0001728,0.00001183,0.00005186,-0.00007107,0.00002789,0.00010471,-0.000
 23880,0.00012441,0.00002486,-0.00000555,0.00007194,-0.00003147,-0.0000
 1040,-0.00003117,-0.00003938,-0.00003243,0.00001739,-0.00006996,0.0000
 4383,-0.00005139,-0.00009393,-0.00018469,-0.00002247,0.00125546,0.0013
 2472,-0.00108216,0.00548388,-0.00044873,-0.00351682,0.00001189,-0.0000
 2150,-0.00008609,-0.00005518,-0.00000168,0.00000616,-0.00001389,0.0000
 1648,0.00003055,0.00007139,0.00005166,0.00005600,0.00008603,0.00015908
 ,0.00020674,0.03446481,-0.00539356,0.05396341\\-0.00000571,-0.00001324
 ,0.00000597,0.00000951,0.00000184,-0.00000027,-0.00000260,0.00000404,0
 .00000059,-0.00000143,-0.00000115,0.00000570,0.00000154,-0.00000254,-0
 .00000589,-0.00000116,0.00000411,-0.00000484,-0.00000263,0.00000064,0.
 00000747,0.00000378,-0.00000329,-0.00000492,-0.00000010,-0.00000023,0.
 00000129,0.00000232,-0.00000420,0.00000024,-0.00000278,0.00000502,-0.0
 0000047,-0.00000135,0.00000124,0.00000350,0.00000265,0.00000084,-0.000
 00520,0.00000006,0.00000329,0.00000037,0.00001042,0.00000079,-0.000001
 71,-0.00000033,-0.00000461,0.00000360,-0.00000248,0.00000317,-0.000000
 79,-0.00000113,0.00000320,-0.00000036,-0.00000033,0.00000507,-0.000000
 96,-0.00000954,-0.00000875,0.00000019,-0.00000115,0.00001050,0.0000006
 8,-0.00000804,-0.00000457,-0.00001141,-0.00002300,0.00000867,0.0000263
 8,0.00000090,-0.00001152,-0.00001293,0.00003532,-0.00000215,-0.0000247
 9,-0.00000004,-0.00001811,0.00000901,0.00000207,0.00000734,-0.00000278
 ,-0.00000859,0.00000153,-0.00000301,0.00000087,-0.00000615,-0.00000247
 ,0.00000422,0.00000704,0.00000732,-0.00000364,-0.00000217,-0.00000693,
 0.00001025,-0.00000291,0.00000363,-0.00000837,0.00000246,0.00000033,0.
 00000240,-0.00000005,-0.00001068,0.00000118,0.00000673,0.00000285,-0.0
 0000158,0.00000930,0.00002007,-0.00000363,-0.00001103,-0.00001456,0.00
 000311,0.00001137,0.00001318,-0.00001762,-0.00000352,-0.00000113,0.000
 01566,-0.00000352,-0.00000270,-0.00000074,0.00000644,0.00000857,0.0000
 0212,-0.00000168,0.00000200,-0.00000001,0.00000043,0.00000092,0.000000
 22,0.00000004,0.00000050,0.00000104,0.00000054,-0.00000182,0.00000048,
 0.00000004,-0.00000079,0.00000033,0.00000002,-0.00000121,0.00000124,-0
 .00000176,-0.00000058,0.00000048,-0.00000072,-0.00000124,-0.00000042,0
 .00000096,-0.00000141,-0.00000054,0.00000184,-0.00000005,-0.00000033,0
 .00000016,0.00000119,0.00000073,-0.00000058,0.00000074,0.00000030,-0.0
 0000107,0.00000059,-0.00000117,-0.00000125,0.00000099,0.00000209,-0.00
 000068,-0.00000029,0.00000033,0.00000049,-0.00000055,-0.00000166,0.000
 00208,-0.00000031,-0.00000196,0.00000096,0.00000128,0.00000340,-0.0000
 0052,-0.00000194,-0.00000404,0.00000381,0.00000547,-0.00000043,-0.0000
 0191,-0.00000198,-0.00000097,-0.00000174,-0.00000151,0.00000114,-0.000
 00159,0.00000101,-0.00000214,-0.00000022,0.00000003,-0.00000082,-0.000
 00033,-0.00000067,0.00000229,0.00000179,-0.00000252\\\@
 The archive entry for this job was punched.


 THE PROGRESS OF RIVERS TO THE SEA IS NOT AS RAPID
 AS THAT OF MAN TO ERROR.
                                              -- VOLTAIRE
 Job cpu time:       1 days  7 hours 16 minutes 21.3 seconds.
 Elapsed time:       0 days  0 hours 58 minutes 53.2 seconds.
 File lengths (MBytes):  RWF=   6581 Int=      0 D2E=      0 Chk=     52 Scr=      2
 Normal termination of Gaussian 16 at Fri Mar  8 04:34:11 2024.
