 Entering Gaussian System, Link 0=g16
 Initial command:
 /public/software/apps/Gaussian/g16/l1.exe "/public/home/LJQ_HG/tmp/Gau-102639.inp" -scrdir="/public/home/LJQ_HG/tmp/"
 Entering Link 1 = /public/software/apps/Gaussian/g16/l1.exe PID=    102640.
  
 Copyright (c) 1988-2019, Gaussian, Inc.  All Rights Reserved.
  
 This is part of the Gaussian(R) 16 program.  It is based on
 the Gaussian(R) 09 system (copyright 2009, Gaussian, Inc.),
 the Gaussian(R) 03 system (copyright 2003, Gaussian, Inc.),
 the Gaussian(R) 98 system (copyright 1998, Gaussian, Inc.),
 the Gaussian(R) 94 system (copyright 1995, Gaussian, Inc.),
 the Gaussian 92(TM) system (copyright 1992, Gaussian, Inc.),
 the Gaussian 90(TM) system (copyright 1990, Gaussian, Inc.),
 the Gaussian 88(TM) system (copyright 1988, Gaussian, Inc.),
 the Gaussian 86(TM) system (copyright 1986, Carnegie Mellon
 University), and the Gaussian 82(TM) system (copyright 1983,
 Carnegie Mellon University). Gaussian is a federally registered
 trademark of Gaussian, Inc.
  
 This software contains proprietary and confidential information,
 including trade secrets, belonging to Gaussian, Inc.
  
 This software is provided under written license and may be
 used, copied, transmitted, or stored only in accord with that
 written license.
  
 The following legend is applicable only to US Government
 contracts under FAR:
  
                    RESTRICTED RIGHTS LEGEND
  
 Use, reproduction and disclosure by the US Government is
 subject to restrictions as set forth in subparagraphs (a)
 and (c) of the Commercial Computer Software - Restricted
 Rights clause in FAR 52.227-19.
  
 Gaussian, Inc.
 340 Quinnipiac St., Bldg. 40, Wallingford CT 06492
  
  
 ---------------------------------------------------------------
 Warning -- This program may not be used in any manner that
 competes with the business of Gaussian, Inc. or will provide
 assistance to any competitor of Gaussian, Inc.  The licensee
 of this program is prohibited from giving any competitor of
 Gaussian, Inc. access to this program.  By using this program,
 the user acknowledges that Gaussian, Inc. is engaged in the
 business of creating and licensing software in the field of
 computational chemistry and represents and warrants to the
 licensee that it is not a competitor of Gaussian, Inc. and that
 it will not use this program in any manner prohibited above.
 ---------------------------------------------------------------
  

 Cite this work as:
 Gaussian 16, Revision C.01,
 M. J. Frisch, G. W. Trucks, H. B. Schlegel, G. E. Scuseria, 
 M. A. Robb, J. R. Cheeseman, G. Scalmani, V. Barone, 
 G. A. Petersson, H. Nakatsuji, X. Li, M. Caricato, A. V. Marenich, 
 J. Bloino, B. G. Janesko, R. Gomperts, B. Mennucci, H. P. Hratchian, 
 J. V. Ortiz, A. F. Izmaylov, J. L. Sonnenberg, D. Williams-Young, 
 F. Ding, F. Lipparini, F. Egidi, J. Goings, B. Peng, A. Petrone, 
 T. Henderson, D. Ranasinghe, V. G. Zakrzewski, J. Gao, N. Rega, 
 G. Zheng, W. Liang, M. Hada, M. Ehara, K. Toyota, R. Fukuda, 
 J. Hasegawa, M. Ishida, T. Nakajima, Y. Honda, O. Kitao, H. Nakai, 
 T. Vreven, K. Throssell, J. A. Montgomery, Jr., J. E. Peralta, 
 F. Ogliaro, M. J. Bearpark, J. J. Heyd, E. N. Brothers, K. N. Kudin, 
 V. N. Staroverov, T. A. Keith, R. Kobayashi, J. Normand, 
 K. Raghavachari, A. P. Rendell, J. C. Burant, S. S. Iyengar, 
 J. Tomasi, M. Cossi, J. M. Millam, M. Klene, C. Adamo, R. Cammi, 
 J. W. Ochterski, R. L. Martin, K. Morokuma, O. Farkas, 
 J. B. Foresman, and D. J. Fox, Gaussian, Inc., Wallingford CT, 2019.
 
 ******************************************
 Gaussian 16:  ES64L-G16RevC.01  3-Jul-2019
                 8-Mar-2024 
 ******************************************
 %nprocshared=32
 Will use up to   32 processors via shared memory.
 %mem=100GB
 ------------------------------------------
 #p opt freq b3lyp/def2svpp em=gd3bj nosymm
 ------------------------------------------
 1/18=20,19=15,26=3,38=1/1,3;
 2/9=110,12=2,15=1,17=6,18=5,40=1/2;
 3/5=43,7=202,11=2,25=1,30=1,71=1,74=-5,124=41/1,2,3;
 4//1;
 5/5=2,38=5/2;
 6/7=2,8=2,9=2,10=2,28=1/1;
 7/30=1/1,2,3,16;
 1/18=20,19=15,26=3/3(2);
 2/9=110,15=1/2;
 99//99;
 2/9=110,15=1/2;
 3/5=43,7=202,11=2,25=1,30=1,71=1,74=-5,124=41/1,2,3;
 4/5=5,16=3,69=1/1;
 5/5=2,38=5/2;
 7/30=1/1,2,3,16;
 1/18=20,19=15,26=3/3(-5);
 2/9=110,15=1/2;
 6/7=2,8=2,9=2,10=2,19=2,28=1/1;
 99/9=1/99;
 Leave Link    1 at Fri Mar  8 00:25:27 2024, MaxMem= 13421772800 cpu:               0.9 elap:               0.0
 (Enter /public/software/apps/Gaussian/g16/l101.exe)
 ------------------
 $$$$Title####0????
 ------------------
 Symbolic Z-matrix:
 Charge =  0 Multiplicity = 2
 O                    -0.45718  -0.70159   2.53641 
 C                    -1.19832  -0.18832   1.47254 
 C                    -0.52394   0.30228   0.34852 
 C                     0.96443   0.20515   0.32184 
 C                     1.6964    1.03382   1.17999 
 O                     1.01156   1.87757   2.05383 
 C                     3.09936   1.01859   1.17017 
 C                     3.81306   1.87722   2.02986 
 C                     5.20466   1.88625   2.02983 
 C                     5.90518   1.04337   1.17572 
 C                     5.22112   0.18172   0.31737 
 C                     3.8027    0.14401   0.29437 
 C                     3.06465  -0.73391  -0.55788 
 C                     3.69586  -1.65148  -1.4369 
 C                     2.94851  -2.50807  -2.24389 
 C                     1.56149  -2.48314  -2.19724 
 C                     0.90856  -1.59568  -1.34826 
 C                     1.63771  -0.70387  -0.52919 
 C                    -1.25289   0.88457  -0.71612 
 C                    -0.57973   1.44771  -1.82408 
 C                    -1.28804   2.01013  -2.8808 
 C                    -2.67566   2.03155  -2.85473 
 C                    -3.36801   1.49782  -1.76877 
 C                    -2.6794    0.91714  -0.67256 
 C                    -3.3597    0.37818   0.46256 
 C                    -4.77414   0.36386   0.57674 
 C                    -5.40034  -0.15825   1.70917 
 C                    -4.64467  -0.67738   2.75327 
 C                    -3.25543  -0.68224   2.67179 
 C                    -2.59967  -0.16371   1.53742 
 H                     3.29849   2.54946   2.70534 
 H                     5.74199   2.55148   2.69356 
 H                     6.98777   1.05615   1.17785 
 H                     5.83492  -0.43746  -0.31364 
 H                     4.76489  -1.73956  -1.52406 
 H                     3.45103  -3.20156  -2.90627 
 H                     0.9879   -3.15705  -2.82069 
 H                    -0.17293  -1.62027  -1.33733 
 H                     0.50036   1.46412  -1.88295 
 H                    -0.75706   2.43397  -3.72357 
 H                    -3.2214    2.47133  -3.67994 
 H                    -4.44105   1.56235  -1.81972 
 H                    -5.42849   0.74498  -0.18803 
 H                    -6.48092  -0.15918   1.7765 
 H                    -5.13726  -1.08003   3.62906 
 H                    -2.69712  -1.09774   3.50161 
 Cu                    0.29254   0.81155   3.53665 
 
 ITRead=  0  0  0  0  0  0  0  0  0  0  0  0  0  0  0  0  0  0  0  0
 ITRead=  0  0  0  0  0  0  0  0  0  0  0  0  0  0  0  0  0  0  0  0
 ITRead=  0  0  0  0  0  0  0
 MicOpt= -1 -1 -1 -1 -1 -1 -1 -1 -1 -1 -1 -1 -1 -1 -1 -1 -1 -1 -1 -1
 MicOpt= -1 -1 -1 -1 -1 -1 -1 -1 -1 -1 -1 -1 -1 -1 -1 -1 -1 -1 -1 -1
 MicOpt= -1 -1 -1 -1 -1 -1 -1
 NAtoms=     47 NQM=       47 NQMF=       0 NMMI=      0 NMMIF=      0
                NMic=       0 NMicF=      0.
                    Isotopes and Nuclear Properties:
 (Nuclear quadrupole moments (NQMom) in fm**2, nuclear magnetic moments (NMagM)
  in nuclear magnetons)

  Atom         1           2           3           4           5           6           7           8           9          10
 IAtWgt=          16          12          12          12          12          16          12          12          12          12
 AtmWgt=  15.9949146  12.0000000  12.0000000  12.0000000  12.0000000  15.9949146  12.0000000  12.0000000  12.0000000  12.0000000
 NucSpn=           0           0           0           0           0           0           0           0           0           0
 AtZEff=  -0.0000000  -0.0000000  -0.0000000  -0.0000000  -0.0000000  -0.0000000  -0.0000000  -0.0000000  -0.0000000  -0.0000000
 NQMom=    0.0000000   0.0000000   0.0000000   0.0000000   0.0000000   0.0000000   0.0000000   0.0000000   0.0000000   0.0000000
 NMagM=    0.0000000   0.0000000   0.0000000   0.0000000   0.0000000   0.0000000   0.0000000   0.0000000   0.0000000   0.0000000
 AtZNuc=   8.0000000   6.0000000   6.0000000   6.0000000   6.0000000   8.0000000   6.0000000   6.0000000   6.0000000   6.0000000

  Atom        11          12          13          14          15          16          17          18          19          20
 IAtWgt=          12          12          12          12          12          12          12          12          12          12
 AtmWgt=  12.0000000  12.0000000  12.0000000  12.0000000  12.0000000  12.0000000  12.0000000  12.0000000  12.0000000  12.0000000
 NucSpn=           0           0           0           0           0           0           0           0           0           0
 AtZEff=  -0.0000000  -0.0000000  -0.0000000  -0.0000000  -0.0000000  -0.0000000  -0.0000000  -0.0000000  -0.0000000  -0.0000000
 NQMom=    0.0000000   0.0000000   0.0000000   0.0000000   0.0000000   0.0000000   0.0000000   0.0000000   0.0000000   0.0000000
 NMagM=    0.0000000   0.0000000   0.0000000   0.0000000   0.0000000   0.0000000   0.0000000   0.0000000   0.0000000   0.0000000
 AtZNuc=   6.0000000   6.0000000   6.0000000   6.0000000   6.0000000   6.0000000   6.0000000   6.0000000   6.0000000   6.0000000

  Atom        21          22          23          24          25          26          27          28          29          30
 IAtWgt=          12          12          12          12          12          12          12          12          12          12
 AtmWgt=  12.0000000  12.0000000  12.0000000  12.0000000  12.0000000  12.0000000  12.0000000  12.0000000  12.0000000  12.0000000
 NucSpn=           0           0           0           0           0           0           0           0           0           0
 AtZEff=  -0.0000000  -0.0000000  -0.0000000  -0.0000000  -0.0000000  -0.0000000  -0.0000000  -0.0000000  -0.0000000  -0.0000000
 NQMom=    0.0000000   0.0000000   0.0000000   0.0000000   0.0000000   0.0000000   0.0000000   0.0000000   0.0000000   0.0000000
 NMagM=    0.0000000   0.0000000   0.0000000   0.0000000   0.0000000   0.0000000   0.0000000   0.0000000   0.0000000   0.0000000
 AtZNuc=   6.0000000   6.0000000   6.0000000   6.0000000   6.0000000   6.0000000   6.0000000   6.0000000   6.0000000   6.0000000

  Atom        31          32          33          34          35          36          37          38          39          40
 IAtWgt=           1           1           1           1           1           1           1           1           1           1
 AtmWgt=   1.0078250   1.0078250   1.0078250   1.0078250   1.0078250   1.0078250   1.0078250   1.0078250   1.0078250   1.0078250
 NucSpn=           1           1           1           1           1           1           1           1           1           1
 AtZEff=  -0.0000000  -0.0000000  -0.0000000  -0.0000000  -0.0000000  -0.0000000  -0.0000000  -0.0000000  -0.0000000  -0.0000000
 NQMom=    0.0000000   0.0000000   0.0000000   0.0000000   0.0000000   0.0000000   0.0000000   0.0000000   0.0000000   0.0000000
 NMagM=    2.7928460   2.7928460   2.7928460   2.7928460   2.7928460   2.7928460   2.7928460   2.7928460   2.7928460   2.7928460
 AtZNuc=   1.0000000   1.0000000   1.0000000   1.0000000   1.0000000   1.0000000   1.0000000   1.0000000   1.0000000   1.0000000

  Atom        41          42          43          44          45          46          47
 IAtWgt=           1           1           1           1           1           1          63
 AtmWgt=   1.0078250   1.0078250   1.0078250   1.0078250   1.0078250   1.0078250  62.9295992
 NucSpn=           1           1           1           1           1           1           3
 AtZEff=  -0.0000000  -0.0000000  -0.0000000  -0.0000000  -0.0000000  -0.0000000  -0.0000000
 NQMom=    0.0000000   0.0000000   0.0000000   0.0000000   0.0000000   0.0000000 -22.0000000
 NMagM=    2.7928460   2.7928460   2.7928460   2.7928460   2.7928460   2.7928460   2.2233000
 AtZNuc=   1.0000000   1.0000000   1.0000000   1.0000000   1.0000000   1.0000000  29.0000000
 Leave Link  101 at Fri Mar  8 00:25:27 2024, MaxMem= 13421772800 cpu:               3.8 elap:               0.1
 (Enter /public/software/apps/Gaussian/g16/l103.exe)

 GradGradGradGradGradGradGradGradGradGradGradGradGradGradGradGradGradGrad
 Berny optimization.
 Initialization pass.
                           ----------------------------
                           !    Initial Parameters    !
                           ! (Angstroms and Degrees)  !
 --------------------------                            --------------------------
 ! Name  Definition              Value          Derivative Info.                !
 --------------------------------------------------------------------------------
 ! R1    R(1,2)                  1.3945         estimate D2E/DX2                !
 ! R2    R(1,47)                 1.9627         estimate D2E/DX2                !
 ! R3    R(2,3)                  1.3996         estimate D2E/DX2                !
 ! R4    R(2,30)                 1.4031         estimate D2E/DX2                !
 ! R5    R(3,4)                  1.4918         estimate D2E/DX2                !
 ! R6    R(3,19)                 1.4156         estimate D2E/DX2                !
 ! R7    R(4,5)                  1.3996         estimate D2E/DX2                !
 ! R8    R(4,18)                 1.4156         estimate D2E/DX2                !
 ! R9    R(5,6)                  1.3945         estimate D2E/DX2                !
 ! R10   R(5,7)                  1.4031         estimate D2E/DX2                !
 ! R11   R(6,47)                 1.9627         estimate D2E/DX2                !
 ! R12   R(7,8)                  1.4091         estimate D2E/DX2                !
 ! R13   R(7,12)                 1.4236         estimate D2E/DX2                !
 ! R14   R(8,9)                  1.3916         estimate D2E/DX2                !
 ! R15   R(8,31)                 1.083          estimate D2E/DX2                !
 ! R16   R(9,10)                 1.3895         estimate D2E/DX2                !
 ! R17   R(9,32)                 1.0825         estimate D2E/DX2                !
 ! R18   R(10,11)                1.3954         estimate D2E/DX2                !
 ! R19   R(10,33)                1.0827         estimate D2E/DX2                !
 ! R20   R(11,12)                1.4191         estimate D2E/DX2                !
 ! R21   R(11,34)                1.0762         estimate D2E/DX2                !
 ! R22   R(12,13)                1.4289         estimate D2E/DX2                !
 ! R23   R(13,14)                1.4188         estimate D2E/DX2                !
 ! R24   R(13,18)                1.4275         estimate D2E/DX2                !
 ! R25   R(14,15)                1.3941         estimate D2E/DX2                !
 ! R26   R(14,35)                1.0762         estimate D2E/DX2                !
 ! R27   R(15,16)                1.388          estimate D2E/DX2                !
 ! R28   R(15,36)                1.0827         estimate D2E/DX2                !
 ! R29   R(16,17)                1.3909         estimate D2E/DX2                !
 ! R30   R(16,37)                1.0825         estimate D2E/DX2                !
 ! R31   R(17,18)                1.4135         estimate D2E/DX2                !
 ! R32   R(17,38)                1.0818         estimate D2E/DX2                !
 ! R33   R(19,20)                1.4135         estimate D2E/DX2                !
 ! R34   R(19,24)                1.4275         estimate D2E/DX2                !
 ! R35   R(20,21)                1.3909         estimate D2E/DX2                !
 ! R36   R(20,39)                1.0818         estimate D2E/DX2                !
 ! R37   R(21,22)                1.388          estimate D2E/DX2                !
 ! R38   R(21,40)                1.0825         estimate D2E/DX2                !
 ! R39   R(22,23)                1.3941         estimate D2E/DX2                !
 ! R40   R(22,41)                1.0827         estimate D2E/DX2                !
 ! R41   R(23,24)                1.4188         estimate D2E/DX2                !
 ! R42   R(23,42)                1.0762         estimate D2E/DX2                !
 ! R43   R(24,25)                1.4289         estimate D2E/DX2                !
 ! R44   R(25,26)                1.4191         estimate D2E/DX2                !
 ! R45   R(25,30)                1.4236         estimate D2E/DX2                !
 ! R46   R(26,27)                1.3954         estimate D2E/DX2                !
 ! R47   R(26,43)                1.0762         estimate D2E/DX2                !
 ! R48   R(27,28)                1.3895         estimate D2E/DX2                !
 ! R49   R(27,44)                1.0827         estimate D2E/DX2                !
 ! R50   R(28,29)                1.3916         estimate D2E/DX2                !
 ! R51   R(28,45)                1.0825         estimate D2E/DX2                !
 ! R52   R(29,30)                1.4091         estimate D2E/DX2                !
 ! R53   R(29,46)                1.083          estimate D2E/DX2                !
 ! A1    A(2,1,47)             107.9422         estimate D2E/DX2                !
 ! A2    A(1,2,3)              119.0536         estimate D2E/DX2                !
 ! A3    A(1,2,30)             120.1336         estimate D2E/DX2                !
 ! A4    A(3,2,30)             120.8124         estimate D2E/DX2                !
 ! A5    A(2,3,4)              118.1821         estimate D2E/DX2                !
 ! A6    A(2,3,19)             120.0046         estimate D2E/DX2                !
 ! A7    A(4,3,19)             121.8095         estimate D2E/DX2                !
 ! A8    A(3,4,5)              118.1822         estimate D2E/DX2                !
 ! A9    A(3,4,18)             121.8095         estimate D2E/DX2                !
 ! A10   A(5,4,18)             120.0045         estimate D2E/DX2                !
 ! A11   A(4,5,6)              119.0536         estimate D2E/DX2                !
 ! A12   A(4,5,7)              120.8125         estimate D2E/DX2                !
 ! A13   A(6,5,7)              120.1336         estimate D2E/DX2                !
 ! A14   A(5,6,47)             108.9483         estimate D2E/DX2                !
 ! A15   A(5,7,8)              119.7067         estimate D2E/DX2                !
 ! A16   A(5,7,12)             120.3309         estimate D2E/DX2                !
 ! A17   A(8,7,12)             119.9622         estimate D2E/DX2                !
 ! A18   A(7,8,9)              120.6911         estimate D2E/DX2                !
 ! A19   A(7,8,31)             121.2031         estimate D2E/DX2                !
 ! A20   A(9,8,31)             118.1056         estimate D2E/DX2                !
 ! A21   A(8,9,10)             120.0147         estimate D2E/DX2                !
 ! A22   A(8,9,32)             120.0222         estimate D2E/DX2                !
 ! A23   A(10,9,32)            119.9629         estimate D2E/DX2                !
 ! A24   A(9,10,11)            120.3679         estimate D2E/DX2                !
 ! A25   A(9,10,33)            119.7189         estimate D2E/DX2                !
 ! A26   A(11,10,33)           119.9131         estimate D2E/DX2                !
 ! A27   A(10,11,12)           121.0883         estimate D2E/DX2                !
 ! A28   A(10,11,34)           115.8698         estimate D2E/DX2                !
 ! A29   A(12,11,34)           123.0418         estimate D2E/DX2                !
 ! A30   A(7,12,11)            117.8742         estimate D2E/DX2                !
 ! A31   A(7,12,13)            119.2872         estimate D2E/DX2                !
 ! A32   A(11,12,13)           122.8372         estimate D2E/DX2                !
 ! A33   A(12,13,14)           122.4841         estimate D2E/DX2                !
 ! A34   A(12,13,18)           119.4317         estimate D2E/DX2                !
 ! A35   A(14,13,18)           118.0831         estimate D2E/DX2                !
 ! A36   A(13,14,15)           121.165          estimate D2E/DX2                !
 ! A37   A(13,14,35)           123.027          estimate D2E/DX2                !
 ! A38   A(15,14,35)           115.8072         estimate D2E/DX2                !
 ! A39   A(14,15,16)           120.3447         estimate D2E/DX2                !
 ! A40   A(14,15,36)           119.9272         estimate D2E/DX2                !
 ! A41   A(16,15,36)           119.7269         estimate D2E/DX2                !
 ! A42   A(15,16,17)           120.07           estimate D2E/DX2                !
 ! A43   A(15,16,37)           119.93           estimate D2E/DX2                !
 ! A44   A(17,16,37)           119.9998         estimate D2E/DX2                !
 ! A45   A(16,17,18)           120.9374         estimate D2E/DX2                !
 ! A46   A(16,17,38)           117.4484         estimate D2E/DX2                !
 ! A47   A(18,17,38)           121.6135         estimate D2E/DX2                !
 ! A48   A(4,18,13)            120.0667         estimate D2E/DX2                !
 ! A49   A(4,18,17)            120.5428         estimate D2E/DX2                !
 ! A50   A(13,18,17)           119.3884         estimate D2E/DX2                !
 ! A51   A(3,19,20)            120.5428         estimate D2E/DX2                !
 ! A52   A(3,19,24)            120.0666         estimate D2E/DX2                !
 ! A53   A(20,19,24)           119.3885         estimate D2E/DX2                !
 ! A54   A(19,20,21)           120.9373         estimate D2E/DX2                !
 ! A55   A(19,20,39)           121.6135         estimate D2E/DX2                !
 ! A56   A(21,20,39)           117.4484         estimate D2E/DX2                !
 ! A57   A(20,21,22)           120.07           estimate D2E/DX2                !
 ! A58   A(20,21,40)           119.9998         estimate D2E/DX2                !
 ! A59   A(22,21,40)           119.93           estimate D2E/DX2                !
 ! A60   A(21,22,23)           120.3447         estimate D2E/DX2                !
 ! A61   A(21,22,41)           119.7269         estimate D2E/DX2                !
 ! A62   A(23,22,41)           119.9272         estimate D2E/DX2                !
 ! A63   A(22,23,24)           121.165          estimate D2E/DX2                !
 ! A64   A(22,23,42)           115.8072         estimate D2E/DX2                !
 ! A65   A(24,23,42)           123.027          estimate D2E/DX2                !
 ! A66   A(19,24,23)           118.083          estimate D2E/DX2                !
 ! A67   A(19,24,25)           119.4318         estimate D2E/DX2                !
 ! A68   A(23,24,25)           122.4841         estimate D2E/DX2                !
 ! A69   A(24,25,26)           122.8373         estimate D2E/DX2                !
 ! A70   A(24,25,30)           119.2872         estimate D2E/DX2                !
 ! A71   A(26,25,30)           117.8743         estimate D2E/DX2                !
 ! A72   A(25,26,27)           121.0882         estimate D2E/DX2                !
 ! A73   A(25,26,43)           123.0417         estimate D2E/DX2                !
 ! A74   A(27,26,43)           115.8699         estimate D2E/DX2                !
 ! A75   A(26,27,28)           120.368          estimate D2E/DX2                !
 ! A76   A(26,27,44)           119.9131         estimate D2E/DX2                !
 ! A77   A(28,27,44)           119.7189         estimate D2E/DX2                !
 ! A78   A(27,28,29)           120.0147         estimate D2E/DX2                !
 ! A79   A(27,28,45)           119.9629         estimate D2E/DX2                !
 ! A80   A(29,28,45)           120.0223         estimate D2E/DX2                !
 ! A81   A(28,29,30)           120.6911         estimate D2E/DX2                !
 ! A82   A(28,29,46)           118.1056         estimate D2E/DX2                !
 ! A83   A(30,29,46)           121.203          estimate D2E/DX2                !
 ! A84   A(2,30,25)            120.3309         estimate D2E/DX2                !
 ! A85   A(2,30,29)            119.7067         estimate D2E/DX2                !
 ! A86   A(25,30,29)           119.9621         estimate D2E/DX2                !
 ! A87   A(1,47,6)             100.0            estimate D2E/DX2                !
 ! D1    D(47,1,2,3)            76.4673         estimate D2E/DX2                !
 ! D2    D(47,1,2,30)         -103.335          estimate D2E/DX2                !
 ! D3    D(2,1,47,6)           -47.3243         estimate D2E/DX2                !
 ! D4    D(1,2,3,4)              2.24           estimate D2E/DX2                !
 ! D5    D(1,2,3,19)          -177.0635         estimate D2E/DX2                !
 ! D6    D(30,2,3,4)          -177.9591         estimate D2E/DX2                !
 ! D7    D(30,2,3,19)            2.7374         estimate D2E/DX2                !
 ! D8    D(1,2,30,25)          179.0298         estimate D2E/DX2                !
 ! D9    D(1,2,30,29)           -1.1556         estimate D2E/DX2                !
 ! D10   D(3,2,30,25)           -0.769          estimate D2E/DX2                !
 ! D11   D(3,2,30,29)          179.0456         estimate D2E/DX2                !
 ! D12   D(2,3,4,5)            -70.7681         estimate D2E/DX2                !
 ! D13   D(2,3,4,18)           108.5222         estimate D2E/DX2                !
 ! D14   D(19,3,4,5)           108.5221         estimate D2E/DX2                !
 ! D15   D(19,3,4,18)          -72.1876         estimate D2E/DX2                !
 ! D16   D(2,3,19,20)          176.6128         estimate D2E/DX2                !
 ! D17   D(2,3,19,24)           -2.862          estimate D2E/DX2                !
 ! D18   D(4,3,19,20)           -2.6647         estimate D2E/DX2                !
 ! D19   D(4,3,19,24)          177.8604         estimate D2E/DX2                !
 ! D20   D(3,4,5,6)              2.24           estimate D2E/DX2                !
 ! D21   D(3,4,5,7)           -177.9592         estimate D2E/DX2                !
 ! D22   D(18,4,5,6)          -177.0635         estimate D2E/DX2                !
 ! D23   D(18,4,5,7)             2.7373         estimate D2E/DX2                !
 ! D24   D(3,4,18,13)          177.8605         estimate D2E/DX2                !
 ! D25   D(3,4,18,17)           -2.6647         estimate D2E/DX2                !
 ! D26   D(5,4,18,13)           -2.8619         estimate D2E/DX2                !
 ! D27   D(5,4,18,17)          176.6129         estimate D2E/DX2                !
 ! D28   D(4,5,6,47)            75.455          estimate D2E/DX2                !
 ! D29   D(7,5,6,47)          -104.3472         estimate D2E/DX2                !
 ! D30   D(4,5,7,8)            179.0458         estimate D2E/DX2                !
 ! D31   D(4,5,7,12)            -0.7689         estimate D2E/DX2                !
 ! D32   D(6,5,7,8)             -1.1556         estimate D2E/DX2                !
 ! D33   D(6,5,7,12)           179.0297         estimate D2E/DX2                !
 ! D34   D(5,6,47,1)           -45.3463         estimate D2E/DX2                !
 ! D35   D(5,7,8,9)           -179.5125         estimate D2E/DX2                !
 ! D36   D(5,7,8,31)             0.2855         estimate D2E/DX2                !
 ! D37   D(12,7,8,9)             0.3028         estimate D2E/DX2                !
 ! D38   D(12,7,8,31)         -179.8991         estimate D2E/DX2                !
 ! D39   D(5,7,12,11)          179.3419         estimate D2E/DX2                !
 ! D40   D(5,7,12,13)           -1.055          estimate D2E/DX2                !
 ! D41   D(8,7,12,11)           -0.4723         estimate D2E/DX2                !
 ! D42   D(8,7,12,13)          179.1308         estimate D2E/DX2                !
 ! D43   D(7,8,9,10)             0.0334         estimate D2E/DX2                !
 ! D44   D(7,8,9,32)           179.8958         estimate D2E/DX2                !
 ! D45   D(31,8,9,10)         -179.7707         estimate D2E/DX2                !
 ! D46   D(31,8,9,32)            0.0916         estimate D2E/DX2                !
 ! D47   D(8,9,10,11)           -0.1874         estimate D2E/DX2                !
 ! D48   D(8,9,10,33)          179.8439         estimate D2E/DX2                !
 ! D49   D(32,9,10,11)         179.9502         estimate D2E/DX2                !
 ! D50   D(32,9,10,33)          -0.0186         estimate D2E/DX2                !
 ! D51   D(9,10,11,12)           0.003          estimate D2E/DX2                !
 ! D52   D(9,10,11,34)         179.894          estimate D2E/DX2                !
 ! D53   D(33,10,11,12)        179.9717         estimate D2E/DX2                !
 ! D54   D(33,10,11,34)         -0.1373         estimate D2E/DX2                !
 ! D55   D(10,11,12,7)           0.3244         estimate D2E/DX2                !
 ! D56   D(10,11,12,13)       -179.2636         estimate D2E/DX2                !
 ! D57   D(34,11,12,7)        -179.5587         estimate D2E/DX2                !
 ! D58   D(34,11,12,13)          0.8533         estimate D2E/DX2                !
 ! D59   D(7,12,13,14)        -178.7103         estimate D2E/DX2                !
 ! D60   D(7,12,13,18)           0.9024         estimate D2E/DX2                !
 ! D61   D(11,12,13,14)          0.8721         estimate D2E/DX2                !
 ! D62   D(11,12,13,18)       -179.5152         estimate D2E/DX2                !
 ! D63   D(12,13,14,15)        179.1433         estimate D2E/DX2                !
 ! D64   D(12,13,14,35)         -0.513          estimate D2E/DX2                !
 ! D65   D(18,13,14,15)         -0.4744         estimate D2E/DX2                !
 ! D66   D(18,13,14,35)        179.8693         estimate D2E/DX2                !
 ! D67   D(12,13,18,4)           1.0388         estimate D2E/DX2                !
 ! D68   D(12,13,18,17)       -178.4421         estimate D2E/DX2                !
 ! D69   D(14,13,18,4)        -179.3315         estimate D2E/DX2                !
 ! D70   D(14,13,18,17)          1.1876         estimate D2E/DX2                !
 ! D71   D(13,14,15,16)         -0.3061         estimate D2E/DX2                !
 ! D72   D(13,14,15,36)       -179.9008         estimate D2E/DX2                !
 ! D73   D(35,14,15,16)        179.3738         estimate D2E/DX2                !
 ! D74   D(35,14,15,36)         -0.2209         estimate D2E/DX2                !
 ! D75   D(14,15,16,17)          0.3633         estimate D2E/DX2                !
 ! D76   D(14,15,16,37)       -179.484          estimate D2E/DX2                !
 ! D77   D(36,15,16,17)        179.9588         estimate D2E/DX2                !
 ! D78   D(36,15,16,37)          0.1115         estimate D2E/DX2                !
 ! D79   D(15,16,17,18)          0.378          estimate D2E/DX2                !
 ! D80   D(15,16,17,38)       -179.2998         estimate D2E/DX2                !
 ! D81   D(37,16,17,18)       -179.7748         estimate D2E/DX2                !
 ! D82   D(37,16,17,38)          0.5474         estimate D2E/DX2                !
 ! D83   D(16,17,18,4)         179.3595         estimate D2E/DX2                !
 ! D84   D(16,17,18,13)         -1.1622         estimate D2E/DX2                !
 ! D85   D(38,17,18,4)          -0.9763         estimate D2E/DX2                !
 ! D86   D(38,17,18,13)        178.502          estimate D2E/DX2                !
 ! D87   D(3,19,20,21)         179.3594         estimate D2E/DX2                !
 ! D88   D(3,19,20,39)          -0.9763         estimate D2E/DX2                !
 ! D89   D(24,19,20,21)         -1.1622         estimate D2E/DX2                !
 ! D90   D(24,19,20,39)        178.5021         estimate D2E/DX2                !
 ! D91   D(3,19,24,23)        -179.3316         estimate D2E/DX2                !
 ! D92   D(3,19,24,25)           1.0388         estimate D2E/DX2                !
 ! D93   D(20,19,24,23)          1.1875         estimate D2E/DX2                !
 ! D94   D(20,19,24,25)       -178.4421         estimate D2E/DX2                !
 ! D95   D(19,20,21,22)          0.378          estimate D2E/DX2                !
 ! D96   D(19,20,21,40)       -179.7748         estimate D2E/DX2                !
 ! D97   D(39,20,21,22)       -179.2998         estimate D2E/DX2                !
 ! D98   D(39,20,21,40)          0.5474         estimate D2E/DX2                !
 ! D99   D(20,21,22,23)          0.3633         estimate D2E/DX2                !
 ! D100  D(20,21,22,41)        179.9589         estimate D2E/DX2                !
 ! D101  D(40,21,22,23)       -179.4841         estimate D2E/DX2                !
 ! D102  D(40,21,22,41)          0.1115         estimate D2E/DX2                !
 ! D103  D(21,22,23,24)         -0.3062         estimate D2E/DX2                !
 ! D104  D(21,22,23,42)        179.3737         estimate D2E/DX2                !
 ! D105  D(41,22,23,24)       -179.9009         estimate D2E/DX2                !
 ! D106  D(41,22,23,42)         -0.2211         estimate D2E/DX2                !
 ! D107  D(22,23,24,19)         -0.4743         estimate D2E/DX2                !
 ! D108  D(22,23,24,25)        179.1433         estimate D2E/DX2                !
 ! D109  D(42,23,24,19)        179.8695         estimate D2E/DX2                !
 ! D110  D(42,23,24,25)         -0.5129         estimate D2E/DX2                !
 ! D111  D(19,24,25,26)       -179.5151         estimate D2E/DX2                !
 ! D112  D(19,24,25,30)          0.9024         estimate D2E/DX2                !
 ! D113  D(23,24,25,26)          0.8723         estimate D2E/DX2                !
 ! D114  D(23,24,25,30)       -178.7102         estimate D2E/DX2                !
 ! D115  D(24,25,26,27)       -179.2637         estimate D2E/DX2                !
 ! D116  D(24,25,26,43)          0.8532         estimate D2E/DX2                !
 ! D117  D(30,25,26,27)          0.3244         estimate D2E/DX2                !
 ! D118  D(30,25,26,43)       -179.5587         estimate D2E/DX2                !
 ! D119  D(24,25,30,2)          -1.055          estimate D2E/DX2                !
 ! D120  D(24,25,30,29)        179.1309         estimate D2E/DX2                !
 ! D121  D(26,25,30,2)         179.3418         estimate D2E/DX2                !
 ! D122  D(26,25,30,29)         -0.4723         estimate D2E/DX2                !
 ! D123  D(25,26,27,28)          0.003          estimate D2E/DX2                !
 ! D124  D(25,26,27,44)        179.9717         estimate D2E/DX2                !
 ! D125  D(43,26,27,28)        179.8941         estimate D2E/DX2                !
 ! D126  D(43,26,27,44)         -0.1372         estimate D2E/DX2                !
 ! D127  D(26,27,28,29)         -0.1874         estimate D2E/DX2                !
 ! D128  D(26,27,28,45)        179.9502         estimate D2E/DX2                !
 ! D129  D(44,27,28,29)        179.8438         estimate D2E/DX2                !
 ! D130  D(44,27,28,45)         -0.0185         estimate D2E/DX2                !
 ! D131  D(27,28,29,30)          0.0335         estimate D2E/DX2                !
 ! D132  D(27,28,29,46)       -179.7707         estimate D2E/DX2                !
 ! D133  D(45,28,29,30)        179.8958         estimate D2E/DX2                !
 ! D134  D(45,28,29,46)          0.0916         estimate D2E/DX2                !
 ! D135  D(28,29,30,2)        -179.5125         estimate D2E/DX2                !
 ! D136  D(28,29,30,25)          0.3028         estimate D2E/DX2                !
 ! D137  D(46,29,30,2)           0.2856         estimate D2E/DX2                !
 ! D138  D(46,29,30,25)       -179.8991         estimate D2E/DX2                !
 --------------------------------------------------------------------------------
 Trust Radius=3.00D-01 FncErr=1.00D-07 GrdErr=1.00D-06 EigMax=2.50D+02 EigMin=1.00D-04
 Number of steps in this run=    282 maximum allowed number of steps=    282.
 GradGradGradGradGradGradGradGradGradGradGradGradGradGradGradGradGradGrad

 Leave Link  103 at Fri Mar  8 00:25:27 2024, MaxMem= 13421772800 cpu:               0.9 elap:               0.0
 (Enter /public/software/apps/Gaussian/g16/l202.exe)
                          Input orientation:                          
 ---------------------------------------------------------------------
 Center     Atomic      Atomic             Coordinates (Angstroms)
 Number     Number       Type             X           Y           Z
 ---------------------------------------------------------------------
      1          8           0       -0.457175   -0.701587    2.536406
      2          6           0       -1.198318   -0.188321    1.472544
      3          6           0       -0.523942    0.302277    0.348523
      4          6           0        0.964428    0.205149    0.321841
      5          6           0        1.696402    1.033818    1.179986
      6          8           0        1.011564    1.877574    2.053835
      7          6           0        3.099356    1.018594    1.170172
      8          6           0        3.813058    1.877219    2.029861
      9          6           0        5.204664    1.886249    2.029826
     10          6           0        5.905176    1.043371    1.175719
     11          6           0        5.221122    0.181717    0.317368
     12          6           0        3.802704    0.144009    0.294373
     13          6           0        3.064651   -0.733906   -0.557875
     14          6           0        3.695864   -1.651482   -1.436897
     15          6           0        2.948513   -2.508066   -2.243894
     16          6           0        1.561491   -2.483135   -2.197244
     17          6           0        0.908556   -1.595680   -1.348260
     18          6           0        1.637707   -0.703873   -0.529190
     19          6           0       -1.252886    0.884569   -0.716116
     20          6           0       -0.579730    1.447708   -1.824083
     21          6           0       -1.288041    2.010133   -2.880799
     22          6           0       -2.675660    2.031553   -2.854730
     23          6           0       -3.368006    1.497824   -1.768772
     24          6           0       -2.679398    0.917136   -0.672563
     25          6           0       -3.359703    0.378179    0.462555
     26          6           0       -4.774135    0.363864    0.576737
     27          6           0       -5.400340   -0.158250    1.709171
     28          6           0       -4.644671   -0.677376    2.753265
     29          6           0       -3.255432   -0.682235    2.671785
     30          6           0       -2.599672   -0.163707    1.537421
     31          1           0        3.298485    2.549462    2.705343
     32          1           0        5.741985    2.551477    2.693562
     33          1           0        6.987772    1.056150    1.177853
     34          1           0        5.834919   -0.437459   -0.313643
     35          1           0        4.764893   -1.739560   -1.524062
     36          1           0        3.451025   -3.201563   -2.906270
     37          1           0        0.987903   -3.157048   -2.820690
     38          1           0       -0.172931   -1.620266   -1.337325
     39          1           0        0.500364    1.464119   -1.882951
     40          1           0       -0.757058    2.433973   -3.723570
     41          1           0       -3.221398    2.471333   -3.679935
     42          1           0       -4.441049    1.562347   -1.819720
     43          1           0       -5.428489    0.744980   -0.188031
     44          1           0       -6.480918   -0.159184    1.776500
     45          1           0       -5.137257   -1.080028    3.629060
     46          1           0       -2.697118   -1.097737    3.501613
     47         29           0        0.292535    0.811554    3.536652
 ---------------------------------------------------------------------
                    Distance matrix (angstroms):
                    1          2          3          4          5
     1  O    0.000000
     2  C    1.394467   0.000000
     3  C    2.408118   1.399604   0.000000
     4  C    2.783419   2.481211   1.491774   0.000000
     5  C    3.080487   3.155728   2.481211   1.399604   0.000000
     6  O    3.007015   3.080487   2.783420   2.408118   1.394467
     7  C    4.180255   4.474156   3.783716   2.437063   1.403071
     8  C    5.014152   5.448940   4.910897   3.718581   2.431840
     9  C    6.245794   6.753709   6.176785   4.870617   3.709012
    10  C    6.736160   7.215594   6.524341   5.083573   4.208787
    11  C    6.160147   6.533037   5.746413   4.256761   3.727444
    12  C    4.887567   5.148665   4.329878   2.839067   2.452056
    13  C    4.688164   4.753227   3.843596   2.463059   2.831451
    14  C    5.825562   5.878665   4.981131   3.741788   4.249325
    15  C    6.141119   6.032357   5.164939   4.228608   5.082881
    16  C    5.445766   5.133231   4.311436   3.732177   4.877791
    17  C    4.213698   3.791637   2.921192   2.456694   3.731888
    18  C    3.713006   3.509383   2.540757   1.415584   2.438093
    19  C    3.705124   2.438094   1.415585   2.540757   3.509384
    20  C    4.862957   3.731888   2.456693   2.921193   3.791637
    21  C    6.114726   4.877791   3.732176   4.311437   5.133232
    22  C    6.438639   5.082881   4.228607   5.164939   6.032357
    23  C    5.643129   4.249325   3.741787   4.981130   5.878665
    24  C    4.225639   2.831451   2.463059   3.843596   4.753228
    25  C    3.727120   2.452057   2.839068   4.329879   5.148667
    26  C    4.859180   3.727445   4.256761   5.746413   6.533039
    27  C    5.041271   4.208787   5.083572   6.524340   7.215595
    28  C    4.193177   3.709012   4.870617   6.176784   6.753710
    29  C    2.801597   2.431840   3.718581   4.910897   5.448941
    30  C    2.424372   1.403071   2.437063   3.783715   4.474157
    31  H    4.970195   5.407077   5.021493   4.077341   2.681522
    32  H    7.002622   7.560766   7.058325   5.827123   4.578312
    33  H    7.769333   8.285386   7.594864   6.143096   5.291418
    34  H    6.912524   7.260782   6.435898   4.953632   4.639279
    35  H    6.695878   6.851706   5.970548   4.651106   4.941572
    36  H    7.151687   7.061872   6.218596   5.311267   6.141225
    37  H    6.067620   5.659042   4.929150   4.602219   5.837014
    38  H    3.991310   3.316210   2.580981   2.716350   4.107971
    39  H    5.013769   4.107971   2.716350   2.580982   3.316210
    40  H    7.007779   5.837014   4.602218   4.929150   5.659042
    41  H    7.506747   6.141226   5.311266   6.218596   7.061872
    42  H    6.322380   4.941573   4.651105   5.970549   6.851707
    43  H    5.850562   4.639279   4.953631   6.435897   7.260783
    44  H    6.095665   5.291418   6.143096   7.594863   8.285387
    45  H    4.820817   4.578312   5.827123   7.058324   7.560767
    46  H    2.471013   2.681522   4.077341   5.021492   5.407078
    47  Cu   1.962690   2.735495   3.330190   3.339787   2.752112
                    6          7          8          9         10
     6  O    0.000000
     7  C    2.424373   0.000000
     8  C    2.801597   1.409139   0.000000
     9  C    4.193178   2.433958   1.391635   0.000000
    10  C    5.041272   2.805935   2.408696   1.389482   0.000000
    11  C    4.859180   2.435062   2.791058   2.416239   1.395401
    12  C    3.727119   1.423594   2.452762   2.830669   2.450716
    13  C    4.225639   2.461424   3.751595   4.259233   3.772618
    14  C    5.643130   3.779145   4.948118   5.177855   4.355348
    15  C    6.438640   4.910797   6.184104   6.531838   5.748766
    16  C    6.114726   5.095746   6.476933   7.087478   6.533049
    17  C    4.862957   4.239874   5.648793   6.480111   6.188802
    18  C    3.705124   2.826861   4.235910   5.097105   4.916388
    19  C    3.713007   4.745319   5.847182   7.088266   7.405546
    20  C    4.213698   4.762917   5.859518   6.964492   7.156557
    21  C    5.445766   6.053327   7.081911   8.141548   8.314586
    22  C    6.141119   7.111732   8.123208   9.272514   9.531619
    23  C    5.825562   7.119960   8.132726   9.384609   9.740044
    24  C    4.688165   6.066297   7.097664   8.390502   8.782197
    25  C    4.887569   6.529188   7.493468   8.836232   9.316065
    26  C    6.160150   7.922922   8.839779  10.198311  10.717658
    27  C    6.736163   8.597692   9.441010  10.805041  11.381703
    28  C    6.245796   8.084086   8.864674  10.203183  10.805040
    29  C    5.014154   6.747666   7.544960   8.864674   9.441010
    30  C    4.180256   5.831949   6.747665   8.084086   8.597692
    31  H    2.471013   2.177145   1.083038   2.128308   3.376818
    32  H    4.820817   3.413786   2.148460   1.082491   2.145894
    33  H    6.095666   3.888605   3.388050   2.143454   1.082674
    34  H    5.850563   3.435855   3.864928   3.359864   2.101426
    35  H    6.322380   4.200039   5.159210   5.096078   4.041506
    36  H    7.506747   5.877991   7.091578   7.302474   6.380044
    37  H    7.007779   6.149894   7.540105   8.169665   7.602261
    38  H    5.013769   4.894792   6.281596   7.249268   7.096037
    39  H    3.991310   4.034205   5.143412   6.133389   6.224507
    40  H    6.067620   6.389361   7.368711   8.303234   8.385831
    41  H    7.151688   8.098513   9.079555  10.195205  10.436034
    42  H    6.695878   8.129750   9.113106  10.390558  10.783615
    43  H    6.912526   8.639660   9.571165  10.921782  11.419318
    44  H    7.769336   9.671424  10.496527  11.865951  12.458828
    45  H    7.002624   8.848284   9.560904  10.877117  11.509259
    46  H    4.970197   6.596483   7.307449   8.573709   9.164802
    47  Cu   1.962689   3.677137   3.974939   5.249239   6.093397
                   11         12         13         14         15
    11  C    0.000000
    12  C    1.419105   0.000000
    13  C    2.500956   1.428910   0.000000
    14  C    2.960486   2.496497   1.418822   0.000000
    15  C    4.354279   3.769077   2.450264   1.394100   0.000000
    16  C    5.178572   4.258295   2.829633   2.413570   1.388030
    17  C    4.952947   3.755110   2.452776   2.789275   2.407495
    18  C    3.787056   2.466652   1.427548   2.440882   2.813101
    19  C    6.593548   5.208503   4.613635   5.607246   5.612115
    20  C    6.311769   5.039168   4.432182   5.294865   5.317226
    21  C    7.479344   6.283297   5.645499   6.350715   6.226408
    22  C    8.708804   7.446400   6.773070   7.494753   7.253453
    23  C    8.936288   7.583434   6.915632   7.741223   7.494752
    24  C    7.996188   6.599268   5.977725   6.915632   6.773070
    25  C    8.584302   7.168207   6.599268   7.583434   7.446399
    26  C   10.000281   8.584302   7.996187   8.936287   8.708802
    27  C   10.717656   9.316063   8.782195   9.740042   9.531616
    28  C   10.198309   8.836230   8.390500   9.384608   9.272511
    29  C    8.839777   7.493467   7.097663   8.132725   8.123207
    30  C    7.922920   6.529186   6.066296   7.119959   7.111731
    31  H    3.873651   3.442850   4.635059   5.913036   7.084915
    32  H    3.396080   3.913160   5.341695   6.237962   7.601377
    33  H    2.150842   3.428877   4.648433   5.000485   6.381818
    34  H    1.076244   2.199474   2.796769   2.703906   4.042848
    35  H    2.700058   2.789327   2.199018   1.076187   2.099523
    36  H    4.997166   4.643344   3.428349   2.149827   1.082681
    37  H    6.238181   5.340758   3.912139   3.393327   2.144263
    38  H    5.922918   4.645512   3.446029   3.870202   3.369491
    39  H    5.363909   4.169998   3.628045   4.485215   4.679954
    40  H    7.559132   6.494554   5.887490   6.461295   6.351728
    41  H    9.617532   8.399379   7.715907   8.359267   8.057570
    42  H    9.991538   8.627893   7.949878   8.756975   8.447119
    43  H   10.676465   9.263304   8.628865   9.516119   9.218625
    44  H   11.797585  10.394302   9.843653  10.775888  10.516415
    45  H   10.947845   9.619839   9.215287  10.198750  10.095076
    46  H    8.629887   7.353639   7.057606   8.097267   8.177593
    47  Cu   5.920427   4.824860   5.180562   6.510406   7.175570
                   16         17         18         19         20
    16  C    0.000000
    17  C    1.390926   0.000000
    18  C    2.440079   1.413456   0.000000
    19  C    4.632050   3.350085   3.303576   0.000000
    20  C    4.491726   3.421054   3.350086   1.413455   0.000000
    21  C    5.364377   4.491726   4.632051   2.440078   1.390926
    22  C    6.226407   5.317224   5.612114   2.813099   2.407495
    23  C    6.350714   5.294864   5.607245   2.440881   2.789275
    24  C    5.645497   4.432181   4.613634   1.427548   2.452776
    25  C    6.283295   5.039167   5.208503   2.466652   3.755111
    26  C    7.479340   6.311767   6.593546   3.787057   4.952947
    27  C    8.314581   7.156554   7.405543   4.916387   6.188802
    28  C    8.141545   6.964490   7.088264   5.097105   6.480111
    29  C    7.081909   5.859517   5.847180   4.235911   5.648793
    30  C    6.053325   4.762916   4.745318   2.826861   4.239874
    31  H    7.237371   6.271017   4.878993   5.932388   6.063837
    32  H    8.169690   7.543028   6.150490   7.958185   7.848025
    33  H    7.304953   7.097205   5.885140   8.457246   8.150584
    34  H    5.098522   5.165362   4.211179   7.221269   6.854415
    35  H    3.356764   3.863023   3.441179   6.614567   6.230063
    36  H    2.142241   3.386798   3.895778   6.604546   6.247706
    37  H    1.082519   2.147607   3.419252   5.077897   4.965327
    38  H    2.119487   1.081822   2.184323   2.797571   3.132871
    39  H    4.099462   3.132872   2.797572   2.184323   1.081822
    40  H    5.646529   4.965327   5.077897   3.419251   2.147607
    41  H    7.044228   6.247705   6.604546   3.895778   3.386799
    42  H    7.248375   6.230063   6.614567   3.441178   3.863023
    43  H    7.957228   6.854412   7.221267   4.211178   5.165361
    44  H    9.266700   8.150581   8.457243   5.885140   7.097205
    45  H    8.988201   7.848023   7.958183   6.150491   7.543028
    46  H    7.247900   6.063835   5.932386   4.878994   6.271017
    47  Cu   6.733705   5.480568   4.542805   4.525449   5.468365
                   21         22         23         24         25
    21  C    0.000000
    22  C    1.388029   0.000000
    23  C    2.413570   1.394100   0.000000
    24  C    2.829633   2.450264   1.418821   0.000000
    25  C    4.258295   3.769077   2.496496   1.428910   0.000000
    26  C    5.178572   4.354279   2.960486   2.500957   1.419105
    27  C    6.533048   5.748766   4.355347   3.772617   2.450716
    28  C    7.087478   6.531838   5.177855   4.259233   2.830670
    29  C    6.476933   6.184105   4.948118   3.751595   2.452763
    30  C    5.095746   4.910797   3.779145   2.461424   1.423596
    31  H    7.247902   8.177594   8.097268   7.057607   7.353641
    32  H    8.988204  10.095079  10.198752   9.215289   9.619841
    33  H    9.266705  10.516418  10.775890   9.843655  10.394303
    34  H    7.957233   9.218628   9.516120   8.628867   9.263305
    35  H    7.248375   8.447118   8.756973   7.949878   8.627892
    36  H    7.044230   8.057570   8.359266   7.715907   8.399378
    37  H    5.646529   6.351727   6.461293   5.887489   6.494552
    38  H    4.099461   4.679952   4.485213   3.628043   4.169996
    39  H    2.119487   3.369490   3.870201   3.446029   4.645512
    40  H    1.082518   2.144262   3.393326   3.912139   5.340758
    41  H    2.142240   1.082682   2.149827   3.428349   4.643344
    42  H    3.356763   2.099523   1.076188   2.199018   2.789326
    43  H    5.098521   4.042848   2.703906   2.796768   2.199473
    44  H    7.304953   6.381819   5.000485   4.648433   3.428876
    45  H    8.169689   7.601377   6.237961   5.341694   3.913160
    46  H    7.237371   7.084914   5.913035   4.635059   3.442851
    47  Cu   6.717030   7.151807   6.482133   5.153739   4.793405
                   26         27         28         29         30
    26  C    0.000000
    27  C    1.395400   0.000000
    28  C    2.416240   1.389482   0.000000
    29  C    2.791059   2.408696   1.391635   0.000000
    30  C    2.435063   2.805935   2.433958   1.409140   0.000000
    31  H    8.629890   9.164803   8.573710   7.307450   6.596483
    32  H   10.947848  11.509259  10.877117   9.560904   8.848284
    33  H   11.797587  12.458828  11.865950  10.496525   9.671423
    34  H   10.676466  11.419316  10.921781   9.571164   8.639659
    35  H    9.991537  10.783613  10.390556   9.113105   8.129748
    36  H    9.617529  10.436030  10.195202   9.079553   8.098512
    37  H    7.559128   8.385826   8.303231   7.368709   6.389360
    38  H    5.363906   6.224503   6.133386   5.143411   4.034204
    39  H    5.922919   7.096036   7.249268   6.281597   4.894792
    40  H    6.238181   7.602260   8.169665   7.540105   6.149894
    41  H    4.997167   6.380044   7.302475   7.091579   5.877991
    42  H    2.700058   4.041505   5.096078   5.159211   4.200039
    43  H    1.076243   2.101426   3.359864   3.864928   3.435855
    44  H    2.150841   1.082674   2.143454   3.388049   3.888605
    45  H    3.396080   2.145894   1.082491   2.148460   3.413786
    46  H    3.873652   3.376817   2.128307   1.083038   2.177144
    47  Cu   5.884953   6.057147   5.215996   3.945563   3.648687
                   31         32         33         34         35
    31  H    0.000000
    32  H    2.443529   0.000000
    33  H    4.263103   2.466853   0.000000
    34  H    4.946663   4.240950   2.405098   0.000000
    35  H    6.199510   6.095577   4.478563   2.074979   0.000000
    36  H    8.036651   8.348897   6.878718   4.477157   2.402957
    37  H    8.272852   9.251785   8.350917   6.097132   4.237472
    38  H    6.766131   8.284789   8.047670   6.208157   4.942794
    39  H    5.482690   7.042827   7.184805   5.876751   5.345893
    40  H    7.602085   9.134054   9.268481   7.957819   7.262793
    41  H    9.126158  10.998642  11.394209  10.090088   9.282255
    42  H    9.019478  11.182230  11.826226  10.576531   9.784650
    43  H    9.369517  11.676750  12.495039  11.326001  10.576528
    44  H   10.190007  12.553408  13.536655  12.495038  11.826224
    45  H    9.229745  11.507428  12.553406  11.676748  11.182228
    46  H    7.062815   9.229744  10.190004   9.369514   9.019476
    47  Cu   3.570313   5.782269   7.102813   6.863150   7.219487
                   36         37         38         39         40
    36  H    0.000000
    37  H    2.465010   0.000000
    38  H    4.253839   2.430968   0.000000
    39  H    5.614461   4.740489   3.203820   0.000000
    40  H    7.080622   5.926179   4.740488   2.430968   0.000000
    41  H    8.792129   7.080621   5.614459   4.253839   2.465009
    42  H    9.282255   7.262792   5.345892   4.942794   4.237472
    43  H   10.090084   7.957814   5.876747   6.208157   6.097131
    44  H   11.394205   9.268475   7.184801   8.047670   8.350917
    45  H   10.998638   9.134050   7.042824   8.284788   9.251784
    46  H    9.126155   7.602082   5.482689   6.766131   8.272852
    47  Cu   8.221460   7.526562   5.466814   5.462704   7.512970
                   41         42         43         44         45
    41  H    0.000000
    42  H    2.402957   0.000000
    43  H    4.477157   2.074978   0.000000
    44  H    6.878719   4.478564   2.405099   0.000000
    45  H    8.348897   6.095577   4.240950   2.466852   0.000000
    46  H    8.036651   6.199510   4.946662   4.263102   2.443529
    47  Cu   8.196446   7.187575   6.826991   7.065418   5.750588
                   46         47
    46  H    0.000000
    47  Cu   3.547484   0.000000
 Symmetry turned off by external request.
 Stoichiometry    C28H16CuO2(2)
 Framework group  C1[X(C28H16CuO2)]
 Deg. of freedom   135
 Full point group                 C1      NOp   1
 Rotational constants (GHZ):           0.2113509           0.1108723           0.0886173
 Leave Link  202 at Fri Mar  8 00:25:27 2024, MaxMem= 13421772800 cpu:               1.4 elap:               0.1
 (Enter /public/software/apps/Gaussian/g16/l301.exe)
 Standard basis: def2SVPP (5D, 7F)
 Ernie: Thresh=  0.10000D-02 Tol=  0.10000D-05 Strict=F.
   476 basis functions,   885 primitive gaussians,   508 cartesian basis functions
   115 alpha electrons      114 beta electrons
       nuclear repulsion energy      3339.7905571248 Hartrees.
 IExCor=  402 DFT=T Ex+Corr=B3LYP ExCW=0 ScaHFX=  0.200000
 ScaDFX=  0.800000  0.720000  1.000000  0.810000 ScalE2=  1.000000  1.000000
 IRadAn=      5 IRanWt=     -1 IRanGd=            0 ICorTp=0 IEmpDi=141
 NAtoms=   47 NActive=   47 NUniq=   47 SFac= 1.00D+00 NAtFMM=   60 NAOKFM=F Big=F
 Integral buffers will be    131072 words long.
 Raffenetti 2 integral format.
 Two-electron integral symmetry is turned off.
 R6Disp:  Grimme-D3(BJ) Dispersion energy=       -0.1372443305 Hartrees.
 Nuclear repulsion after empirical dispersion term =     3339.6533127943 Hartrees.
 Leave Link  301 at Fri Mar  8 00:25:28 2024, MaxMem= 13421772800 cpu:               1.7 elap:               0.1
 (Enter /public/software/apps/Gaussian/g16/l302.exe)
 NPDir=0 NMtPBC=     1 NCelOv=     1 NCel=       1 NClECP=     1 NCelD=      1
         NCelK=      1 NCelE2=     1 NClLst=     1 CellRange=     0.0.
 One-electron integrals computed using PRISM.
   1 Symmetry operations used in ECPInt.
 ECPInt:  NShTT=   24753 NPrTT=  102856 LenC2=   22108 LenP2D=   59043.
 LDataN:  DoStor=T MaxTD1= 4 Len=   56
 NBasis=   476 RedAO= T EigKep=  1.51D-04  NBF=   476
 NBsUse=   476 1.00D-06 EigRej= -1.00D+00 NBFU=   476
 Precomputing XC quadrature grid using
 IXCGrd= 4 IRadAn=           5 IRanWt=          -1 IRanGd=           0 AccXCQ= 0.00D+00.
 Generated NRdTot=       0 NPtTot=           0 NUsed=           0 NTot=          32
 NSgBfM=   503   503   503   503   503 MxSgAt=    47 MxSgA2=    47.
 Leave Link  302 at Fri Mar  8 00:25:28 2024, MaxMem= 13421772800 cpu:              13.7 elap:               0.4
 (Enter /public/software/apps/Gaussian/g16/l303.exe)
 DipDrv:  MaxL=1.
 Leave Link  303 at Fri Mar  8 00:25:28 2024, MaxMem= 13421772800 cpu:               3.2 elap:               0.1
 (Enter /public/software/apps/Gaussian/g16/l401.exe)
 ExpMin= 3.30D-02 ExpMax= 7.64D+04 ExpMxC= 1.15D+04 IAcc=3 IRadAn=         5 AccDes= 0.00D+00
 Harris functional with IExCor=  402 and IRadAn=       5 diagonalized for initial guess.
 HarFok:  IExCor=  402 AccDes= 0.00D+00 IRadAn=         5 IDoV= 1 UseB2=F ITyADJ=14
 ICtDFT=  3500011 ScaDFX=  1.000000  1.000000  1.000000  1.000000
 FoFCou: FMM=F IPFlag=           0 FMFlag=      100000 FMFlg1=           0
         NFxFlg=           0 DoJE=T BraDBF=F KetDBF=T FulRan=T
         wScrn=  0.000000 ICntrl=       500 IOpCl=  0 I1Cent=   200000004 NGrid=           0
         NMat0=    1 NMatS0=      1 NMatT0=    0 NMatD0=    1 NMtDS0=    0 NMtDT0=    0
 Symmetry not used in FoFCou.
 Harris En= -2866.89951438734    
 JPrj=0 DoOrth=F DoCkMO=F.
 Initial guess <Sx>= 0.0000 <Sy>= 0.0000 <Sz>= 0.5000 <S**2>= 0.7500 S= 0.5000
 Leave Link  401 at Fri Mar  8 00:25:29 2024, MaxMem= 13421772800 cpu:              37.7 elap:               1.2
 (Enter /public/software/apps/Gaussian/g16/l502.exe)
 Two-electron integral symmetry not used.
 UHF open shell SCF:
 Using DIIS extrapolation, IDIIS=  1040.
 NGot= 13421772800 LenX= 13421235266 LenY= 13420976694
 Requested convergence on RMS density matrix=1.00D-08 within 128 cycles.
 Requested convergence on MAX density matrix=1.00D-06.
 Requested convergence on             energy=1.00D-06.
 No special actions if energy rises.
 Fock matrices will be formed incrementally for  20 cycles.

 Cycle   1  Pass 1  IDiag  1:
 FoFJK:  IHMeth= 1 ICntrl=       0 DoSepK=F KAlg= 0 I1Cent=           0 FoldK=F
 IRaf= 820000000 NMat=       1 IRICut=       1 DoRegI=T DoRafI=F ISym2E= 0 IDoP0=0 IntGTp=1.
 FoFCou: FMM=F IPFlag=           0 FMFlag=      100000 FMFlg1=           0
         NFxFlg=           0 DoJE=F BraDBF=F KetDBF=F FulRan=T
         wScrn=  0.000000 ICntrl=         0 IOpCl=  1 I1Cent=           0 NGrid=           0
         NMat0=    1 NMatS0=      1 NMatT0=    0 NMatD0=    1 NMtDS0=    0 NMtDT0=    0
 Symmetry not used in FoFCou.
 E= -2833.07350894724    
 DIIS: error= 3.97D-01 at cycle   1 NSaved=   1.
 NSaved= 1 IEnMin= 1 EnMin= -2833.07350894724     IErMin= 1 ErrMin= 3.97D-01
 ErrMax= 3.97D-01  0.00D+00 EMaxC= 1.00D-01 BMatC= 7.91D+01 BMatP= 7.91D+01
 IDIUse=3 WtCom= 0.00D+00 WtEn= 1.00D+00
 Coeff-Com:  0.100D+01
 Coeff-En:   0.100D+01
 Coeff:      0.100D+01
 Gap=    -1.606 Goal=   None    Shift=    0.000
 Gap=    -5.159 Goal=   None    Shift=    0.000
 GapD=   -5.159 DampG=0.250 DampE=0.125 DampFc=0.1250 IDamp=-1.
 Damping current iteration by 1.25D-01
 RMSDP=4.36D-01 MaxDP=5.94D+01              OVMax= 9.96D-01

 Cycle   2  Pass 1  IDiag  1:
 RMSU=  5.39D-02    CP:  1.36D+00
 E= -2844.54972976869     Delta-E=      -11.476220821452 Rises=F Damp=T
 DIIS: error= 2.75D-01 at cycle   2 NSaved=   2.
 NSaved= 2 IEnMin= 2 EnMin= -2844.54972976869     IErMin= 2 ErrMin= 2.75D-01
 ErrMax= 2.75D-01  0.00D+00 EMaxC= 1.00D-01 BMatC= 3.28D+01 BMatP= 7.91D+01
 IDIUse=3 WtCom= 0.00D+00 WtEn= 1.00D+00
 Coeff-Com: -0.113D+01 0.213D+01
 Coeff-En:   0.000D+00 0.100D+01
 Coeff:      0.000D+00 0.100D+01
 Gap=     0.394 Goal=   None    Shift=    0.000
 Gap=     0.028 Goal=   None    Shift=    0.000
 RMSDP=5.32D-02 MaxDP=6.58D+00 DE=-1.15D+01 OVMax= 9.32D-01

 Cycle   3  Pass 1  IDiag  1:
 RMSU=  4.54D-02    CP:  9.98D-01  5.07D-01
 E= -2787.71805175445     Delta-E=       56.831678014235 Rises=F Damp=F
 DIIS: error= 1.49D-01 at cycle   3 NSaved=   3.
 NSaved= 3 IEnMin= 2 EnMin= -2844.54972976869     IErMin= 3 ErrMin= 1.49D-01
 ErrMax= 1.49D-01  0.00D+00 EMaxC= 1.00D-01 BMatC= 7.93D+01 BMatP= 3.28D+01
 IDIUse=2 WtCom= 0.00D+00 WtEn= 1.00D+00
 EnCoef did   100 forward-backward iterations
 Coeff-En:   0.622D+00 0.200D-01 0.358D+00
 Coeff:      0.622D+00 0.200D-01 0.358D+00
 Gap=    -0.028 Goal=   None    Shift=    0.000
 Gap=    -0.003 Goal=   None    Shift=    0.000
 RMSDP=4.83D-02 MaxDP=5.44D+00 DE= 5.68D+01 OVMax= 9.03D-01

 Cycle   4  Pass 1  IDiag  1:
 RMSU=  1.49D-02    CP:  9.22D-01  6.38D-02  1.37D-01
 E= -2842.99171805281     Delta-E=      -55.273666298359 Rises=F Damp=F
 DIIS: error= 2.00D-01 at cycle   4 NSaved=   4.
 NSaved= 4 IEnMin= 2 EnMin= -2844.54972976869     IErMin= 3 ErrMin= 1.49D-01
 ErrMax= 2.00D-01  0.00D+00 EMaxC= 1.00D-01 BMatC= 5.96D+01 BMatP= 3.28D+01
 IDIUse=2 WtCom= 0.00D+00 WtEn= 1.00D+00
 EnCoef did   100 forward-backward iterations
 Coeff-En:   0.434D+00 0.215D-01 0.195D+00 0.350D+00
 Coeff:      0.434D+00 0.215D-01 0.195D+00 0.350D+00
 Gap=     0.816 Goal=   None    Shift=    0.000
 Gap=    -0.039 Goal=   None    Shift=    0.000
 RMSDP=2.28D-02 MaxDP=1.77D+00 DE=-5.53D+01 OVMax= 9.66D-01

 Cycle   5  Pass 1  IDiag  1:
 RMSU=  1.85D-02    CP:  8.80D-01  8.27D-03  9.60D-02  1.36D-01
 E= -2836.56463501518     Delta-E=        6.427083037634 Rises=F Damp=F
 DIIS: error= 1.67D-01 at cycle   5 NSaved=   5.
 NSaved= 5 IEnMin= 2 EnMin= -2844.54972976869     IErMin= 3 ErrMin= 1.49D-01
 ErrMax= 1.67D-01  0.00D+00 EMaxC= 1.00D-01 BMatC= 6.32D+01 BMatP= 3.28D+01
 IDIUse=2 WtCom= 0.00D+00 WtEn= 1.00D+00
 EnCoef did   100 forward-backward iterations
 Coeff-En:   0.221D+00 0.127D-01 0.000D+00 0.429D+00 0.338D+00
 Coeff:      0.221D+00 0.127D-01 0.000D+00 0.429D+00 0.338D+00
 Gap=     0.443 Goal=   None    Shift=    0.000
 Gap=     0.040 Goal=   None    Shift=    0.000
 RMSDP=1.84D-02 MaxDP=1.84D+00 DE= 6.43D+00 OVMax= 9.30D-01

 Cycle   6  Pass 1  IDiag  1:
 RMSU=  7.78D-03    CP:  8.67D-01  7.55D-03  6.68D-02  1.40D-01  9.94D-02
 E= -2861.84504006154     Delta-E=      -25.280405046366 Rises=F Damp=F
 DIIS: error= 7.32D-02 at cycle   6 NSaved=   6.
 NSaved= 6 IEnMin= 6 EnMin= -2861.84504006154     IErMin= 6 ErrMin= 7.32D-02
 ErrMax= 7.32D-02  0.00D+00 EMaxC= 1.00D-01 BMatC= 1.15D+01 BMatP= 3.28D+01
 IDIUse=3 WtCom= 2.68D-01 WtEn= 7.32D-01
 EnCoef did   100 forward-backward iterations
 Coeff-Com: -0.259D+00 0.606D+00 0.387D-02 0.130D+00 0.129D+00 0.391D+00
 Coeff-En:   0.195D+00 0.246D-02 0.000D+00 0.461D-01 0.232D-01 0.733D+00
 Coeff:      0.737D-01 0.164D+00 0.103D-02 0.685D-01 0.515D-01 0.641D+00
 Gap=     0.197 Goal=   None    Shift=    0.000
 Gap=    -0.300 Goal=   None    Shift=    0.000
 RMSDP=1.75D-02 MaxDP=1.43D+00 DE=-2.53D+01 OVMax= 9.33D-01

 Cycle   7  Pass 1  IDiag  1:
 RMSU=  1.49D-02    CP:  9.29D-01  6.69D-02  1.17D-02  2.01D-01  1.18D-01
                    CP: -3.84D-02
 E= -2844.54822956994     Delta-E=       17.296810491608 Rises=F Damp=F
 DIIS: error= 1.23D-01 at cycle   7 NSaved=   7.
 NSaved= 7 IEnMin= 6 EnMin= -2861.84504006154     IErMin= 6 ErrMin= 7.32D-02
 ErrMax= 1.23D-01  0.00D+00 EMaxC= 1.00D-01 BMatC= 5.92D+01 BMatP= 1.15D+01
 IDIUse=2 WtCom= 0.00D+00 WtEn= 1.00D+00
 EnCoef did   100 forward-backward iterations
 Coeff-En:   0.136D+00 0.410D-02 0.000D+00 0.000D+00 0.000D+00 0.698D+00
 Coeff-En:   0.162D+00
 Coeff:      0.136D+00 0.410D-02 0.000D+00 0.000D+00 0.000D+00 0.698D+00
 Coeff:      0.162D+00
 Gap=    -0.061 Goal=   None    Shift=    0.000
 Gap=    -0.182 Goal=   None    Shift=    0.000
 RMSDP=1.41D-02 MaxDP=8.84D-01 DE= 1.73D+01 OVMax= 8.32D-01

 Cycle   8  Pass 1  IDiag  1:
 RMSU=  6.33D-03    CP:  8.84D-01  1.25D-02  1.07D-02  3.31D-01  4.62D-02
                    CP:  1.65D-01  2.05D-01
 E= -2863.60172331262     Delta-E=      -19.053493742685 Rises=F Damp=F
 DIIS: error= 8.33D-02 at cycle   8 NSaved=   8.
 NSaved= 8 IEnMin= 8 EnMin= -2863.60172331262     IErMin= 6 ErrMin= 7.32D-02
 ErrMax= 8.33D-02  0.00D+00 EMaxC= 1.00D-01 BMatC= 1.10D+01 BMatP= 1.15D+01
 IDIUse=3 WtCom= 2.68D-01 WtEn= 7.32D-01
 EnCoef did   100 forward-backward iterations
 Coeff-Com: -0.214D-01 0.162D+00 0.133D-01-0.266D-01 0.211D-01 0.405D+00
 Coeff-Com:  0.661D-01 0.381D+00
 Coeff-En:   0.109D+00 0.172D-02 0.000D+00 0.000D+00 0.000D+00 0.405D+00
 Coeff-En:   0.104D-01 0.474D+00
 Coeff:      0.739D-01 0.446D-01 0.356D-02-0.711D-02 0.564D-02 0.405D+00
 Coeff:      0.253D-01 0.449D+00
 Gap=     0.209 Goal=   None    Shift=    0.000
 Gap=    -0.018 Goal=   None    Shift=    0.000
 RMSDP=9.50D-03 MaxDP=5.96D-01 DE=-1.91D+01 OVMax= 8.18D-01

 Cycle   9  Pass 1  IDiag  1:
 RMSU=  6.31D-03    CP:  8.69D-01 -4.36D-03  2.21D-02  7.14D-02  1.28D-01
                    CP:  3.05D-01  1.93D-01  1.23D-01
 E= -2856.83416714101     Delta-E=        6.767556171607 Rises=F Damp=F
 DIIS: error= 8.90D-02 at cycle   9 NSaved=   9.
 NSaved= 9 IEnMin= 8 EnMin= -2863.60172331262     IErMin= 6 ErrMin= 7.32D-02
 ErrMax= 8.90D-02  0.00D+00 EMaxC= 1.00D-01 BMatC= 2.36D+01 BMatP= 1.10D+01
 IDIUse=2 WtCom= 0.00D+00 WtEn= 1.00D+00
 EnCoef did     7 forward-backward iterations
 Coeff-En:   0.685D-01 0.000D+00 0.000D+00 0.000D+00 0.000D+00 0.337D+00
 Coeff-En:   0.000D+00 0.450D+00 0.145D+00
 Coeff:      0.685D-01 0.000D+00 0.000D+00 0.000D+00 0.000D+00 0.337D+00
 Coeff:      0.000D+00 0.450D+00 0.145D+00
 Gap=    -0.057 Goal=   None    Shift=    0.000
 Gap=     0.027 Goal=   None    Shift=    0.000
 RMSDP=6.23D-03 MaxDP=3.65D-01 DE= 6.77D+00 OVMax= 7.93D-01

 Cycle  10  Pass 1  IDiag  1:
 RMSU=  3.24D-03    CP:  8.61D-01 -5.63D-03  1.77D-02  1.15D-01  8.16D-02
                    CP:  4.24D-01  7.64D-02  4.81D-01  3.28D-01
 E= -2866.20075423819     Delta-E=       -9.366587097172 Rises=F Damp=F
 DIIS: error= 6.04D-02 at cycle  10 NSaved=  10.
 NSaved=10 IEnMin=10 EnMin= -2866.20075423819     IErMin=10 ErrMin= 6.04D-02
 ErrMax= 6.04D-02  0.00D+00 EMaxC= 1.00D-01 BMatC= 1.80D+00 BMatP= 1.10D+01
 IDIUse=3 WtCom= 3.96D-01 WtEn= 6.04D-01
 EnCoef did     1 forward-backward iterations
 Coeff-Com: -0.343D-01 0.374D-01 0.639D-02 0.299D-01-0.296D-03 0.945D-01
 Coeff-Com:  0.364D-02 0.199D+00 0.661D-01 0.598D+00
 Coeff-En:   0.000D+00 0.000D+00 0.000D+00 0.000D+00 0.000D+00 0.187D-02
 Coeff-En:   0.000D+00 0.140D+00 0.000D+00 0.858D+00
 Coeff:     -0.136D-01 0.148D-01 0.253D-02 0.118D-01-0.117D-03 0.386D-01
 Coeff:      0.144D-02 0.163D+00 0.262D-01 0.755D+00
 Gap=     0.420 Goal=   None    Shift=    0.000
 Gap=     0.018 Goal=   None    Shift=    0.000
 RMSDP=3.92D-03 MaxDP=6.99D-01 DE=-9.37D+00 OVMax= 5.66D-01

 Cycle  11  Pass 1  IDiag  1:
 RMSU=  2.80D-03    CP:  8.64D-01 -1.39D-03  3.34D-02  2.31D-01  8.02D-02
                    CP:  5.00D-01  5.48D-02  4.22D-01  1.86D-01  4.99D-01
 E= -2866.04762051967     Delta-E=        0.153133718512 Rises=F Damp=F
 DIIS: error= 7.36D-02 at cycle  11 NSaved=  11.
 NSaved=11 IEnMin=10 EnMin= -2866.20075423819     IErMin=10 ErrMin= 6.04D-02
 ErrMax= 7.36D-02  0.00D+00 EMaxC= 1.00D-01 BMatC= 2.41D+00 BMatP= 1.80D+00
 IDIUse=2 WtCom= 0.00D+00 WtEn= 1.00D+00
 Coeff-En:   0.000D+00 0.000D+00 0.000D+00 0.000D+00 0.000D+00 0.000D+00
 Coeff-En:   0.000D+00 0.000D+00 0.000D+00 0.555D+00 0.445D+00
 Coeff:      0.000D+00 0.000D+00 0.000D+00 0.000D+00 0.000D+00 0.000D+00
 Coeff:      0.000D+00 0.000D+00 0.000D+00 0.555D+00 0.445D+00
 Gap=     0.075 Goal=   None    Shift=    0.000
 Gap=     0.008 Goal=   None    Shift=    0.000
 RMSDP=3.25D-03 MaxDP=6.01D-01 DE= 1.53D-01 OVMax= 5.13D-01

 Cycle  12  Pass 1  IDiag  1:
 RMSU=  1.28D-03    CP:  8.66D-01 -1.79D-03  1.72D-02  1.95D-01  6.42D-02
                    CP:  3.55D-01  1.08D-01  6.47D-01  1.77D-01  6.72D-01
                    CP:  3.11D-01
 E= -2866.38368083526     Delta-E=       -0.336060315588 Rises=F Damp=F
 DIIS: error= 2.10D-02 at cycle  12 NSaved=  12.
 NSaved=12 IEnMin=12 EnMin= -2866.38368083526     IErMin=12 ErrMin= 2.10D-02
 ErrMax= 2.10D-02  0.00D+00 EMaxC= 1.00D-01 BMatC= 8.41D-01 BMatP= 1.80D+00
 IDIUse=3 WtCom= 7.90D-01 WtEn= 2.10D-01
 EnCoef did     4 forward-backward iterations
 Coeff-Com: -0.677D-02 0.333D-02-0.813D-03-0.507D-03-0.110D-02 0.158D-01
 Coeff-Com: -0.154D-02-0.196D-01 0.779D-02 0.329D+00 0.299D+00 0.375D+00
 Coeff-En:   0.000D+00 0.000D+00 0.000D+00 0.000D+00 0.000D+00 0.000D+00
 Coeff-En:   0.000D+00 0.000D+00 0.000D+00 0.346D+00 0.291D+00 0.363D+00
 Coeff:     -0.535D-02 0.263D-02-0.642D-03-0.400D-03-0.871D-03 0.125D-01
 Coeff:     -0.121D-02-0.155D-01 0.616D-02 0.333D+00 0.297D+00 0.373D+00
 Gap=     0.122 Goal=   None    Shift=    0.000
 Gap=     0.040 Goal=   None    Shift=    0.000
 RMSDP=1.72D-03 MaxDP=1.12D-01 DE=-3.36D-01 OVMax= 1.90D-01

 Cycle  13  Pass 1  IDiag  1:
 RMSU=  6.80D-04    CP:  8.61D-01 -5.90D-03  2.08D-02  1.69D-01  7.24D-02
                    CP:  4.23D-01  7.58D-02  5.18D-01  2.58D-01  7.91D-01
                    CP:  4.12D-01  4.19D-01
 E= -2866.62506613476     Delta-E=       -0.241385299502 Rises=F Damp=F
 DIIS: error= 2.61D-03 at cycle  13 NSaved=  13.
 NSaved=13 IEnMin=13 EnMin= -2866.62506613476     IErMin=13 ErrMin= 2.61D-03
 ErrMax= 2.61D-03  0.00D+00 EMaxC= 1.00D-01 BMatC= 2.35D-02 BMatP= 8.41D-01
 IDIUse=3 WtCom= 9.74D-01 WtEn= 2.61D-02
 Coeff-Com: -0.105D-02-0.549D-03 0.106D-02-0.297D-02 0.103D-02 0.419D-02
 Coeff-Com: -0.151D-02-0.301D-01 0.281D-02 0.607D-02 0.648D-01 0.204D+00
 Coeff-Com:  0.752D+00
 Coeff-En:   0.000D+00 0.000D+00 0.000D+00 0.000D+00 0.000D+00 0.000D+00
 Coeff-En:   0.000D+00 0.000D+00 0.000D+00 0.000D+00 0.000D+00 0.000D+00
 Coeff-En:   0.100D+01
 Coeff:     -0.102D-02-0.534D-03 0.103D-02-0.289D-02 0.100D-02 0.408D-02
 Coeff:     -0.147D-02-0.293D-01 0.273D-02 0.591D-02 0.632D-01 0.198D+00
 Coeff:      0.759D+00
 Gap=     0.101 Goal=   None    Shift=    0.000
 Gap=     0.037 Goal=   None    Shift=    0.000
 RMSDP=4.01D-04 MaxDP=2.62D-02 DE=-2.41D-01 OVMax= 3.86D-02

 Cycle  14  Pass 1  IDiag  1:
 RMSU=  3.00D-04    CP:  8.61D-01 -5.36D-03  2.07D-02  1.71D-01  7.26D-02
                    CP:  4.23D-01  7.75D-02  5.27D-01  2.46D-01  7.69D-01
                    CP:  4.52D-01  5.55D-01  8.46D-01
 E= -2866.63025206479     Delta-E=       -0.005185930023 Rises=F Damp=F
 DIIS: error= 2.04D-03 at cycle  14 NSaved=  14.
 NSaved=14 IEnMin=14 EnMin= -2866.63025206479     IErMin=14 ErrMin= 2.04D-03
 ErrMax= 2.04D-03  0.00D+00 EMaxC= 1.00D-01 BMatC= 1.11D-02 BMatP= 2.35D-02
 IDIUse=3 WtCom= 9.80D-01 WtEn= 2.04D-02
 Coeff-Com: -0.303D-02 0.371D-02 0.846D-03-0.199D-02 0.432D-03-0.450D-03
 Coeff-Com: -0.342D-04-0.658D-02 0.137D-02-0.796D-02 0.564D-02 0.358D-01
 Coeff-Com:  0.443D+00 0.529D+00
 Coeff-En:   0.000D+00 0.000D+00 0.000D+00 0.000D+00 0.000D+00 0.000D+00
 Coeff-En:   0.000D+00 0.000D+00 0.000D+00 0.000D+00 0.000D+00 0.000D+00
 Coeff-En:   0.260D+00 0.740D+00
 Coeff:     -0.296D-02 0.363D-02 0.829D-03-0.195D-02 0.423D-03-0.441D-03
 Coeff:     -0.335D-04-0.645D-02 0.134D-02-0.780D-02 0.553D-02 0.351D-01
 Coeff:      0.439D+00 0.533D+00
 Gap=     0.103 Goal=   None    Shift=    0.000
 Gap=     0.037 Goal=   None    Shift=    0.000
 RMSDP=2.11D-04 MaxDP=2.30D-02 DE=-5.19D-03 OVMax= 4.39D-02

 Cycle  15  Pass 1  IDiag  1:
 RMSU=  1.66D-04    CP:  8.61D-01 -5.31D-03  2.08D-02  1.69D-01  7.28D-02
                    CP:  4.27D-01  7.71D-02  5.24D-01  2.49D-01  7.66D-01
                    CP:  4.57D-01  5.00D-01  9.55D-01  7.98D-01
 E= -2866.63281835860     Delta-E=       -0.002566293815 Rises=F Damp=F
 DIIS: error= 3.55D-03 at cycle  15 NSaved=  15.
 NSaved=15 IEnMin=15 EnMin= -2866.63281835860     IErMin=14 ErrMin= 2.04D-03
 ErrMax= 3.55D-03  0.00D+00 EMaxC= 1.00D-01 BMatC= 5.08D-03 BMatP= 1.11D-02
 IDIUse=3 WtCom= 9.80D-01 WtEn= 2.04D-02
 Coeff-Com: -0.199D-02 0.294D-02 0.178D-03-0.283D-03-0.353D-03-0.201D-02
 Coeff-Com: -0.281D-04-0.183D-02 0.441D-03 0.118D-01-0.110D-01 0.409D-02
 Coeff-Com:  0.138D+00 0.313D+00 0.547D+00
 Coeff-En:   0.000D+00 0.000D+00 0.000D+00 0.000D+00 0.000D+00 0.000D+00
 Coeff-En:   0.000D+00 0.000D+00 0.000D+00 0.000D+00 0.000D+00 0.000D+00
 Coeff-En:   0.000D+00 0.102D+00 0.898D+00
 Coeff:     -0.195D-02 0.288D-02 0.174D-03-0.277D-03-0.345D-03-0.197D-02
 Coeff:     -0.276D-04-0.180D-02 0.432D-03 0.115D-01-0.108D-01 0.401D-02
 Coeff:      0.135D+00 0.309D+00 0.554D+00
 Gap=     0.105 Goal=   None    Shift=    0.000
 Gap=     0.037 Goal=   None    Shift=    0.000
 RMSDP=9.50D-05 MaxDP=9.32D-03 DE=-2.57D-03 OVMax= 1.79D-02

 Cycle  16  Pass 1  IDiag  1:
 RMSU=  7.34D-05    CP:  8.61D-01 -5.24D-03  2.07D-02  1.69D-01  7.30D-02
                    CP:  4.27D-01  7.71D-02  5.25D-01  2.51D-01  7.67D-01
                    CP:  4.54D-01  4.84D-01  9.70D-01  9.74D-01  1.02D+00
 E= -2866.63308454931     Delta-E=       -0.000266190713 Rises=F Damp=F
 DIIS: error= 3.70D-03 at cycle  16 NSaved=  16.
 NSaved=16 IEnMin=16 EnMin= -2866.63308454931     IErMin=14 ErrMin= 2.04D-03
 ErrMax= 3.70D-03  0.00D+00 EMaxC= 1.00D-01 BMatC= 4.67D-03 BMatP= 5.08D-03
 IDIUse=3 WtCom= 9.80D-01 WtEn= 2.04D-02
 Coeff-Com: -0.840D-03 0.137D-02 0.851D-04 0.110D-03-0.757D-03-0.178D-02
 Coeff-Com: -0.210D-03-0.331D-02 0.482D-03 0.156D-01-0.116D-01 0.157D-01
 Coeff-Com:  0.776D-01 0.199D+00 0.359D+00 0.349D+00
 Coeff-En:   0.000D+00 0.000D+00 0.000D+00 0.000D+00 0.000D+00 0.000D+00
 Coeff-En:   0.000D+00 0.000D+00 0.000D+00 0.000D+00 0.000D+00 0.000D+00
 Coeff-En:   0.000D+00 0.000D+00 0.571D-01 0.943D+00
 Coeff:     -0.823D-03 0.134D-02 0.834D-04 0.108D-03-0.742D-03-0.174D-02
 Coeff:     -0.205D-03-0.324D-02 0.472D-03 0.153D-01-0.114D-01 0.154D-01
 Coeff:      0.760D-01 0.195D+00 0.353D+00 0.362D+00
 Gap=     0.107 Goal=   None    Shift=    0.000
 Gap=     0.038 Goal=   None    Shift=    0.000
 RMSDP=3.84D-05 MaxDP=4.72D-03 DE=-2.66D-04 OVMax= 5.21D-03

 Cycle  17  Pass 1  IDiag  1:
 RMSU=  2.52D-05    CP:  8.61D-01 -5.16D-03  2.05D-02  1.68D-01  7.28D-02
                    CP:  4.26D-01  7.74D-02  5.26D-01  2.51D-01  7.69D-01
                    CP:  4.49D-01  4.87D-01  9.67D-01  9.92D-01  1.12D+00
                    CP:  9.05D-01
 E= -2866.63353666581     Delta-E=       -0.000452116498 Rises=F Damp=F
 DIIS: error= 2.65D-03 at cycle  17 NSaved=  17.
 NSaved=17 IEnMin=17 EnMin= -2866.63353666581     IErMin=14 ErrMin= 2.04D-03
 ErrMax= 2.65D-03  0.00D+00 EMaxC= 1.00D-01 BMatC= 2.44D-03 BMatP= 4.67D-03
 IDIUse=3 WtCom= 9.80D-01 WtEn= 2.04D-02
 Coeff-Com:  0.201D-03-0.210D-03-0.131D-04 0.477D-03-0.496D-03-0.306D-03
 Coeff-Com: -0.247D-03-0.306D-02 0.489D-03 0.914D-02-0.815D-02 0.199D-01
 Coeff-Com:  0.413D-01 0.823D-01-0.133D+00-0.481D+00 0.147D+01
 Coeff-En:   0.000D+00 0.000D+00 0.000D+00 0.000D+00 0.000D+00 0.000D+00
 Coeff-En:   0.000D+00 0.000D+00 0.000D+00 0.000D+00 0.000D+00 0.000D+00
 Coeff-En:   0.000D+00 0.000D+00 0.000D+00 0.000D+00 0.100D+01
 Coeff:      0.197D-03-0.206D-03-0.128D-04 0.467D-03-0.486D-03-0.300D-03
 Coeff:     -0.242D-03-0.300D-02 0.479D-03 0.896D-02-0.798D-02 0.195D-01
 Coeff:      0.405D-01 0.806D-01-0.130D+00-0.471D+00 0.146D+01
 Gap=     0.111 Goal=   None    Shift=    0.000
 Gap=     0.039 Goal=   None    Shift=    0.000
 RMSDP=6.99D-05 MaxDP=9.68D-03 DE=-4.52D-04 OVMax= 1.06D-02

 Cycle  18  Pass 1  IDiag  1:
 RMSU=  3.51D-05    CP:  8.61D-01 -5.01D-03  2.02D-02  1.68D-01  7.25D-02
                    CP:  4.25D-01  7.77D-02  5.29D-01  2.52D-01  7.74D-01
                    CP:  4.37D-01  4.94D-01  9.58D-01  1.05D+00  1.17D+00
                    CP:  1.07D+00  2.05D+00
 E= -2866.63398278077     Delta-E=       -0.000446114957 Rises=F Damp=F
 DIIS: error= 9.14D-04 at cycle  18 NSaved=  18.
 NSaved=18 IEnMin=18 EnMin= -2866.63398278077     IErMin=18 ErrMin= 9.14D-04
 ErrMax= 9.14D-04  0.00D+00 EMaxC= 1.00D-01 BMatC= 4.14D-04 BMatP= 2.44D-03
 IDIUse=3 WtCom= 9.91D-01 WtEn= 9.14D-03
 Coeff-Com:  0.515D-04 0.103D-04-0.510D-04 0.590D-04 0.378D-04 0.241D-03
 Coeff-Com:  0.240D-04 0.251D-03-0.785D-04-0.400D-03-0.135D-02 0.332D-02
 Coeff-Com:  0.249D-01 0.247D-01-0.283D+00-0.870D+00 0.134D+01 0.759D+00
 Coeff-En:   0.000D+00 0.000D+00 0.000D+00 0.000D+00 0.000D+00 0.000D+00
 Coeff-En:   0.000D+00 0.000D+00 0.000D+00 0.000D+00 0.000D+00 0.000D+00
 Coeff-En:   0.000D+00 0.000D+00 0.000D+00 0.000D+00 0.000D+00 0.100D+01
 Coeff:      0.510D-04 0.102D-04-0.506D-04 0.584D-04 0.375D-04 0.239D-03
 Coeff:      0.237D-04 0.249D-03-0.778D-04-0.397D-03-0.134D-02 0.329D-02
 Coeff:      0.247D-01 0.245D-01-0.281D+00-0.862D+00 0.133D+01 0.761D+00
 Gap=     0.113 Goal=   None    Shift=    0.000
 Gap=     0.039 Goal=   None    Shift=    0.000
 RMSDP=4.90D-05 MaxDP=6.87D-03 DE=-4.46D-04 OVMax= 7.69D-03

 Cycle  19  Pass 1  IDiag  1:
 RMSU=  2.16D-05    CP:  8.61D-01 -4.97D-03  2.00D-02  1.68D-01  7.23D-02
                    CP:  4.24D-01  7.81D-02  5.31D-01  2.53D-01  7.75D-01
                    CP:  4.32D-01  4.91D-01  9.63D-01  1.10D+00  1.24D+00
                    CP:  1.18D+00  3.00D+00  9.23D-01
 E= -2866.63409691662     Delta-E=       -0.000114135847 Rises=F Damp=F
 DIIS: error= 2.49D-04 at cycle  19 NSaved=  19.
 NSaved=19 IEnMin=19 EnMin= -2866.63409691662     IErMin=19 ErrMin= 2.49D-04
 ErrMax= 2.49D-04  0.00D+00 EMaxC= 1.00D-01 BMatC= 4.54D-05 BMatP= 4.14D-04
 IDIUse=3 WtCom= 9.98D-01 WtEn= 2.49D-03
 Coeff-Com: -0.877D-04 0.167D-03-0.154D-04-0.109D-05 0.420D-04 0.854D-04
 Coeff-Com:  0.237D-04 0.238D-03-0.282D-04-0.518D-03-0.696D-04 0.117D-02
 Coeff-Com:  0.514D-02-0.667D-04-0.160D+00-0.452D+00 0.614D+00 0.466D+00
 Coeff-Com:  0.527D+00
 Coeff-En:   0.000D+00 0.000D+00 0.000D+00 0.000D+00 0.000D+00 0.000D+00
 Coeff-En:   0.000D+00 0.000D+00 0.000D+00 0.000D+00 0.000D+00 0.000D+00
 Coeff-En:   0.000D+00 0.000D+00 0.000D+00 0.000D+00 0.000D+00 0.000D+00
 Coeff-En:   0.100D+01
 Coeff:     -0.875D-04 0.166D-03-0.153D-04-0.109D-05 0.419D-04 0.852D-04
 Coeff:      0.237D-04 0.237D-03-0.282D-04-0.517D-03-0.694D-04 0.116D-02
 Coeff:      0.513D-02-0.665D-04-0.160D+00-0.451D+00 0.612D+00 0.465D+00
 Coeff:      0.528D+00
 Gap=     0.114 Goal=   None    Shift=    0.000
[...]
 0.00000439,-0.00000228,0.00000192,0.00000044,-0.00000027,-0.00001066,0
 .00001625,-0.00000105,0.00000355,-0.00000803,0.00097528,0.00005832,0.0
 0018495,0.35604257,0.00000029,0.00011785,-0.00013755,0.00005408,-0.000
 72825,-0.00032114,0.00006348,0.00006056,0.00007213,0.00006464,0.000120
 34,0.00004876,-0.00000842,-0.00007219,-0.00006927,-0.00003587,0.000024
 78,0.00005785,-0.00001743,-0.00000819,0.00000131,0.00000732,0.00000560
 ,0.00000409,-0.00000929,0.00000297,0.00000197,0.00000059,-0.00000923,-
 0.00000792,0.00001127,0.00000554,0.00000399,-0.00001195,-0.00001253,-0
 .00001048,0.00000116,0.00001721,0.00001081,-0.00001067,-0.00001919,-0.
 00001345,0.00001662,0.00000059,0.00000030,-0.00000430,0.00000663,0.000
 00667,0.00001563,-0.00000540,-0.00000376,-0.00002052,0.00000359,-0.000
 00511,-0.00003181,-0.00038809,-0.00006602,-0.00004006,-0.00002579,-0.0
 0003160,-0.00002033,0.00003533,0.00000910,0.00003470,-0.00001649,-0.00
 000902,-0.00001073,0.00009726,0.00008271,-0.00053923,0.00034651,-0.000
 20154,-0.00093231,0.00482771,0.00536027,-0.01453249,0.00349826,-0.0000
 7652,-0.00673739,-0.04323895,0.00884454,0.01351682,0.00428410,-0.00028
 242,0.00087310,0.00357295,0.00449142,-0.00004867,-0.00070584,0.0002219
 3,-0.00000030,-0.00000027,0.00000027,-0.00000014,0.00000024,0.00000045
 ,0.00000052,-0.00000012,-0.00000005,0.00000068,-0.00000009,-0.00000073
 ,0.00000007,0.00000004,0.00000045,0.00000019,0.,-0.00000075,0.00000004
 ,-0.00000253,-0.00000302,-0.00000052,-0.00000194,-0.00000155,-0.000023
 13,-0.00002636,-0.00000266,-0.00000070,-0.00000002,0.00000353,-0.00000
 350,-0.00000803,0.00000587,0.00001131,0.00000442,0.00000244,0.00030231
 ,-0.00328784,-0.00253936,0.00780739,0.03375800,-0.00005152,-0.00013433
 ,0.00024193,-0.00021446,-0.00033788,-0.00032325,-0.00010915,0.00010725
 ,-0.00004448,-0.00001300,0.00001202,0.00001581,0.00001846,0.00002696,0
 .00002355,0.00000996,-0.00002661,-0.00002257,0.00000690,0.00000090,0.0
 0000488,-0.00000323,-0.00000113,-0.00000155,0.00000388,-0.00000152,-0.
 00000185,0.00000063,0.00000365,0.00000311,-0.00000525,-0.00000312,-0.0
 0000206,0.00000630,0.00000593,0.00000389,0.00000316,-0.00000208,-0.000
 00500,0.00000244,0.00000549,0.00000570,-0.00000352,-0.00000179,-0.0000
 0178,0.00000038,0.00000147,0.00000182,-0.00000686,-0.00000700,-0.00000
 169,-0.00000900,0.00001327,0.00000844,0.00016619,-0.00004006,-0.000358
 09,0.00012396,-0.00002251,-0.00001771,0.00004675,0.00000631,0.00003130
 ,-0.00007006,-0.00001180,-0.00000279,0.00003717,0.00006071,0.00002246,
 0.00088872,-0.00023965,0.00067901,0.00148665,0.00542691,-0.00148147,0.
 02471515,0.00058531,0.00402698,-0.00299728,0.00895371,-0.05405520,-0.0
 2446326,-0.00116980,0.00458079,-0.00197776,0.00456239,-0.00205372,0.00
 023506,0.00016783,-0.00096437,0.00000054,0.00000032,-0.00000015,-0.000
 00040,-0.00000039,-0.00000025,-0.00000040,0.00000007,0.00000003,0.0000
 0039,0.00000012,-0.00000002,-0.00000057,0.00000010,0.00000003,0.000000
 61,0.00000008,-0.00000007,0.00000074,-0.00000093,-0.00000107,0.0000020
 8,0.00000549,0.00000105,0.00001514,0.00000772,-0.00004449,0.00000055,0
 .00000393,-0.00000210,0.00000512,0.00000543,-0.00001364,-0.00003982,-0
 .00000163,0.00001258,-0.00023804,-0.00255392,-0.00026793,0.00270679,-0
 .01341334,0.04979174,-0.00005584,0.00000976,-0.00012085,0.00059209,-0.
 00067731,0.00120217,-0.00074692,-0.00005893,0.00021496,-0.00013995,-0.
 00018642,-0.00000579,0.00006772,0.00022501,0.00017387,0.00002840,-0.00
 019238,-0.00016112,0.00005927,0.00001330,0.00000907,-0.00003553,-0.000
 01018,-0.00001012,0.00002903,-0.00000964,-0.00000986,-0.00000561,0.000
 02692,0.00002228,-0.00003116,-0.00002192,-0.00001644,0.00002973,0.0000
 3908,0.00003182,0.00001219,-0.00001895,-0.00002862,0.00002495,0.000046
 70,0.00003625,-0.00003485,0.00000209,0.00000206,-0.00001366,-0.0000053
 5,-0.00001162,-0.00002857,-0.00000888,-0.00000360,-0.00002556,0.000005
 24,0.00001829,-0.00006166,0.00008599,-0.00020654,-0.00001147,-0.000026
 10,0.00003926,-0.00002177,0.00000811,-0.00000607,0.00003152,-0.0000141
 3,0.00002892,-0.00003841,0.00002219,-0.00003139,0.00020423,0.00003083,
 -0.00001298,-0.00068347,0.00035146,-0.00060825,-0.00108400,0.00121890,
 -0.00250090,0.01158418,0.00774698,-0.01331245,-0.12552356,-0.06001523,
 0.10208150,-0.01041302,-0.01466965,0.02530363,-0.00532807,0.00047875,-
 0.00152760,0.00000848,0.00000427,0.00000060,-0.00000420,-0.00000432,-0
 .00000233,-0.00000546,0.00000002,0.00000072,-0.00000136,0.00000210,0.0
 0000325,-0.00000598,0.00000064,0.00000192,-0.00000216,0.00000214,0.000
 00435,0.00000335,0.00000596,0.00000660,0.00000667,-0.00000127,0.000003
 38,0.00000366,0.00000675,-0.00001284,0.00000312,-0.00000180,-0.0000002
 0,-0.00000028,-0.00000325,0.00000470,0.00003049,-0.00002206,0.00002845
 ,0.00033859,0.00037805,-0.00064519,0.00082410,-0.00029779,0.00071558,0
 .12896330,0.00003631,0.00005566,0.00023538,-0.00004764,0.00035116,-0.0
 0019600,-0.00023210,-0.00043955,0.00001861,-0.00008900,-0.00013976,-0.
 00012966,0.00008655,0.00020496,0.00011750,0.00002606,-0.00017897,-0.00
 013852,0.00004365,-0.00000274,0.00002300,-0.00002724,-0.00000670,-0.00
 000862,0.00002340,-0.00000853,-0.00001020,-0.00000046,0.00002141,0.000
 01779,-0.00002651,-0.00001712,-0.00001393,0.00002837,0.00003013,0.0000
 2561,0.00002082,-0.00002133,-0.00002116,0.00002263,0.00003603,0.000028
 49,-0.00002147,-0.00000102,0.00000198,-0.00001577,-0.00000408,0.000000
 16,-0.00002445,-0.00001414,-0.00001091,0.00000214,0.00003182,0.0000495
 0,-0.00002380,0.00011386,-0.00006394,-0.00003365,-0.00001474,0.0001197
 8,-0.00009986,0.00002365,-0.00005005,0.00006522,-0.00001616,-0.0000961
 7,0.00003315,0.00000050,0.00010703,0.00005244,-0.00066905,-0.00047028,
 0.00036262,-0.00039512,-0.00043038,0.00180714,0.00403163,0.00378167,-0
 .00772142,-0.00179420,0.00873470,-0.06004793,-0.09636410,0.10100871,0.
 00065000,0.00355951,0.00074014,0.00031445,0.00642211,0.00272114,0.0000
 0698,0.00000367,0.00000054,-0.00000340,-0.00000351,-0.00000163,-0.0000
 0423,0.00000020,0.00000048,0.00000010,0.00000175,0.00000162,-0.0000043
 8,0.00000044,0.00000018,-0.00000075,0.00000260,0.00000109,0.00000289,0
 .00000348,0.00000030,0.00000451,0.00001069,0.00000341,0.00000355,0.000
 00161,-0.00001302,-0.00000516,0.00001855,0.00000915,0.00000297,-0.0000
 0300,0.00000213,-0.00002200,0.00007838,0.00001290,-0.00032865,-0.00011
 511,0.00042959,0.00016551,-0.00235255,-0.00198268,0.06513914,0.0909434
 2,-0.00003297,0.00022383,-0.00027377,-0.00047246,-0.00013604,0.0004210
 1,0.00030516,-0.00012330,-0.00026588,0.00031420,0.00017110,0.00015313,
 -0.00018311,-0.00031519,-0.00026625,-0.00005114,0.00027429,0.00022882,
 -0.00008627,-0.00003077,-0.00003521,0.00004417,0.00002183,0.00001825,-
 0.00004742,0.00001495,0.00001357,0.00000337,-0.00004537,-0.00003916,0.
 00005774,0.00003444,0.00002628,-0.00006122,-0.00006899,-0.00005098,0.0
 0000013,0.00005130,0.00004184,-0.00004730,-0.00007361,-0.00005657,0.00
 005884,-0.00000435,-0.00000430,0.00001157,0.00001292,0.00002198,0.0000
 4939,0.00000440,0.00000400,-0.00001718,-0.00000016,-0.00002269,-0.0000
 1865,0.00009201,0.00001879,0.00007272,-0.00000742,0.00005947,-0.000057
 41,0.00003416,-0.00006788,0.00015986,-0.00001265,-0.00004106,-0.000098
 37,-0.00004094,0.00012934,0.00009718,-0.00032215,-0.00035948,-0.000828
 68,-0.00053404,0.00025691,-0.00353237,0.00376895,-0.00074129,0.0140779
 9,0.00946948,-0.01269730,0.10204044,0.10093029,-0.21146910,-0.00165765
 ,-0.00001200,0.00392927,-0.00055886,0.00273950,0.00311452,-0.00001138,
 -0.00000695,-0.00000016,0.00000415,0.00000461,0.00000436,0.00000730,-0
 .00000066,-0.00000062,0.00000171,-0.00000268,-0.00000434,0.00000698,-0
 .00000055,-0.00000049,0.00000181,-0.00000247,-0.00000551,-0.00000471,-
 0.00000804,-0.00000981,-0.00001188,-0.00000253,-0.00001551,-0.00000433
 ,-0.00001021,0.00001606,0.00000462,0.00000740,0.00000707,-0.00000106,0
 .00000268,-0.00000521,0.00004809,0.00000015,0.00006969,0.00060937,0.00
 048313,-0.00066523,-0.00008152,-0.00200866,0.00005990,-0.11042441,-0.1
 1226199,0.21915808,-0.00214115,0.00072830,-0.00007704,-0.00079772,-0.0
 0053626,0.00124074,0.00076137,0.00042309,-0.00077444,0.00052361,0.0005
 3215,0.00045075,-0.00021739,-0.00098189,-0.00085241,-0.00042868,0.0004
 9780,0.00079438,-0.00023858,-0.00003729,-0.00003698,0.00011933,0.00004
 517,0.00004085,-0.00011664,0.00003974,0.00004425,0.00000487,-0.0001082
 9,-0.00009183,0.00013164,0.00008315,0.00006056,-0.00014451,-0.00015776
 ,-0.00012762,-0.00008972,0.00014740,0.00012529,-0.00009959,-0.00021797
 ,-0.00016585,0.00015907,0.00002594,0.00001432,0.00001126,0.00004561,0.
 00003695,0.00015994,0.00003815,0.00002904,0.00003083,-0.00010835,-0.00
 020460,0.00003581,-0.00004524,0.00006269,0.00000557,0.00004122,-0.0000
 4805,-0.00000560,-0.00001870,0.00000907,0.00006745,-0.00002773,0.00004
 657,-0.00027241,-0.00007626,0.00021602,0.00077632,-0.00027201,0.000448
 50,-0.00174688,-0.00149287,0.00216196,-0.00039557,-0.00040775,0.000732
 97,-0.00493364,-0.00093261,0.00119918,-0.01048323,0.01290075,-0.023308
 97,-0.13638070,0.06264925,-0.11266141,0.01311796,-0.00599550,0.0106075
 7,-0.00001186,-0.00000669,0.00000392,0.00000897,0.00001017,0.00000791,
 0.00001362,-0.00000060,-0.00000118,0.00000058,-0.00000429,-0.00000794,
 0.00001372,-0.00000313,0.00000003,0.00000317,-0.00000703,-0.00000689,-
 0.00000922,-0.00001802,-0.00001505,-0.00001866,-0.00002995,-0.00001380
 ,-0.00002719,-0.00002290,0.00006003,-0.00000510,-0.00000116,0.00000642
 ,-0.00001695,-0.00002296,0.00001907,0.00000015,0.00000893,-0.00001428,
 0.00003022,0.00003225,-0.00004074,-0.00050400,0.00055623,-0.00101190,0
 .00144740,-0.00006550,0.00028904,0.14191720,0.00058813,0.00071080,-0.0
 0166114,0.00093614,-0.00301076,-0.00001659,0.00027872,0.00004284,-0.00
 042813,0.00036435,0.00049751,0.00033976,-0.00006996,-0.00057697,-0.000
 56661,-0.00030354,0.00021152,0.00050150,-0.00014897,-0.00003840,0.0000
 0230,0.00007007,0.00003067,0.00002698,-0.00006935,0.00002331,0.0000226
 1,0.00000619,-0.00006619,-0.00005717,0.00008131,0.00004887,0.00003491,
 -0.00008508,-0.00009744,-0.00008118,-0.00002485,0.00010274,0.00008443,
 -0.00006328,-0.00013553,-0.00009879,0.00010746,0.00001305,0.00000658,-
 0.00000707,0.00003056,0.00002877,0.00009346,-0.00001423,0.00001415,-0.
 00004256,-0.00001378,-0.00010813,0.00002027,-0.00004196,-0.00001768,0.
 00000877,0.00005539,-0.00002326,-0.00001166,-0.00003451,0.00002444,0.0
 0001993,-0.00004184,0.00003044,-0.00019309,-0.00001627,0.00008611,0.00
 060001,-0.00003796,0.00039836,-0.00214196,0.00368672,0.00346010,-0.000
 28045,-0.00036597,-0.00039597,-0.00055818,0.00603085,0.00280281,-0.002
 13559,0.00525843,-0.00069777,0.06169275,-0.09263198,0.09482065,0.00795
 959,-0.00134292,0.01032153,-0.00000737,-0.00000325,0.00000236,0.000004
 08,0.00000510,0.00000476,0.00000719,-0.00000050,-0.00000062,0.00000210
 ,-0.00000193,-0.00000550,0.00000658,-0.00000131,0.00000115,0.00000176,
 -0.00000289,-0.00000509,-0.00000508,-0.00001103,-0.00001352,-0.0000091
 9,-0.00000881,-0.00001537,-0.00001986,-0.00000872,0.00003755,-0.000003
 46,-0.00000389,0.00000379,-0.00001438,-0.00002033,0.00001292,0.0000055
 0,0.00001577,-0.00000590,0.00006221,-0.00076388,-0.00040652,-0.0001238
 1,0.00011489,-0.00003762,0.00036146,-0.00341916,-0.00233380,-0.0667154
 9,0.08599876,-0.00162960,-0.00182288,0.00201748,-0.00239840,-0.0006013
 9,-0.00293980,-0.00009648,-0.00012668,0.00021901,-0.00005856,-0.000014
 73,-0.00005312,0.00003753,0.00028900,0.00027271,0.00014512,-0.00013225
 ,-0.00024213,0.00007535,0.00000980,0.00000736,-0.00003592,-0.00001124,
 -0.00001092,0.00003334,-0.00001171,-0.00001631,-0.00000030,0.00003101,
 0.00002624,-0.00003812,-0.00002593,-0.00001719,0.00004233,0.00004650,0
 .00003545,0.00004582,-0.00004393,-0.00003617,0.00001901,0.00007059,0.0
 0005496,-0.00004912,-0.00002032,-0.00001355,0.00000521,-0.00002144,-0.
 00000462,-0.00005209,-0.00002144,-0.00001231,-0.00005198,0.00005101,0.
 00009075,-0.00008195,-0.00013255,-0.00006641,0.00001961,-0.00000491,0.
 00002557,0.00003155,0.00002880,-0.00001832,-0.00004834,0.00003349,-0.0
 0005994,0.00031024,0.00011906,-0.00011045,-0.00098171,0.00038799,-0.00
 049496,0.00321324,0.00349632,-0.00053717,0.00081251,-0.00034610,0.0001
 2291,0.00037877,0.00267883,0.00298570,0.00255351,0.00003330,0.00512598
 ,-0.11086373,0.09411706,-0.21064168,-0.01242854,0.01039032,-0.01400723
 ,-0.00000090,-0.00000138,-0.00000177,-0.00000262,-0.00000300,-0.000002
 09,-0.00000348,-0.00000011,0.00000024,0.00000141,0.00000087,0.00000169
 ,-0.00000408,0.00000208,-0.00000036,-0.00000087,0.00000296,0.00000009,
 0.00000306,0.00000385,-0.00000305,0.00000129,0.00002389,-0.00000561,0.
 00001779,0.00000568,-0.00002598,0.00000515,-0.00000102,-0.00000389,0.0
 0001823,0.00000505,-0.00003865,-0.00001570,-0.00000463,0.00001320,-0.0
 0005742,-0.00040708,-0.00028815,0.00020711,-0.00001646,0.00014557,-0.0
 0039085,-0.00238278,-0.00063820,0.12115837,-0.10589598,0.21886791,-0.0
 1412413,-0.03973955,-0.00367655,-0.01023249,0.00588775,-0.02458063,-0.
 00228801,-0.00453336,0.00713669,-0.00259961,-0.00636550,-0.00518105,-0
 .00804498,0.01341844,0.02036408,-0.01281555,-0.03435051,0.01633378,0.0
 0202593,0.00092286,0.00023855,-0.00112288,-0.00056827,-0.00046742,0.00
 094352,-0.00037625,-0.00050853,-0.00002280,0.00088470,0.00075740,-0.00
 101499,-0.00067175,-0.00045819,0.00097019,0.00156530,0.00113123,0.0008
 0701,-0.00117053,-0.00108746,0.00054457,0.00158347,0.00122438,-0.00090
 413,-0.00029415,-0.00019304,-0.00035917,-0.00013475,-0.00017576,-0.000
 71320,-0.00067056,-0.00058721,-0.00123953,0.00146639,0.00204277,-0.001
 45932,0.00079310,-0.00243976,-0.00068416,-0.00043058,0.00084559,-0.000
 35142,-0.00008711,0.00023543,-0.00091897,-0.00021795,0.00035045,0.0004
 6058,0.00111699,-0.00176489,0.00091991,-0.00077789,0.00140575,0.000926
 42,0.00113326,-0.00170870,-0.00099288,-0.00048085,0.00072474,-0.000063
 64,0.00059245,-0.00102138,0.00099345,-0.00020523,0.00056563,-0.0011102
 4,-0.00039287,0.00073100,0.00210867,0.00075446,-0.00059643,-0.00023484
 ,-0.00026385,-0.00004073,0.00000234,-0.00006492,-0.00000449,-0.0000248
 6,-0.00000541,-0.00001321,0.00004192,-0.00001235,0.00003048,-0.0000601
 8,0.00001744,0.00002175,-0.00000054,0.00000502,0.00002591,0.00005095,0
 .00006300,0.00004289,0.00012947,0.00015782,0.00018699,0.00011596,0.000
 09505,-0.00023100,0.00004865,0.00004314,-0.00006238,-0.00000182,-0.000
 00191,-0.00002229,-0.00005975,0.00001161,-0.00002249,0.00004722,-0.000
 02392,-0.00002550,-0.00002081,-0.00000089,0.00001619,0.00001006,-0.000
 05524,0.00002451,-0.00025507,-0.00024380,0.00015521,0.05057319,-0.0289
 5420,-0.06112377,-0.01618470,-0.00965623,0.00800220,-0.02317561,-0.001
 25269,-0.00378667,0.00742683,-0.00132892,-0.00404915,-0.00602678,-0.00
 270938,0.01261906,0.01062617,-0.02204099,-0.04076018,0.02943091,0.0030
 8761,-0.00087473,-0.00152767,-0.00074230,-0.00030127,-0.00012529,0.000
 62243,-0.00032072,-0.00025113,-0.00001980,0.00046763,0.00041086,-0.000
 42549,-0.00050807,-0.00035118,0.00093166,0.00095410,0.00079338,0.00061
 876,-0.00075506,-0.00064044,0.00028201,0.00082298,0.00068071,-0.000361
 19,-0.00021924,-0.00014721,-0.00028874,-0.00002148,-0.00004504,-0.0004
 0296,-0.00068021,-0.00042708,-0.00115913,0.00079785,0.00132130,-0.0018
 5518,0.00083698,-0.00201604,-0.00042844,-0.00049067,0.00083139,-0.0003
 0598,-0.00014943,0.00010222,-0.00055106,-0.00024466,0.00036750,0.00024
 319,0.00077102,-0.00131036,0.00091267,-0.00069319,0.00111341,0.0011226
 3,0.00090720,-0.00160419,-0.00048389,-0.00042859,0.00061066,0.00000956
 ,0.00036229,-0.00066326,0.00078784,-0.00029840,0.00041685,-0.00089784,
 -0.00038837,0.00049434,0.00408738,-0.00033096,0.00194891,-0.00032945,-
 0.00011706,-0.00006170,-0.00000871,-0.00000707,-0.00002683,-0.00000896
 ,-0.00000048,-0.00002317,0.00007252,0.00001188,-0.00001323,-0.00002873
 ,0.00001288,0.00000315,-0.00000221,0.00001170,0.00001070,0.00002734,0.
 00004725,-0.00000067,0.00007338,0.00009256,0.00008943,0.00005363,0.000
 11543,-0.00008908,0.00003253,0.00003427,-0.00000554,-0.00000210,0.0000
 2077,0.00000975,-0.00001888,0.00002248,-0.00000389,0.00011584,-0.00000
 037,0.00001122,0.00001216,0.00000454,0.00002642,0.00003376,0.00003340,
 0.00002411,-0.00049112,-0.00016537,0.00022244,0.06162771,0.08976670,-0
 .01223800,-0.02756139,-0.00708731,-0.01669147,-0.00286333,-0.02273208,
 -0.00067758,-0.00511476,-0.00050902,0.00122404,0.00670978,0.00008475,0
 .01773780,-0.01047320,-0.02961037,0.02107143,0.04133987,-0.02911293,-0
 .00323364,0.00049916,0.00155164,0.00068359,0.00072600,0.00051566,-0.00
 055792,0.00038074,0.00031623,-0.00018373,-0.00038218,-0.00036941,0.000
 36069,0.00038466,0.00023638,-0.00099452,-0.00147595,-0.00121324,-0.000
 81186,0.00098002,0.00081987,-0.00013964,-0.00117300,-0.00099084,0.0006
 9995,0.00042509,0.00028765,0.00011732,0.00045592,-0.00003197,0.0002738
 0,0.00028662,0.00058160,0.00196950,-0.00218801,-0.00143250,-0.00146588
 ,0.00137491,-0.00126011,-0.00007393,0.00011451,0.00036531,0.00000146,-
 0.00041032,0.00008866,-0.00048434,-0.00021867,0.00033002,-0.00002657,0
 .00050039,-0.00086673,0.00055523,-0.00041817,0.00065421,0.00052904,0.0
 0066440,-0.00114359,-0.00014712,-0.00012468,0.00014270,0.00017029,0.00
 009480,-0.00023126,0.00028808,-0.00016267,0.00023977,-0.00031507,-0.00
 038418,0.00060204,0.00196365,0.00009712,0.00086908,0.00057389,0.000347
 69,0.00020744,-0.00012052,-0.00008808,0.00003090,-0.00005663,0.0000121
 4,0.00001599,-0.00014062,0.00004873,0.00001336,-0.00002354,-0.00003155
 ,0.00001625,0.00000219,-0.00001542,0.00007707,-0.00002074,0.00003119,0
 .00002110,0.00003343,-0.00015129,0.00011846,-0.00005315,0.00014978,0.0
 0010720,0.00001004,-0.00003780,0.00003509,0.00000310,0.00003554,0.0000
 6920,0.00003488,0.00002865,0.00000650,0.00010718,-0.00004468,0.0000187
 7,0.00005731,-0.00000849,0.00000669,0.00011640,0.00008933,-0.00001635,
 -0.00040549,-0.00019663,0.00027722,-0.00972233,-0.00225256,0.08790092\
 \0.00001978,0.00000484,0.00000397,-0.00003665,0.00002183,-0.00002497,0
 .00000736,-0.00001732,0.00003215,-0.00001038,0.00002043,0.00001921,0.0
 0003487,-0.00001332,-0.00001403,-0.00001108,-0.00002209,0.00000469,-0.
 00004615,0.00002631,0.00003180,0.00000966,-0.00001128,-0.00000742,-0.0
 0000084,-0.00000076,-0.00000233,0.00000115,-0.00000107,0.00000221,-0.0
 0001497,0.00000866,0.00000481,0.00002603,-0.00001392,-0.00001427,0.000
 01015,0.00000437,0.00000232,-0.00001281,-0.00000627,-0.00000176,0.0000
 0715,0.00000640,0.00000344,-0.00000597,0.00000061,0.00000285,0.0000120
 1,0.00000147,-0.00000036,-0.00001477,-0.00001502,-0.00001633,0.0000142
 8,0.00000988,-0.00002418,-0.00001261,-0.00000171,0.00000140,0.00000625
 ,0.00000035,0.00000279,-0.00000741,-0.00000474,0.00000600,0.00001331,0
 .00000583,-0.00000618,-0.00000988,-0.00000369,0.00000558,-0.00002596,0
 .00000947,-0.00001820,0.00001433,-0.00000717,0.00000681,-0.00000128,0.
 00000219,0.00000014,0.00000135,-0.00000061,-0.00000270,-0.00001143,0.0
 0000817,-0.00001001,0.00004975,-0.00001405,0.00003558,-0.00000359,0.00
 000220,0.00000232,-0.00000155,0.00000163,0.00000522,0.00000242,-0.0000
 0052,-0.00000225,-0.00000042,-0.00000331,-0.00000720,0.00000690,0.0000
 0056,0.00000307,0.00000315,-0.00000219,-0.00000083,-0.00000222,-0.0000
 0073,-0.00000202,-0.00000369,0.00000310,0.00000263,0.00000411,-0.00000
 174,0.00000302,0.00000254,0.00000036,-0.00000216,-0.00000287,0.0000020
 0,-0.00000150,-0.00000665,0.00000050,0.00000311,0.00000010,0.00000075,
 -0.00000854,-0.00000272,-0.00000041,-0.00000290,0.00000155,-0.00000016
 ,0.00000475,0.00000351,-0.00000174,0.00000209,-0.00000579,0.00000192,-
 0.00002180\\\@
 The archive entry for this job was punched.


    WHAT WE HAVE LEARNED
 IS LIKE A HANDFUL OF EARTH;
  WHAT WE HAVE YET TO LEARN
   IS LIKE THE WHOLE WORLD.

         -- AVVAYIAR
 Job cpu time:       0 days  8 hours 42 minutes 26.7 seconds.
 Elapsed time:       0 days  0 hours 16 minutes 23.9 seconds.
 File lengths (MBytes):  RWF=   2645 Int=      0 D2E=      0 Chk=     28 Scr=      2
 Normal termination of Gaussian 16 at Fri Mar  8 00:58:49 2024.
