 Entering Gaussian System, Link 0=g16
 Initial command:
 /public/software/apps/Gaussian/g16/l1.exe "/public/home/LJQ_HG/tmp/Gau-72864.inp" -scrdir="/public/home/LJQ_HG/tmp/"
 Entering Link 1 = /public/software/apps/Gaussian/g16/l1.exe PID=     72867.
  
 Copyright (c) 1988-2019, Gaussian, Inc.  All Rights Reserved.
  
 This is part of the Gaussian(R) 16 program.  It is based on
 the Gaussian(R) 09 system (copyright 2009, Gaussian, Inc.),
 the Gaussian(R) 03 system (copyright 2003, Gaussian, Inc.),
 the Gaussian(R) 98 system (copyright 1998, Gaussian, Inc.),
 the Gaussian(R) 94 system (copyright 1995, Gaussian, Inc.),
 the Gaussian 92(TM) system (copyright 1992, Gaussian, Inc.),
 the Gaussian 90(TM) system (copyright 1990, Gaussian, Inc.),
 the Gaussian 88(TM) system (copyright 1988, Gaussian, Inc.),
 the Gaussian 86(TM) system (copyright 1986, Carnegie Mellon
 University), and the Gaussian 82(TM) system (copyright 1983,
 Carnegie Mellon University). Gaussian is a federally registered
 trademark of Gaussian, Inc.
  
 This software contains proprietary and confidential information,
 including trade secrets, belonging to Gaussian, Inc.
  
 This software is provided under written license and may be
 used, copied, transmitted, or stored only in accord with that
 written license.
  
 The following legend is applicable only to US Government
 contracts under FAR:
  
                    RESTRICTED RIGHTS LEGEND
  
 Use, reproduction and disclosure by the US Government is
 subject to restrictions as set forth in subparagraphs (a)
 and (c) of the Commercial Computer Software - Restricted
 Rights clause in FAR 52.227-19.
  
 Gaussian, Inc.
 340 Quinnipiac St., Bldg. 40, Wallingford CT 06492
  
  
 ---------------------------------------------------------------
 Warning -- This program may not be used in any manner that
 competes with the business of Gaussian, Inc. or will provide
 assistance to any competitor of Gaussian, Inc.  The licensee
 of this program is prohibited from giving any competitor of
 Gaussian, Inc. access to this program.  By using this program,
 the user acknowledges that Gaussian, Inc. is engaged in the
 business of creating and licensing software in the field of
 computational chemistry and represents and warrants to the
 licensee that it is not a competitor of Gaussian, Inc. and that
 it will not use this program in any manner prohibited above.
 ---------------------------------------------------------------
  

 Cite this work as:
 Gaussian 16, Revision C.01,
 M. J. Frisch, G. W. Trucks, H. B. Schlegel, G. E. Scuseria, 
 M. A. Robb, J. R. Cheeseman, G. Scalmani, V. Barone, 
 G. A. Petersson, H. Nakatsuji, X. Li, M. Caricato, A. V. Marenich, 
 J. Bloino, B. G. Janesko, R. Gomperts, B. Mennucci, H. P. Hratchian, 
 J. V. Ortiz, A. F. Izmaylov, J. L. Sonnenberg, D. Williams-Young, 
 F. Ding, F. Lipparini, F. Egidi, J. Goings, B. Peng, A. Petrone, 
 T. Henderson, D. Ranasinghe, V. G. Zakrzewski, J. Gao, N. Rega, 
 G. Zheng, W. Liang, M. Hada, M. Ehara, K. Toyota, R. Fukuda, 
 J. Hasegawa, M. Ishida, T. Nakajima, Y. Honda, O. Kitao, H. Nakai, 
 T. Vreven, K. Throssell, J. A. Montgomery, Jr., J. E. Peralta, 
 F. Ogliaro, M. J. Bearpark, J. J. Heyd, E. N. Brothers, K. N. Kudin, 
 V. N. Staroverov, T. A. Keith, R. Kobayashi, J. Normand, 
 K. Raghavachari, A. P. Rendell, J. C. Burant, S. S. Iyengar, 
 J. Tomasi, M. Cossi, J. M. Millam, M. Klene, C. Adamo, R. Cammi, 
 J. W. Ochterski, R. L. Martin, K. Morokuma, O. Farkas, 
 J. B. Foresman, and D. J. Fox, Gaussian, Inc., Wallingford CT, 2019.
 
 ******************************************
 Gaussian 16:  ES64L-G16RevC.01  3-Jul-2019
                 8-Mar-2024 
 ******************************************
 %nprocshared=32
 Will use up to   32 processors via shared memory.
 %mem=100GB
 ------------------------------------------
 #p opt freq b3lyp/def2svpp em=gd3bj nosymm
 ------------------------------------------
 1/18=20,19=15,26=3,38=1/1,3;
 2/9=110,12=2,15=1,17=6,18=5,40=1/2;
 3/5=43,7=202,11=2,25=1,30=1,71=1,74=-5,124=41/1,2,3;
 4//1;
 5/5=2,38=5/2;
 6/7=2,8=2,9=2,10=2,28=1/1;
 7/30=1/1,2,3,16;
 1/18=20,19=15,26=3/3(2);
 2/9=110,15=1/2;
 99//99;
 2/9=110,15=1/2;
 3/5=43,7=202,11=2,25=1,30=1,71=1,74=-5,124=41/1,2,3;
 4/5=5,16=3,69=1/1;
 5/5=2,38=5/2;
 7/30=1/1,2,3,16;
 1/18=20,19=15,26=3/3(-5);
 2/9=110,15=1/2;
 6/7=2,8=2,9=2,10=2,19=2,28=1/1;
 99/9=1/99;
 Leave Link    1 at Fri Mar  8 02:38:44 2024, MaxMem= 13421772800 cpu:               2.2 elap:               0.1
 (Enter /public/software/apps/Gaussian/g16/l101.exe)
 ------------------
 $$$$Title####0????
 ------------------
 Symbolic Z-matrix:
 Charge =  0 Multiplicity = 2
 C                    -6.87628  -0.21375  -4.54563 
 O                    -6.34874   0.95504  -3.9267 
 C                    -5.43217   0.94357  -2.86482 
 C                    -4.99488   2.16916  -2.35045 
 C                    -4.08182   2.21153  -1.29316 
 C                    -3.58494   1.02227  -0.73496 
 C                    -2.62298   1.06941   0.3928 
 C                    -2.90527   1.87049   1.50795 
 C                    -2.01383   1.93906   2.58548 
 C                    -2.3082    2.75703   3.68843 
 C                    -1.41839   2.8412    4.76006 
 C                    -0.22761   2.11571   4.73985 
 C                     0.07908   1.29621   3.65126 
 C                    -0.81273   1.18582   2.56232 
 C                    -0.53433   0.35681   1.44663 
 C                     0.69823  -0.47407   1.37919 
 C                     1.71276  -0.10313   0.47707 
 O                     1.5127    0.98902  -0.36455 
 C                     2.91039  -0.83864   0.4023 
 C                     3.99728  -0.43941  -0.52436 
 C                     4.58033  -1.38588  -1.3829 
 C                     5.61048  -1.01354  -2.25094 
 C                     6.08046   0.30419  -2.27427 
 O                     7.11573   0.6272   -3.16405 
 C                     7.68878   1.92423  -3.29345 
 C                     5.5039    1.25359  -1.40959 
 C                     4.47296   0.88233  -0.54139 
 C                     3.07552  -1.96986   1.21349 
 C                     2.06499  -2.37406   2.09433 
 C                     2.2439   -3.51741   2.88994 
 C                     1.23599  -3.93439   3.76027 
 C                     0.04147  -3.21943   3.84187 
 C                    -0.15139  -2.07915   3.05877 
 C                     0.86001  -1.63173   2.18117 
 C                    -1.4279    0.32675   0.35975 
 O                    -1.10814  -0.42809  -0.7668 
 C                    -4.02854  -0.20908  -1.24543 
 C                    -4.94239  -0.25037  -2.30261 
 H                    -7.43464  -0.82069  -3.80193 
 H                    -6.05473  -0.81432  -4.99016 
 H                    -7.57371   0.08738  -5.35388 
 H                    -5.36445   3.09461  -2.77374 
 H                    -3.7534    3.17319  -0.91829 
 H                    -3.82837   2.43911   1.53752 
 H                    -3.22488   3.3341    3.71997 
 H                    -1.65035   3.47466   5.6065 
 H                     0.46243   2.18986   5.57051 
 H                     1.01709   0.7573    3.66921 
 H                     4.22953  -2.4106   -1.38976 
 H                     6.04591  -1.75339  -2.91067 
 H                     8.48246   1.89431  -4.06774 
 H                     6.91334   2.65472  -3.607 
 H                     8.14333   2.23864  -2.33024 
 H                     5.84747   2.27889  -1.39737 
 H                     4.05639   1.62443   0.12852 
 H                     4.00001  -2.53458   1.16119 
 H                     3.16195  -4.09063   2.83591 
 H                     1.37941  -4.81736   4.36964 
 H                    -0.73993  -3.55103   4.5135 
 H                    -1.09567  -1.55791   3.14394 
 H                    -3.67886  -1.13964  -0.81558 
 H                    -5.26425  -1.21449  -2.6718 
 Cu                    0.2675    0.51135  -1.80401 
 
 ITRead=  0  0  0  0  0  0  0  0  0  0  0  0  0  0  0  0  0  0  0  0
 ITRead=  0  0  0  0  0  0  0  0  0  0  0  0  0  0  0  0  0  0  0  0
 ITRead=  0  0  0  0  0  0  0  0  0  0  0  0  0  0  0  0  0  0  0  0
 ITRead=  0  0  0
 MicOpt= -1 -1 -1 -1 -1 -1 -1 -1 -1 -1 -1 -1 -1 -1 -1 -1 -1 -1 -1 -1
 MicOpt= -1 -1 -1 -1 -1 -1 -1 -1 -1 -1 -1 -1 -1 -1 -1 -1 -1 -1 -1 -1
 MicOpt= -1 -1 -1 -1 -1 -1 -1 -1 -1 -1 -1 -1 -1 -1 -1 -1 -1 -1 -1 -1
 MicOpt= -1 -1 -1
 NAtoms=     63 NQM=       63 NQMF=       0 NMMI=      0 NMMIF=      0
                NMic=       0 NMicF=      0.
                    Isotopes and Nuclear Properties:
 (Nuclear quadrupole moments (NQMom) in fm**2, nuclear magnetic moments (NMagM)
  in nuclear magnetons)

  Atom         1           2           3           4           5           6           7           8           9          10
 IAtWgt=          12          16          12          12          12          12          12          12          12          12
 AtmWgt=  12.0000000  15.9949146  12.0000000  12.0000000  12.0000000  12.0000000  12.0000000  12.0000000  12.0000000  12.0000000
 NucSpn=           0           0           0           0           0           0           0           0           0           0
 AtZEff=  -0.0000000  -0.0000000  -0.0000000  -0.0000000  -0.0000000  -0.0000000  -0.0000000  -0.0000000  -0.0000000  -0.0000000
 NQMom=    0.0000000   0.0000000   0.0000000   0.0000000   0.0000000   0.0000000   0.0000000   0.0000000   0.0000000   0.0000000
 NMagM=    0.0000000   0.0000000   0.0000000   0.0000000   0.0000000   0.0000000   0.0000000   0.0000000   0.0000000   0.0000000
 AtZNuc=   6.0000000   8.0000000   6.0000000   6.0000000   6.0000000   6.0000000   6.0000000   6.0000000   6.0000000   6.0000000

  Atom        11          12          13          14          15          16          17          18          19          20
 IAtWgt=          12          12          12          12          12          12          12          16          12          12
 AtmWgt=  12.0000000  12.0000000  12.0000000  12.0000000  12.0000000  12.0000000  12.0000000  15.9949146  12.0000000  12.0000000
 NucSpn=           0           0           0           0           0           0           0           0           0           0
 AtZEff=  -0.0000000  -0.0000000  -0.0000000  -0.0000000  -0.0000000  -0.0000000  -0.0000000  -0.0000000  -0.0000000  -0.0000000
 NQMom=    0.0000000   0.0000000   0.0000000   0.0000000   0.0000000   0.0000000   0.0000000   0.0000000   0.0000000   0.0000000
 NMagM=    0.0000000   0.0000000   0.0000000   0.0000000   0.0000000   0.0000000   0.0000000   0.0000000   0.0000000   0.0000000
 AtZNuc=   6.0000000   6.0000000   6.0000000   6.0000000   6.0000000   6.0000000   6.0000000   8.0000000   6.0000000   6.0000000

  Atom        21          22          23          24          25          26          27          28          29          30
 IAtWgt=          12          12          12          16          12          12          12          12          12          12
 AtmWgt=  12.0000000  12.0000000  12.0000000  15.9949146  12.0000000  12.0000000  12.0000000  12.0000000  12.0000000  12.0000000
 NucSpn=           0           0           0           0           0           0           0           0           0           0
 AtZEff=  -0.0000000  -0.0000000  -0.0000000  -0.0000000  -0.0000000  -0.0000000  -0.0000000  -0.0000000  -0.0000000  -0.0000000
 NQMom=    0.0000000   0.0000000   0.0000000   0.0000000   0.0000000   0.0000000   0.0000000   0.0000000   0.0000000   0.0000000
 NMagM=    0.0000000   0.0000000   0.0000000   0.0000000   0.0000000   0.0000000   0.0000000   0.0000000   0.0000000   0.0000000
 AtZNuc=   6.0000000   6.0000000   6.0000000   8.0000000   6.0000000   6.0000000   6.0000000   6.0000000   6.0000000   6.0000000

  Atom        31          32          33          34          35          36          37          38          39          40
 IAtWgt=          12          12          12          12          12          16          12          12           1           1
 AtmWgt=  12.0000000  12.0000000  12.0000000  12.0000000  12.0000000  15.9949146  12.0000000  12.0000000   1.0078250   1.0078250
 NucSpn=           0           0           0           0           0           0           0           0           1           1
 AtZEff=  -0.0000000  -0.0000000  -0.0000000  -0.0000000  -0.0000000  -0.0000000  -0.0000000  -0.0000000  -0.0000000  -0.0000000
 NQMom=    0.0000000   0.0000000   0.0000000   0.0000000   0.0000000   0.0000000   0.0000000   0.0000000   0.0000000   0.0000000
 NMagM=    0.0000000   0.0000000   0.0000000   0.0000000   0.0000000   0.0000000   0.0000000   0.0000000   2.7928460   2.7928460
 AtZNuc=   6.0000000   6.0000000   6.0000000   6.0000000   6.0000000   8.0000000   6.0000000   6.0000000   1.0000000   1.0000000

  Atom        41          42          43          44          45          46          47          48          49          50
 IAtWgt=           1           1           1           1           1           1           1           1           1           1
 AtmWgt=   1.0078250   1.0078250   1.0078250   1.0078250   1.0078250   1.0078250   1.0078250   1.0078250   1.0078250   1.0078250
 NucSpn=           1           1           1           1           1           1           1           1           1           1
 AtZEff=  -0.0000000  -0.0000000  -0.0000000  -0.0000000  -0.0000000  -0.0000000  -0.0000000  -0.0000000  -0.0000000  -0.0000000
 NQMom=    0.0000000   0.0000000   0.0000000   0.0000000   0.0000000   0.0000000   0.0000000   0.0000000   0.0000000   0.0000000
 NMagM=    2.7928460   2.7928460   2.7928460   2.7928460   2.7928460   2.7928460   2.7928460   2.7928460   2.7928460   2.7928460
 AtZNuc=   1.0000000   1.0000000   1.0000000   1.0000000   1.0000000   1.0000000   1.0000000   1.0000000   1.0000000   1.0000000

  Atom        51          52          53          54          55          56          57          58          59          60
 IAtWgt=           1           1           1           1           1           1           1           1           1           1
 AtmWgt=   1.0078250   1.0078250   1.0078250   1.0078250   1.0078250   1.0078250   1.0078250   1.0078250   1.0078250   1.0078250
 NucSpn=           1           1           1           1           1           1           1           1           1           1
 AtZEff=  -0.0000000  -0.0000000  -0.0000000  -0.0000000  -0.0000000  -0.0000000  -0.0000000  -0.0000000  -0.0000000  -0.0000000
 NQMom=    0.0000000   0.0000000   0.0000000   0.0000000   0.0000000   0.0000000   0.0000000   0.0000000   0.0000000   0.0000000
 NMagM=    2.7928460   2.7928460   2.7928460   2.7928460   2.7928460   2.7928460   2.7928460   2.7928460   2.7928460   2.7928460
 AtZNuc=   1.0000000   1.0000000   1.0000000   1.0000000   1.0000000   1.0000000   1.0000000   1.0000000   1.0000000   1.0000000

  Atom        61          62          63
 IAtWgt=           1           1          63
 AtmWgt=   1.0078250   1.0078250  62.9295992
 NucSpn=           1           1           3
 AtZEff=  -0.0000000  -0.0000000  -0.0000000
 NQMom=    0.0000000   0.0000000 -22.0000000
 NMagM=    2.7928460   2.7928460   2.2233000
 AtZNuc=   1.0000000   1.0000000  29.0000000
 Leave Link  101 at Fri Mar  8 02:38:44 2024, MaxMem= 13421772800 cpu:               6.9 elap:               0.2
 (Enter /public/software/apps/Gaussian/g16/l103.exe)

 GradGradGradGradGradGradGradGradGradGradGradGradGradGradGradGradGradGrad
 Berny optimization.
 Initialization pass.
                           ----------------------------
                           !    Initial Parameters    !
                           ! (Angstroms and Degrees)  !
 --------------------------                            --------------------------
 ! Name  Definition              Value          Derivative Info.                !
 --------------------------------------------------------------------------------
 ! R1    R(1,2)                  1.4239         estimate D2E/DX2                !
 ! R2    R(1,39)                 1.1105         estimate D2E/DX2                !
 ! R3    R(1,40)                 1.1105         estimate D2E/DX2                !
 ! R4    R(1,41)                 1.1092         estimate D2E/DX2                !
 ! R5    R(2,3)                  1.4028         estimate D2E/DX2                !
 ! R6    R(3,4)                  1.3992         estimate D2E/DX2                !
 ! R7    R(3,38)                 1.4076         estimate D2E/DX2                !
 ! R8    R(4,5)                  1.3976         estimate D2E/DX2                !
 ! R9    R(4,42)                 1.0827         estimate D2E/DX2                !
 ! R10   R(5,6)                  1.4046         estimate D2E/DX2                !
 ! R11   R(5,43)                 1.0831         estimate D2E/DX2                !
 ! R12   R(6,7)                  1.483          estimate D2E/DX2                !
 ! R13   R(6,37)                 1.4048         estimate D2E/DX2                !
 ! R14   R(7,8)                  1.4018         estimate D2E/DX2                !
 ! R15   R(7,35)                 1.4074         estimate D2E/DX2                !
 ! R16   R(8,9)                  1.4002         estimate D2E/DX2                !
 ! R17   R(8,44)                 1.0846         estimate D2E/DX2                !
 ! R18   R(9,10)                 1.4044         estimate D2E/DX2                !
 ! R19   R(9,14)                 1.4179         estimate D2E/DX2                !
 ! R20   R(10,11)                1.3954         estimate D2E/DX2                !
 ! R21   R(10,45)                1.0837         estimate D2E/DX2                !
 ! R22   R(11,12)                1.3945         estimate D2E/DX2                !
 ! R23   R(11,46)                1.0824         estimate D2E/DX2                !
 ! R24   R(12,13)                1.3967         estimate D2E/DX2                !
 ! R25   R(12,47)                1.0824         estimate D2E/DX2                !
 ! R26   R(13,14)                1.4118         estimate D2E/DX2                !
 ! R27   R(13,48)                1.0819         estimate D2E/DX2                !
 ! R28   R(14,15)                1.4176         estimate D2E/DX2                !
 ! R29   R(15,16)                1.488          estimate D2E/DX2                !
 ! R30   R(15,35)                1.4074         estimate D2E/DX2                !
 ! R31   R(16,17)                1.4074         estimate D2E/DX2                !
 ! R32   R(16,34)                1.4176         estimate D2E/DX2                !
 ! R33   R(17,18)                1.3932         estimate D2E/DX2                !
 ! R34   R(17,19)                1.4074         estimate D2E/DX2                !
 ! R35   R(18,63)                1.9623         estimate D2E/DX2                !
 ! R36   R(19,20)                1.483          estimate D2E/DX2                !
 ! R37   R(19,28)                1.4018         estimate D2E/DX2                !
 ! R38   R(20,21)                1.4046         estimate D2E/DX2                !
 ! R39   R(20,27)                1.4048         estimate D2E/DX2                !
 ! R40   R(21,22)                1.3976         estimate D2E/DX2                !
 ! R41   R(21,49)                1.0831         estimate D2E/DX2                !
 ! R42   R(22,23)                1.3992         estimate D2E/DX2                !
 ! R43   R(22,50)                1.0827         estimate D2E/DX2                !
 ! R44   R(23,24)                1.4028         estimate D2E/DX2                !
 ! R45   R(23,26)                1.4076         estimate D2E/DX2                !
 ! R46   R(24,25)                1.4239         estimate D2E/DX2                !
 ! R47   R(25,51)                1.1092         estimate D2E/DX2                !
 ! R48   R(25,52)                1.1105         estimate D2E/DX2                !
 ! R49   R(25,53)                1.1105         estimate D2E/DX2                !
 ! R50   R(26,27)                1.398          estimate D2E/DX2                !
 ! R51   R(26,54)                1.0814         estimate D2E/DX2                !
 ! R52   R(27,55)                1.0831         estimate D2E/DX2                !
 ! R53   R(28,29)                1.4002         estimate D2E/DX2                !
 ! R54   R(28,56)                1.0846         estimate D2E/DX2                !
 ! R55   R(29,30)                1.4044         estimate D2E/DX2                !
 ! R56   R(29,34)                1.4179         estimate D2E/DX2                !
 ! R57   R(30,31)                1.3954         estimate D2E/DX2                !
 ! R58   R(30,57)                1.0837         estimate D2E/DX2                !
 ! R59   R(31,32)                1.3945         estimate D2E/DX2                !
 ! R60   R(31,58)                1.0824         estimate D2E/DX2                !
 ! R61   R(32,33)                1.3967         estimate D2E/DX2                !
 ! R62   R(32,59)                1.0824         estimate D2E/DX2                !
 ! R63   R(33,34)                1.4118         estimate D2E/DX2                !
 ! R64   R(33,60)                1.0819         estimate D2E/DX2                !
 ! R65   R(35,36)                1.3932         estimate D2E/DX2                !
 ! R66   R(36,63)                1.9623         estimate D2E/DX2                !
 ! R67   R(37,38)                1.398          estimate D2E/DX2                !
 ! R68   R(37,61)                1.0831         estimate D2E/DX2                !
 ! R69   R(38,62)                1.0814         estimate D2E/DX2                !
 ! A1    A(2,1,39)             110.1093         estimate D2E/DX2                !
 ! A2    A(2,1,40)             110.1103         estimate D2E/DX2                !
 ! A3    A(2,1,41)             109.0775         estimate D2E/DX2                !
 ! A4    A(39,1,40)            110.149          estimate D2E/DX2                !
 ! A5    A(39,1,41)            108.6765         estimate D2E/DX2                !
 ! A6    A(40,1,41)            108.6801         estimate D2E/DX2                !
 ! A7    A(1,2,3)              124.3614         estimate D2E/DX2                !
 ! A8    A(2,3,4)              118.3796         estimate D2E/DX2                !
 ! A9    A(2,3,38)             122.4532         estimate D2E/DX2                !
 ! A10   A(4,3,38)             119.1672         estimate D2E/DX2                !
 ! A11   A(3,4,5)              120.5851         estimate D2E/DX2                !
 ! A12   A(3,4,42)             119.8873         estimate D2E/DX2                !
 ! A13   A(5,4,42)             119.5275         estimate D2E/DX2                !
 ! A14   A(4,5,6)              120.4033         estimate D2E/DX2                !
 ! A15   A(4,5,43)             119.1324         estimate D2E/DX2                !
 ! A16   A(6,5,43)             120.46           estimate D2E/DX2                !
 ! A17   A(5,6,7)              120.3152         estimate D2E/DX2                !
 ! A18   A(5,6,37)             119.0797         estimate D2E/DX2                !
 ! A19   A(7,6,37)             120.5971         estimate D2E/DX2                !
 ! A20   A(6,7,8)              119.5042         estimate D2E/DX2                !
 ! A21   A(6,7,35)             121.0739         estimate D2E/DX2                !
 ! A22   A(8,7,35)             119.4214         estimate D2E/DX2                !
 ! A23   A(7,8,9)              120.7966         estimate D2E/DX2                !
 ! A24   A(7,8,44)             119.518          estimate D2E/DX2                !
 ! A25   A(9,8,44)             119.6845         estimate D2E/DX2                !
 ! A26   A(8,9,10)             119.9656         estimate D2E/DX2                !
 ! A27   A(8,9,14)             120.0482         estimate D2E/DX2                !
 ! A28   A(10,9,14)            119.986          estimate D2E/DX2                !
 ! A29   A(9,10,11)            120.3051         estimate D2E/DX2                !
 ! A30   A(9,10,45)            120.6861         estimate D2E/DX2                !
 ! A31   A(11,10,45)           119.0084         estimate D2E/DX2                !
 ! A32   A(10,11,12)           120.1318         estimate D2E/DX2                !
 ! A33   A(10,11,46)           119.947          estimate D2E/DX2                !
 ! A34   A(12,11,46)           119.9205         estimate D2E/DX2                !
 ! A35   A(11,12,13)           120.2685         estimate D2E/DX2                !
 ! A36   A(11,12,47)           119.8416         estimate D2E/DX2                !
 ! A37   A(13,12,47)           119.8898         estimate D2E/DX2                !
 ! A38   A(12,13,14)           120.5527         estimate D2E/DX2                !
 ! A39   A(12,13,48)           118.015          estimate D2E/DX2                !
 ! A40   A(14,13,48)           121.4317         estimate D2E/DX2                !
 ! A41   A(9,14,13)            118.7466         estimate D2E/DX2                !
 ! A42   A(9,14,15)            119.332          estimate D2E/DX2                !
 ! A43   A(13,14,15)           121.9183         estimate D2E/DX2                !
 ! A44   A(14,15,16)           121.6615         estimate D2E/DX2                !
 ! A45   A(14,15,35)           119.7103         estimate D2E/DX2                !
 ! A46   A(16,15,35)           118.6202         estimate D2E/DX2                !
 ! A47   A(15,16,17)           118.6202         estimate D2E/DX2                !
 ! A48   A(15,16,34)           121.6614         estimate D2E/DX2                !
 ! A49   A(17,16,34)           119.7104         estimate D2E/DX2                !
 ! A50   A(16,17,18)           119.3606         estimate D2E/DX2                !
 ! A51   A(16,17,19)           120.6453         estimate D2E/DX2                !
 ! A52   A(18,17,19)           119.9833         estimate D2E/DX2                !
 ! A53   A(17,18,63)           110.0854         estimate D2E/DX2                !
 ! A54   A(17,19,20)           121.074          estimate D2E/DX2                !
 ! A55   A(17,19,28)           119.4214         estimate D2E/DX2                !
 ! A56   A(20,19,28)           119.5041         estimate D2E/DX2                !
 ! A57   A(19,20,21)           120.3152         estimate D2E/DX2                !
 ! A58   A(19,20,27)           120.5972         estimate D2E/DX2                !
 ! A59   A(21,20,27)           119.0796         estimate D2E/DX2                !
 ! A60   A(20,21,22)           120.4034         estimate D2E/DX2                !
 ! A61   A(20,21,49)           120.4599         estimate D2E/DX2                !
 ! A62   A(22,21,49)           119.1324         estimate D2E/DX2                !
 ! A63   A(21,22,23)           120.5851         estimate D2E/DX2                !
 ! A64   A(21,22,50)           119.5275         estimate D2E/DX2                !
 ! A65   A(23,22,50)           119.8874         estimate D2E/DX2                !
 ! A66   A(22,23,24)           118.3796         estimate D2E/DX2                !
 ! A67   A(22,23,26)           119.1672         estimate D2E/DX2                !
 ! A68   A(24,23,26)           122.4532         estimate D2E/DX2                !
 ! A69   A(23,24,25)           124.3613         estimate D2E/DX2                !
 ! A70   A(24,25,51)           109.0774         estimate D2E/DX2                !
 ! A71   A(24,25,52)           110.1103         estimate D2E/DX2                !
 ! A72   A(24,25,53)           110.1093         estimate D2E/DX2                !
 ! A73   A(51,25,52)           108.68           estimate D2E/DX2                !
 ! A74   A(51,25,53)           108.6765         estimate D2E/DX2                !
 ! A75   A(52,25,53)           110.1492         estimate D2E/DX2                !
 ! A76   A(23,26,27)           120.2925         estimate D2E/DX2                !
 ! A77   A(23,26,54)           121.0833         estimate D2E/DX2                !
 ! A78   A(27,26,54)           118.6237         estimate D2E/DX2                !
 ! A79   A(20,27,26)           120.4694         estimate D2E/DX2                !
 ! A80   A(20,27,55)           120.4594         estimate D2E/DX2                !
 ! A81   A(26,27,55)           119.0647         estimate D2E/DX2                !
 ! A82   A(19,28,29)           120.7966         estimate D2E/DX2                !
 ! A83   A(19,28,56)           119.5181         estimate D2E/DX2                !
 ! A84   A(29,28,56)           119.6844         estimate D2E/DX2                !
 ! A85   A(28,29,30)           119.9656         estimate D2E/DX2                !
 ! A86   A(28,29,34)           120.0482         estimate D2E/DX2                !
 ! A87   A(30,29,34)           119.986          estimate D2E/DX2                !
 ! A88   A(29,30,31)           120.3051         estimate D2E/DX2                !
 ! A89   A(29,30,57)           120.6861         estimate D2E/DX2                !
 ! A90   A(31,30,57)           119.0084         estimate D2E/DX2                !
 ! A91   A(30,31,32)           120.1318         estimate D2E/DX2                !
 ! A92   A(30,31,58)           119.947          estimate D2E/DX2                !
 ! A93   A(32,31,58)           119.9205         estimate D2E/DX2                !
 ! A94   A(31,32,33)           120.2685         estimate D2E/DX2                !
 ! A95   A(31,32,59)           119.8415         estimate D2E/DX2                !
 ! A96   A(33,32,59)           119.8899         estimate D2E/DX2                !
 ! A97   A(32,33,34)           120.5527         estimate D2E/DX2                !
 ! A98   A(32,33,60)           118.0151         estimate D2E/DX2                !
 ! A99   A(34,33,60)           121.4317         estimate D2E/DX2                !
 ! A100  A(16,34,29)           119.332          estimate D2E/DX2                !
 ! A101  A(16,34,33)           121.9183         estimate D2E/DX2                !
 ! A102  A(29,34,33)           118.7466         estimate D2E/DX2                !
 ! A103  A(7,35,15)            120.6453         estimate D2E/DX2                !
 ! A104  A(7,35,36)            119.9833         estimate D2E/DX2                !
 ! A105  A(15,35,36)           119.3606         estimate D2E/DX2                !
 ! A106  A(35,36,63)           109.2018         estimate D2E/DX2                !
 ! A107  A(6,37,38)            120.4693         estimate D2E/DX2                !
 ! A108  A(6,37,61)            120.4595         estimate D2E/DX2                !
 ! A109  A(38,37,61)           119.0648         estimate D2E/DX2                !
 ! A110  A(3,38,37)            120.2925         estimate D2E/DX2                !
 ! A111  A(3,38,62)            121.0833         estimate D2E/DX2                !
 ! A112  A(37,38,62)           118.6237         estimate D2E/DX2                !
 ! A113  A(18,63,36)           100.0            estimate D2E/DX2                !
 ! D1    D(39,1,2,3)            60.9045         estimate D2E/DX2                !
 ! D2    D(40,1,2,3)           -60.7437         estimate D2E/DX2                !
 ! D3    D(41,1,2,3)          -179.922          estimate D2E/DX2                !
 ! D4    D(1,2,3,4)            179.9895         estimate D2E/DX2                !
 ! D5    D(1,2,3,38)            -0.0824         estimate D2E/DX2                !
 ! D6    D(2,3,4,5)           -179.9733         estimate D2E/DX2                !
 ! D7    D(2,3,4,42)            -0.0379         estimate D2E/DX2                !
 ! D8    D(38,3,4,5)             0.0962         estimate D2E/DX2                !
 ! D9    D(38,3,4,42)         -179.9684         estimate D2E/DX2                !
 ! D10   D(2,3,38,37)          179.945          estimate D2E/DX2                !
 ! D11   D(2,3,38,62)           -0.3213         estimate D2E/DX2                !
 ! D12   D(4,3,38,37)           -0.1275         estimate D2E/DX2                !
 ! D13   D(4,3,38,62)          179.6062         estimate D2E/DX2                !
 ! D14   D(3,4,5,6)              0.2818         estimate D2E/DX2                !
 ! D15   D(3,4,5,43)           179.5358         estimate D2E/DX2                !
 ! D16   D(42,4,5,6)          -179.6539         estimate D2E/DX2                !
 ! D17   D(42,4,5,43)           -0.3999         estimate D2E/DX2                !
 ! D18   D(4,5,6,7)           -179.5961         estimate D2E/DX2                !
 ! D19   D(4,5,6,37)            -0.6212         estimate D2E/DX2                !
 ! D20   D(43,5,6,7)             1.1599         estimate D2E/DX2                !
 ! D21   D(43,5,6,37)         -179.8651         estimate D2E/DX2                !
 ! D22   D(5,6,7,8)             49.5393         estimate D2E/DX2                !
 ! D23   D(5,6,7,35)          -130.2068         estimate D2E/DX2                !
 ! D24   D(37,6,7,8)          -129.42           estimate D2E/DX2                !
 ! D25   D(37,6,7,35)           50.8339         estimate D2E/DX2                !
 ! D26   D(5,6,37,38)            0.59           estimate D2E/DX2                !
 ! D27   D(5,6,37,61)         -178.4785         estimate D2E/DX2                !
 ! D28   D(7,6,37,38)          179.5619         estimate D2E/DX2                !
 ! D29   D(7,6,37,61)            0.4935         estimate D2E/DX2                !
 ! D30   D(6,7,8,9)           -179.7582         estimate D2E/DX2                !
 ! D31   D(6,7,8,44)             0.5914         estimate D2E/DX2                !
 ! D32   D(35,7,8,9)            -0.0079         estimate D2E/DX2                !
 ! D33   D(35,7,8,44)         -179.6583         estimate D2E/DX2                !
 ! D34   D(6,7,35,15)         -178.6969         estimate D2E/DX2                !
 ! D35   D(6,7,35,36)            2.5036         estimate D2E/DX2                !
 ! D36   D(8,7,35,15)            1.5568         estimate D2E/DX2                !
 ! D37   D(8,7,35,36)         -177.2427         estimate D2E/DX2                !
 ! D38   D(7,8,9,10)           179.4034         estimate D2E/DX2                !
 ! D39   D(7,8,9,14)            -0.4426         estimate D2E/DX2                !
 ! D40   D(44,8,9,10)           -0.9468         estimate D2E/DX2                !
 ! D41   D(44,8,9,14)          179.2072         estimate D2E/DX2                !
 ! D42   D(8,9,10,11)         -179.347          estimate D2E/DX2                !
 ! D43   D(8,9,10,45)            0.4268         estimate D2E/DX2                !
 ! D44   D(14,9,10,11)           0.4991         estimate D2E/DX2                !
 ! D45   D(14,9,10,45)        -179.7272         estimate D2E/DX2                !
 ! D46   D(8,9,14,13)          178.7425         estimate D2E/DX2                !
 ! D47   D(8,9,14,15)           -0.633          estimate D2E/DX2                !
 ! D48   D(10,9,14,13)          -1.1035         estimate D2E/DX2                !
 ! D49   D(10,9,14,15)         179.521          estimate D2E/DX2                !
 ! D50   D(9,10,11,12)           0.2132         estimate D2E/DX2                !
 ! D51   D(9,10,11,46)         179.9027         estimate D2E/DX2                !
 ! D52   D(45,10,11,12)       -179.5643         estimate D2E/DX2                !
 ! D53   D(45,10,11,46)          0.1252         estimate D2E/DX2                !
 ! D54   D(10,11,12,13)         -0.303          estimate D2E/DX2                !
 ! D55   D(10,11,12,47)        179.5732         estimate D2E/DX2                !
 ! D56   D(46,11,12,13)       -179.9926         estimate D2E/DX2                !
 ! D57   D(46,11,12,47)         -0.1165         estimate D2E/DX2                !
 ! D58   D(11,12,13,14)         -0.325          estimate D2E/DX2                !
 ! D59   D(11,12,13,48)        179.4113         estimate D2E/DX2                !
 ! D60   D(47,12,13,14)        179.799          estimate D2E/DX2                !
 ! D61   D(47,12,13,48)         -0.4648         estimate D2E/DX2                !
 ! D62   D(12,13,14,9)           1.0204         estimate D2E/DX2                !
 ! D63   D(12,13,14,15)       -179.621          estimate D2E/DX2                !
 ! D64   D(48,13,14,9)        -178.7067         estimate D2E/DX2                !
 ! D65   D(48,13,14,15)          0.6519         estimate D2E/DX2                !
 ! D66   D(9,14,15,16)        -178.8926         estimate D2E/DX2                !
 ! D67   D(9,14,15,35)           2.1516         estimate D2E/DX2                !
 ! D68   D(13,14,15,16)          1.7524         estimate D2E/DX2                !
 ! D69   D(13,14,15,35)       -177.2033         estimate D2E/DX2                !
 ! D70   D(14,15,16,17)       -108.777          estimate D2E/DX2                !
 ! D71   D(14,15,16,34)         72.2564         estimate D2E/DX2                !
 ! D72   D(35,15,16,17)         70.1899         estimate D2E/DX2                !
 ! D73   D(35,15,16,34)       -108.7768         estimate D2E/DX2                !
 ! D74   D(14,15,35,7)          -2.6326         estimate D2E/DX2                !
 ! D75   D(14,15,35,36)        176.1743         estimate D2E/DX2                !
 ! D76   D(16,15,35,7)         178.3799         estimate D2E/DX2                !
 ! D77   D(16,15,35,36)         -2.8132         estimate D2E/DX2                !
 ! D78   D(15,16,17,18)         -2.8131         estimate D2E/DX2                !
 ! D79   D(15,16,17,19)        178.3801         estimate D2E/DX2                !
 ! D80   D(34,16,17,18)        176.1742         estimate D2E/DX2                !
 ! D81   D(34,16,17,19)         -2.6326         estimate D2E/DX2                !
 ! D82   D(15,16,34,29)       -178.8927         estimate D2E/DX2                !
 ! D83   D(15,16,34,33)          1.7524         estimate D2E/DX2                !
 ! D84   D(17,16,34,29)          2.1517         estimate D2E/DX2                !
 ! D85   D(17,16,34,33)       -177.2032         estimate D2E/DX2                !
 ! D86   D(16,17,18,63)        -74.4258         estimate D2E/DX2                !
 ! D87   D(19,17,18,63)        104.3891         estimate D2E/DX2                !
 ! D88   D(16,17,19,20)       -178.6969         estimate D2E/DX2                !
 ! D89   D(16,17,19,28)          1.5567         estimate D2E/DX2                !
 ! D90   D(18,17,19,20)          2.5036         estimate D2E/DX2                !
 ! D91   D(18,17,19,28)       -177.2428         estimate D2E/DX2                !
 ! D92   D(17,18,63,36)         45.0417         estimate D2E/DX2                !
 ! D93   D(17,19,20,21)       -130.2076         estimate D2E/DX2                !
 ! D94   D(17,19,20,27)         50.8334         estimate D2E/DX2                !
 ! D95   D(28,19,20,21)         49.5386         estimate D2E/DX2                !
 ! D96   D(28,19,20,27)       -129.4204         estimate D2E/DX2                !
 ! D97   D(17,19,28,29)         -0.0077         estimate D2E/DX2                !
 ! D98   D(17,19,28,56)       -179.6583         estimate D2E/DX2                !
 ! D99   D(20,19,28,29)       -179.7581         estimate D2E/DX2                !
 ! D100  D(20,19,28,56)          0.5913         estimate D2E/DX2                !
 ! D101  D(19,20,21,22)       -179.5957         estimate D2E/DX2                !
 ! D102  D(19,20,21,49)          1.1602         estimate D2E/DX2                !
 ! D103  D(27,20,21,22)         -0.621          estimate D2E/DX2                !
 ! D104  D(27,20,21,49)       -179.8651         estimate D2E/DX2                !
 ! D105  D(19,20,27,26)        179.5616         estimate D2E/DX2                !
 ! D106  D(19,20,27,55)          0.4933         estimate D2E/DX2                !
 ! D107  D(21,20,27,26)          0.5898         estimate D2E/DX2                !
 ! D108  D(21,20,27,55)       -178.4785         estimate D2E/DX2                !
 ! D109  D(20,21,22,23)          0.2817         estimate D2E/DX2                !
 ! D110  D(20,21,22,50)       -179.654          estimate D2E/DX2                !
 ! D111  D(49,21,22,23)        179.5358         estimate D2E/DX2                !
 ! D112  D(49,21,22,50)         -0.3999         estimate D2E/DX2                !
 ! D113  D(21,22,23,24)       -179.9736         estimate D2E/DX2                !
 ! D114  D(21,22,23,26)          0.0962         estimate D2E/DX2                !
 ! D115  D(50,22,23,24)         -0.0382         estimate D2E/DX2                !
 ! D116  D(50,22,23,26)       -179.9684         estimate D2E/DX2                !
 ! D117  D(22,23,24,25)        179.9899         estimate D2E/DX2                !
 ! D118  D(26,23,24,25)         -0.0823         estimate D2E/DX2                !
 ! D119  D(22,23,26,27)         -0.1274         estimate D2E/DX2                !
 ! D120  D(22,23,26,54)        179.6062         estimate D2E/DX2                !
 ! D121  D(24,23,26,27)        179.9454         estimate D2E/DX2                !
 ! D122  D(24,23,26,54)         -0.321          estimate D2E/DX2                !
 ! D123  D(23,24,25,51)       -179.9222         estimate D2E/DX2                !
 ! D124  D(23,24,25,52)        -60.7439         estimate D2E/DX2                !
 ! D125  D(23,24,25,53)         60.9044         estimate D2E/DX2                !
 ! D126  D(23,26,27,20)         -0.219          estimate D2E/DX2                !
 ! D127  D(23,26,27,55)        178.8623         estimate D2E/DX2                !
 ! D128  D(54,26,27,20)       -179.9591         estimate D2E/DX2                !
 ! D129  D(54,26,27,55)         -0.8778         estimate D2E/DX2                !
 ! D130  D(19,28,29,30)        179.4031         estimate D2E/DX2                !
 ! D131  D(19,28,29,34)         -0.4428         estimate D2E/DX2                !
 ! D132  D(56,28,29,30)         -0.9468         estimate D2E/DX2                !
 ! D133  D(56,28,29,34)        179.2073         estimate D2E/DX2                !
 ! D134  D(28,29,30,31)       -179.347          estimate D2E/DX2                !
 ! D135  D(28,29,30,57)          0.4269         estimate D2E/DX2                !
 ! D136  D(34,29,30,31)          0.499          estimate D2E/DX2                !
 ! D137  D(34,29,30,57)       -179.7271         estimate D2E/DX2                !
 ! D138  D(28,29,34,16)         -0.633          estimate D2E/DX2                !
 ! D139  D(28,29,34,33)        178.7425         estimate D2E/DX2                !
 ! D140  D(30,29,34,16)        179.5212         estimate D2E/DX2                !
 ! D141  D(30,29,34,33)         -1.1034         estimate D2E/DX2                !
 ! D142  D(29,30,31,32)          0.2132         estimate D2E/DX2                !
 ! D143  D(29,30,31,58)        179.9027         estimate D2E/DX2                !
 ! D144  D(57,30,31,32)       -179.5644         estimate D2E/DX2                !
 ! D145  D(57,30,31,58)          0.1251         estimate D2E/DX2                !
 ! D146  D(30,31,32,33)         -0.3029         estimate D2E/DX2                !
 ! D147  D(30,31,32,59)        179.5731         estimate D2E/DX2                !
 ! D148  D(58,31,32,33)       -179.9925         estimate D2E/DX2                !
 ! D149  D(58,31,32,59)         -0.1165         estimate D2E/DX2                !
 ! D150  D(31,32,33,34)         -0.325          estimate D2E/DX2                !
 ! D151  D(31,32,33,60)        179.4113         estimate D2E/DX2                !
 ! D152  D(59,32,33,34)        179.799          estimate D2E/DX2                !
 ! D153  D(59,32,33,60)         -0.4647         estimate D2E/DX2                !
 ! D154  D(32,33,34,16)       -179.6211         estimate D2E/DX2                !
 ! D155  D(32,33,34,29)          1.0204         estimate D2E/DX2                !
 ! D156  D(60,33,34,16)          0.6518         estimate D2E/DX2                !
 ! D157  D(60,33,34,29)       -178.7067         estimate D2E/DX2                !
 ! D158  D(7,35,36,63)         103.4808         estimate D2E/DX2                !
 ! D159  D(15,35,36,63)        -75.3341         estimate D2E/DX2                !
 ! D160  D(35,36,63,18)         46.813          estimate D2E/DX2                !
 ! D161  D(6,37,38,3)           -0.219          estimate D2E/DX2                !
 ! D162  D(6,37,38,62)        -179.9591         estimate D2E/DX2                !
 ! D163  D(61,37,38,3)         178.8623         estimate D2E/DX2                !
 ! D164  D(61,37,38,62)         -0.8778         estimate D2E/DX2                !
 --------------------------------------------------------------------------------
 Trust Radius=3.00D-01 FncErr=1.00D-07 GrdErr=1.00D-06 EigMax=2.50D+02 EigMin=1.00D-04
 Number of steps in this run=    356 maximum allowed number of steps=    378.
 GradGradGradGradGradGradGradGradGradGradGradGradGradGradGradGradGradGrad

 Leave Link  103 at Fri Mar  8 02:38:44 2024, MaxMem= 13421772800 cpu:               1.1 elap:               0.0
 (Enter /public/software/apps/Gaussian/g16/l202.exe)
 Symmetry turned off by external request.
 Stoichiometry    C34H24CuO4(2)
 Framework group  C1[X(C34H24CuO4)]
 Deg. of freedom   183
 Full point group                 C1      NOp   1
                          Input orientation:                          
 ---------------------------------------------------------------------
 Center     Atomic      Atomic             Coordinates (Angstroms)
 Number     Number       Type             X           Y           Z
 ---------------------------------------------------------------------
      1          6           0       -6.876279   -0.213746   -4.545626
      2          8           0       -6.348736    0.955037   -3.926704
      3          6           0       -5.432165    0.943574   -2.864824
      4          6           0       -4.994883    2.169156   -2.350450
      5          6           0       -4.081824    2.211529   -1.293156
      6          6           0       -3.584940    1.022266   -0.734956
      7          6           0       -2.622983    1.069408    0.392801
      8          6           0       -2.905271    1.870491    1.507945
      9          6           0       -2.013829    1.939060    2.585475
     10          6           0       -2.308198    2.757030    3.688432
     11          6           0       -1.418390    2.841195    4.760058
     12          6           0       -0.227609    2.115711    4.739853
     13          6           0        0.079083    1.296206    3.651263
     14          6           0       -0.812725    1.185816    2.562323
     15          6           0       -0.534325    0.356812    1.446631
     16          6           0        0.698234   -0.474067    1.379190
     17          6           0        1.712761   -0.103128    0.477071
     18          8           0        1.512699    0.989018   -0.364550
     19          6           0        2.910385   -0.838640    0.402300
     20          6           0        3.997280   -0.439413   -0.524360
     21          6           0        4.580329   -1.385877   -1.382898
     22          6           0        5.610481   -1.013543   -2.250940
     23          6           0        6.080460    0.304191   -2.274271
     24          8           0        7.115729    0.627199   -3.164050
     25          6           0        7.688784    1.924228   -3.293447
     26          6           0        5.503897    1.253594   -1.409589
     27          6           0        4.472958    0.882331   -0.541387
     28          6           0        3.075525   -1.969860    1.213494
     29          6           0        2.064987   -2.374057    2.094333
     30          6           0        2.243895   -3.517408    2.889935
     31          6           0        1.235988   -3.934389    3.760266
     32          6           0        0.041474   -3.219425    3.841870
     33          6           0       -0.151391   -2.079145    3.058773
     34          6           0        0.860011   -1.631726    2.181173
     35          6           0       -1.427895    0.326749    0.359750
     36          8           0       -1.108140   -0.428090   -0.766798
     37          6           0       -4.028542   -0.209075   -1.245429
     38          6           0       -4.942386   -0.250368   -2.302609
     39          1           0       -7.434635   -0.820685   -3.801925
     40          1           0       -6.054730   -0.814322   -4.990161
     41          1           0       -7.573706    0.087381   -5.353876
     42          1           0       -5.364446    3.094610   -2.773743
     43          1           0       -3.753401    3.173185   -0.918286
     44          1           0       -3.828372    2.439105    1.537517
     45          1           0       -3.224882    3.334103    3.719968
     46          1           0       -1.650351    3.474664    5.606499
     47          1           0        0.462433    2.189855    5.570508
     48          1           0        1.017092    0.757298    3.669214
     49          1           0        4.229528   -2.410603   -1.389756
     50          1           0        6.045913   -1.753391   -2.910669
     51          1           0        8.482463    1.894314   -4.067741
     52          1           0        6.913342    2.654722   -3.606997
     53          1           0        8.143326    2.238641   -2.330242
     54          1           0        5.847465    2.278893   -1.397367
     55          1           0        4.056391    1.624425    0.128522
     56          1           0        4.000007   -2.534581    1.161191
     57          1           0        3.161945   -4.090627    2.835909
     58          1           0        1.379413   -4.817361    4.369644
     59          1           0       -0.739928   -3.551034    4.513501
     60          1           0       -1.095670   -1.557908    3.143945
     61          1           0       -3.678862   -1.139644   -0.815575
     62          1           0       -5.264248   -1.214491   -2.671797
     63         29           0        0.267496    0.511352   -1.804005
 ---------------------------------------------------------------------
 Rotational constants (GHZ):           0.1027882           0.0567328           0.0452082
 Leave Link  202 at Fri Mar  8 02:38:45 2024, MaxMem= 13421772800 cpu:               0.2 elap:               0.0
 (Enter /public/software/apps/Gaussian/g16/l301.exe)
 Standard basis: def2SVPP (5D, 7F)
 Ernie: Thresh=  0.10000D-02 Tol=  0.10000D-05 Strict=F.
   604 basis functions,  1117 primitive gaussians,   644 cartesian basis functions
   145 alpha electrons      144 beta electrons
       nuclear repulsion energy      4613.0101376498 Hartrees.
 IExCor=  402 DFT=T Ex+Corr=B3LYP ExCW=0 ScaHFX=  0.200000
 ScaDFX=  0.800000  0.720000  1.000000  0.810000 ScalE2=  1.000000  1.000000
 IRadAn=      5 IRanWt=     -1 IRanGd=            0 ICorTp=0 IEmpDi=141
 NAtoms=   63 NActive=   63 NUniq=   63 SFac= 1.00D+00 NAtFMM=   60 NAOKFM=T Big=T
 Integral buffers will be    131072 words long.
 Raffenetti 2 integral format.
 Two-electron integral symmetry is turned off.
 R6Disp:  Grimme-D3(BJ) Dispersion energy=       -0.1670186317 Hartrees.
 Nuclear repulsion after empirical dispersion term =     4612.8431190181 Hartrees.
 Leave Link  301 at Fri Mar  8 02:38:45 2024, MaxMem= 13421772800 cpu:               1.9 elap:               0.1
 (Enter /public/software/apps/Gaussian/g16/l302.exe)
 NPDir=0 NMtPBC=     1 NCelOv=     1 NCel=       1 NClECP=     1 NCelD=      1
         NCelK=      1 NCelE2=     1 NClLst=     1 CellRange=     0.0.
 One-electron integrals computed using PRISM.
   1 Symmetry operations used in ECPInt.
 ECPInt:  NShTT=   41041 NPrTT=  169096 LenC2=   32746 LenP2D=   82834.
 LDataN:  DoStor=T MaxTD1= 4 Len=   56
 NBasis=   604 RedAO= T EigKep=  1.66D-04  NBF=   604
 NBsUse=   604 1.00D-06 EigRej= -1.00D+00 NBFU=   604
 Precomputing XC quadrature grid using
 IXCGrd= 4 IRadAn=           5 IRanWt=          -1 IRanGd=           0 AccXCQ= 0.00D+00.
 Generated NRdTot=       0 NPtTot=           0 NUsed=           0 NTot=          32
 NSgBfM=   618   618   618   618   618 MxSgAt=    63 MxSgA2=    63.
 Leave Link  302 at Fri Mar  8 02:38:45 2024, MaxMem= 13421772800 cpu:              22.8 elap:               0.7
 (Enter /public/software/apps/Gaussian/g16/l303.exe)
 DipDrv:  MaxL=1.
 Leave Link  303 at Fri Mar  8 02:38:46 2024, MaxMem= 13421772800 cpu:               2.8 elap:               0.1
 (Enter /public/software/apps/Gaussian/g16/l401.exe)
 ExpMin= 3.30D-02 ExpMax= 7.64D+04 ExpMxC= 1.15D+04 IAcc=3 IRadAn=         5 AccDes= 0.00D+00
 Harris functional with IExCor=  402 and IRadAn=       5 diagonalized for initial guess.
 HarFok:  IExCor=  402 AccDes= 0.00D+00 IRadAn=         5 IDoV= 1 UseB2=F ITyADJ=14
 ICtDFT=  3500011 ScaDFX=  1.000000  1.000000  1.000000  1.000000
 FoFCou: FMM=F IPFlag=           0 FMFlag=      100000 FMFlg1=        2001
         NFxFlg=           0 DoJE=T BraDBF=F KetDBF=T FulRan=T
         wScrn=  0.000000 ICntrl=       500 IOpCl=  0 I1Cent=   200000004 NGrid=           0
         NMat0=    1 NMatS0=      1 NMatT0=    0 NMatD0=    1 NMtDS0=    0 NMtDT0=    0
 Symmetry not used in FoFCou.
 Harris En= -3250.43634355247    
 JPrj=0 DoOrth=F DoCkMO=F.
 Initial guess <Sx>= 0.0000 <Sy>= 0.0000 <Sz>= 0.5000 <S**2>= 0.7500 S= 0.5000
 Leave Link  401 at Fri Mar  8 02:38:47 2024, MaxMem= 13421772800 cpu:              51.7 elap:               1.7
 (Enter /public/software/apps/Gaussian/g16/l502.exe)
 Two-electron integral symmetry not used.
 UHF open shell SCF:
 Using DIIS extrapolation, IDIIS=  1040.
 NGot= 13421772800 LenX= 13420915932 LenY= 13420500552
 Requested convergence on RMS density matrix=1.00D-08 within 128 cycles.
 Requested convergence on MAX density matrix=1.00D-06.
 Requested convergence on             energy=1.00D-06.
 No special actions if energy rises.
 Fock matrices will be formed incrementally for  20 cycles.

 Cycle   1  Pass 1  IDiag  1:
 FoFJK:  IHMeth= 1 ICntrl=       0 DoSepK=F KAlg= 0 I1Cent=           0 FoldK=F
 IRaf= 940000000 NMat=       1 IRICut=       1 DoRegI=T DoRafI=F ISym2E= 0 IDoP0=0 IntGTp=1.
 FoFCou: FMM=T IPFlag=           0 FMFlag=      100000 FMFlg1=        2001
         NFxFlg=           0 DoJE=F BraDBF=F KetDBF=F FulRan=T
         wScrn=  0.000000 ICntrl=         0 IOpCl=  1 I1Cent=           0 NGrid=           0
         NMat0=    1 NMatS0=      1 NMatT0=    0 NMatD0=    1 NMtDS0=    0 NMtDT0=    0
 Symmetry not used in FoFCou.
 FMM levels:  10  Number of levels for PrismC:   9
 E= -3235.52294637500    
 DIIS: error= 3.48D-01 at cycle   1 NSaved=   1.
 NSaved= 1 IEnMin= 1 EnMin= -3235.52294637500     IErMin= 1 ErrMin= 3.48D-01
 ErrMax= 3.48D-01  0.00D+00 EMaxC= 1.00D-01 BMatC= 5.94D+01 BMatP= 5.94D+01
 IDIUse=3 WtCom= 0.00D+00 WtEn= 1.00D+00
 Coeff-Com:  0.100D+01
 Coeff-En:   0.100D+01
 Coeff:      0.100D+01
 Gap=    -0.021 Goal=   None    Shift=    0.000
 Gap=     0.227 Goal=   None    Shift=    0.000
 GapD=   -0.021 DampG=0.250 DampE=0.125 DampFc=0.1250 IDamp=-1.
 Damping current iteration by 1.25D-01
 RMSDP=5.04D-02 MaxDP=7.45D+00              OVMax= 9.89D-01

 Cycle   2  Pass 1  IDiag  1:
 RMSU=  6.29D-03    CP:  1.02D+00
 E= -3240.17307891386     Delta-E=       -4.650132538863 Rises=F Damp=T
 DIIS: error= 2.34D-01 at cycle   2 NSaved=   2.
 NSaved= 2 IEnMin= 2 EnMin= -3240.17307891386     IErMin= 2 ErrMin= 2.34D-01
 ErrMax= 2.34D-01  0.00D+00 EMaxC= 1.00D-01 BMatC= 2.26D+01 BMatP= 5.94D+01
 IDIUse=3 WtCom= 0.00D+00 WtEn= 1.00D+00
 Coeff-Com: -0.114D+01 0.214D+01
 Coeff-En:   0.000D+00 0.100D+01
 Coeff:      0.000D+00 0.100D+01
 Gap=     0.073 Goal=   None    Shift=    0.000
 Gap=     0.103 Goal=   None    Shift=    0.000
 RMSDP=1.49D-02 MaxDP=3.17D+00 DE=-4.65D+00 OVMax= 9.51D-01

 Cycle   3  Pass 1  IDiag  1:
 RMSU=  1.34D-02    CP:  9.56D-01  2.05D+00
 E= -3224.72734950702     Delta-E=       15.445729406843 Rises=F Damp=F
 DIIS: error= 2.13D-01 at cycle   3 NSaved=   3.
 NSaved= 3 IEnMin= 2 EnMin= -3240.17307891386     IErMin= 3 ErrMin= 2.13D-01
 ErrMax= 2.13D-01  0.00D+00 EMaxC= 1.00D-01 BMatC= 6.27D+01 BMatP= 2.26D+01
 IDIUse=2 WtCom= 0.00D+00 WtEn= 1.00D+00
 EnCoef did   100 forward-backward iterations
 Coeff-En:   0.574D+00 0.256D-01 0.400D+00
 Coeff:      0.574D+00 0.256D-01 0.400D+00
 Gap=    -0.285 Goal=   None    Shift=    0.000
 Gap=     0.043 Goal=   None    Shift=    0.000
 RMSDP=2.05D-02 MaxDP=2.51D+00 DE= 1.54D+01 OVMax= 9.76D-01

 Cycle   4  Pass 1  IDiag  1:
 RMSU=  1.32D-02    CP:  8.91D-01  4.20D-01  1.22D-01
 E= -3203.64575243757     Delta-E=       21.081597069448 Rises=F Damp=F
 DIIS: error= 1.53D-01 at cycle   4 NSaved=   4.
 NSaved= 4 IEnMin= 2 EnMin= -3240.17307891386     IErMin= 4 ErrMin= 1.53D-01
 ErrMax= 1.53D-01  0.00D+00 EMaxC= 1.00D-01 BMatC= 8.41D+01 BMatP= 2.26D+01
 IDIUse=2 WtCom= 0.00D+00 WtEn= 1.00D+00
 EnCoef did   100 forward-backward iterations
 Coeff-En:   0.535D+00 0.132D-01 0.337D+00 0.114D+00
 Coeff:      0.535D+00 0.132D-01 0.337D+00 0.114D+00
 Gap=    -0.123 Goal=   None    Shift=    0.000
 Gap=    -0.045 Goal=   None    Shift=    0.000
 RMSDP=1.27D-02 MaxDP=1.49D+00 DE= 2.11D+01 OVMax= 8.19D-01

 Cycle   5  Pass 1  IDiag  1:
 RMSU=  4.80D-03    CP:  8.85D-01  5.56D-02  1.38D-01  1.32D-01
 E= -3248.63422195358     Delta-E=      -44.988469516013 Rises=F Damp=F
 DIIS: error= 1.41D-01 at cycle   5 NSaved=   5.
 NSaved= 5 IEnMin= 5 EnMin= -3248.63422195358     IErMin= 5 ErrMin= 1.41D-01
 ErrMax= 1.41D-01  0.00D+00 EMaxC= 1.00D-01 BMatC= 7.64D+00 BMatP= 2.26D+01
 IDIUse=3 WtCom= 0.00D+00 WtEn= 1.00D+00
 EnCoef did   100 forward-backward iterations
 Coeff-Com: -0.450D+00 0.950D+00 0.357D-02-0.738D-01 0.570D+00
 Coeff-En:   0.177D+00 0.313D-02 0.000D+00 0.000D+00 0.820D+00
 Coeff:      0.177D+00 0.313D-02 0.000D+00 0.000D+00 0.820D+00
 Gap=     0.081 Goal=   None    Shift=    0.000
 Gap=     0.019 Goal=   None    Shift=    0.000
 RMSDP=4.48D-03 MaxDP=5.37D-01 DE=-4.50D+01 OVMax= 8.21D-01

 Cycle   6  Pass 1  IDiag  1:
 RMSU=  3.78D-03    CP:  9.01D-01  1.01D-01  1.13D-01  7.43D-02  5.40D-01
 E= -3248.72782444450     Delta-E=       -0.093602490918 Rises=F Damp=F
 DIIS: error= 1.59D-01 at cycle   6 NSaved=   6.
 NSaved= 6 IEnMin= 6 EnMin= -3248.72782444450     IErMin= 5 ErrMin= 1.41D-01
 ErrMax= 1.59D-01  0.00D+00 EMaxC= 1.00D-01 BMatC= 9.76D+00 BMatP= 7.64D+00
 IDIUse=2 WtCom= 0.00D+00 WtEn= 1.00D+00
 Coeff-En:   0.000D+00 0.000D+00 0.000D+00 0.000D+00 0.488D+00 0.512D+00
 Coeff:      0.000D+00 0.000D+00 0.000D+00 0.000D+00 0.488D+00 0.512D+00
 Gap=     0.092 Goal=   None    Shift=    0.000
 Gap=     0.075 Goal=   None    Shift=    0.000
 RMSDP=3.33D-03 MaxDP=6.89D-01 DE=-9.36D-02 OVMax= 6.16D-01

 Cycle   7  Pass 1  IDiag  1:
 RMSU=  1.80D-03    CP:  8.94D-01 -2.27D-02  8.06D-02  7.37D-02  7.54D-01
                    CP:  3.52D-01
 E= -3249.90829909217     Delta-E=       -1.180474647673 Rises=F Damp=F
 DIIS: error= 3.74D-02 at cycle   7 NSaved=   7.
 NSaved= 7 IEnMin= 7 EnMin= -3249.90829909217     IErMin= 7 ErrMin= 3.74D-02
 ErrMax= 3.74D-02  0.00D+00 EMaxC= 1.00D-01 BMatC= 1.14D+00 BMatP= 7.64D+00
 IDIUse=3 WtCom= 6.26D-01 WtEn= 3.74D-01
 EnCoef did     3 forward-backward iterations
 Coeff-Com: -0.465D-01 0.466D-01-0.621D-02 0.770D-05 0.320D+00 0.229D+00
 Coeff-Com:  0.457D+00
 Coeff-En:   0.000D+00 0.000D+00 0.000D+00 0.000D+00 0.157D+00 0.497D-01
 Coeff-En:   0.793D+00
 Coeff:     -0.291D-01 0.291D-01-0.389D-02 0.482D-05 0.259D+00 0.162D+00
 Coeff:      0.583D+00
 Gap=     0.190 Goal=   None    Shift=    0.000
 Gap=     0.002 Goal=   None    Shift=    0.000
 RMSDP=2.43D-03 MaxDP=3.97D-01 DE=-1.18D+00 OVMax= 3.96D-01

 Cycle   8  Pass 1  IDiag  1:
 RMSU=  1.42D-03    CP:  8.90D-01  2.87D-02  1.09D-01  1.03D-01  7.64D-01
                    CP:  5.41D-01  3.87D-02
 E= -3249.90563641517     Delta-E=        0.002662677004 Rises=F Damp=F
 DIIS: error= 3.28D-02 at cycle   8 NSaved=   8.
 NSaved= 8 IEnMin= 7 EnMin= -3249.90829909217     IErMin= 8 ErrMin= 3.28D-02
 ErrMax= 3.28D-02  0.00D+00 EMaxC= 1.00D-01 BMatC= 1.27D+00 BMatP= 1.14D+00
 IDIUse=2 WtCom= 0.00D+00 WtEn= 1.00D+00
 Coeff-En:   0.000D+00 0.000D+00 0.000D+00 0.000D+00 0.000D+00 0.000D+00
 Coeff-En:   0.502D+00 0.498D+00
 Coeff:      0.000D+00 0.000D+00 0.000D+00 0.000D+00 0.000D+00 0.000D+00
 Coeff:      0.502D+00 0.498D+00
 Gap=     0.091 Goal=   None    Shift=    0.000
 Gap=     0.004 Goal=   None    Shift=    0.000
 RMSDP=1.65D-03 MaxDP=2.43D-01 DE= 2.66D-03 OVMax= 3.40D-01

 Cycle   9  Pass 1  IDiag  1:
 RMSU=  1.19D-03    CP:  8.87D-01  1.18D-02  8.96D-02  9.88D-02  7.80D-01
                    CP:  4.09D-01  3.97D-01  4.71D-01
 E= -3250.05417127577     Delta-E=       -0.148534860597 Rises=F Damp=F
 DIIS: error= 2.79D-02 at cycle   9 NSaved=   9.
 NSaved= 9 IEnMin= 9 EnMin= -3250.05417127577     IErMin= 9 ErrMin= 2.79D-02
 ErrMax= 2.79D-02  0.00D+00 EMaxC= 1.00D-01 BMatC= 6.13D-01 BMatP= 1.14D+00
 IDIUse=3 WtCom= 7.21D-01 WtEn= 2.79D-01
 EnCoef did     3 forward-backward iterations
 Coeff-Com:  0.780D-02-0.193D-01-0.354D-03 0.297D-04-0.244D-01 0.238D-01
 Coeff-Com:  0.367D+00 0.344D+00 0.301D+00
 Coeff-En:   0.000D+00 0.000D+00 0.000D+00 0.000D+00 0.000D+00 0.000D+00
 Coeff-En:   0.356D+00 0.315D+00 0.329D+00
 Coeff:      0.562D-02-0.139D-01-0.255D-03 0.214D-04-0.176D-01 0.172D-01
 Coeff:      0.364D+00 0.336D+00 0.309D+00
 Gap=     0.124 Goal=   None    Shift=    0.000
 Gap=     0.027 Goal=   None    Shift=    0.000
 RMSDP=1.16D-03 MaxDP=1.66D-01 DE=-1.49D-01 OVMax= 5.48D-01

 Cycle  10  Pass 1  IDiag  1:
 RMSU=  4.32D-04    CP:  8.90D-01 -3.84D-03  9.01D-02  8.85D-02  7.66D-01
                    CP:  4.63D-01  5.59D-01  5.13D-01  1.57D-01
 E= -3250.21360840190     Delta-E=       -0.159437126135 Rises=F Damp=F
 DIIS: error= 7.16D-03 at cycle  10 NSaved=  10.
 NSaved=10 IEnMin=10 EnMin= -3250.21360840190     IErMin=10 ErrMin= 7.16D-03
 ErrMax= 7.16D-03  0.00D+00 EMaxC= 1.00D-01 BMatC= 3.54D-02 BMatP= 6.13D-01
 IDIUse=3 WtCom= 9.28D-01 WtEn= 7.16D-02
 Coeff-Com: -0.369D-02 0.555D-02 0.104D-04-0.782D-03-0.137D-01-0.126D-01
 Coeff-Com:  0.837D-01 0.994D-01 0.176D+00 0.666D+00
 Coeff-En:   0.000D+00 0.000D+00 0.000D+00 0.000D+00 0.000D+00 0.000D+00
 Coeff-En:   0.000D+00 0.000D+00 0.690D-01 0.931D+00
 Coeff:     -0.342D-02 0.515D-02 0.962D-05-0.726D-03-0.128D-01-0.117D-01
 Coeff:      0.777D-01 0.923D-01 0.168D+00 0.685D+00
 Gap=     0.111 Goal=   None    Shift=    0.000
 Gap=     0.034 Goal=   None    Shift=    0.000
 RMSDP=3.57D-04 MaxDP=6.37D-02 DE=-1.59D-01 OVMax= 1.32D-01

 Cycle  11  Pass 1  IDiag  1:
 RMSU=  2.12D-04    CP:  8.90D-01 -2.51D-03  8.94D-02  8.99D-02  7.67D-01
                    CP:  4.50D-01  5.16D-01  5.83D-01  3.45D-01  7.28D-01
 E= -3250.21926771456     Delta-E=       -0.005659312656 Rises=F Damp=F
 DIIS: error= 7.08D-03 at cycle  11 NSaved=  11.
 NSaved=11 IEnMin=11 EnMin= -3250.21926771456     IErMin=11 ErrMin= 7.08D-03
 ErrMax= 7.08D-03  0.00D+00 EMaxC= 1.00D-01 BMatC= 2.12D-02 BMatP= 3.54D-02
 IDIUse=3 WtCom= 9.29D-01 WtEn= 7.08D-02
 Coeff-Com: -0.286D-02 0.497D-02 0.919D-05-0.319D-04-0.818D-02-0.243D-03
 Coeff-Com: -0.368D-02-0.233D-01 0.437D-01 0.432D+00 0.558D+00
 Coeff-En:   0.000D+00 0.000D+00 0.000D+00 0.000D+00 0.000D+00 0.000D+00
 Coeff-En:   0.000D+00 0.000D+00 0.000D+00 0.320D+00 0.680D+00
 Coeff:     -0.265D-02 0.462D-02 0.854D-05-0.297D-04-0.760D-02-0.226D-03
 Coeff:     -0.342D-02-0.216D-01 0.406D-01 0.424D+00 0.567D+00
 Gap=     0.114 Goal=   None    Shift=    0.000
 Gap=     0.041 Goal=   None    Shift=    0.000
 RMSDP=1.38D-04 MaxDP=1.22D-02 DE=-5.66D-03 OVMax= 3.69D-02

 Cycle  12  Pass 1  IDiag  1:
 RMSU=  8.75D-05    CP:  8.90D-01 -2.51D-03  8.90D-02  8.89D-02  7.66D-01
                    CP:  4.53D-01  5.40D-01  5.50D-01  3.24D-01  8.86D-01
                    CP:  8.07D-01
 E= -3250.22260121798     Delta-E=       -0.003333503427 Rises=F Damp=F
 DIIS: error= 2.97D-03 at cycle  12 NSaved=  12.
 NSaved=12 IEnMin=12 EnMin= -3250.22260121798     IErMin=12 ErrMin= 2.97D-03
 ErrMax= 2.97D-03  0.00D+00 EMaxC= 1.00D-01 BMatC= 3.78D-03 BMatP= 2.12D-02
 IDIUse=3 WtCom= 9.70D-01 WtEn= 2.97D-02
 Coeff-Com: -0.322D-02 0.570D-02-0.188D-03 0.285D-03-0.617D-02 0.369D-02
 Coeff-Com: -0.624D-02-0.290D-01 0.769D-02 0.235D+00 0.391D+00 0.402D+00
 Coeff-En:   0.000D+00 0.000D+00 0.000D+00 0.000D+00 0.000D+00 0.000D+00
 Coeff-En:   0.000D+00 0.000D+00 0.000D+00 0.000D+00 0.000D+00 0.100D+01
 Coeff:     -0.312D-02 0.553D-02-0.183D-03 0.276D-03-0.598D-02 0.359D-02
 Coeff:     -0.606D-02-0.281D-01 0.746D-02 0.228D+00 0.379D+00 0.419D+00
 Gap=     0.114 Goal=   None    Shift=    0.000
 Gap=     0.042 Goal=   None    Shift=    0.000
 RMSDP=5.35D-05 MaxDP=5.24D-03 DE=-3.33D-03 OVMax= 1.16D-02

 Cycle  13  Pass 1  IDiag  1:
 RMSU=  4.27D-05    CP:  8.90D-01 -3.00D-03  8.88D-02  8.90D-02  7.65D-01
                    CP:  4.53D-01  5.40D-01  5.56D-01  3.22D-01  8.92D-01
                    CP:  9.17D-01  7.77D-01
 E= -3250.22292946597     Delta-E=       -0.000328247989 Rises=F Damp=F
 DIIS: error= 2.75D-03 at cycle  13 NSaved=  13.
 NSaved=13 IEnMin=13 EnMin= -3250.22292946597     IErMin=13 ErrMin= 2.75D-03
 ErrMax= 2.75D-03  0.00D+00 EMaxC= 1.00D-01 BMatC= 2.71D-03 BMatP= 3.78D-03
 IDIUse=3 WtCom= 9.72D-01 WtEn= 2.75D-02
 Coeff-Com: -0.258D-02 0.470D-02-0.258D-03 0.352D-03-0.571D-02 0.482D-02
 Coeff-Com: -0.535D-03-0.194D-01 0.273D-02 0.109D+00 0.131D+00 0.201D+00
 Coeff-Com:  0.574D+00
 Coeff-En:   0.000D+00 0.000D+00 0.000D+00 0.000D+00 0.000D+00 0.000D+00
 Coeff-En:   0.000D+00 0.000D+00 0.000D+00 0.000D+00 0.000D+00 0.000D+00
 Coeff-En:   0.100D+01
 Coeff:     -0.251D-02 0.457D-02-0.250D-03 0.343D-03-0.555D-02 0.468D-02
 Coeff:     -0.520D-03-0.189D-01 0.266D-02 0.106D+00 0.128D+00 0.196D+00
 Coeff:      0.586D+00
 Gap=     0.115 Goal=   None    Shift=    0.000
 Gap=     0.042 Goal=   None    Shift=    0.000
 RMSDP=3.37D-05 MaxDP=4.89D-03 DE=-3.28D-04 OVMax= 6.69D-03

 Cycle  14  Pass 1  IDiag  1:
 RMSU=  2.44D-05    CP:  8.90D-01 -3.10D-03  8.85D-02  8.88D-02  7.64D-01
                    CP:  4.54D-01  5.44D-01  5.52D-01  3.23D-01  9.08D-01
                    CP:  9.51D-01  9.75D-01  9.61D-01
 E= -3250.22315969157     Delta-E=       -0.000230225594 Rises=F Damp=F
 DIIS: error= 2.09D-03 at cycle  14 NSaved=  14.
 NSaved=14 IEnMin=14 EnMin= -3250.22315969157     IErMin=14 ErrMin= 2.09D-03
 ErrMax= 2.09D-03  0.00D+00 EMaxC= 1.00D-01 BMatC= 1.57D-03 BMatP= 2.71D-03
 IDIUse=3 WtCom= 9.79D-01 WtEn= 2.09D-02
 Coeff-Com: -0.146D-02 0.273D-02-0.149D-03 0.269D-03-0.426D-02 0.371D-02
 Coeff-Com:  0.460D-02-0.481D-02 0.408D-02 0.396D-02-0.147D+00-0.193D+00
 Coeff-Com:  0.503D+00 0.828D+00
 Coeff-En:   0.000D+00 0.000D+00 0.000D+00 0.000D+00 0.000D+00 0.000D+00
 Coeff-En:   0.000D+00 0.000D+00 0.000D+00 0.000D+00 0.000D+00 0.000D+00
 Coeff-En:   0.000D+00 0.100D+01
 Coeff:     -0.143D-02 0.268D-02-0.146D-03 0.264D-03-0.417D-02 0.363D-02
 Coeff:      0.451D-02-0.471D-02 0.399D-02 0.388D-02-0.144D+00-0.189D+00
 Coeff:      0.492D+00 0.832D+00
 Gap=     0.116 Goal=   None    Shift=    0.000
 Gap=     0.043 Goal=   None    Shift=    0.000
 RMSDP=4.04D-05 MaxDP=5.61D-03 DE=-2.30D-04 OVMax= 7.72D-03

 Cycle  15  Pass 1  IDiag  1:
 RMSU=  2.21D-05    CP:  8.90D-01 -3.08D-03  8.81D-02  8.86D-02  7.62D-01
                    CP:  4.56D-01  5.47D-01  5.47D-01  3.25D-01  9.36D-01
                    CP:  9.97D-01  1.06D+00  1.52D+00  7.92D-01
 E= -3250.22337618143     Delta-E=       -0.000216489865 Rises=F Damp=F
 DIIS: error= 1.01D-03 at cycle  15 NSaved=  15.
 NSaved=15 IEnMin=15 EnMin= -3250.22337618143     IErMin=15 ErrMin= 1.01D-03
 ErrMax= 1.01D-03  0.00D+00 EMaxC= 1.00D-01 BMatC= 4.38D-04 BMatP= 1.57D-03
 IDIUse=3 WtCom= 9.90D-01 WtEn= 1.01D-02
 Coeff-Com: -0.110D-02 0.188D-02 0.394D-04 0.595D-04-0.135D-02 0.583D-03
 Coeff-Com:  0.206D-02 0.601D-03 0.428D-02 0.108D-01-0.132D+00-0.266D+00
 Coeff-Com: -0.879D-01 0.740D+00 0.727D+00
 Coeff-En:   0.000D+00 0.000D+00 0.000D+00 0.000D+00 0.000D+00 0.000D+00
 Coeff-En:   0.000D+00 0.000D+00 0.000D+00 0.000D+00 0.000D+00 0.000D+00
 Coeff-En:   0.000D+00 0.000D+00 0.100D+01
 Coeff:     -0.109D-02 0.186D-02 0.390D-04 0.589D-04-0.134D-02 0.577D-03
 Coeff:      0.204D-02 0.595D-03 0.424D-02 0.107D-01-0.130D+00-0.263D+00
 Coeff:     -0.870D-01 0.733D+00 0.730D+00
 Gap=     0.116 Goal=   None    Shift=    0.000
 Gap=     0.043 Goal=   None    Shift=    0.000
 RMSDP=2.44D-05 MaxDP=2.34D-03 DE=-2.16D-04 OVMax= 4.12D-03

 Cycle  16  Pass 1  IDiag  1:
 RMSU=  1.27D-05    CP:  8.90D-01 -3.05D-03  8.79D-02  8.86D-02  7.62D-01
                    CP:  4.56D-01  5.47D-01  5.46D-01  3.25D-01  9.55D-01
                    CP:  1.01D+00  1.15D+00  1.68D+00  1.40D+00  9.30D-01
 E= -3250.22345420252     Delta-E=       -0.000078021086 Rises=F Damp=F
 DIIS: error= 3.40D-04 at cycle  16 NSaved=  16.
 NSaved=16 IEnMin=16 EnMin= -3250.22345420252     IErMin=16 ErrMin= 3.40D-04
 ErrMax= 3.40D-04  0.00D+00 EMaxC= 1.00D-01 BMatC= 5.54D-05 BMatP= 4.38D-04
 IDIUse=3 WtCom= 9.97D-01 WtEn= 3.40D-03
 Coeff-Com: -0.126D-03 0.214D-03 0.270D-04-0.166D-04-0.470D-03 0.162D-03
 Coeff-Com: -0.559D-03-0.212D-03 0.476D-02 0.180D-01-0.274D-01-0.105D+00
 Coeff-Com: -0.183D+00 0.217D+00 0.394D+00 0.682D+00
 Coeff-En:   0.000D+00 0.000D+00 0.000D+00 0.000D+00 0.000D+00 0.000D+00
 Coeff-En:   0.000D+00 0.000D+00 0.000D+00 0.000D+00 0.000D+00 0.000D+00
 Coeff-En:   0.000D+00 0.000D+00 0.000D+00 0.100D+01
 Coeff:     -0.125D-03 0.213D-03 0.269D-04-0.166D-04-0.468D-03 0.162D-03
 Coeff:     -0.557D-03-0.211D-03 0.474D-02 0.179D-01-0.273D-01-0.104D+00
 Coeff:     -0.182D+00 0.216D+00 0.393D+00 0.684D+00
 Gap=     0.116 Goal=   None    Shift=    0.000
 Gap=     0.044 Goal=   None    Shift=    0.000
 RMSDP=9.59D-06 MaxDP=1.92D-03 DE=-7.80D-05 OVMax= 1.91D-03

 Cycle  17  Pass 1  IDiag  1:
 RMSU=  5.96D-06    CP:  8.90D-01 -3.06D-03  8.79D-02  8.85D-02  7.61D-01
                    CP:  4.57D-01  5.48D-01  5.44D-01  3.26D-01  9.59D-01
                    CP:  1.00D+00  1.16D+00  1.75D+00  1.49D+00  1.12D+00
                    CP:  9.72D-01
 E= -3250.22346739795     Delta-E=       -0.000013195427 Rises=F Damp=F
 DIIS: error= 7.09D-05 at cycle  17 NSaved=  17.
 NSaved=17 IEnMin=17 EnMin= -3250.22346739795     IErMin=17 ErrMin= 7.09D-05
 ErrMax= 7.09D-05  0.00D+00 EMaxC= 1.00D-01 BMatC= 3.80D-06 BMatP= 5.54D-05
 IDIUse=1 WtCom= 1.00D+00 WtEn= 0.00D+00
 Coeff-Com:  0.512D-04-0.941D-04 0.138D-04-0.169D-04 0.707D-04-0.393D-04
 Coeff-Com: -0.489D-03-0.211D-04 0.980D-03 0.328D-02 0.968D-02 0.812D-02
 Coeff-Com: -0.465D-01-0.366D-01 0.233D-01 0.296D+00 0.742D+00
 Coeff:      0.512D-04-0.941D-04 0.138D-04-0.169D-04 0.707D-04-0.393D-04
 Coeff:     -0.489D-03-0.211D-04 0.980D-03 0.328D-02 0.968D-02 0.812D-02
 Coeff:     -0.465D-01-0.366D-01 0.233D-01 0.296D+00 0.742D+00
 Gap=     0.116 Goal=   None    Shift=    0.000
 Gap=     0.044 Goal=   None    Shift=    0.000
 RMSDP=3.89D-06 MaxDP=6.65D-04 DE=-1.32D-05 OVMax= 9.82D-04

 Cycle  18  Pass 1  IDiag  1:
 RMSU=  2.60D-06    CP:  8.90D-01 -3.04D-03  8.79D-02  8.85D-02  7.61D-01
                    CP:  4.57D-01  5.48D-01  5.44D-01  3.26D-01  9.59D-01
                    CP:  1.00D+00  1.16D+00  1.76D+00  1.52D+00  1.18D+00
                    CP:  1.14D+00  1.19D+00
 E= -3250.22346867673     Delta-E=       -0.000001278789 Rises=F Damp=F
 DIIS: error= 1.15D-04 at cycle  18 NSaved=  18.
 NSaved=18 IEnMin=18 EnMin= -3250.22346867673     IErMin=17 ErrMin= 7.09D-05
 ErrMax= 1.15D-04  0.00D+00 EMaxC= 1.00D-01 BMatC= 5.15D-06 BMatP= 3.80D-06
 IDIUse=1 WtCom= 1.00D+00 WtEn= 0.00D+00
 Coeff-Com:  0.656D-04-0.114D-03 0.226D-05-0.534D-05 0.178D-03-0.821D-04
 Coeff-Com: -0.154D-03 0.201D-03-0.598D-03-0.409D-02 0.931D-02 0.311D-01
 Coeff-Com:  0.299D-01-0.593D-01-0.822D-01 0.126D-01 0.401D+00 0.663D+00
 Coeff:      0.656D-04-0.114D-03 0.226D-05-0.534D-05 0.178D-03-0.821D-04
 Coeff:     -0.154D-03 0.201D-03-0.598D-03-0.409D-02 0.931D-02 0.311D-01
 Coeff:      0.299D-01-0.593D-01-0.822D-01 0.126D-01 0.401D+00 0.663D+00
 Gap=     0.116 Goal=   None    Shift=    0.000
 Gap=     0.044 Goal=   None    Shift=    0.000
 RMSDP=2.48D-06 MaxDP=2.95D-04 DE=-1.28D-06 OVMax= 5.03D-04

 Cycle  19  Pass 1  IDiag  1:
 RMSU=  1.34D-06    CP:  8.90D-01 -3.02D-03  8.79D-02  8.86D-02  7.61D-01
                    CP:  4.57D-01  5.48D-01  5.44D-01  3.26D-01  9.58D-01
                    CP:  1.00D+00  1.16D+00  1.75D+00  1.51D+00  1.20D+00
                    CP:  1.22D+00  1.40D+00  1.10D+00
 E= -3250.22346976814     Delta-E=       -0.000001091403 Rises=F Damp=F
 DIIS: error= 5.53D-05 at cycle  19 NSaved=  19.
 NSaved=19 IEnMin=19 EnMin= -3250.22346976814     IErMin=19 ErrMin= 5.53D-05
 ErrMax= 5.53D-05  0.00D+00 EMaxC= 1.00D-01 BMatC= 1.40D-06 BMatP= 3.80D-06
 IDIUse=1 WtCom= 1.00D+00 WtEn= 0.00D+00
 Coeff-Com:  0.329D-04-0.548D-04-0.437D-05 0.170D-05 0.160D-03-0.726D-04
 Coeff-Com:  0.113D-03 0.452D-03-0.946D-03-0.642D-02-0.250D-02 0.126D-01
 Coeff-Com:  0.354D-01-0.114D-01-0.542D-01-0.847D-01-0.923D-01 0.261D+00
 Coeff-Com:  0.943D+00
 Coeff:      0.329D-04-0.548D-04-0.437D-05 0.170D-05 0.160D-03-0.726D-04
 Coeff:      0.113D-03 0.452D-03-0.946D-03-0.642D-02-0.250D-02 0.126D-01
 Coeff:      0.354D-01-0.114D-01-0.542D-01-0.847D-01-0.923D-01 0.261D+00
 Coeff:      0.943D+00
 Gap=     0.116 Goal=   None    Shift=    0.000
 Gap=     0.044 Goal=   None    Shift=    0.000
 RMSDP=2.58D-06 MaxDP=2.13D-04 DE=-1.09D-06 OVMax= 5.66D-04

 Cycle  20  Pass 1  IDiag  1:
 RMSU=  1.07D-06    CP:  8.90D-01 -3.03D-03  8.79D-02  8.86D-02  7.61D-01
                    CP:  4.57D-01  5.47D-01  5.45D-01  3.27D-01  9.57D-01
                    CP:  1.00D+00  1.16D+00  1.76D+00  1.53D+00  1.22D+00
                    CP:  1.30D+00  1.60D+00  1.49D+00  1.24D+00
 E= -3250.22347042143     Delta-E=       -0.000000653295 Rises=F Damp=F
 DIIS: error= 1.15D-05 at cycle  20 NSaved=  20.
 NSaved=20 IEnMin=20 EnMin= -3250.22347042143     IErMin=20 ErrMin= 1.15D-05
 ErrMax= 1.15D-05  0.00D+00 EMaxC= 1.00D-01 BMatC= 2.43D-07 BMatP= 1.40D-06
 IDIUse=1 WtCom= 1.00D+00 WtEn= 0.00D+00
 Coeff-Com:  0.408D-04-0.677D-04-0.417D-05 0.136D-05 0.522D-04-0.183D-04
 Coeff-Com:  0.976D-04 0.250D-03-0.307D-03-0.268D-02-0.685D-02-0.720D-02
 Coeff-Com:  0.590D-02 0.235D-01 0.380D-02-0.515D-01-0.265D+00-0.180D+00
 Coeff-Com:  0.704D+00 0.776D+00
 Coeff:      0.408D-04-0.677D-04-0.417D-05 0.136D-05 0.522D-04-0.183D-04
 Coeff:      0.976D-04 0.250D-03-0.307D-03-0.268D-02-0.685D-02-0.720D-02
 Coeff:      0.590D-02 0.235D-01 0.380D-02-0.515D-01-0.265D+00-0.180D+00
 Coeff:      0.704D+00 0.776D+00
 Gap=     0.116 Goal=   None    Shift=    0.000
 Gap=     0.044 Goal=   None    Shift=    0.000
 RMSDP=2.06D-06 MaxDP=1.44D-04 DE=-6.53D-07 OVMax= 4.38D-04

 Cycle  21  Pass 1  IDiag  1:
 Restarting incremental Fock formation.
 E= -3250.22347066613     Delta-E=       -0.000000244700 Rises=F Damp=F
 DIIS: error= 5.64D-06 at cycle  21 NSaved=  20.
 NSaved=20 IEnMin=20 EnMin= -3250.22347066613     IErMin=20 ErrMin= 5.64D-06
 ErrMax= 5.64D-06  0.00D+00 EMaxC= 1.00D-01 BMatC= 8.00D-08 BMatP= 2.43D-07
 IDIUse=1 WtCom= 1.00D+00 WtEn= 0.00D+00
 Coeff-Com:  0.194D-04-0.326D-04 0.690D-07-0.197D-04 0.103D-04 0.751D-04
 Coeff-Com: -0.669D-05 0.190D-04 0.533D-03-0.412D-02-0.941D-02-0.932D-02
 Coeff-Com:  0.220D-01 0.227D-01-0.258D-02-0.135D+00-0.224D+00 0.120D+00
 Coeff-Com:  0.500D+00 0.719D+00
 Coeff:      0.194D-04-0.326D-04 0.690D-07-0.197D-04 0.103D-04 0.751D-04
 Coeff:     -0.669D-05 0.190D-04 0.533D-03-0.412D-02-0.941D-02-0.932D-02
 Coeff:      0.220D-01 0.227D-01-0.258D-02-0.135D+00-0.224D+00 0.120D+00
 Coeff:      0.500D+00 0.719D+00
 Gap=     0.116 Goal=   None    Shift=    0.000
 Gap=     0.044 Goal=   None    Shift=    0.000
 RMSDP=1.07D-06 MaxDP=6.28D-05 DE=-2.45D-07 OVMax= 2.41D-04

 Cycle  22  Pass 1  IDiag  1:
 RMSU=  1.07D-06    CP:  1.00D+00
 E= -3250.22347072951     Delta-E=       -0.000000063375 Rises=F Damp=F
 DIIS: error= 9.57D-06 at cycle  22 NSaved=  20.
 NSaved=20 IEnMin=20 EnMin= -3250.22347072951     IErMin=19 ErrMin= 5.64D-06
 ErrMax= 9.57D-06  0.00D+00 EMaxC= 1.00D-01 BMatC= 5.63D-08 BMatP= 8.00D-08
 IDIUse=1 WtCom= 1.00D+00 WtEn= 0.00D+00
 Coeff-Com:  0.403D-05-0.735D-05-0.186D-04 0.927D-05 0.548D-04-0.659D-04
 Coeff-Com:  0.246D-04 0.109D-02-0.928D-03-0.398D-02-0.808D-02 0.802D-02
 Coeff-Com:  0.131D-01 0.100D-01-0.176D-01-0.923D-01-0.872D-01 0.118D+00
 Coeff-Com:  0.431D+00 0.629D+00
 Coeff:      0.403D-05-0.735D-05-0.186D-04 0.927D-05 0.548D-04-0.659D-04
 Coeff:      0.246D-04 0.109D-02-0.928D-03-0.398D-02-0.808D-02 0.802D-02
 Coeff:      0.131D-01 0.100D-01-0.176D-01-0.923D-01-0.872D-01 0.118D+00
 Coeff:      0.431D+00 0.629D+00
 Gap=     0.116 Goal=   None    Shift=    0.000
 Gap=     0.044 Goal=   None    Shift=    0.000
 RMSDP=4.29D-07 MaxDP=3.55D-05 DE=-6.34D-08 OVMax= 9.14D-05

 Cycle  23  Pass 1  IDiag  1:
 RMSU=  3.05D-07    CP:  1.00D+00  1.28D+00
 E= -3250.22347074491     Delta-E=       -0.000000015405 Rises=F Damp=F
 DIIS: error= 8.97D-06 at cycle  23 NSaved=  20.
 NSaved=20 IEnMin=20 EnMin= -3250.22347074491     IErMin=18 ErrMin= 5.64D-06
 ErrMax= 8.97D-06  0.00D+00 EMaxC= 1.00D-01 BMatC= 3.46D-08 BMatP= 5.63D-08
 IDIUse=1 WtCom= 1.00D+00 WtEn= 0.00D+00
 Coeff-Com:  0.387D-06-0.604D-05 0.459D-06 0.238D-04-0.361D-04-0.745D-05
 Coeff-Com:  0.699D-03 0.763D-03 0.613D-03-0.334D-02-0.164D-02 0.126D-02
 Coeff-Com:  0.508D-02 0.324D-01 0.215D-01-0.771D-01-0.982D-01 0.300D-02
 Coeff-Com:  0.273D+00 0.842D+00
 Coeff:      0.387D-06-0.604D-05 0.459D-06 0.238D-04-0.361D-04-0.745D-05
 Coeff:      0.699D-03 0.763D-03 0.613D-03-0.334D-02-0.164D-02 0.126D-02
 Coeff:      0.508D-02 0.324D-01 0.215D-01-0.771D-01-0.982D-01 0.300D-02
 Coeff:      0.273D+00 0.842D+00
 Gap=     0.116 Goal=   None    Shift=    0.000
 Gap=     0.044 Goal=   None    Shift=    0.000
 RMSDP=3.08D-07 MaxDP=3.71D-05 DE=-1.54D-08 OVMax= 6.96D-05

 Cycle  24  Pass 1  IDiag  1:
 RMSU=  2.00D-07    CP:  1.00D+00  1.45D+00  1.47D+00
 E= -3250.22347075369     Delta-E=       -0.000000008783 Rises=F Damp=F
 DIIS: error= 4.28D-06 at cycle  24 NSaved=  20.
 NSaved=20 IEnMin=20 EnMin= -3250.22347075369     IErMin=20 ErrMin= 4.28D-06
 ErrMax= 4.28D-06  0.00D+00 EMaxC= 1.00D-01 BMatC= 8.82D-09 BMatP= 3.46D-08
 IDIUse=1 WtCom= 1.00D+00 WtEn= 0.00D+00
 Coeff-Com: -0.157D-05 0.425D-06 0.325D-05-0.164D-04-0.150D-04 0.281D-03
 Coeff-Com:  0.736D-03 0.149D-02-0.376D-03-0.256D-02-0.236D-02-0.960D-03
 Coeff-Com:  0.216D-01 0.363D-01-0.176D-01-0.898D-01-0.109D+00-0.307D-01
 Coeff-Com:  0.458D+00 0.735D+00
 Coeff:     -0.157D-05 0.425D-06 0.325D-05-0.164D-04-0.150D-04 0.281D-03
 Coeff:      0.736D-03 0.149D-02-0.376D-03-0.256D-02-0.236D-02-0.960D-03
 Coeff:      0.216D-01 0.363D-01-0.176D-01-0.898D-01-0.109D+00-0.307D-01
 Coeff:      0.458D+00 0.735D+00
 Gap=     0.116 Goal=   None    Shift=    0.000
 Gap=     0.044 Goal=   None    Shift=    0.000
 RMSDP=1.76D-07 MaxDP=2.11D-05 DE=-8.78D-09 OVMax= 4.60D-05

 Cycle  25  Pass 1  IDiag  1:
 RMSU=  9.14D-08    CP:  1.00D+00  1.52D+00  1.82D+00  1.40D+00
 E= -3250.22347075636     Delta-E=       -0.000000002667 Rises=F Damp=F
 DIIS: error= 1.11D-06 at cycle  25 NSaved=  20.
 NSaved=20 IEnMin=20 EnMin= -3250.22347075636     IErMin=20 ErrMin= 1.11D-06
 ErrMax= 1.11D-06  0.00D+00 EMaxC= 1.00D-01 BMatC= 1.03D-09 BMatP= 8.82D-09
 IDIUse=1 WtCom= 1.00D+00 WtEn= 0.00D+00
 Coeff-Com:  0.126D-05-0.414D-05-0.392D-05-0.121D-04 0.678D-05 0.268D-03
 Coeff-Com:  0.915D-03 0.653D-03-0.105D-02-0.210D-02-0.242D-02 0.570D-02
 Coeff-Com:  0.188D-01 0.105D-01-0.363D-01-0.740D-01-0.997D-01 0.534D-01
 Coeff-Com:  0.468D+00 0.658D+00
 Coeff:      0.126D-05-0.414D-05-0.392D-05-0.121D-04 0.678D-05 0.268D-03
 Coeff:      0.915D-03 0.653D-03-0.105D-02-0.210D-02-0.242D-02 0.570D-02
 Coeff:      0.188D-01 0.105D-01-0.363D-01-0.740D-01-0.997D-01 0.534D-01
 Coeff:      0.468D+00 0.658D+00
 Gap=     0.116 Goal=   None    Shift=    0.000
 Gap=     0.044 Goal=   None    Shift=    0.000
 RMSDP=9.60D-08 MaxDP=1.17D-05 DE=-2.67D-09 OVMax= 2.86D-05

 Cycle  26  Pass 1  IDiag  1:
 RMSU=  4.41D-08    CP:  1.00D+00  1.56D+00  1.96D+00  1.68D+00  1.30D+00
 E= -3250.22347075687     Delta-E=       -0.000000000513 Rises=F Damp=F
 DIIS: error= 2.36D-07 at cycle  26 NSaved=  20.
 NSaved=20 IEnMin=20 EnMin= -3250.22347075687     IErMin=20 ErrMin= 2.36D-07
 ErrMax= 2.36D-07  0.00D+00 EMaxC= 1.00D-01 BMatC= 1.19D-10 BMatP= 1.03D-09
[...]
 0542,-0.00005446,-0.00003071,-0.00008321,0.00006725,-0.00002902,0.0000
 1722,-0.00006583,0.00002140,0.00002989,0.00002129,-0.00000515,-0.00006
 664,-0.00009471,0.00015836,0.00001580,0.00033852,-0.00022083,0.0003046
 9,0.00053154,0.00010292,-0.00042272,-0.00042410,-0.00073538,0.00061937
 ,-0.00002319,0.00071288,-0.00077027,-0.00031498,0.00024117,0.00008745,
 0.00001959,-0.00000850,-0.00001516,-0.00004245,0.00003764,0.00000698,0
 .00003527,0.00005114,-0.00002838,-0.00010141,-0.00003457,0.00008606,0.
 00012828,0.00006730,-0.00011260,-0.00002372,-0.00007745,0.00002308,0.0
 0003479,-0.00003101,-0.00002501,-0.00000432,-0.00002713,0.00001901,-0.
 00013532,-0.00016573,0.00021637,0.00007569,0.00016473,-0.00015489,-0.0
 0019471,-0.00017229,0.00021125,0.00018793,-0.00006079,-0.00004844,0.00
 000885,0.00004765,-0.00006039,0.00010578,-0.00005691,-0.00002691,-0.00
 001150,-0.00004867,0.00019484,-0.00057130,-0.00121536,-0.00205425,0.00
 202927,0.00189917,0.00099153,0.11868021,-0.26399559,0.05441733,-0.0016
 9434,0.00445546,-0.00241313,-0.00002242,0.00003200,-0.00001051,0.00000
 564,0.00002630,0.00000216,0.00001509,-0.00000635,0.00000289,-0.0000736
 5,-0.00006453,0.00017354,0.00068622,-0.00093184,0.00039873,-0.00005204
 ,-0.00001799,0.00010808,-0.00000639,0.00000741,0.00001031,-0.00000105,
 0.00000637,-0.00000192,-0.00000328,-0.00000130,-0.00000278,-0.00002257
 ,-0.00000312,-0.00004368,-0.00000394,0.00000166,0.00000990,0.00000957,
 -0.00000263,-0.00000228,0.00000758,0.00000270,-0.00000577,-0.00000555,
 0.00001267,0.00000018,-0.00000093,0.00001191,0.00000369,0.00000361,0.0
 0000814,-0.00000447,-0.00002777,-0.00002164,-0.00000610,0.00001154,-0.
 00001973,0.00000069,0.00001385,-0.00000851,-0.00000144,0.00000199,-0.0
 0000650,0.00001040,-0.00001512,-0.00000597,0.00001942,-0.00002648,-0.0
 0000583,0.00001458,-0.13043955,0.27566254,0.00013618,0.00035566,0.0002
 7994,-0.00072195,0.00113269,-0.00059425,-0.00576968,-0.00228387,0.0001
 2992,0.00012216,-0.00032769,-0.00079939,-0.00337557,-0.00344828,0.0010
 4499,0.00668920,-0.01426890,0.00756627,0.00287451,0.00094585,-0.000480
 77,-0.00028350,-0.00034930,-0.00084134,0.00024430,-0.00003533,0.000494
 64,-0.00009299,-0.00016312,-0.00041041,0.00034671,-0.00007575,0.000157
 58,-0.00014049,0.00019179,0.00018227,-0.00004896,-0.00008652,-0.000193
 26,-0.00001657,0.00017046,0.00014115,0.00012926,-0.00010557,0.00003842
 ,0.00000132,-0.00007072,0.00002895,0.00004034,0.00014813,-0.00005629,0
 .00014425,-0.00001247,0.00011614,-0.00001951,-0.00002865,0.00001571,-0
 .00000269,0.00000451,0.00000695,-0.00000569,0.00000383,0.00000197,0.00
 000420,0.00000692,-0.00000593,-0.00001207,-0.00000358,0.00001181,0.000
 01623,0.00000691,-0.00001621,-0.00000152,-0.00000838,0.00000368,0.0000
 0326,-0.00000542,-0.00000364,0.00000056,0.00000181,-0.00000075,0.00000
 245,-0.00001184,-0.00000849,0.00002225,-0.00001961,-0.00000506,0.00001
 446,0.00001602,-0.00000782,-0.00001487,0.00000129,0.00000116,0.0000074
 0,-0.00000234,-0.00000302,-0.00003771,0.00002377,0.00002915,-0.0000096
 9,-0.00000267,-0.00007007,-0.00075591,-0.00079204,-0.00039828,-0.00056
 020,0.00016491,0.00011313,-0.04078680,0.05442869,-0.06717746,-0.011825
 31,0.02026585,-0.00144252,0.00001408,-0.00007452,0.00003649,0.00000558
 ,-0.00004305,-0.00004423,-0.00002577,-0.00004751,-0.00001994,0.0003351
 7,0.00013167,-0.00029134,0.00032528,-0.00079796,0.00028760,-0.00000673
 ,0.00004650,0.00000775,-0.00000839,-0.00000998,0.00000546,0.00000108,-
 0.00000577,0.00000690,-0.00000460,0.00000380,0.00000145,0.00000088,-0.
 00000962,0.00000456,0.00000003,-0.00000020,0.00000337,0.00000231,-0.00
 000055,-0.00000015,0.00000114,0.00000042,-0.00000052,-0.00000095,0.000
 00193,0.00000019,-0.00000040,0.00000124,-0.00000027,0.00000061,0.00000
 093,0.00000002,-0.00000442,-0.00000491,-0.00000057,0.00000308,-0.00000
 158,0.00000250,0.00000413,0.00000133,0.00000105,0.00000202,-0.00000121
 ,0.00000247,-0.00000193,0.00000369,-0.00000622,0.00000049,-0.00001167,
 -0.00000755,0.05025603,-0.05576041,0.06331984,-0.00141262,0.00099000,-
 0.00097739,-0.00119136,-0.00217324,0.00125708,0.00752516,0.01278416,0.
 00829836,0.00102259,0.00300020,-0.00324781,-0.00078648,0.00051111,-0.0
 0025711,0.00133542,0.00162288,-0.00543518,0.00040789,-0.00080181,-0.00
 053704,-0.00027625,0.00002554,-0.00006885,-0.00000230,-0.00003658,-0.0
 0014077,-0.00000197,0.00003926,0.00005465,-0.00004916,0.00000823,-0.00
 002444,0.00000799,-0.00001828,-0.00002581,-0.00000490,0.00001091,0.000
 01357,0.00000787,-0.00002372,-0.00000807,-0.00007546,0.00004227,-0.000
 02834,-0.00002354,-0.00000451,0.00000978,0.00001700,-0.00000265,-0.000
 00357,-0.00005439,-0.00002569,0.00000949,0.00001303,-0.00000486,-0.000
 01072,0.00000084,0.00000333,-0.00000029,0.00000496,-0.00000507,0.00000
 091,-0.00000235,-0.00000219,0.00000515,0.00000211,0.00000141,-0.000003
 97,-0.00000374,-0.00000038,0.00000667,-0.00000186,0.00000116,-0.000002
 14,-0.00000047,0.00000297,0.00000170,0.00000031,-0.00000222,-0.0000002
 6,0.00000148,0.00000877,-0.00000267,-0.00000539,0.00000161,0.00000365,
 0.00000425,0.00000220,-0.00000266,-0.00000138,0.00000438,-0.00000074,-
 0.00000027,0.00000515,0.00000162,0.00000329,-0.00000112,0.00000076,-0.
 00000125,-0.00000179,0.00000416,0.00017802,-0.00008731,-0.00003299,-0.
 00011141,0.00006154,0.00011520,-0.00036286,-0.01900842,-0.01008421,-0.
 05170193,-0.03462613,-0.03281535,-0.00154081,0.00001889,-0.00136345,0.
 00001672,0.00006775,-0.00012046,-0.00020143,0.00004986,0.00025356,0.00
 022388,0.00074041,0.00037969,-0.00038225,-0.00016938,0.00034232,-0.000
 02252,-0.00000089,0.00000864,0.00000151,0.00000384,0.00000196,-0.00000
 267,-0.00000075,-0.00000346,0.00000025,-0.00000018,-0.00000011,-0.0000
 0233,0.00000059,-0.00000219,-0.00000098,0.00000117,-0.00000282,-0.0000
 0249,0.00000016,-0.00000050,-0.00000036,-0.00000028,-0.00000018,0.0000
 0069,-0.00000107,-0.00000003,0.00000042,-0.00000009,0.00000097,-0.0000
 0074,-0.00000032,-0.00000070,0.00000210,0.00000289,0.00000066,-0.00000
 176,0.00000103,-0.00000174,-0.00000175,-0.00000007,-0.00000124,-0.0000
 0030,-0.00000050,-0.00000148,0.00000016,-0.00000092,-0.00000113,0.0000
 0055,-0.00000228,-0.00000378,-0.00160168,-0.00082488,0.00281446,0.0490
 5793,-0.00054095,-0.00092837,-0.00086632,-0.00092913,0.00128985,0.0004
 2401,-0.00749727,-0.01677413,-0.01571020,0.00390881,-0.00254859,0.0018
 0846,0.00056458,0.00032395,0.00089166,0.00128954,0.00212674,-0.0002678
 7,0.00024352,0.00001826,0.00003136,-0.00004836,-0.00000225,0.00006194,
 -0.00001265,-0.00002396,-0.00002452,0.00001117,0.00001938,0.00002932,-
 0.00002082,0.00001237,-0.00000371,-0.00000917,0.00000012,-0.00001229,-
 0.00001091,0.00000037,-0.00000785,-0.00000254,-0.00000049,0.00001678,-
 0.00010648,0.00004288,-0.00007077,-0.00008610,-0.00000778,0.00005849,0
 .00007218,0.00007515,-0.00006162,-0.00004501,-0.00010442,0.00008403,0.
 00005109,-0.00002662,-0.00002472,-0.00000410,0.00000374,0.00000129,0.0
 0001143,-0.00000868,-0.00000224,-0.00000969,-0.00001422,0.00000836,0.0
 0003071,0.00000984,-0.00002668,-0.00003770,-0.00001890,0.00003435,0.00
 000641,0.00002180,-0.00000768,-0.00000944,0.00000916,0.00000743,0.0000
 0220,0.00000352,-0.00000520,0.00001628,0.00002166,-0.00002601,-0.00001
 130,-0.00001568,0.00001718,0.00002635,0.00001781,-0.00002493,-0.000019
 72,0.00000786,0.00000338,-0.00000723,-0.00000296,0.00000687,-0.0000118
 7,0.00000367,0.00000246,-0.00000171,0.00000213,-0.00002003,0.00007581,
 0.00001279,0.00008914,-0.00010184,-0.00008602,-0.00008304,0.00086660,0
 .00328460,0.00115244,-0.03362451,-0.26746214,-0.12009875,0.00021796,0.
 00053820,-0.00063830,-0.00041561,0.00019401,0.00075189,-0.00026698,0.0
 0079382,0.00012679,-0.00033806,-0.00089950,-0.00076367,-0.00016185,-0.
 00006860,0.00005346,-0.00001393,0.00000679,0.00001339,-0.00000049,0.00
 000072,0.00000414,-0.00000046,-0.00000289,-0.00000245,-0.00000081,0.00
 000031,-0.00000045,0.00000102,0.00000126,0.00000440,0.00000147,-0.0000
 0057,-0.00000279,-0.00000291,0.00000114,0.00000044,-0.00000259,-0.0000
 0073,0.00000165,0.00000178,-0.00000406,-0.00000040,0.00000064,-0.00000
 342,-0.00000042,-0.00000061,-0.00000239,0.00000042,0.00000682,0.000005
 92,0.00000203,-0.00000315,0.00000458,-0.00000108,-0.00000360,0.0000018
 4,0.00000027,-0.00000028,0.00000213,-0.00000203,0.00000297,0.00000107,
 -0.00000170,0.00000232,0.00000110,-0.00000122,-0.00091385,0.00063811,0
 .00070571,0.03785195,0.27950994,-0.00146992,0.00092412,-0.00163542,0.0
 0165630,-0.00088069,-0.00149610,0.00129257,0.00631059,0.00790934,-0.00
 278239,0.00076200,0.00206456,-0.00014981,0.00069345,-0.00036880,-0.005
 99367,0.00024963,0.00010797,0.00016257,-0.00103702,0.00028789,-0.00018
 982,0.00008319,-0.00015783,0.00015542,0.00000160,-0.00001061,-0.000018
 23,0.00000195,-0.00002853,0.00001435,-0.00000491,0.00002314,-0.0000482
 5,0.00002483,-0.00000756,-0.00001401,-0.00001517,-0.00003091,-0.000037
 84,0.00003805,0.00004317,-0.00011753,0.00005990,-0.00009258,-0.0001271
 8,-0.00000075,0.00009109,0.00011379,0.00009596,-0.00007569,-0.00004880
 ,-0.00012678,0.00009882,0.00006194,-0.00004014,-0.00002646,-0.00000463
 ,0.00000465,0.00000141,0.00001029,-0.00001085,-0.00000321,-0.00000965,
 -0.00001216,0.00000727,0.00002762,0.00000835,-0.00002247,-0.00003430,-
 0.00001572,0.00002861,0.00000792,0.00001825,-0.00000498,-0.00000923,0.
 00000997,0.00000402,0.00000184,0.00000207,-0.00000499,0.00002530,0.000
 03679,-0.00004340,-0.00002095,-0.00002417,0.00002754,0.00004335,0.0000
 2977,-0.00003881,-0.00003334,0.00001995,0.00000343,-0.00000792,-0.0000
 0380,0.00001524,-0.00001794,0.00001465,0.00000629,-0.00000469,-0.00000
 970,-0.00002523,0.00014896,0.00003504,-0.00002613,0.00008051,0.0000586
 3,-0.00006280,-0.00292616,-0.02138459,-0.00787992,-0.03285636,-0.12073
 254,-0.11247248,-0.00017012,0.00020271,-0.00027962,-0.00143424,0.00020
 671,-0.00156004,0.00013296,0.00047818,-0.00007740,-0.00002617,0.000444
 78,0.00026457,0.00034714,0.00004436,-0.00034124,0.00002179,-0.00003283
 ,0.00002153,0.00000134,-0.00000051,0.00000350,-0.00000156,-0.00000476,
 -0.00000544,-0.00000034,0.00000165,-0.00000083,0.00000079,0.00000152,0
 .00000670,0.00000120,0.00000009,-0.00000254,-0.00000241,0.00000066,0.0
 0000132,-0.00000211,-0.00000054,0.00000179,0.00000074,-0.00000279,-0.0
 0000050,0.00000027,-0.00000310,-0.00000122,0.00000027,-0.00000180,0.00
 000134,0.00000883,0.00000684,0.00000315,-0.00000375,0.00000528,-0.0000
 0090,-0.00000445,0.00000231,-0.00000048,-0.00000161,0.00000247,-0.0000
 0440,0.00000391,0.00000237,-0.00001022,0.00000135,-0.00000755,-0.00000
 354,0.00253402,0.00106662,-0.00111844,0.04171351,0.13243743,0.11687895
 ,-0.00005354,-0.00008306,-0.00004214,0.00015739,0.00003671,0.00012689,
 -0.00019441,0.00004163,-0.00007089,-0.00000183,-0.00013212,-0.00009499
 ,0.00028621,0.00010854,-0.00016683,-0.00071492,-0.00011432,-0.00070431
 ,0.00365943,-0.00236663,-0.00109554,0.00091955,0.00089397,0.00237951,0
 .00018068,-0.00099518,-0.00154292,0.00065432,0.00074221,0.00176803,-0.
 00087637,0.00013664,-0.00057102,-0.00032340,0.00001210,-0.00029223,-0.
 00038650,-0.00024948,-0.00078448,-0.00152277,0.00144422,0.00208263,-0.
 00161957,-0.00273840,-0.00719226,-0.00188174,-0.00419516,0.00544500,-0
 .00512549,0.01750948,-0.01919455,-0.05004710,-0.02985888,-0.03985919,0
 .00313228,-0.00221403,0.00038085,-0.00070667,-0.00026271,0.00049512,0.
 00029135,0.00001613,0.00021465,-0.00004592,-0.00018041,0.00007987,-0.0
 0016895,0.00006667,0.00002874,0.00011402,0.00004210,-0.00002658,-0.000
 05295,-0.00005360,-0.00001030,-0.00007257,-0.00006466,0.00014021,-0.00
 007915,0.00035905,0.00001537,0.00093876,0.00137126,-0.00147418,0.00004
 607,-0.00119026,0.00093692,0.00069696,0.00101548,-0.00107652,-0.000705
 96,-0.00004459,0.00036940,-0.00033923,0.00003498,0.00019311,-0.0004258
 4,-0.00050489,0.00052772,-0.00114850,0.00172247,-0.00142082,-0.0097147
 9,0.01160129,0.02724924,-0.05780053,-0.04371166,0.02274060,-0.00007983
 ,0.00044498,0.00011790,-0.00005347,-0.00004257,-0.00018075,-0.00000638
 ,0.00001468,-0.00000337,0.00000412,0.00001011,-0.00001136,0.00001778,-
 0.00000694,0.00001383,-0.00001756,-0.00001928,0.00002881,-0.00004364,-
 0.00002485,0.00003806,0.00001007,-0.00013450,-0.00009520,-0.00002977,0
 .00002326,0.00001917,-0.00001356,-0.00000338,-0.00000033,0.00004264,-0
 .00000463,-0.00000478,0.00002633,0.00002737,0.00002226,-0.00003308,-0.
 00000780,-0.00005181,-0.00002171,-0.00000683,-0.00003576,0.00001631,-0
 .00000424,-0.00001039,0.00000563,-0.00000300,0.00001519,-0.00000486,0.
 00000722,0.00000835,-0.00001194,0.00000217,-0.00000223,-0.00005299,-0.
 00012522,-0.00001197,-0.00000323,-0.00012492,0.00002592,-0.00002989,0.
 00002368,-0.00001585,-0.00001259,-0.00000586,-0.00001083,0.00003863,0.
 00000045,0.00000904,0.00002147,0.00001821,-0.00002635,-0.00007531,-0.0
 0018984,-0.00003053,-0.00000299,0.00001007,-0.00000147,0.12324153,0.00
 000740,0.00010356,0.00004434,-0.00003805,-0.00011109,-0.00004082,0.000
 06050,-0.00007496,0.00001121,0.00012297,-0.00012287,0.00020996,-0.0001
 6432,0.00002237,0.00005326,-0.00042653,-0.00026722,-0.00018335,0.00218
 229,-0.00172569,-0.00252928,0.00068288,-0.00009889,0.00104575,0.000052
 68,-0.00052447,-0.00064571,0.00017266,0.00027335,0.00064823,-0.0003415
 2,-0.00000257,-0.00028751,-0.00008030,-0.00014660,-0.00009728,-0.00012
 588,-0.00007514,-0.00031480,-0.00077963,0.00071367,0.00063246,-0.00055
 807,-0.00118276,-0.00321439,0.00054006,-0.00007585,0.00199714,0.004328
 19,0.00104224,0.00413074,-0.02146633,-0.00885262,-0.02004285,0.0007013
 1,-0.00122967,0.00122816,-0.00019546,-0.00011097,-0.00009767,-0.000075
 19,-0.00002910,-0.00008959,0.00005045,-0.00011568,-0.00012392,0.000154
 45,0.00006252,-0.00010586,-0.00019694,-0.00020535,0.00016780,0.0000189
 7,0.00021705,-0.00005068,-0.00006103,-0.00003838,0.00011946,0.00003003
 ,0.00028490,-0.00002713,0.00013877,-0.00044510,0.00006522,0.00006387,0
 .00003769,-0.00012903,-0.00016846,-0.00026073,0.00023198,0.00029020,-0
 .00009480,-0.00007765,-0.00004169,0.00015309,-0.00009868,-0.00003380,-
 0.00022126,0.00002936,-0.00028562,-0.00012005,0.00021169,-0.00113110,0
 .00596317,0.00862229,-0.03547032,-0.02449831,0.01686529,0.00002370,0.0
 0054310,0.00019819,-0.00004363,-0.00007983,-0.00018554,-0.00001306,-0.
 00001513,0.00001429,0.00001427,0.00000469,-0.00001527,0.00000655,-0.00
 000617,-0.00000295,0.00004561,-0.00000413,-0.00000526,0.00006095,-0.00
 006881,-0.00008434,0.00007791,-0.00009393,-0.00018575,0.00001664,0.000
 01510,-0.00000472,0.00000633,0.00002167,-0.00001832,0.00001379,-0.0000
 0091,-0.00001936,0.00002600,0.00005648,-0.00003128,0.00006054,-0.00008
 664,0.00005158,0.00002164,-0.00000238,0.00000776,-0.00000239,-0.000012
 38,0.00000911,0.00002103,-0.00002526,0.00001959,-0.00000460,-0.0000248
 5,-0.00001672,-0.00006598,-0.00003117,0.00000867,-0.00004813,0.0000006
 3,-0.00009863,0.00004398,-0.00005603,0.00009590,0.00000950,-0.00000242
 ,0.00000504,0.00000609,0.00000627,0.00000120,0.00000231,0.00001312,0.0
 0002258,0.00000167,0.00000161,0.00000081,-0.00012692,-0.00022794,0.000
 10471,-0.00003801,-0.00000119,-0.00003454,0.05192677,0.03183302,0.0000
 0246,0.00026805,0.00023975,-0.00040287,-0.00008632,-0.00062906,0.00024
 048,0.00027746,0.00038273,-0.00023699,-0.00011523,-0.00034949,0.000227
 15,-0.00022595,0.00003695,0.00055144,0.00035086,0.00057614,-0.00339296
 ,0.00245267,0.00269248,-0.00142759,-0.00087869,-0.00341676,0.00000078,
 0.00140981,0.00217228,-0.00086024,-0.00123525,-0.00271796,0.00176908,-
 0.00035025,0.00101250,0.00004148,0.00075877,0.00067733,0.00025843,-0.0
 0039946,0.00053404,0.00135900,-0.00206384,-0.00250282,0.00383241,0.004
 96159,0.00320516,-0.00440634,-0.00658540,0.00233158,-0.01331941,0.0237
 9117,-0.03173561,-0.04156200,-0.02777727,-0.03050578,0.00395443,-0.004
 20053,0.00273151,-0.00080447,-0.00061755,0.00040748,-0.00024152,0.0002
 1073,0.00008350,0.00030524,0.00017216,-0.00031254,-0.00026318,-0.00038
 064,0.00022017,0.00044913,0.00023420,-0.00049101,-0.00002683,-0.000284
 63,0.00012515,-0.00002193,-0.00030526,0.00009681,0.00001734,0.00095188
 ,0.00007173,0.00208663,0.00207529,-0.00308676,-0.00021364,-0.00232223,
 0.00174246,0.00125178,0.00222004,-0.00222437,-0.00199389,-0.00000698,0
 .00093231,-0.00016999,-0.00094299,0.00039275,-0.00041441,0.00007700,0.
 00072020,-0.00141775,0.00316240,-0.00204653,0.01688783,-0.00953966,-0.
 03201620,0.02734331,0.02364889,-0.00675440,-0.00000618,-0.00073677,-0.
 00018320,-0.00001766,0.00023916,0.00011869,0.00001847,-0.00004356,-0.0
 0002023,0.00003139,-0.00006670,-0.00003030,-0.00002089,-0.00000883,-0.
 00002993,-0.00006281,0.00001028,-0.00000004,0.00003496,-0.00000514,0.0
 0002817,-0.00005187,0.00019408,0.00021171,-0.00001874,-0.00004412,0.00
 000114,-0.00000053,-0.00004324,0.00005729,-0.00002261,0.00006208,0.000
 00505,-0.00006733,-0.00015413,0.00008985,-0.00002313,-0.00003593,0.000
 03738,0.00007176,-0.00001325,0.00000259,0.00002693,0.00001415,-0.00002
 223,-0.00002275,0.00006919,-0.00000186,-0.00002021,0.00004348,-0.00001
 198,0.00006097,0.00005336,0.00005806,-0.00019668,-0.00054419,-0.000290
 00,0.00004807,-0.00030628,0.00018687,0.00001840,0.00004587,0.00001897,
 -0.00000692,0.00002478,0.00007170,0.00003033,-0.00006007,-0.00000496,0
 .00005994,0.00012509,0.00014990,0.00017928,0.00054273,-0.00003928,-0.0
 0008487,-0.00007199,0.00001906,0.01064029,-0.00799492,0.09698182\\0.00
 000039,0.00000044,0.00000343,0.00000073,0.00000179,-0.00000134,-0.0000
 0150,0.00000379,-0.00000269,-0.00000050,-0.00000094,0.00000092,0.00000
 198,-0.00000460,0.00000220,-0.00000826,0.00001398,-0.00000953,0.000009
 19,-0.00000277,0.00001439,0.,0.,0.00000003,-0.00000701,0.00000396,-0.0
 0000107,0.00000674,-0.00000180,0.00000379,-0.00000365,0.00000012,-0.00
 000043,0.00000315,-0.00000127,0.00000032,-0.00000275,0.00000331,0.0000
 0206,0.00000335,-0.00000004,0.00000092,0.00000076,-0.00000571,-0.00000
 180,-0.00000518,0.00000392,0.00000465,0.00001613,0.00001273,-0.0000014
 6,-0.00001204,-0.00002220,-0.00001263,-0.00001083,-0.00000184,0.000012
 80,0.00001189,-0.00000840,-0.00001031,-0.00000444,0.00000386,0.0000013
 1,0.00000013,0.00000123,0.00000062,0.00000308,-0.00000314,-0.00000267,
 -0.00000073,-0.00000051,-0.00000207,-0.00000020,-0.00000026,0.00000168
 ,-0.00000340,0.00000387,0.00000373,-0.00000178,-0.00000132,0.00000168,
 0.00000147,0.00000193,-0.00000114,0.00000665,-0.00000506,-0.00000060,-
 0.00000594,0.00000094,0.00000138,0.00000327,-0.00000041,-0.00000038,-0
 .00000343,0.00000074,-0.00000017,0.00000152,-0.00000462,0.00000165,-0.
 00000245,0.00000055,-0.00000139,-0.00000986,-0.00000030,0.00000148,0.0
 0001700,0.00000346,-0.00000960,-0.00000176,-0.00000397,0.00000097,0.00
 000153,-0.00000293,0.00000195,0.00000033,-0.00000052,-0.00000012,-0.00
 000008,-0.00000010,-0.00000057,0.00000024,0.00000193,0.00000144,-0.000
 00061,-0.00000019,-0.00000109,0.00000127,-0.00000016,0.00000231,-0.000
 00057,0.00000038,-0.00000106,-0.00000103,-0.00000005,-0.00000085,0.000
 00049,0.00000045,-0.00000016,-0.00000015,-0.00000097,0.00000037,-0.000
 00025,-0.00000072,-0.00000081,-0.00000176,-0.00000045,0.00000160,0.000
 00068,0.00000092,-0.00000123,-0.00000055,-0.00000129,0.00000053,0.0000
 0013,0.00000099,-0.00000036,-0.00000014,0.00000091,-0.00000020,0.00000
 051,-0.00000017,-0.00000013,-0.00000248,0.00000157,-0.00000011,0.00000
 103,-0.00000013,-0.00000189,0.00000127,-0.00000015,-0.00000143,-0.0000
 0018,-0.00000101,-0.00000118,0.00000042,0.00000007,0.00000010,0.000000
 78,0.00000053,-0.00000089,-0.00000076,0.00000094,-0.00000080,-0.000001
 28,0.00000034,-0.00000062,-0.00000053,0.00000834,0.00000447\\\@
 The archive entry for this job was punched.


 A politician is a person who can make waves and then
 make you think he's the only one who can save the ship.
 -- Ivern Ball
 Job cpu time:       0 days 18 hours 30 minutes 13.7 seconds.
 Elapsed time:       0 days  0 hours 34 minutes 54.5 seconds.
 File lengths (MBytes):  RWF=   5301 Int=      0 D2E=      0 Chk=     44 Scr=      2
 Normal termination of Gaussian 16 at Fri Mar  8 03:33:34 2024.
