 Entering Gaussian System, Link 0=g16
 Initial command:
 /public/software/apps/Gaussian/g16/l1.exe "/tmp/Gau-17238.inp" -scrdir="/tmp/"
 Entering Link 1 = /public/software/apps/Gaussian/g16/l1.exe PID=     17270.
  
 Copyright (c) 1988-2019, Gaussian, Inc.  All Rights Reserved.
  
 This is part of the Gaussian(R) 16 program.  It is based on
 the Gaussian(R) 09 system (copyright 2009, Gaussian, Inc.),
 the Gaussian(R) 03 system (copyright 2003, Gaussian, Inc.),
 the Gaussian(R) 98 system (copyright 1998, Gaussian, Inc.),
 the Gaussian(R) 94 system (copyright 1995, Gaussian, Inc.),
 the Gaussian 92(TM) system (copyright 1992, Gaussian, Inc.),
 the Gaussian 90(TM) system (copyright 1990, Gaussian, Inc.),
 the Gaussian 88(TM) system (copyright 1988, Gaussian, Inc.),
 the Gaussian 86(TM) system (copyright 1986, Carnegie Mellon
 University), and the Gaussian 82(TM) system (copyright 1983,
 Carnegie Mellon University). Gaussian is a federally registered
 trademark of Gaussian, Inc.
  
 This software contains proprietary and confidential information,
 including trade secrets, belonging to Gaussian, Inc.
  
 This software is provided under written license and may be
 used, copied, transmitted, or stored only in accord with that
 written license.
  
 The following legend is applicable only to US Government
 contracts under FAR:
  
                    RESTRICTED RIGHTS LEGEND
  
 Use, reproduction and disclosure by the US Government is
 subject to restrictions as set forth in subparagraphs (a)
 and (c) of the Commercial Computer Software - Restricted
 Rights clause in FAR 52.227-19.
  
 Gaussian, Inc.
 340 Quinnipiac St., Bldg. 40, Wallingford CT 06492
  
  
 ---------------------------------------------------------------
 Warning -- This program may not be used in any manner that
 competes with the business of Gaussian, Inc. or will provide
 assistance to any competitor of Gaussian, Inc.  The licensee
 of this program is prohibited from giving any competitor of
 Gaussian, Inc. access to this program.  By using this program,
 the user acknowledges that Gaussian, Inc. is engaged in the
 business of creating and licensing software in the field of
 computational chemistry and represents and warrants to the
 licensee that it is not a competitor of Gaussian, Inc. and that
 it will not use this program in any manner prohibited above.
 ---------------------------------------------------------------
  

 Cite this work as:
 Gaussian 16, Revision C.01,
 M. J. Frisch, G. W. Trucks, H. B. Schlegel, G. E. Scuseria, 
 M. A. Robb, J. R. Cheeseman, G. Scalmani, V. Barone, 
 G. A. Petersson, H. Nakatsuji, X. Li, M. Caricato, A. V. Marenich, 
 J. Bloino, B. G. Janesko, R. Gomperts, B. Mennucci, H. P. Hratchian, 
 J. V. Ortiz, A. F. Izmaylov, J. L. Sonnenberg, D. Williams-Young, 
 F. Ding, F. Lipparini, F. Egidi, J. Goings, B. Peng, A. Petrone, 
 T. Henderson, D. Ranasinghe, V. G. Zakrzewski, J. Gao, N. Rega, 
 G. Zheng, W. Liang, M. Hada, M. Ehara, K. Toyota, R. Fukuda, 
 J. Hasegawa, M. Ishida, T. Nakajima, Y. Honda, O. Kitao, H. Nakai, 
 T. Vreven, K. Throssell, J. A. Montgomery, Jr., J. E. Peralta, 
 F. Ogliaro, M. J. Bearpark, J. J. Heyd, E. N. Brothers, K. N. Kudin, 
 V. N. Staroverov, T. A. Keith, R. Kobayashi, J. Normand, 
 K. Raghavachari, A. P. Rendell, J. C. Burant, S. S. Iyengar, 
 J. Tomasi, M. Cossi, J. M. Millam, M. Klene, C. Adamo, R. Cammi, 
 J. W. Ochterski, R. L. Martin, K. Morokuma, O. Farkas, 
 J. B. Foresman, and D. J. Fox, Gaussian, Inc., Wallingford CT, 2019.
 
 ******************************************
 Gaussian 16:  ES64L-G16RevC.01  3-Jul-2019
                10-Dec-2024 
 ******************************************
 %nprocshared=32
 Will use up to   32 processors via shared memory.
 %mem=100GB
 ------------------------------------------
 #p opt freq b3lyp/def2svpp em=gd3bj nosymm
 ------------------------------------------
 1/18=20,19=15,26=3,38=1/1,3;
 2/9=110,12=2,15=1,17=6,18=5,40=1/2;
 3/5=43,7=202,11=2,25=1,30=1,71=1,74=-5,124=41/1,2,3;
 4//1;
 5/5=2,38=5/2;
 6/7=2,8=2,9=2,10=2,28=1/1;
 7/30=1/1,2,3,16;
 1/18=20,19=15,26=3/3(2);
 2/9=110,15=1/2;
 99//99;
 2/9=110,15=1/2;
 3/5=43,7=202,11=2,25=1,30=1,71=1,74=-5,124=41/1,2,3;
 4/5=5,16=3,69=1/1;
 5/5=2,38=5/2;
 7/30=1/1,2,3,16;
 1/18=20,19=15,26=3/3(-5);
 2/9=110,15=1/2;
 6/7=2,8=2,9=2,10=2,19=2,28=1/1;
 99/9=1/99;
 Leave Link    1 at Tue Dec 10 11:49:10 2024, MaxMem= 13421772800 cpu:               1.0 elap:               0.0
 (Enter /public/software/apps/Gaussian/g16/l101.exe)
 ------------------
 $$$$Title####0????
 ------------------
 Symbolic Z-matrix:
 Charge =  0 Multiplicity = 2
 C                    -8.39171   2.66793   0.23844 
 C                    -7.07277   2.99146   0.98409 
 C                    -7.34307   2.95528   2.50563 
 C                    -6.65342   4.41879   0.5526 
 C                    -5.21548   4.74039   0.94107 
 C                    -4.19663   3.79994   0.25036 
 C                    -2.84493   3.98689   0.98459 
 C                    -4.01709   4.20908  -1.22952 
 C                    -4.65047   2.33326   0.31235 
 C                    -3.73295   1.31995  -0.04611 
 C                    -4.07419  -0.03618   0.01991 
 C                    -3.08689  -1.0805   -0.34529 
 C                    -3.44194  -2.07404  -1.26767 
 C                    -2.51645  -3.04709  -1.66394 
 C                    -2.88026  -4.01517  -2.61405 
 C                    -1.9552   -4.97144  -3.03459 
 C                    -0.66015  -4.96757  -2.51738 
 C                    -0.28333  -4.01332  -1.5697 
 C                    -1.20772  -3.04666  -1.11764 
 C                    -0.86081  -2.07338  -0.14653 
 C                     0.48282  -2.04731   0.49395 
 C                     1.35192  -0.98309   0.18855 
 O                     0.93029   0.01238  -0.69039 
 C                     2.64079  -0.92534   0.75031 
 C                     3.5621    0.19398   0.4378 
 C                     3.14378   1.5177    0.58294 
 C                     4.00412   2.56618   0.27196 
 C                     5.31465   2.3278   -0.19731 
 C                     5.7836    0.98056  -0.25476 
 C                     4.87378  -0.06514   0.02273 
 C                     7.21497   0.62424  -0.68554 
 C                     7.8379   -0.41191   0.28346 
 C                     7.17557   0.01371  -2.10521 
 C                     8.14052   1.86624  -0.66741 
 C                     7.48435   3.08472  -1.305 
 C                     6.20815   3.52771  -0.54709 
 C                     5.45854   4.51828  -1.47271 
 C                     6.59476   4.26409   0.75593 
 C                     3.06116  -1.94386   1.61661 
 C                     2.20193  -2.99605   1.95546 
 C                     2.6307   -3.99144   2.8485 
 C                     1.77209  -5.03025   3.21018 
 C                     0.47885  -5.08229   2.69109 
 C                     0.03772  -4.10106   1.8004 
 C                     0.89505  -3.05029   1.40762 
 C                    -1.79704  -1.08772   0.21727 
 O                    -1.44051  -0.12012   1.15434 
 C                    -5.36126  -0.39489   0.42265 
 C                    -6.29975   0.58395   0.73535 
 C                    -5.9873    1.95843   0.64487 
 H                    -8.20163   2.53821  -0.84909 
 H                    -9.12595   3.49289   0.36769 
 H                    -8.87601   1.74655   0.62194 
 H                    -8.07296   3.74115   2.79683 
 H                    -6.40815   3.10778   3.08402 
 H                    -7.7641    1.97271   2.80865 
 H                    -7.32619   5.17349   1.01718 
 H                    -6.76609   4.54094  -0.54623 
 H                    -5.1173    4.67513   2.04606 
 H                    -5.00218   5.79953   0.67484 
 H                    -2.59118   5.06634   1.06673 
 H                    -2.00401   3.50099   0.44824 
 H                    -2.89817   3.56245   2.01071 
 H                    -4.94138   4.01951  -1.81395 
 H                    -3.75851   5.28654  -1.31353 
 H                    -3.19872   3.62688  -1.70447 
 H                    -2.74459   1.58137  -0.39775 
 H                    -4.43575  -2.06888  -1.70192 
 H                    -3.87861  -4.02894  -3.03537 
 H                    -2.24102  -5.71312  -3.76927 
 H                     0.05637  -5.7058   -2.85382 
 H                     0.73368  -4.03713  -1.20147 
 H                     2.14783   1.74262   0.94472 
 H                     3.63572   3.57278   0.40929 
 H                     5.1761   -1.09621  -0.09801 
 H                     8.91751  -0.55632   0.05976 
 H                     7.35845  -1.40863   0.19851 
 H                     7.74351  -0.0656    1.3356 
 H                     6.61874  -0.94766  -2.10702 
 H                     6.66691   0.69277  -2.82073 
 H                     8.20274  -0.18941  -2.47752 
 H                     9.088     1.64704  -1.20817 
 H                     8.43247   2.11789   0.37493 
 H                     8.22379   3.91579  -1.33026 
 H                     7.24571   2.85264  -2.36528 
 H                     4.62981   5.03738  -0.94891 
 H                     6.14944   5.30782  -1.84092 
 H                     5.03813   3.98541  -2.35306 
 H                     7.06863   3.57261   1.4833 
 H                     7.30057   5.09638   0.54568 
 H                     5.69688   4.69734   1.24634 
 H                     4.05411  -1.89977   2.05101 
 H                     3.62837  -3.96312   3.27059 
 H                     2.10809  -5.7936    3.9001 
 H                    -0.18616  -5.88549   2.98138 
 H                    -0.976    -4.17087   1.42907 
 H                    -5.64075  -1.43872   0.50016 
 H                    -7.27761   0.25441   1.05611 
 Cu                   -0.26447   1.2052    0.3104 
 
 ITRead=  0  0  0  0  0  0  0  0  0  0  0  0  0  0  0  0  0  0  0  0
 ITRead=  0  0  0  0  0  0  0  0  0  0  0  0  0  0  0  0  0  0  0  0
 ITRead=  0  0  0  0  0  0  0  0  0  0  0  0  0  0  0  0  0  0  0  0
 ITRead=  0  0  0  0  0  0  0  0  0  0  0  0  0  0  0  0  0  0  0  0
 ITRead=  0  0  0  0  0  0  0  0  0  0  0  0  0  0  0  0  0  0  0
 MicOpt= -1 -1 -1 -1 -1 -1 -1 -1 -1 -1 -1 -1 -1 -1 -1 -1 -1 -1 -1 -1
 MicOpt= -1 -1 -1 -1 -1 -1 -1 -1 -1 -1 -1 -1 -1 -1 -1 -1 -1 -1 -1 -1
 MicOpt= -1 -1 -1 -1 -1 -1 -1 -1 -1 -1 -1 -1 -1 -1 -1 -1 -1 -1 -1 -1
 MicOpt= -1 -1 -1 -1 -1 -1 -1 -1 -1 -1 -1 -1 -1 -1 -1 -1 -1 -1 -1 -1
 MicOpt= -1 -1 -1 -1 -1 -1 -1 -1 -1 -1 -1 -1 -1 -1 -1 -1 -1 -1 -1
 NAtoms=     99 NQM=       99 NQMF=       0 NMMI=      0 NMMIF=      0
                NMic=       0 NMicF=      0.
                    Isotopes and Nuclear Properties:
 (Nuclear quadrupole moments (NQMom) in fm**2, nuclear magnetic moments (NMagM)
  in nuclear magnetons)

  Atom         1           2           3           4           5           6           7           8           9          10
 IAtWgt=          12          12          12          12          12          12          12          12          12          12
 AtmWgt=  12.0000000  12.0000000  12.0000000  12.0000000  12.0000000  12.0000000  12.0000000  12.0000000  12.0000000  12.0000000
 NucSpn=           0           0           0           0           0           0           0           0           0           0
 AtZEff=  -0.0000000  -0.0000000  -0.0000000  -0.0000000  -0.0000000  -0.0000000  -0.0000000  -0.0000000  -0.0000000  -0.0000000
 NQMom=    0.0000000   0.0000000   0.0000000   0.0000000   0.0000000   0.0000000   0.0000000   0.0000000   0.0000000   0.0000000
 NMagM=    0.0000000   0.0000000   0.0000000   0.0000000   0.0000000   0.0000000   0.0000000   0.0000000   0.0000000   0.0000000
 AtZNuc=   6.0000000   6.0000000   6.0000000   6.0000000   6.0000000   6.0000000   6.0000000   6.0000000   6.0000000   6.0000000

  Atom        11          12          13          14          15          16          17          18          19          20
 IAtWgt=          12          12          12          12          12          12          12          12          12          12
 AtmWgt=  12.0000000  12.0000000  12.0000000  12.0000000  12.0000000  12.0000000  12.0000000  12.0000000  12.0000000  12.0000000
 NucSpn=           0           0           0           0           0           0           0           0           0           0
 AtZEff=  -0.0000000  -0.0000000  -0.0000000  -0.0000000  -0.0000000  -0.0000000  -0.0000000  -0.0000000  -0.0000000  -0.0000000
 NQMom=    0.0000000   0.0000000   0.0000000   0.0000000   0.0000000   0.0000000   0.0000000   0.0000000   0.0000000   0.0000000
 NMagM=    0.0000000   0.0000000   0.0000000   0.0000000   0.0000000   0.0000000   0.0000000   0.0000000   0.0000000   0.0000000
 AtZNuc=   6.0000000   6.0000000   6.0000000   6.0000000   6.0000000   6.0000000   6.0000000   6.0000000   6.0000000   6.0000000

  Atom        21          22          23          24          25          26          27          28          29          30
 IAtWgt=          12          12          16          12          12          12          12          12          12          12
 AtmWgt=  12.0000000  12.0000000  15.9949146  12.0000000  12.0000000  12.0000000  12.0000000  12.0000000  12.0000000  12.0000000
 NucSpn=           0           0           0           0           0           0           0           0           0           0
 AtZEff=  -0.0000000  -0.0000000  -0.0000000  -0.0000000  -0.0000000  -0.0000000  -0.0000000  -0.0000000  -0.0000000  -0.0000000
 NQMom=    0.0000000   0.0000000   0.0000000   0.0000000   0.0000000   0.0000000   0.0000000   0.0000000   0.0000000   0.0000000
 NMagM=    0.0000000   0.0000000   0.0000000   0.0000000   0.0000000   0.0000000   0.0000000   0.0000000   0.0000000   0.0000000
 AtZNuc=   6.0000000   6.0000000   8.0000000   6.0000000   6.0000000   6.0000000   6.0000000   6.0000000   6.0000000   6.0000000

  Atom        31          32          33          34          35          36          37          38          39          40
 IAtWgt=          12          12          12          12          12          12          12          12          12          12
 AtmWgt=  12.0000000  12.0000000  12.0000000  12.0000000  12.0000000  12.0000000  12.0000000  12.0000000  12.0000000  12.0000000
 NucSpn=           0           0           0           0           0           0           0           0           0           0
 AtZEff=  -0.0000000  -0.0000000  -0.0000000  -0.0000000  -0.0000000  -0.0000000  -0.0000000  -0.0000000  -0.0000000  -0.0000000
 NQMom=    0.0000000   0.0000000   0.0000000   0.0000000   0.0000000   0.0000000   0.0000000   0.0000000   0.0000000   0.0000000
 NMagM=    0.0000000   0.0000000   0.0000000   0.0000000   0.0000000   0.0000000   0.0000000   0.0000000   0.0000000   0.0000000
 AtZNuc=   6.0000000   6.0000000   6.0000000   6.0000000   6.0000000   6.0000000   6.0000000   6.0000000   6.0000000   6.0000000

  Atom        41          42          43          44          45          46          47          48          49          50
 IAtWgt=          12          12          12          12          12          12          16          12          12          12
 AtmWgt=  12.0000000  12.0000000  12.0000000  12.0000000  12.0000000  12.0000000  15.9949146  12.0000000  12.0000000  12.0000000
 NucSpn=           0           0           0           0           0           0           0           0           0           0
 AtZEff=  -0.0000000  -0.0000000  -0.0000000  -0.0000000  -0.0000000  -0.0000000  -0.0000000  -0.0000000  -0.0000000  -0.0000000
 NQMom=    0.0000000   0.0000000   0.0000000   0.0000000   0.0000000   0.0000000   0.0000000   0.0000000   0.0000000   0.0000000
 NMagM=    0.0000000   0.0000000   0.0000000   0.0000000   0.0000000   0.0000000   0.0000000   0.0000000   0.0000000   0.0000000
 AtZNuc=   6.0000000   6.0000000   6.0000000   6.0000000   6.0000000   6.0000000   8.0000000   6.0000000   6.0000000   6.0000000

  Atom        51          52          53          54          55          56          57          58          59          60
 IAtWgt=           1           1           1           1           1           1           1           1           1           1
 AtmWgt=   1.0078250   1.0078250   1.0078250   1.0078250   1.0078250   1.0078250   1.0078250   1.0078250   1.0078250   1.0078250
 NucSpn=           1           1           1           1           1           1           1           1           1           1
 AtZEff=  -0.0000000  -0.0000000  -0.0000000  -0.0000000  -0.0000000  -0.0000000  -0.0000000  -0.0000000  -0.0000000  -0.0000000
 NQMom=    0.0000000   0.0000000   0.0000000   0.0000000   0.0000000   0.0000000   0.0000000   0.0000000   0.0000000   0.0000000
 NMagM=    2.7928460   2.7928460   2.7928460   2.7928460   2.7928460   2.7928460   2.7928460   2.7928460   2.7928460   2.7928460
 AtZNuc=   1.0000000   1.0000000   1.0000000   1.0000000   1.0000000   1.0000000   1.0000000   1.0000000   1.0000000   1.0000000

  Atom        61          62          63          64          65          66          67          68          69          70
 IAtWgt=           1           1           1           1           1           1           1           1           1           1
 AtmWgt=   1.0078250   1.0078250   1.0078250   1.0078250   1.0078250   1.0078250   1.0078250   1.0078250   1.0078250   1.0078250
 NucSpn=           1           1           1           1           1           1           1           1           1           1
 AtZEff=  -0.0000000  -0.0000000  -0.0000000  -0.0000000  -0.0000000  -0.0000000  -0.0000000  -0.0000000  -0.0000000  -0.0000000
 NQMom=    0.0000000   0.0000000   0.0000000   0.0000000   0.0000000   0.0000000   0.0000000   0.0000000   0.0000000   0.0000000
 NMagM=    2.7928460   2.7928460   2.7928460   2.7928460   2.7928460   2.7928460   2.7928460   2.7928460   2.7928460   2.7928460
 AtZNuc=   1.0000000   1.0000000   1.0000000   1.0000000   1.0000000   1.0000000   1.0000000   1.0000000   1.0000000   1.0000000

  Atom        71          72          73          74          75          76          77          78          79          80
 IAtWgt=           1           1           1           1           1           1           1           1           1           1
 AtmWgt=   1.0078250   1.0078250   1.0078250   1.0078250   1.0078250   1.0078250   1.0078250   1.0078250   1.0078250   1.0078250
 NucSpn=           1           1           1           1           1           1           1           1           1           1
 AtZEff=  -0.0000000  -0.0000000  -0.0000000  -0.0000000  -0.0000000  -0.0000000  -0.0000000  -0.0000000  -0.0000000  -0.0000000
 NQMom=    0.0000000   0.0000000   0.0000000   0.0000000   0.0000000   0.0000000   0.0000000   0.0000000   0.0000000   0.0000000
 NMagM=    2.7928460   2.7928460   2.7928460   2.7928460   2.7928460   2.7928460   2.7928460   2.7928460   2.7928460   2.7928460
 AtZNuc=   1.0000000   1.0000000   1.0000000   1.0000000   1.0000000   1.0000000   1.0000000   1.0000000   1.0000000   1.0000000

  Atom        81          82          83          84          85          86          87          88          89          90
 IAtWgt=           1           1           1           1           1           1           1           1           1           1
 AtmWgt=   1.0078250   1.0078250   1.0078250   1.0078250   1.0078250   1.0078250   1.0078250   1.0078250   1.0078250   1.0078250
 NucSpn=           1           1           1           1           1           1           1           1           1           1
 AtZEff=  -0.0000000  -0.0000000  -0.0000000  -0.0000000  -0.0000000  -0.0000000  -0.0000000  -0.0000000  -0.0000000  -0.0000000
 NQMom=    0.0000000   0.0000000   0.0000000   0.0000000   0.0000000   0.0000000   0.0000000   0.0000000   0.0000000   0.0000000
 NMagM=    2.7928460   2.7928460   2.7928460   2.7928460   2.7928460   2.7928460   2.7928460   2.7928460   2.7928460   2.7928460
 AtZNuc=   1.0000000   1.0000000   1.0000000   1.0000000   1.0000000   1.0000000   1.0000000   1.0000000   1.0000000   1.0000000

  Atom        91          92          93          94          95          96          97          98          99
 IAtWgt=           1           1           1           1           1           1           1           1          63
 AtmWgt=   1.0078250   1.0078250   1.0078250   1.0078250   1.0078250   1.0078250   1.0078250   1.0078250  62.9295992
 NucSpn=           1           1           1           1           1           1           1           1           3
 AtZEff=  -0.0000000  -0.0000000  -0.0000000  -0.0000000  -0.0000000  -0.0000000  -0.0000000  -0.0000000  -0.0000000
 NQMom=    0.0000000   0.0000000   0.0000000   0.0000000   0.0000000   0.0000000   0.0000000   0.0000000 -22.0000000
 NMagM=    2.7928460   2.7928460   2.7928460   2.7928460   2.7928460   2.7928460   2.7928460   2.7928460   2.2233000
 AtZNuc=   1.0000000   1.0000000   1.0000000   1.0000000   1.0000000   1.0000000   1.0000000   1.0000000  29.0000000
 Leave Link  101 at Tue Dec 10 11:49:10 2024, MaxMem= 13421772800 cpu:               5.6 elap:               0.2
 (Enter /public/software/apps/Gaussian/g16/l103.exe)

 GradGradGradGradGradGradGradGradGradGradGradGradGradGradGradGradGradGrad
 Berny optimization.
 Initialization pass.
                           ----------------------------
                           !    Initial Parameters    !
                           ! (Angstroms and Degrees)  !
 --------------------------                            --------------------------
 ! Name  Definition              Value          Derivative Info.                !
 --------------------------------------------------------------------------------
 ! R1    R(1,2)                  1.5493         estimate D2E/DX2                !
 ! R2    R(1,51)                 1.1116         estimate D2E/DX2                !
 ! R3    R(1,52)                 1.1119         estimate D2E/DX2                !
 ! R4    R(1,53)                 1.1093         estimate D2E/DX2                !
 ! R5    R(2,3)                  1.5458         estimate D2E/DX2                !
 ! R6    R(2,4)                  1.549          estimate D2E/DX2                !
 ! R7    R(2,50)                 1.5364         estimate D2E/DX2                !
 ! R8    R(3,54)                 1.1114         estimate D2E/DX2                !
 ! R9    R(3,55)                 1.1099         estimate D2E/DX2                !
 ! R10   R(3,56)                 1.1111         estimate D2E/DX2                !
 ! R11   R(4,5)                  1.5238         estimate D2E/DX2                !
 ! R12   R(4,57)                 1.1127         estimate D2E/DX2                !
 ! R13   R(4,58)                 1.1113         estimate D2E/DX2                !
 ! R14   R(5,6)                  1.5491         estimate D2E/DX2                !
 ! R15   R(5,59)                 1.1113         estimate D2E/DX2                !
 ! R16   R(5,60)                 1.1127         estimate D2E/DX2                !
 ! R17   R(6,7)                  1.5496         estimate D2E/DX2                !
 ! R18   R(6,8)                  1.5459         estimate D2E/DX2                !
 ! R19   R(6,9)                  1.5365         estimate D2E/DX2                !
 ! R20   R(7,61)                 1.1119         estimate D2E/DX2                !
 ! R21   R(7,62)                 1.1095         estimate D2E/DX2                !
 ! R22   R(7,63)                 1.1117         estimate D2E/DX2                !
 ! R23   R(8,64)                 1.1099         estimate D2E/DX2                !
 ! R24   R(8,65)                 1.1112         estimate D2E/DX2                !
 ! R25   R(8,66)                 1.111          estimate D2E/DX2                !
 ! R26   R(9,10)                 1.4132         estimate D2E/DX2                !
 ! R27   R(9,50)                 1.4276         estimate D2E/DX2                !
 ! R28   R(10,11)                1.4            estimate D2E/DX2                !
 ! R29   R(10,67)                1.0811         estimate D2E/DX2                !
 ! R30   R(11,12)                1.4828         estimate D2E/DX2                !
 ! R31   R(11,48)                1.3955         estimate D2E/DX2                !
 ! R32   R(12,13)                1.4014         estimate D2E/DX2                !
 ! R33   R(12,46)                1.4072         estimate D2E/DX2                !
 ! R34   R(13,14)                1.4001         estimate D2E/DX2                !
 ! R35   R(13,68)                1.0846         estimate D2E/DX2                !
 ! R36   R(14,15)                1.4044         estimate D2E/DX2                !
 ! R37   R(14,19)                1.4182         estimate D2E/DX2                !
 ! R38   R(15,16)                1.3954         estimate D2E/DX2                !
 ! R39   R(15,69)                1.0837         estimate D2E/DX2                !
 ! R40   R(16,17)                1.3945         estimate D2E/DX2                !
 ! R41   R(16,70)                1.0824         estimate D2E/DX2                !
 ! R42   R(17,18)                1.3967         estimate D2E/DX2                !
 ! R43   R(17,71)                1.0824         estimate D2E/DX2                !
 ! R44   R(18,19)                1.4118         estimate D2E/DX2                !
 ! R45   R(18,72)                1.0819         estimate D2E/DX2                !
 ! R46   R(19,20)                1.418          estimate D2E/DX2                !
 ! R47   R(20,21)                1.4887         estimate D2E/DX2                !
 ! R48   R(20,46)                1.4073         estimate D2E/DX2                !
 ! R49   R(21,22)                1.4075         estimate D2E/DX2                !
 ! R50   R(21,45)                1.418          estimate D2E/DX2                !
 ! R51   R(22,23)                1.3933         estimate D2E/DX2                !
 ! R52   R(22,24)                1.4072         estimate D2E/DX2                !
 ! R53   R(23,99)                1.9626         estimate D2E/DX2                !
 ! R54   R(24,25)                1.483          estimate D2E/DX2                !
 ! R55   R(24,39)                1.4016         estimate D2E/DX2                !
 ! R56   R(25,26)                1.3958         estimate D2E/DX2                !
 ! R57   R(25,30)                1.4            estimate D2E/DX2                !
 ! R58   R(26,27)                1.3915         estimate D2E/DX2                !
 ! R59   R(26,73)                1.0832         estimate D2E/DX2                !
 ! R60   R(27,28)                1.4123         estimate D2E/DX2                !
 ! R61   R(27,74)                1.0807         estimate D2E/DX2                !
 ! R62   R(28,29)                1.4277         estimate D2E/DX2                !
 ! R63   R(28,36)                1.5364         estimate D2E/DX2                !
 ! R64   R(29,30)                1.4136         estimate D2E/DX2                !
 ! R65   R(29,31)                1.5367         estimate D2E/DX2                !
 ! R66   R(30,75)                1.0812         estimate D2E/DX2                !
 ! R67   R(31,32)                1.5494         estimate D2E/DX2                !
 ! R68   R(31,33)                1.5459         estimate D2E/DX2                !
 ! R69   R(31,34)                1.549          estimate D2E/DX2                !
 ! R70   R(32,76)                1.112          estimate D2E/DX2                !
 ! R71   R(32,77)                1.1093         estimate D2E/DX2                !
 ! R72   R(32,78)                1.1117         estimate D2E/DX2                !
 ! R73   R(33,79)                1.111          estimate D2E/DX2                !
 ! R74   R(33,80)                1.1099         estimate D2E/DX2                !
 ! R75   R(33,81)                1.1113         estimate D2E/DX2                !
 ! R76   R(34,35)                1.5237         estimate D2E/DX2                !
 ! R77   R(34,82)                1.1127         estimate D2E/DX2                !
 ! R78   R(34,83)                1.1113         estimate D2E/DX2                !
 ! R79   R(35,36)                1.549          estimate D2E/DX2                !
 ! R80   R(35,84)                1.1127         estimate D2E/DX2                !
 ! R81   R(35,85)                1.1113         estimate D2E/DX2                !
 ! R82   R(36,37)                1.5492         estimate D2E/DX2                !
 ! R83   R(36,38)                1.5458         estimate D2E/DX2                !
 ! R84   R(37,86)                1.1093         estimate D2E/DX2                !
 ! R85   R(37,87)                1.1119         estimate D2E/DX2                !
 ! R86   R(37,88)                1.1116         estimate D2E/DX2                !
 ! R87   R(38,89)                1.1099         estimate D2E/DX2                !
 ! R88   R(38,90)                1.1113         estimate D2E/DX2                !
 ! R89   R(38,91)                1.111          estimate D2E/DX2                !
 ! R90   R(39,40)                1.4001         estimate D2E/DX2                !
 ! R91   R(39,92)                1.0847         estimate D2E/DX2                !
 ! R92   R(40,41)                1.4043         estimate D2E/DX2                !
 ! R93   R(40,45)                1.4181         estimate D2E/DX2                !
 ! R94   R(41,42)                1.3954         estimate D2E/DX2                !
 ! R95   R(41,93)                1.0837         estimate D2E/DX2                !
 ! R96   R(42,43)                1.3945         estimate D2E/DX2                !
 ! R97   R(42,94)                1.0824         estimate D2E/DX2                !
 ! R98   R(43,44)                1.3967         estimate D2E/DX2                !
 ! R99   R(43,95)                1.0824         estimate D2E/DX2                !
 ! R100  R(44,45)                1.4119         estimate D2E/DX2                !
 ! R101  R(44,96)                1.0818         estimate D2E/DX2                !
 ! R102  R(46,47)                1.3934         estimate D2E/DX2                !
 ! R103  R(47,99)                1.9626         estimate D2E/DX2                !
 ! R104  R(48,49)                1.3916         estimate D2E/DX2                !
 ! R105  R(48,97)                1.0834         estimate D2E/DX2                !
 ! R106  R(49,50)                1.4125         estimate D2E/DX2                !
 ! R107  R(49,98)                1.0806         estimate D2E/DX2                !
 ! A1    A(2,1,51)             110.4659         estimate D2E/DX2                !
 ! A2    A(2,1,52)             110.5654         estimate D2E/DX2                !
 ! A3    A(2,1,53)             112.2549         estimate D2E/DX2                !
 ! A4    A(51,1,52)            108.2534         estimate D2E/DX2                !
 ! A5    A(51,1,53)            108.4189         estimate D2E/DX2                !
 ! A6    A(52,1,53)            106.724          estimate D2E/DX2                !
 ! A7    A(1,2,3)              108.6622         estimate D2E/DX2                !
 ! A8    A(1,2,4)              106.7884         estimate D2E/DX2                !
 ! A9    A(1,2,50)             110.7814         estimate D2E/DX2                !
 ! A10   A(3,2,4)              110.0658         estimate D2E/DX2                !
 ! A11   A(3,2,50)             108.9735         estimate D2E/DX2                !
 ! A12   A(4,2,50)             111.5182         estimate D2E/DX2                !
 ! A13   A(2,3,54)             110.867          estimate D2E/DX2                !
 ! A14   A(2,3,55)             111.2496         estimate D2E/DX2                !
 ! A15   A(2,3,56)             110.8177         estimate D2E/DX2                !
 ! A16   A(54,3,55)            108.6337         estimate D2E/DX2                !
 ! A17   A(54,3,56)            107.7583         estimate D2E/DX2                !
 ! A18   A(55,3,56)            107.373          estimate D2E/DX2                !
 ! A19   A(2,4,5)              112.2679         estimate D2E/DX2                !
 ! A20   A(2,4,57)             110.1821         estimate D2E/DX2                !
 ! A21   A(2,4,58)             110.4423         estimate D2E/DX2                !
 ! A22   A(5,4,57)             108.7221         estimate D2E/DX2                !
 ! A23   A(5,4,58)             108.9379         estimate D2E/DX2                !
 ! A24   A(57,4,58)            106.0805         estimate D2E/DX2                !
 ! A25   A(4,5,6)              112.2622         estimate D2E/DX2                !
 ! A26   A(4,5,59)             108.9333         estimate D2E/DX2                !
 ! A27   A(4,5,60)             108.7102         estimate D2E/DX2                !
 ! A28   A(6,5,59)             110.4638         estimate D2E/DX2                !
 ! A29   A(6,5,60)             110.1889         estimate D2E/DX2                !
 ! A30   A(59,5,60)            106.0737         estimate D2E/DX2                !
 ! A31   A(5,6,7)              106.8108         estimate D2E/DX2                !
 ! A32   A(5,6,8)              110.0333         estimate D2E/DX2                !
 ! A33   A(5,6,9)              111.5465         estimate D2E/DX2                !
 ! A34   A(7,6,8)              108.6846         estimate D2E/DX2                !
 ! A35   A(7,6,9)              110.7137         estimate D2E/DX2                !
 ! A36   A(8,6,9)              108.9995         estimate D2E/DX2                !
 ! A37   A(6,7,61)             110.5606         estimate D2E/DX2                !
 ! A38   A(6,7,62)             112.2879         estimate D2E/DX2                !
 ! A39   A(6,7,63)             110.4574         estimate D2E/DX2                !
 ! A40   A(61,7,62)            106.733          estimate D2E/DX2                !
 ! A41   A(61,7,63)            108.2634         estimate D2E/DX2                !
 ! A42   A(62,7,63)            108.3795         estimate D2E/DX2                !
 ! A43   A(6,8,64)             111.2338         estimate D2E/DX2                !
 ! A44   A(6,8,65)             110.8564         estimate D2E/DX2                !
 ! A45   A(6,8,66)             110.8623         estimate D2E/DX2                !
 ! A46   A(64,8,65)            108.6381         estimate D2E/DX2                !
 ! A47   A(64,8,66)            107.3873         estimate D2E/DX2                !
 ! A48   A(65,8,66)            107.7209         estimate D2E/DX2                !
 ! A49   A(6,9,10)             118.8444         estimate D2E/DX2                !
 ! A50   A(6,9,50)             122.4514         estimate D2E/DX2                !
 ! A51   A(10,9,50)            118.6052         estimate D2E/DX2                !
 ! A52   A(9,10,11)            121.6257         estimate D2E/DX2                !
 ! A53   A(9,10,67)            120.1761         estimate D2E/DX2                !
 ! A54   A(11,10,67)           118.1902         estimate D2E/DX2                !
 ! A55   A(10,11,12)           120.5524         estimate D2E/DX2                !
 ! A56   A(10,11,48)           119.171          estimate D2E/DX2                !
 ! A57   A(12,11,48)           120.2741         estimate D2E/DX2                !
 ! A58   A(11,12,13)           119.5189         estimate D2E/DX2                !
 ! A59   A(11,12,46)           121.0279         estimate D2E/DX2                !
 ! A60   A(13,12,46)           119.4529         estimate D2E/DX2                !
 ! A61   A(12,13,14)           120.7643         estimate D2E/DX2                !
 ! A62   A(12,13,68)           119.4933         estimate D2E/DX2                !
 ! A63   A(14,13,68)           119.7142         estimate D2E/DX2                !
 ! A64   A(13,14,15)           119.9538         estimate D2E/DX2                !
 ! A65   A(13,14,19)           120.05           estimate D2E/DX2                !
 ! A66   A(15,14,19)           119.9925         estimate D2E/DX2                !
 ! A67   A(14,15,16)           120.3028         estimate D2E/DX2                !
 ! A68   A(14,15,69)           120.6932         estimate D2E/DX2                !
 ! A69   A(16,15,69)           119.0032         estimate D2E/DX2                !
 ! A70   A(15,16,17)           120.1313         estimate D2E/DX2                !
 ! A71   A(15,16,70)           119.9409         estimate D2E/DX2                !
 ! A72   A(17,16,70)           119.9262         estimate D2E/DX2                !
 ! A73   A(16,17,18)           120.2725         estimate D2E/DX2                !
 ! A74   A(16,17,71)           119.8401         estimate D2E/DX2                !
 ! A75   A(18,17,71)           119.8873         estimate D2E/DX2                !
 ! A76   A(17,18,19)           120.5577         estimate D2E/DX2                !
 ! A77   A(17,18,72)           118.0036         estimate D2E/DX2                !
 ! A78   A(19,18,72)           121.4379         estimate D2E/DX2                !
 ! A79   A(14,19,18)           118.7289         estimate D2E/DX2                !
 ! A80   A(14,19,20)           119.327          estimate D2E/DX2                !
 ! A81   A(18,19,20)           121.9416         estimate D2E/DX2                !
 ! A82   A(19,20,21)           121.835          estimate D2E/DX2                !
 ! A83   A(19,20,46)           119.6717         estimate D2E/DX2                !
 ! A84   A(21,20,46)           118.4872         estimate D2E/DX2                !
 ! A85   A(20,21,22)           118.5017         estimate D2E/DX2                !
 ! A86   A(20,21,45)           121.8173         estimate D2E/DX2                !
 ! A87   A(22,21,45)           119.676          estimate D2E/DX2                !
 ! A88   A(21,22,23)           119.3552         estimate D2E/DX2                !
 ! A89   A(21,22,24)           120.6615         estimate D2E/DX2                !
 ! A90   A(23,22,24)           119.9799         estimate D2E/DX2                !
 ! A91   A(22,23,99)           107.2639         estimate D2E/DX2                !
 ! A92   A(22,24,25)           121.0551         estimate D2E/DX2                !
 ! A93   A(22,24,39)           119.4477         estimate D2E/DX2                !
 ! A94   A(25,24,39)           119.4971         estimate D2E/DX2                !
 ! A95   A(24,25,26)           120.5096         estimate D2E/DX2                !
 ! A96   A(24,25,30)           120.3204         estimate D2E/DX2                !
 ! A97   A(26,25,30)           119.1535         estimate D2E/DX2                !
 ! A98   A(25,26,27)           120.4006         estimate D2E/DX2                !
 ! A99   A(25,26,73)           120.4768         estimate D2E/DX2                !
 ! A100  A(27,26,73)           119.1215         estimate D2E/DX2                !
 ! A101  A(26,27,28)           121.388          estimate D2E/DX2                !
 ! A102  A(26,27,74)           117.5603         estimate D2E/DX2                !
 ! A103  A(28,27,74)           121.0503         estimate D2E/DX2                !
 ! A104  A(27,28,29)           118.5192         estimate D2E/DX2                !
 ! A105  A(27,28,36)           118.9133         estimate D2E/DX2                !
 ! A106  A(29,28,36)           122.4667         estimate D2E/DX2                !
 ! A107  A(28,29,30)           118.6043         estimate D2E/DX2                !
 ! A108  A(28,29,31)           122.4152         estimate D2E/DX2                !
 ! A109  A(30,29,31)           118.8827         estimate D2E/DX2                !
 ! A110  A(25,30,29)           121.6218         estimate D2E/DX2                !
 ! A111  A(25,30,75)           118.1369         estimate D2E/DX2                !
 ! A112  A(29,30,75)           120.2343         estimate D2E/DX2                !
 ! A113  A(29,31,32)           110.7468         estimate D2E/DX2                !
 ! A114  A(29,31,33)           108.9824         estimate D2E/DX2                !
 ! A115  A(29,31,34)           111.553          estimate D2E/DX2                !
 ! A116  A(32,31,33)           108.6919         estimate D2E/DX2                !
 ! A117  A(32,31,34)           106.7771         estimate D2E/DX2                !
 ! A118  A(33,31,34)           110.0376         estimate D2E/DX2                !
 ! A119  A(31,32,76)           110.5719         estimate D2E/DX2                !
 ! A120  A(31,32,77)           112.2856         estimate D2E/DX2                !
 ! A121  A(31,32,78)           110.4535         estimate D2E/DX2                !
 ! A122  A(76,32,77)           106.7103         estimate D2E/DX2                !
 ! A123  A(76,32,78)           108.2577         estimate D2E/DX2                !
 ! A124  A(77,32,78)           108.4024         estimate D2E/DX2                !
 ! A125  A(31,33,79)           110.8564         estimate D2E/DX2                !
 ! A126  A(31,33,80)           111.229          estimate D2E/DX2                !
 ! A127  A(31,33,81)           110.8735         estimate D2E/DX2                !
 ! A128  A(79,33,80)           107.3782         estimate D2E/DX2                !
 ! A129  A(79,33,81)           107.7312         estimate D2E/DX2                !
 ! A130  A(80,33,81)           108.63           estimate D2E/DX2                !
 ! A131  A(31,34,35)           112.269          estimate D2E/DX2                !
 ! A132  A(31,34,82)           110.1898         estimate D2E/DX2                !
 ! A133  A(31,34,83)           110.4571         estimate D2E/DX2                !
 ! A134  A(35,34,82)           108.7148         estimate D2E/DX2                !
 ! A135  A(35,34,83)           108.9358         estimate D2E/DX2                !
 ! A136  A(82,34,83)           106.065          estimate D2E/DX2                !
 ! A137  A(34,35,36)           112.2563         estimate D2E/DX2                !
 ! A138  A(34,35,84)           108.6985         estimate D2E/DX2                !
 ! A139  A(34,35,85)           108.947          estimate D2E/DX2                !
 ! A140  A(36,35,84)           110.1837         estimate D2E/DX2                !
 ! A141  A(36,35,85)           110.4654         estimate D2E/DX2                !
 ! A142  A(84,35,85)           106.0821         estimate D2E/DX2                !
 ! A143  A(28,36,35)           111.5421         estimate D2E/DX2                !
 ! A144  A(28,36,37)           110.7326         estimate D2E/DX2                !
 ! A145  A(28,36,38)           109.0012         estimate D2E/DX2                !
 ! A146  A(35,36,37)           106.8086         estimate D2E/DX2                !
 ! A147  A(35,36,38)           110.0368         estimate D2E/DX2                !
 ! A148  A(37,36,38)           108.6666         estimate D2E/DX2                !
 ! A149  A(36,37,86)           112.245          estimate D2E/DX2                !
 ! A150  A(36,37,87)           110.5631         estimate D2E/DX2                !
 ! A151  A(36,37,88)           110.4675         estimate D2E/DX2                !
 ! A152  A(86,37,87)           106.7556         estimate D2E/DX2                !
 ! A153  A(86,37,88)           108.404          estimate D2E/DX2                !
 ! A154  A(87,37,88)           108.2478         estimate D2E/DX2                !
 ! A155  A(36,38,89)           111.2491         estimate D2E/DX2                !
 ! A156  A(36,38,90)           110.8625         estimate D2E/DX2                !
 ! A157  A(36,38,91)           110.8372         estimate D2E/DX2                !
 ! A158  A(89,38,90)           108.6273         estimate D2E/DX2                !
 ! A159  A(89,38,91)           107.3809         estimate D2E/DX2                !
 ! A160  A(90,38,91)           107.7416         estimate D2E/DX2                !
 ! A161  A(24,39,40)           120.7724         estimate D2E/DX2                !
 ! A162  A(24,39,92)           119.5071         estimate D2E/DX2                !
 ! A163  A(40,39,92)           119.6971         estimate D2E/DX2                !
 ! A164  A(39,40,41)           119.9475         estimate D2E/DX2                !
 ! A165  A(39,40,45)           120.0545         estimate D2E/DX2                !
 ! A166  A(41,40,45)           119.9953         estimate D2E/DX2                !
 ! A167  A(40,41,42)           120.3063         estimate D2E/DX2                !
 ! A168  A(40,41,93)           120.6809         estimate D2E/DX2                !
 ! A169  A(42,41,93)           119.0121         estimate D2E/DX2                !
 ! A170  A(41,42,43)           120.1279         estimate D2E/DX2                !
 ! A171  A(41,42,94)           119.948          estimate D2E/DX2                !
 ! A172  A(43,42,94)           119.9228         estimate D2E/DX2                !
 ! A173  A(42,43,44)           120.2697         estimate D2E/DX2                !
 ! A174  A(42,43,95)           119.8427         estimate D2E/DX2                !
 ! A175  A(44,43,95)           119.8874         estimate D2E/DX2                !
 ! A176  A(43,44,45)           120.5626         estimate D2E/DX2                !
 ! A177  A(43,44,96)           118.0022         estimate D2E/DX2                !
 ! A178  A(45,44,96)           121.4346         estimate D2E/DX2                !
 ! A179  A(21,45,40)           119.3264         estimate D2E/DX2                !
 ! A180  A(21,45,44)           121.9471         estimate D2E/DX2                !
 ! A181  A(40,45,44)           118.7243         estimate D2E/DX2                !
 ! A182  A(12,46,20)           120.6668         estimate D2E/DX2                !
 ! A183  A(12,46,47)           119.9888         estimate D2E/DX2                !
 ! A184  A(20,46,47)           119.3414         estimate D2E/DX2                !
 ! A185  A(46,47,99)           109.4557         estimate D2E/DX2                !
 ! A186  A(11,48,49)           120.3993         estimate D2E/DX2                !
 ! A187  A(11,48,97)           120.414          estimate D2E/DX2                !
 ! A188  A(49,48,97)           119.186          estimate D2E/DX2                !
 ! A189  A(48,49,50)           121.3922         estimate D2E/DX2                !
 ! A190  A(48,49,98)           117.5457         estimate D2E/DX2                !
 ! A191  A(50,49,98)           121.0613         estimate D2E/DX2                !
 ! A192  A(2,50,9)             122.4431         estimate D2E/DX2                !
 ! A193  A(2,50,49)            118.9386         estimate D2E/DX2                !
 ! A194  A(9,50,49)            118.5255         estimate D2E/DX2                !
 ! A195  A(23,99,47)            99.9994         estimate D2E/DX2                !
 ! D1    D(51,1,2,3)          -171.6793         estimate D2E/DX2                !
 ! D2    D(51,1,2,4)            69.6249         estimate D2E/DX2                !
 ! D3    D(51,1,2,50)          -51.9947         estimate D2E/DX2                !
 ! D4    D(52,1,2,3)            68.5123         estimate D2E/DX2                !
 ! D5    D(52,1,2,4)           -50.1834         estimate D2E/DX2                !
 ! D6    D(52,1,2,50)         -171.803          estimate D2E/DX2                !
 ! D7    D(53,1,2,3)           -50.5405         estimate D2E/DX2                !
 ! D8    D(53,1,2,4)          -169.2363         estimate D2E/DX2                !
 ! D9    D(53,1,2,50)           69.1441         estimate D2E/DX2                !
 ! D10   D(1,2,3,54)           -63.1879         estimate D2E/DX2                !
 ! D11   D(1,2,3,55)           175.8061         estimate D2E/DX2                !
 ! D12   D(1,2,3,56)            56.4257         estimate D2E/DX2                !
 ! D13   D(4,2,3,54)            53.4234         estimate D2E/DX2                !
 ! D14   D(4,2,3,55)           -67.5826         estimate D2E/DX2                !
 ! D15   D(4,2,3,56)           173.0371         estimate D2E/DX2                !
 ! D16   D(50,2,3,54)          176.0063         estimate D2E/DX2                !
 ! D17   D(50,2,3,55)           55.0003         estimate D2E/DX2                !
 ! D18   D(50,2,3,56)          -64.38           estimate D2E/DX2                !
 ! D19   D(1,2,4,5)           -166.2713         estimate D2E/DX2                !
 ! D20   D(1,2,4,57)            72.3933         estimate D2E/DX2                !
 ! D21   D(1,2,4,58)           -44.4755         estimate D2E/DX2                !
 ! D22   D(3,2,4,5)             75.9516         estimate D2E/DX2                !
 ! D23   D(3,2,4,57)           -45.3838         estimate D2E/DX2                !
 ! D24   D(3,2,4,58)          -162.2526         estimate D2E/DX2                !
 ! D25   D(50,2,4,5)           -45.1189         estimate D2E/DX2                !
 ! D26   D(50,2,4,57)         -166.4543         estimate D2E/DX2                !
 ! D27   D(50,2,4,58)           76.6769         estimate D2E/DX2                !
 ! D28   D(1,2,50,9)           134.1471         estimate D2E/DX2                !
 ! D29   D(1,2,50,49)          -49.4078         estimate D2E/DX2                !
 ! D30   D(3,2,50,9)          -106.3551         estimate D2E/DX2                !
 ! D31   D(3,2,50,49)           70.0901         estimate D2E/DX2                !
 ! D32   D(4,2,50,9)            15.3501         estimate D2E/DX2                !
 ! D33   D(4,2,50,49)         -168.2047         estimate D2E/DX2                !
 ! D34   D(2,4,5,6)             62.1023         estimate D2E/DX2                !
 ! D35   D(2,4,5,59)           -60.568          estimate D2E/DX2                !
 ! D36   D(2,4,5,60)          -175.7325         estimate D2E/DX2                !
 ! D37   D(57,4,5,6)          -175.729          estimate D2E/DX2                !
 ! D38   D(57,4,5,59)           61.6007         estimate D2E/DX2                !
 ! D39   D(57,4,5,60)          -53.5638         estimate D2E/DX2                !
 ! D40   D(58,4,5,6)           -60.5477         estimate D2E/DX2                !
 ! D41   D(58,4,5,59)          176.782          estimate D2E/DX2                !
 ! D42   D(58,4,5,60)           61.6175         estimate D2E/DX2                !
 ! D43   D(4,5,6,7)           -166.067          estimate D2E/DX2                !
 ! D44   D(4,5,6,8)             76.1336         estimate D2E/DX2                !
 ! D45   D(4,5,6,9)            -44.9664         estimate D2E/DX2                !
 ! D46   D(59,5,6,7)           -44.2656         estimate D2E/DX2                !
 ! D47   D(59,5,6,8)          -162.065          estimate D2E/DX2                !
 ! D48   D(59,5,6,9)            76.8349         estimate D2E/DX2                !
 ! D49   D(60,5,6,7)            72.6119         estimate D2E/DX2                !
 ! D50   D(60,5,6,8)           -45.1875         estimate D2E/DX2                !
 ! D51   D(60,5,6,9)          -166.2876         estimate D2E/DX2                !
 ! D52   D(5,6,7,61)           -50.1934         estimate D2E/DX2                !
 ! D53   D(5,6,7,62)          -169.2762         estimate D2E/DX2                !
 ! D54   D(5,6,7,63)            69.6188         estimate D2E/DX2                !
 ! D55   D(8,6,7,61)            68.4883         estimate D2E/DX2                !
 ! D56   D(8,6,7,62)           -50.5945         estimate D2E/DX2                !
 ! D57   D(8,6,7,63)          -171.6995         estimate D2E/DX2                !
 ! D58   D(9,6,7,61)          -171.822          estimate D2E/DX2                !
 ! D59   D(9,6,7,62)            69.0953         estimate D2E/DX2                !
 ! D60   D(9,6,7,63)           -52.0097         estimate D2E/DX2                !
 ! D61   D(5,6,8,64)           -67.6277         estimate D2E/DX2                !
 ! D62   D(5,6,8,65)            53.366          estimate D2E/DX2                !
 ! D63   D(5,6,8,66)           172.9549         estimate D2E/DX2                !
 ! D64   D(7,6,8,64)           175.7391         estimate D2E/DX2                !
 ! D65   D(7,6,8,65)           -63.2673         estimate D2E/DX2                !
 ! D66   D(7,6,8,66)            56.3217         estimate D2E/DX2                !
 ! D67   D(9,6,8,64)            54.9866         estimate D2E/DX2                !
 ! D68   D(9,6,8,65)           175.9802         estimate D2E/DX2                !
 ! D69   D(9,6,8,66)           -64.4308         estimate D2E/DX2                !
 ! D70   D(5,6,9,10)          -168.465          estimate D2E/DX2                !
 ! D71   D(5,6,9,50)            15.2059         estimate D2E/DX2                !
 ! D72   D(7,6,9,10)           -49.666          estimate D2E/DX2                !
 ! D73   D(7,6,9,50)           134.0049         estimate D2E/DX2                !
 ! D74   D(8,6,9,10)            69.8346         estimate D2E/DX2                !
 ! D75   D(8,6,9,50)          -106.4945         estimate D2E/DX2                !
 ! D76   D(6,9,10,11)          178.4368         estimate D2E/DX2                !
 ! D77   D(6,9,10,67)           -2.6079         estimate D2E/DX2                !
 ! D78   D(50,9,10,11)          -5.0914         estimate D2E/DX2                !
 ! D79   D(50,9,10,67)         173.8639         estimate D2E/DX2                !
 ! D80   D(6,9,50,2)            -0.7856         estimate D2E/DX2                !
 ! D81   D(6,9,50,49)         -177.2448         estimate D2E/DX2                !
 ! D82   D(10,9,50,2)         -177.1231         estimate D2E/DX2                !
 ! D83   D(10,9,50,49)           6.4177         estimate D2E/DX2                !
 ! D84   D(9,10,11,12)        -179.2066         estimate D2E/DX2                !
 ! D85   D(9,10,11,48)           1.3742         estimate D2E/DX2                !
 ! D86   D(67,10,11,12)          1.818          estimate D2E/DX2                !
 ! D87   D(67,10,11,48)       -177.6012         estimate D2E/DX2                !
 ! D88   D(10,11,12,13)       -128.5503         estimate D2E/DX2                !
 ! D89   D(10,11,12,46)         51.2776         estimate D2E/DX2                !
 ! D90   D(48,11,12,13)         50.8625         estimate D2E/DX2                !
 ! D91   D(48,11,12,46)       -129.3097         estimate D2E/DX2                !
 ! D92   D(10,11,48,49)          0.956          estimate D2E/DX2                !
 ! D93   D(10,11,48,97)       -178.7582         estimate D2E/DX2                !
 ! D94   D(12,11,48,49)       -178.4649         estimate D2E/DX2                !
 ! D95   D(12,11,48,97)          1.8209         estimate D2E/DX2                !
 ! D96   D(11,12,13,14)        177.9182         estimate D2E/DX2                !
 ! D97   D(11,12,13,68)         -0.1468         estimate D2E/DX2                !
 ! D98   D(46,12,13,14)         -1.9124         estimate D2E/DX2                !
 ! D99   D(46,12,13,68)       -179.9774         estimate D2E/DX2                !
 ! D100  D(11,12,46,20)       -179.2533         estimate D2E/DX2                !
 ! D101  D(11,12,46,47)          1.3802         estimate D2E/DX2                !
 ! D102  D(13,12,46,20)          0.5747         estimate D2E/DX2                !
 ! D103  D(13,12,46,47)       -178.7918         estimate D2E/DX2                !
 ! D104  D(12,13,14,15)       -178.4364         estimate D2E/DX2                !
 ! D105  D(12,13,14,19)          0.8651         estimate D2E/DX2                !
 ! D106  D(68,13,14,15)         -0.3757         estimate D2E/DX2                !
 ! D107  D(68,13,14,19)        178.9259         estimate D2E/DX2                !
 ! D108  D(13,14,15,16)        178.6797         estimate D2E/DX2                !
 ! D109  D(13,14,15,69)         -0.9909         estimate D2E/DX2                !
 ! D110  D(19,14,15,16)         -0.6223         estimate D2E/DX2                !
 ! D111  D(19,14,15,69)        179.7071         estimate D2E/DX2                !
 ! D112  D(13,14,19,18)       -177.9251         estimate D2E/DX2                !
 ! D113  D(13,14,19,20)          1.5075         estimate D2E/DX2                !
 ! D114  D(15,14,19,18)          1.3762         estimate D2E/DX2                !
 ! D115  D(15,14,19,20)       -179.1912         estimate D2E/DX2                !
 ! D116  D(14,15,16,17)         -0.2889         estimate D2E/DX2                !
 ! D117  D(14,15,16,70)       -179.8245         estimate D2E/DX2                !
 ! D118  D(69,15,16,17)        179.3873         estimate D2E/DX2                !
 ! D119  D(69,15,16,70)         -0.1483         estimate D2E/DX2                !
 ! D120  D(15,16,17,18)          0.4233         estimate D2E/DX2                !
 ! D121  D(15,16,17,71)       -179.4268         estimate D2E/DX2                !
 ! D122  D(70,16,17,18)        179.959          estimate D2E/DX2                !
 ! D123  D(70,16,17,71)          0.1089         estimate D2E/DX2                !
 ! D124  D(16,17,18,19)          0.3602         estimate D2E/DX2                !
 ! D125  D(16,17,18,72)       -179.3189         estimate D2E/DX2                !
 ! D126  D(71,17,18,19)       -179.7898         estimate D2E/DX2                !
 ! D127  D(71,17,18,72)          0.531          estimate D2E/DX2                !
 ! D128  D(17,18,19,14)         -1.2502         estimate D2E/DX2                !
 ! D129  D(17,18,19,20)        179.3327         estimate D2E/DX2                !
 ! D130  D(72,18,19,14)        178.4177         estimate D2E/DX2                !
 ! D131  D(72,18,19,20)         -0.9993         estimate D2E/DX2                !
 ! D132  D(14,19,20,21)        178.0955         estimate D2E/DX2                !
 ! D133  D(14,19,20,46)         -2.8122         estimate D2E/DX2                !
 ! D134  D(18,19,20,21)         -2.4908         estimate D2E/DX2                !
 ! D135  D(18,19,20,46)        176.6015         estimate D2E/DX2                !
 ! D136  D(19,20,21,22)        111.178          estimate D2E/DX2                !
 ! D137  D(19,20,21,45)        -69.6384         estimate D2E/DX2                !
 ! D138  D(46,20,21,22)        -67.9248         estimate D2E/DX2                !
 ! D139  D(46,20,21,45)        111.2589         estimate D2E/DX2                !
 ! D140  D(19,20,46,12)          1.7881         estimate D2E/DX2                !
 ! D141  D(19,20,46,47)       -178.8413         estimate D2E/DX2                !
 ! D142  D(21,20,46,12)       -179.0892         estimate D2E/DX2                !
 ! D143  D(21,20,46,47)          0.2814         estimate D2E/DX2                !
 ! D144  D(20,21,22,23)          0.4219         estimate D2E/DX2                !
 ! D145  D(20,21,22,24)       -178.9103         estimate D2E/DX2                !
 ! D146  D(45,21,22,23)       -178.7797         estimate D2E/DX2                !
 ! D147  D(45,21,22,24)          1.888          estimate D2E/DX2                !
 ! D148  D(20,21,45,40)        178.0822         estimate D2E/DX2                !
 ! D149  D(20,21,45,44)         -2.4587         estimate D2E/DX2                !
 ! D150  D(22,21,45,40)         -2.7435         estimate D2E/DX2                !
 ! D151  D(22,21,45,44)        176.7156         estimate D2E/DX2                !
 ! D152  D(21,22,23,99)         78.0396         estimate D2E/DX2                !
 ! D153  D(24,22,23,99)       -102.6235         estimate D2E/DX2                !
 ! D154  D(21,22,24,25)       -179.8129         estimate D2E/DX2                !
 ! D155  D(21,22,24,39)          0.3348         estimate D2E/DX2                !
 ! D156  D(23,22,24,25)          0.859          estimate D2E/DX2                !
 ! D157  D(23,22,24,39)       -178.9933         estimate D2E/DX2                !
 ! D158  D(22,23,99,47)        -48.436          estimate D2E/DX2                !
 ! D159  D(22,24,25,26)         51.8452         estimate D2E/DX2                !
 ! D160  D(22,24,25,30)       -129.6419         estimate D2E/DX2                !
 ! D161  D(39,24,25,26)       -128.3025         estimate D2E/DX2                !
 ! D162  D(39,24,25,30)         50.2103         estimate D2E/DX2                !
 ! D163  D(22,24,39,40)         -1.7007         estimate D2E/DX2                !
 ! D164  D(22,24,39,92)       -179.9361         estimate D2E/DX2                !
 ! D165  D(25,24,39,40)        178.4446         estimate D2E/DX2                !
 ! D166  D(25,24,39,92)          0.2093         estimate D2E/DX2                !
 ! D167  D(24,25,26,27)       -179.1351         estimate D2E/DX2                !
 ! D168  D(24,25,26,73)          1.2435         estimate D2E/DX2                !
 ! D169  D(30,25,26,27)          2.3348         estimate D2E/DX2                !
 ! D170  D(30,25,26,73)       -177.2866         estimate D2E/DX2                !
 ! D171  D(24,25,30,29)       -178.6323         estimate D2E/DX2                !
 ! D172  D(24,25,30,75)          2.3314         estimate D2E/DX2                !
 ! D173  D(26,25,30,29)         -0.0994         estimate D2E/DX2                !
 ! D174  D(26,25,30,75)       -179.1357         estimate D2E/DX2                !
 ! D175  D(25,26,27,28)          0.0739         estimate D2E/DX2                !
 ! D176  D(25,26,27,74)       -179.4946         estimate D2E/DX2                !
 ! D177  D(73,26,27,28)        179.7004         estimate D2E/DX2                !
 ! D178  D(73,26,27,74)          0.1318         estimate D2E/DX2                !
 ! D179  D(26,27,28,29)         -4.6239         estimate D2E/DX2                !
 ! D180  D(26,27,28,36)        178.9351         estimate D2E/DX2                !
 ! D181  D(74,27,28,29)        174.9297         estimate D2E/DX2                !
 ! D182  D(74,27,28,36)         -1.5114         estimate D2E/DX2                !
 ! D183  D(27,28,29,30)          6.6657         estimate D2E/DX2                !
 ! D184  D(27,28,29,31)       -176.9736         estimate D2E/DX2                !
 ! D185  D(36,28,29,30)       -177.0269         estimate D2E/DX2                !
 ! D186  D(36,28,29,31)         -0.6662         estimate D2E/DX2                !
 ! D187  D(27,28,36,35)       -168.5003         estimate D2E/DX2                !
 ! D188  D(27,28,36,37)        -49.6944         estimate D2E/DX2                !
 ! D189  D(27,28,36,38)         69.7966         estimate D2E/DX2                !
 ! D190  D(29,28,36,35)         15.2063         estimate D2E/DX2                !
 ! D191  D(29,28,36,37)        134.0121         estimate D2E/DX2                !
 ! D192  D(29,28,36,38)       -106.4968         estimate D2E/DX2                !
 ! D193  D(28,29,30,25)         -4.4344         estimate D2E/DX2                !
 ! D194  D(28,29,30,75)        174.582          estimate D2E/DX2                !
 ! D195  D(31,29,30,25)        179.0741         estimate D2E/DX2                !
 ! D196  D(31,29,30,75)         -1.9095         estimate D2E/DX2                !
 ! D197  D(28,29,31,32)        133.9672         estimate D2E/DX2                !
 ! D198  D(28,29,31,33)       -106.5138         estimate D2E/DX2                !
 ! D199  D(28,29,31,34)         15.1845         estimate D2E/DX2                !
 ! D200  D(30,29,31,32)        -49.6819         estimate D2E/DX2                !
 ! D201  D(30,29,31,33)         69.8372         estimate D2E/DX2                !
 ! D202  D(30,29,31,34)       -168.4645         estimate D2E/DX2                !
 ! D203  D(29,31,32,76)       -171.7284         estimate D2E/DX2                !
 ! D204  D(29,31,32,77)         69.2115         estimate D2E/DX2                !
 ! D205  D(29,31,32,78)        -51.9185         estimate D2E/DX2                !
 ! D206  D(33,31,32,76)         68.5782         estimate D2E/DX2                !
 ! D207  D(33,31,32,77)        -50.4819         estimate D2E/DX2                !
 ! D208  D(33,31,32,78)       -171.6119         estimate D2E/DX2                !
 ! D209  D(34,31,32,76)        -50.0938         estimate D2E/DX2                !
 ! D210  D(34,31,32,77)       -169.1539         estimate D2E/DX2                !
 ! D211  D(34,31,32,78)         69.7162         estimate D2E/DX2                !
 ! D212  D(29,31,33,79)        -64.4185         estimate D2E/DX2                !
 ! D213  D(29,31,33,80)         54.9805         estimate D2E/DX2                !
 ! D214  D(29,31,33,81)        175.9722         estimate D2E/DX2                !
 ! D215  D(32,31,33,79)         56.3685         estimate D2E/DX2                !
 ! D216  D(32,31,33,80)        175.7674         estimate D2E/DX2                !
 ! D217  D(32,31,33,81)        -63.2408         estimate D2E/DX2                !
 ! D218  D(34,31,33,79)        172.9677         estimate D2E/DX2                !
 ! D219  D(34,31,33,80)        -67.6334         estimate D2E/DX2                !
 ! D220  D(34,31,33,81)         53.3584         estimate D2E/DX2                !
 ! D221  D(29,31,34,35)        -45.0141         estimate D2E/DX2                !
 ! D222  D(29,31,34,82)       -166.3463         estimate D2E/DX2                !
 ! D223  D(29,31,34,83)         76.7904         estimate D2E/DX2                !
 ! D224  D(32,31,34,35)       -166.1373         estimate D2E/DX2                !
 ! D225  D(32,31,34,82)         72.5304         estimate D2E/DX2                !
 ! D226  D(32,31,34,83)        -44.3329         estimate D2E/DX2                !
 ! D227  D(33,31,34,35)         76.0716         estimate D2E/DX2                !
 ! D228  D(33,31,34,82)        -45.2606         estimate D2E/DX2                !
 ! D229  D(33,31,34,83)       -162.124          estimate D2E/DX2                !
 ! D230  D(31,34,35,36)         62.0991         estimate D2E/DX2                !
 ! D231  D(31,34,35,84)       -175.7543         estimate D2E/DX2                !
 ! D232  D(31,34,35,85)        -60.5789         estimate D2E/DX2                !
 ! D233  D(82,34,35,36)       -175.7269         estimate D2E/DX2                !
 ! D234  D(82,34,35,84)        -53.5803         estimate D2E/DX2                !
 ! D235  D(82,34,35,85)         61.5951         estimate D2E/DX2                !
 ! D236  D(83,34,35,36)        -60.569          estimate D2E/DX2                !
 ! D237  D(83,34,35,84)         61.5776         estimate D2E/DX2                !
 ! D238  D(83,34,35,85)        176.7531         estimate D2E/DX2                !
 ! D239  D(34,35,36,28)        -45.0268         estimate D2E/DX2                !
 ! D240  D(34,35,36,37)       -166.1465         estimate D2E/DX2                !
 ! D241  D(34,35,36,38)         76.075          estimate D2E/DX2                !
 ! D242  D(84,35,36,28)       -166.3252         estimate D2E/DX2                !
 ! D243  D(84,35,36,37)         72.555          estimate D2E/DX2                !
 ! D244  D(84,35,36,38)        -45.2235         estimate D2E/DX2                !
 ! D245  D(85,35,36,28)         76.7891         estimate D2E/DX2                !
 ! D246  D(85,35,36,37)        -44.3306         estimate D2E/DX2                !
 ! D247  D(85,35,36,38)       -162.1092         estimate D2E/DX2                !
 ! D248  D(28,36,37,86)         68.979          estimate D2E/DX2                !
 ! D249  D(28,36,37,87)       -171.9362         estimate D2E/DX2                !
 ! D250  D(28,36,37,88)        -52.1352         estimate D2E/DX2                !
 ! D251  D(35,36,37,86)       -169.388          estimate D2E/DX2                !
 ! D252  D(35,36,37,87)        -50.3032         estimate D2E/DX2                !
 ! D253  D(35,36,37,88)         69.4977         estimate D2E/DX2                !
 ! D254  D(38,36,37,86)        -50.713          estimate D2E/DX2                !
 ! D255  D(38,36,37,87)         68.3718         estimate D2E/DX2                !
 ! D256  D(38,36,37,88)       -171.8272         estimate D2E/DX2                !
 ! D257  D(28,36,38,89)         54.9972         estimate D2E/DX2                !
 ! D258  D(28,36,38,90)        175.9918         estimate D2E/DX2                !
 ! D259  D(28,36,38,91)        -64.4056         estimate D2E/DX2                !
 ! D260  D(35,36,38,89)        -67.6149         estimate D2E/DX2                !
 ! D261  D(35,36,38,90)         53.3796         estimate D2E/DX2                !
 ! D262  D(35,36,38,91)        172.9822         estimate D2E/DX2                !
 ! D263  D(37,36,38,89)        175.763          estimate D2E/DX2                !
 ! D264  D(37,36,38,90)        -63.2425         estimate D2E/DX2                !
 ! D265  D(37,36,38,91)         56.3602         estimate D2E/DX2                !
 ! D266  D(24,39,40,41)       -178.5757         estimate D2E/DX2                !
 ! D267  D(24,39,40,45)          0.8213         estimate D2E/DX2                !
 ! D268  D(92,39,40,41)         -0.3437         estimate D2E/DX2                !
 ! D269  D(92,39,40,45)        179.0534         estimate D2E/DX2                !
 ! D270  D(39,40,41,42)        178.8372         estimate D2E/DX2                !
 ! D271  D(39,40,41,93)         -0.8548         estimate D2E/DX2                !
 ! D272  D(45,40,41,42)         -0.5602         estimate D2E/DX2                !
 ! D273  D(45,40,41,93)        179.7478         estimate D2E/DX2                !
 ! D274  D(39,40,45,21)          1.4106         estimate D2E/DX2                !
 ! D275  D(39,40,45,44)       -178.0661         estimate D2E/DX2                !
 ! D276  D(41,40,45,21)       -179.1927         estimate D2E/DX2                !
 ! D277  D(41,40,45,44)          1.3307         estimate D2E/DX2                !
 ! D278  D(40,41,42,43)         -0.3185         estimate D2E/DX2                !
 ! D279  D(40,41,42,94)       -179.9097         estimate D2E/DX2                !
 ! D280  D(93,41,42,43)        179.3785         estimate D2E/DX2                !
 ! D281  D(93,41,42,94)         -0.2126         estimate D2E/DX2                !
 ! D282  D(41,42,43,44)          0.4043         estimate D2E/DX2                !
 ! D283  D(41,42,43,95)       -179.4754         estimate D2E/DX2                !
 ! D284  D(94,42,43,44)        179.9955         estimate D2E/DX2                !
 ! D285  D(94,42,43,95)          0.1158         estimate D2E/DX2                !
 ! D286  D(42,43,44,45)          0.3953         estimate D2E/DX2                !
 ! D287  D(42,43,44,96)       -179.3162         estimate D2E/DX2                !
 ! D288  D(95,43,44,45)       -179.725          estimate D2E/DX2                !
 ! D289  D(95,43,44,96)          0.5635         estimate D2E/DX2                !
 ! D290  D(43,44,45,21)        179.2848         estimate D2E/DX2                !
 ! D291  D(43,44,45,40)         -1.2529         estimate D2E/DX2                !
 ! D292  D(96,44,45,21)         -1.0138         estimate D2E/DX2                !
 ! D293  D(96,44,45,40)        178.4485         estimate D2E/DX2                !
 ! D294  D(12,46,47,99)       -104.7117         estimate D2E/DX2                !
 ! D295  D(20,46,47,99)         75.9133         estimate D2E/DX2                !
 ! D296  D(46,47,99,23)        -44.0799         estimate D2E/DX2                !
 ! D297  D(11,48,49,50)          0.5653         estimate D2E/DX2                !
 ! D298  D(11,48,49,98)       -179.1079         estimate D2E/DX2                !
 ! D299  D(97,48,49,50)       -179.7171         estimate D2E/DX2                !
 ! D300  D(97,48,49,98)          0.6097         estimate D2E/DX2                !
 ! D301  D(48,49,50,2)         179.1214         estimate D2E/DX2                !
 ! D302  D(48,49,50,9)          -4.293          estimate D2E/DX2                !
 ! D303  D(98,49,50,2)          -1.2169         estimate D2E/DX2                !
 ! D304  D(98,49,50,9)         175.3687         estimate D2E/DX2                !
 --------------------------------------------------------------------------------
 Trust Radius=3.00D-01 FncErr=1.00D-07 GrdErr=1.00D-06 EigMax=2.50D+02 EigMin=1.00D-04
 Number of steps in this run=    594 maximum allowed number of steps=    594.
 GradGradGradGradGradGradGradGradGradGradGradGradGradGradGradGradGradGrad

 Leave Link  103 at Tue Dec 10 11:49:10 2024, MaxMem= 13421772800 cpu:               0.4 elap:               0.0
 (Enter /public/software/apps/Gaussian/g16/l202.exe)
 Symmetry turned off by external request.
 Stoichiometry    C48H48CuO2(2)
 Framework group  C1[X(C48H48CuO2)]
 Deg. of freedom   291
 Full point group                 C1      NOp   1
                          Input orientation:                          
 ---------------------------------------------------------------------
 Center     Atomic      Atomic             Coordinates (Angstroms)
 Number     Number       Type             X           Y           Z
 ---------------------------------------------------------------------
      1          6           0       -8.391715    2.667927    0.238436
      2          6           0       -7.072771    2.991455    0.984086
      3          6           0       -7.343070    2.955279    2.505633
      4          6           0       -6.653416    4.418786    0.552601
      5          6           0       -5.215476    4.740391    0.941073
      6          6           0       -4.196633    3.799936    0.250361
      7          6           0       -2.844926    3.986887    0.984591
      8          6           0       -4.017089    4.209077   -1.229516
      9          6           0       -4.650472    2.333263    0.312345
     10          6           0       -3.732947    1.319950   -0.046109
     11          6           0       -4.074187   -0.036183    0.019906
     12          6           0       -3.086889   -1.080504   -0.345286
     13          6           0       -3.441944   -2.074038   -1.267671
     14          6           0       -2.516453   -3.047093   -1.663935
     15          6           0       -2.880264   -4.015169   -2.614048
     16          6           0       -1.955202   -4.971440   -3.034589
     17          6           0       -0.660154   -4.967565   -2.517381
     18          6           0       -0.283332   -4.013316   -1.569701
     19          6           0       -1.207721   -3.046660   -1.117642
     20          6           0       -0.860810   -2.073381   -0.146526
     21          6           0        0.482815   -2.047308    0.493954
     22          6           0        1.351919   -0.983092    0.188551
     23          8           0        0.930286    0.012382   -0.690394
     24          6           0        2.640786   -0.925344    0.750312
     25          6           0        3.562095    0.193981    0.437797
     26          6           0        3.143778    1.517701    0.582936
     27          6           0        4.004124    2.566175    0.271964
     28          6           0        5.314654    2.327798   -0.197310
     29          6           0        5.783597    0.980561   -0.254764
     30          6           0        4.873776   -0.065139    0.022726
     31          6           0        7.214973    0.624243   -0.685542
     32          6           0        7.837895   -0.411908    0.283461
     33          6           0        7.175570    0.013714   -2.105205
     34          6           0        8.140524    1.866237   -0.667409
     35          6           0        7.484345    3.084723   -1.304997
     36          6           0        6.208153    3.527707   -0.547085
     37          6           0        5.458539    4.518281   -1.472712
     38          6           0        6.594757    4.264090    0.755927
     39          6           0        3.061163   -1.943861    1.616607
     40          6           0        2.201925   -2.996050    1.955456
     41          6           0        2.630695   -3.991441    2.848501
     42          6           0        1.772087   -5.030249    3.210175
     43          6           0        0.478850   -5.082288    2.691085
     44          6           0        0.037723   -4.101060    1.800397
     45          6           0        0.895052   -3.050290    1.407619
     46          6           0       -1.797037   -1.087722    0.217272
     47          8           0       -1.440505   -0.120123    1.154342
     48          6           0       -5.361264   -0.394893    0.422645
     49          6           0       -6.299747    0.583947    0.735353
     50          6           0       -5.987300    1.958433    0.644874
     51          1           0       -8.201627    2.538209   -0.849091
     52          1           0       -9.125951    3.492893    0.367688
     53          1           0       -8.876013    1.746554    0.621944
     54          1           0       -8.072959    3.741148    2.796829
     55          1           0       -6.408148    3.107780    3.084016
     56          1           0       -7.764104    1.972714    2.808645
     57          1           0       -7.326192    5.173485    1.017182
     58          1           0       -6.766089    4.540936   -0.546226
     59          1           0       -5.117301    4.675130    2.046062
     60          1           0       -5.002178    5.799527    0.674844
     61          1           0       -2.591176    5.066337    1.066730
     62          1           0       -2.004015    3.500990    0.448236
     63          1           0       -2.898168    3.562450    2.010710
     64          1           0       -4.941382    4.019509   -1.813953
     65          1           0       -3.758505    5.286543   -1.313527
     66          1           0       -3.198719    3.626884   -1.704470
     67          1           0       -2.744588    1.581368   -0.397749
     68          1           0       -4.435750   -2.068885   -1.701924
     69          1           0       -3.878609   -4.028936   -3.035374
     70          1           0       -2.241023   -5.713117   -3.769274
     71          1           0        0.056368   -5.705803   -2.853822
     72          1           0        0.733682   -4.037132   -1.201470
     73          1           0        2.147834    1.742621    0.944715
     74          1           0        3.635720    3.572780    0.409285
     75          1           0        5.176100   -1.096213   -0.098011
     76          1           0        8.917511   -0.556323    0.059761
     77          1           0        7.358452   -1.408628    0.198513
     78          1           0        7.743509   -0.065595    1.335600
     79          1           0        6.618739   -0.947658   -2.107018
     80          1           0        6.666908    0.692769   -2.820727
     81          1           0        8.202742   -0.189409   -2.477523
     82          1           0        9.087999    1.647041   -1.208165
     83          1           0        8.432471    2.117894    0.374934
     84          1           0        8.223793    3.915792   -1.330264
     85          1           0        7.245712    2.852639   -2.365282
     86          1           0        4.629811    5.037376   -0.948914
     87          1           0        6.149443    5.307822   -1.840924
     88          1           0        5.038128    3.985414   -2.353063
     89          1           0        7.068629    3.572612    1.483301
     90          1           0        7.300574    5.096380    0.545682
     91          1           0        5.696880    4.697337    1.246337
     92          1           0        4.054112   -1.899772    2.051006
     93          1           0        3.628373   -3.963116    3.270591
     94          1           0        2.108092   -5.793597    3.900098
     95          1           0       -0.186160   -5.885486    2.981377
     96          1           0       -0.975996   -4.170866    1.429072
     97          1           0       -5.640749   -1.438716    0.500156
     98          1           0       -7.277605    0.254409    1.056110
     99         29           0       -0.264470    1.205200    0.310396
 ---------------------------------------------------------------------
 Rotational constants (GHZ):           0.0709930           0.0323305           0.0250190
 Leave Link  202 at Tue Dec 10 11:49:10 2024, MaxMem= 13421772800 cpu:               1.1 elap:               0.1
 (Enter /public/software/apps/Gaussian/g16/l301.exe)
 Standard basis: def2SVPP (5D, 7F)
 Ernie: Thresh=  0.10000D-02 Tol=  0.10000D-05 Strict=F.
   820 basis functions,  1513 primitive gaussians,   872 cartesian basis functions
   191 alpha electrons      190 beta electrons
       nuclear repulsion energy      7170.2984584774 Hartrees.
[...]
 0000825,0.00001813,0.00000206,0.00000667,0.00000018,0.00000929,-0.0000
 0273,0.00000843,-0.00000352,0.00000677,-0.00000767,0.00000624,-0.00000
 689,-0.00001242,-0.00020478,-0.00007115,0.00002013,-0.00002036,-0.0000
 1398,0.02571800,0.00186761,-0.01574924,0.01424134,-0.05897793,-0.00828
 748,-0.02197116,0.00628576,0.01325520,0.00004384,0.00014659,-0.0001167
 2,0.00007852,0.00026878,-0.00023015,0.00143828,-0.00146277,0.00025480,
 0.00006846,0.00009314,-0.00007014,0.00010461,0.00011443,0.00005271,-0.
 00018558,-0.00041375,-0.00057279,0.00004566,0.00001433,-0.00002284,-0.
 00000459,0.00003646,-0.00002892,0.00000229,-0.00002061,-0.00001228,0.0
 0006219,-0.00004291,-0.00002663,-0.00012288,0.00000778,-0.00001885,-0.
 00000346,0.00000474,0.00001445,0.00001484,0.00001569,-0.00001990,0.000
 02427,0.00001167,0.00002453,-0.00000194,-0.00003877,0.00008604,0.00001
 098,-0.00000096,-0.00000983,0.00000858,0.00005561,-0.00001049,0.000003
 20,0.00002851,-0.00005218,-0.00000292,0.00000211,-0.00000152,0.0000018
 5,-0.00000374,-0.00000405,-0.00000058,-0.00000050,0.00000009,0.0000005
 2,0.00000242,0.00000242,0.,-0.00000376,-0.00000117,0.00000107,0.000003
 05,0.00000159,-0.00000160,-0.00000049,0.00000083,0.00000105,0.00000015
 ,-0.00000028,-0.00000046,0.00000066,0.00000052,-0.00000050,-0.00000009
 ,-0.00000015,-0.00000020,0.00000040,0.00000051,-0.00000020,0.00000024,
 0.00000012,0.00000084,-0.00000001,-0.00000067,0.00000074,0.00000035,-0
 .00000040,-0.00000023,0.00000010,0.00000011,0.00000054,0.00000065,-0.0
 0000010,-0.00000004,-0.00000034,-0.00000027,0.00000030,0.00000042,0.00
 000083,-0.00000058,0.00000091,-0.00000026,0.00000054,-0.00000071,-0.00
 000070,-0.00000031,-0.00000034,-0.00000038,0.00000042,0.00000089,0.000
 00058,0.00000012,-0.00000024,-0.00000015,0.00000263,-0.00000116,0.0000
 0223,0.00000225,0.00000004,0.00000060,0.00000101,-0.00000154,0.0000007
 1,-0.00000068,-0.00000463,0.00000044,-0.00000078,-0.00000144,-0.000002
 73,-0.00061614,0.00111112,0.00000279,-0.01827327,0.06170192,0.00051769
 ,-0.00004730,-0.00016285,-0.00091101,-0.00074406,-0.00288222,-0.000046
 68,-0.00030922,-0.00001475,-0.00030378,0.00017995,0.00001249,0.0000350
 3,-0.00016915,-0.00003344,0.00016537,-0.00029650,-0.00010694,0.0001487
 1,0.00021288,0.00001907,0.00010683,0.00002656,0.00007804,0.00312862,0.
 00143173,0.00446349,-0.00064295,0.00019306,-0.00031690,0.00263390,-0.0
 0089620,0.00555260,0.00010466,0.00010558,-0.00026457,0.00010777,0.0001
 5216,0.00004259,0.00004143,-0.00011036,-0.00002227,0.00001544,0.000047
 82,0.00006562,0.00006331,-0.00002758,-0.00000248,-0.00002877,-0.000034
 67,-0.00003542,-0.00001966,0.00003093,0.00001893,-0.00002482,-0.000037
 98,-0.00006011,0.00002698,-0.00001471,0.00004646,-0.00001442,-0.000014
 57,-0.00003837,0.00000366,0.00001205,-0.00000640,0.00001112,-0.0000198
 6,-0.00002199,-0.00000327,0.00000086,0.00000502,0.00000173,-0.00000047
 ,0.00000097,-0.00000442,-0.00000013,0.00000324,0.00000272,0.00000089,-
 0.00000015,0.00000006,-0.00000311,-0.00000027,-0.00000154,0.00000195,0
 .00000145,0.00000093,0.00000100,-0.00000075,-0.00000285,-0.00000034,0.
 00000036,0.00000081,0.00000022,-0.00000115,0.00000153,-0.00000040,0.00
 000036,-0.00000045,-0.00000103,-0.00000085,-0.00000082,-0.00000004,0.0
 0000156,-0.00000142,-0.00000156,0.00000047,0.00000009,0.00000080,0.000
 00077,-0.00000004,0.00000091,-0.00000090,0.00000281,0.00000251,-0.0000
 0153,-0.00000225,0.00000037,0.00000264,0.00000007,-0.00000023,-0.00000
 299,-0.00000259,-0.00000060,-0.00000085,0.00000417,0.00000050,0.000001
 55,-0.00000305,-0.00000079,-0.00000360,-0.00000253,0.00001086,0.000016
 33,-0.00002483,-0.00010719,0.00012099,0.00001276,0.00003255,-0.0001539
 7,0.00618741,0.00116572,0.00089297,0.13055232,-0.00801292,-0.11700410,
 0.00753651,-0.00175079,-0.00022766,0.00001959,0.00015142,-0.00009188,-
 0.00030943,-0.00040160,0.00013400,-0.00069048,0.00001464,0.00086055,0.
 00011022,0.00019594,-0.00010492,-0.00004211,-0.00011086,0.00002464,-0.
 00008462,-0.00060380,-0.00031452,0.00002125,0.00008294,0.00001519,0.00
 002219,0.00001748,-0.00002345,-0.00000468,-0.00000327,-0.00001460,-0.0
 0003551,0.00002590,0.00001001,0.00010717,0.00002108,0.00001771,-0.0000
 4301,-0.00002113,-0.00003219,-0.00004221,0.00001953,-0.00000461,-0.000
 01173,0.00000251,-0.00000442,0.00001830,-0.00001650,-0.00004192,-0.000
 01081,-0.00001220,-0.00000755,-0.00036535,-0.00001467,-0.00058162,0.00
 002173,0.00001324,-0.00002327,-0.00000570,0.00000097,-0.00000072,0.000
 00263,-0.00000352,-0.00000565,0.00000124,-0.00000199,-0.00000209,0.000
 00355,-0.00000193,0.,0.00000289,0.00000070,-0.00000298,-0.00000212,-0.
 00000175,-0.00000077,-0.00000065,-0.00000086,0.,0.00000190,-0.00000009
 ,-0.00000050,-0.00000065,0.00000076,0.00000059,-0.00000080,-0.00000008
 ,-0.00000011,-0.00000042,0.00000083,0.00000061,-0.00000060,-0.00000009
 ,0.00000050,0.00000179,-0.00000024,-0.00000119,0.00000166,0.00000001,-
 0.00000090,-0.00000040,0.00000011,0.00000048,0.00000119,0.00000140,-0.
 00000003,-0.00000037,-0.00000048,-0.00000005,0.00000008,-0.00000177,-0
 .00000149,0.00000158,0.00000176,-0.00000039,-0.00000087,-0.00000040,0.
 00000135,-0.00000003,-0.00000060,0.00000015,0.00000100,0.00000185,0.00
 000025,0.00000010,-0.00000080,-0.00000082,0.00000150,-0.00000030,0.000
 00005,0.00000154,0.00000040,0.00000016,0.00000097,-0.00000102,0.000001
 13,-0.00000088,-0.00000036,0.00000047,0.00000130,0.00000319,-0.0000019
 2,-0.00240451,-0.00036387,-0.00282811,-0.14570388,0.00997013,0.1129837
 5,-0.00001235,-0.00015828,-0.00009044,0.00002851,0.00031836,-0.0000214
 2,0.00011713,-0.00013200,0.00003008,0.00005543,0.00009007,-0.00007574,
 -0.00021770,-0.00004485,0.00007592,0.00018478,0.00179916,-0.00039475,-
 0.00253445,0.00006464,-0.00001177,-0.00038300,-0.00008435,-0.00007190,
 -0.00207356,0.00403048,0.00056820,-0.00169599,0.00127634,0.00208961,-0
 .00220546,-0.00445883,-0.00006651,0.00219730,-0.00129720,0.00226188,0.
 00073405,-0.00313713,-0.00255385,-0.00132919,0.00229024,0.00086917,0.0
 0113039,-0.00211346,-0.00136309,-0.00185214,0.00045474,-0.00031338,0.0
 0024476,0.00082737,0.00060469,-0.00048618,-0.00052399,-0.00049652,0.00
 046347,-0.00012043,0.00061219,-0.00649566,0.00468517,0.00049837,-0.004
 94230,-0.00980546,0.00456445,-0.01261738,0.02922715,-0.01497132,-0.033
 82386,0.01506110,0.03388258,0.00662238,-0.00076383,0.00377542,0.000419
 47,0.00067370,-0.00013547,-0.00340569,-0.00021329,0.00156306,0.0006190
 6,-0.00072319,-0.00004242,0.00017393,-0.00005047,-0.00015192,0.0000604
 0,0.00021261,0.00001424,-0.00001323,-0.00049186,0.00012161,-0.00014541
 ,-0.00006013,-0.00001902,0.00007245,0.00005914,-0.00006070,0.00013395,
 0.00000518,0.00002435,-0.00001237,-0.00005465,-0.00002332,-0.00000961,
 0.00006428,0.00004432,0.00003736,-0.00018357,-0.00005496,0.00002208,0.
 00004172,0.00001048,-0.00002196,0.00003771,-0.00001925,0.00061714,0.00
 530384,-0.00245077,-0.00023054,-0.00370313,0.00155669,0.00063853,0.003
 82671,-0.00175700,-0.00234514,-0.00145662,-0.00015662,0.00048502,-0.00
 096786,0.00073273,-0.00072326,-0.00014363,-0.00040720,-0.00116271,0.00
 146254,-0.00063664,0.00090409,-0.01483580,-0.00876454,-0.01013594,-0.0
 2125187,0.02556577,-0.00020353,-0.00018910,-0.00017914,0.00007648,-0.0
 0032723,-0.00012706,0.00039307,0.00087890,-0.00052550,-0.00003517,0.00
 003364,-0.00001294,0.00007471,-0.00008964,-0.00000361,-0.00004443,0.00
 002964,0.00002615,0.00001655,-0.00009920,-0.00007574,-0.00000541,0.000
 00620,0.00002661,-0.00001908,0.00001375,0.00005927,0.00000041,-0.00009
 745,-0.00000862,-0.00001310,0.00002299,0.00001545,0.00004239,-0.000013
 06,-0.00004259,0.00000009,-0.00012029,0.00000321,0.00074395,-0.0010145
 3,-0.00015097,0.00233372,-0.00074875,-0.00041624,0.00041507,0.00218034
 ,0.00059623,0.00002897,-0.00002237,-0.00012061,-0.00005331,-0.00015264
 ,0.00012818,0.00007524,-0.00001342,-0.00012467,-0.00148065,-0.00067281
 ,-0.00704453,-0.00006144,-0.00009255,-0.00015186,-0.00010028,-0.000032
 87,-0.00004140,-0.00001780,-0.00003749,0.00000205,0.00008540,-0.000084
 35,-0.00003976,0.00010852,-0.00021784,-0.00013181,0.00046372,-0.000855
 47,-0.00227704,-0.00000012,-0.00003318,0.00010012,0.00017525,-0.000034
 11,-0.00013782,0.00005643,-0.00002894,-0.00000129,-0.00001776,-0.00000
 105,-0.00000696,-0.00001693,0.00001587,0.00000508,-0.00001600,0.000011
 78,0.00001459,-0.00001198,-0.00000304,0.00002187,0.00004191,-0.0000152
 7,-0.00006384,0.00004194,0.00001185,-0.00002113,-0.00001024,0.00000584
 ,0.00001379,0.00004847,0.00002984,-0.00001437,-0.00000481,-0.00001336,
 -0.00000289,0.00000618,-0.00004400,-0.00000801,0.00003521,0.00004451,-
 0.00001785,-0.00000243,-0.00002003,0.00001701,-0.00000163,-0.00001187,
 -0.00000690,0.00003544,0.00004476,0.00000530,0.00000235,-0.00002710,-0
 .00001877,-0.00001034,-0.00003768,0.00002297,-0.00006953,0.00000333,-0
 .00005137,-0.00000915,0.00000022,-0.00002050,0.00007706,0.00008698,-0.
 00000079,0.00011246,0.00025186,-0.00015420,0.00026961,0.00004801,-0.00
 019603,0.00009354,0.00004685,0.00004420,0.06926432,-0.00002035,-0.0002
 1417,-0.00001044,-0.00001113,0.00041899,-0.00013608,0.00013640,-0.0001
 9129,0.00005123,0.00016825,0.00023939,0.00003760,-0.00065954,-0.000240
 04,-0.00010246,0.00292347,0.00066519,0.00006306,0.00271175,-0.00581536
 ,0.00255693,-0.00114863,0.00003477,0.00000356,0.00096570,0.00160090,0.
 00000950,0.00024518,-0.00045680,0.00191419,-0.00175665,-0.00020951,-0.
 00107619,0.00364301,0.00293656,0.00526565,0.00087397,-0.00395916,-0.00
 210935,0.00107491,0.00279911,0.00269003,0.00064176,-0.00322581,-0.0027
 5356,-0.00231051,0.00163970,0.00054819,0.00030861,0.00066638,0.0008896
 3,-0.00071642,0.00107025,0.00007790,-0.00281885,-0.00384549,-0.0036486
 5,0.00032404,0.00577191,0.00805504,0.00291157,0.00937621,-0.00586313,0
 .01645920,-0.03348938,0.01595747,0.01896029,0.00117354,-0.02485668,-0.
 00717837,0.00205905,-0.00450275,0.00059610,0.00084023,0.00015609,0.000
 35285,-0.00041282,0.00040998,0.00001836,0.00028852,-0.00005357,-0.0000
 3021,-0.00010508,0.00002651,-0.00004287,0.00005138,0.00002675,-0.00006
 624,0.00000403,-0.00022314,0.00001539,0.00000195,0.00003117,-0.0000043
 2,-0.00000884,-0.00000834,-0.00000459,0.00000227,0.00000265,0.00000191
 ,0.00000290,-0.00001449,-0.00000543,-0.00000925,0.00002097,-0.00001112
 ,0.00003614,0.00000186,-0.00000205,0.00001062,0.00002369,0.00000657,-0
 .00000020,-0.00001357,-0.00097384,-0.00537775,0.00178311,-0.00132043,0
 .00347884,-0.00240463,-0.00061047,-0.00460233,0.00241786,0.00259145,0.
 00194138,-0.00003610,-0.00030024,0.00090464,-0.00085104,0.00119589,0.0
 0128520,0.00044829,0.00307300,-0.00405373,0.00220165,-0.01429760,-0.04
 016834,-0.02358407,-0.01997870,-0.03110707,0.04492996,-0.00047156,-0.0
 0030163,0.00031240,0.00021885,-0.00048221,-0.00009551,0.00023720,0.000
 01189,-0.00047299,-0.00001973,0.00004310,-0.00001734,0.00007846,-0.000
 07892,-0.00001151,-0.00011044,-0.00000735,0.00004901,0.00001380,-0.000
 08200,-0.00008194,-0.00003279,0.00006397,-0.00005013,-0.00009627,-0.00
 001676,0.00009413,-0.00018130,-0.00005128,0.00003669,-0.00006386,-0.00
 001056,-0.00001992,0.00007192,0.00008797,-0.00010623,-0.00005816,-0.00
 022256,0.00000360,-0.00093744,0.00190831,-0.00099920,-0.00241062,-0.00
 179788,0.00822958,0.00118220,-0.00258960,-0.00768446,-0.00015498,0.000
 07895,-0.00039285,-0.00001613,-0.00020204,0.00025548,0.00009143,0.0000
 3376,-0.00010162,-0.00001153,0.00130406,-0.00160331,0.00010574,0.00019
 460,0.00032539,0.00002371,-0.00002113,-0.00004423,-0.00004819,0.000047
 32,-0.00000675,0.00002012,0.00004177,0.00006626,-0.00005460,0.00016065
 ,0.00004980,0.00045084,0.00035937,-0.00021452,0.00000583,-0.00005712,0
 .00000074,0.00001333,-0.00000092,0.00003591,0.00000527,0.00000289,-0.0
 0000184,0.00000087,0.00000253,0.00001044,-0.00000414,-0.00000401,-0.00
 000549,0.00000521,-0.00000886,0.00000657,0.00000164,0.00001128,-0.0000
 0097,0.00000182,-0.00000103,-0.00000288,0.00000925,-0.00000328,-0.0000
 0214,-0.00000317,-0.00000360,-0.00000069,0.00000171,0.00000327,-0.0000
 0129,-0.00000294,0.00000169,-0.00000308,0.00000024,-0.00001653,-0.0000
 2916,0.00001151,0.00000602,-0.00000387,-0.00000926,0.00000617,0.000012
 28,0.00000614,-0.00000539,0.00000352,-0.00000002,0.00000727,0.00000494
 ,-0.00000074,0.00000358,-0.00000606,-0.00005675,0.00017276,-0.00013636
 ,0.00005519,0.00000667,0.00008817,0.00001748,0.00001117,0.00005277,-0.
 00007750,-0.00009792,-0.00001506,-0.00013972,-0.00013147,0.00016131,0.
 00000162,0.00001910,-0.00004204,0.00005228,-0.00005143,0.00002725,-0.0
 0365286,0.09984773,0.00000684,-0.00009808,-0.00009742,0.00002221,0.000
 21162,0.00005839,0.00017575,-0.00005748,0.00005309,-0.00001195,-0.0001
 2490,-0.00016580,0.00048994,0.00011439,0.00031544,0.00063970,0.0007425
 0,-0.00170431,-0.00684563,0.00494673,0.01130627,-0.00069349,0.00023281
 ,0.00005991,0.00014711,0.00085295,-0.00030535,-0.00401074,0.00136613,0
 .00469026,0.00102452,-0.00150087,0.00015301,-0.00317613,-0.00197407,-0
 .00275543,-0.00114414,0.00204272,0.00082445,0.00026070,-0.00146084,-0.
 00081360,-0.00068361,0.00138859,0.00084771,0.00093752,-0.00040153,0.00
 000310,-0.00007895,-0.00025136,-0.00029232,0.00048940,-0.00019836,0.00
 009118,0.00045939,0.00095830,0.00058215,0.00320343,-0.00497696,-0.0027
 8854,0.00209316,0.00391494,-0.00025780,-0.00108343,-0.00630295,0.00595
 073,0.02591308,-0.01385103,-0.01943131,-0.00278601,0.00100340,-0.00214
 018,0.00054928,0.00041568,-0.00016575,-0.00181103,0.00012692,0.0009696
 8,0.00054283,-0.00021107,-0.00034651,0.00002184,0.00009523,-0.00007075
 ,0.00000471,0.00008204,0.00004391,-0.00002479,-0.00017414,-0.00014786,
 -0.00008642,-0.00001438,0.00003560,0.00004177,0.00001408,-0.00004209,0
 .00007703,-0.00000894,0.00002156,-0.00000867,-0.00003724,-0.00002910,-
 0.00001389,0.00005605,0.00004667,0.00002898,-0.00014436,0.00001789,0.0
 0004138,0.00004436,0.00004365,-0.00001380,0.00006009,-0.00002937,-0.00
 060614,-0.00192347,0.00057330,0.00034345,0.00118262,-0.00037750,-0.000
 35102,-0.00112873,0.00039350,0.00070442,0.00029651,0.00012328,-0.00011
 596,0.00027555,-0.00021126,0.00033747,-0.00004311,0.00010776,0.0000469
 8,-0.00007799,-0.00009167,-0.00039863,0.00843030,0.01270996,0.01377228
 ,0.02408917,-0.02947467,-0.00042826,0.00005714,-0.00061061,0.00028136,
 -0.00024363,-0.00018294,0.00008806,0.00015048,-0.00052409,-0.00003892,
 0.00002335,-0.00002909,0.00004587,-0.00006199,0.00000401,-0.00002019,0
 .00002776,0.00002475,-0.00002568,-0.00005966,-0.00007762,-0.00006685,-
 0.00003385,0.00001602,0.00001269,0.00001397,0.00003099,0.00007239,-0.0
 0007639,-0.00000703,-0.00003291,0.00002521,-0.00001420,0.00000980,-0.0
 0003141,-0.00013522,-0.00003644,-0.00005227,-0.00003814,0.00070227,-0.
 00116881,-0.00182133,0.00302204,0.00053067,-0.00648635,-0.00001236,0.0
 0021299,-0.00423365,0.00005478,-0.00009894,-0.00025444,-0.00003145,-0.
 00009362,0.00007805,0.00000004,-0.00010985,-0.00026787,0.00040494,-0.0
 0055828,-0.00469364,-0.00005816,-0.00012109,-0.00010150,0.00002244,-0.
 00001251,0.00000185,-0.00000908,0.00000447,0.00003527,-0.00005059,0.00
 003781,0.00001889,-0.00010478,0.00013547,0.00012019,0.00072671,-0.0004
 2679,-0.00067711,-0.00003219,0.00000751,0.00008894,0.00007246,-0.00002
 936,-0.00000706,0.00004695,-0.00000607,-0.00000695,-0.00001627,0.00001
 741,0.00001837,-0.00002375,-0.00000189,-0.00001470,-0.00000404,-0.0000
 0161,0.00002665,-0.00000670,0.00002399,0.00000343,0.00003006,-0.000007
 76,-0.00004602,0.00003673,0.00001322,-0.00001577,-0.00001545,-0.000000
 07,-0.00000201,0.00003702,0.00002777,-0.00001212,-0.00000334,-0.000012
 68,-0.00002203,0.00000782,-0.00002508,0.00000773,0.00001166,0.00004178
 ,-0.00002453,0.00000395,-0.00002585,-0.00002235,-0.00001728,-0.0000082
 8,-0.00001191,0.00003389,0.00004311,0.00001055,0.00000832,-0.00003120,
 -0.00001403,-0.00007263,0.00011479,0.00000872,0.00003006,0.00001417,0.
 00001645,-0.00000173,-0.00001702,0.00002023,-0.00003896,-0.00005501,0.
 00002311,-0.00007514,-0.00014492,0.00008349,0.00017795,0.00003375,-0.0
 0008008,0.00011270,0.00000230,0.00006054,-0.03326053,-0.01602505,0.041
 45228\\-0.00000083,0.00000050,0.00000032,0.00000003,0.00000019,0.00000
 165,-0.00000221,-0.00000094,-0.00000198,0.00000106,0.00000186,0.000000
 24,-0.00000496,0.00000044,-0.00000074,0.00000271,-0.00000452,0.0000015
 2,0.00000139,0.00000244,-0.00000432,0.00000019,0.00000144,-0.00000112,
 -0.00000356,-0.00000103,0.00000669,-0.00000248,-0.00001215,-0.00000433
 ,0.00000585,0.00001645,-0.00000480,0.00000236,-0.00000727,0.00000542,-
 0.00000035,0.00000004,-0.00000431,0.00000008,-0.00000236,-0.00000064,-
 0.00000039,0.00000099,0.00000029,-0.00000007,-0.00000098,0.00000054,-0
 .00000003,0.00000089,0.00000119,0.00000219,-0.00000174,-0.00000108,-0.
 00000109,0.00000366,0.00000456,-0.00000436,0.00000106,-0.00000120,0.00
 000089,-0.00000273,0.00000467,0.00000236,0.00000062,-0.00000176,-0.000
 00156,0.00000657,0.00000766,-0.00000321,0.00000388,-0.00000232,0.00000
 031,-0.00000072,0.00000047,-0.00000267,-0.00000252,0.00000032,-0.00000
 140,0.00000005,0.00000076,0.00000089,0.00000007,-0.00000226,-0.0000009
 3,0.00000024,-0.00000113,-0.00000047,0.00000059,-0.00000031,-0.0000000
 7,-0.00000093,0.00000030,-0.00000027,0.00000069,-0.00000046,-0.0000003
 3,-0.00000109,0.00000004,-0.00000107,0.00000199,-0.00000060,0.00000183
 ,-0.00000144,0.00000043,-0.00000087,0.00000008,0.00000032,0.00000146,0
 .,0.00000080,-0.00000080,0.00000077,0.00000013,-0.00000337,-0.00000327
 ,0.00000235,-0.00000104,0.00000183,-0.00000085,0.,-0.00000080,0.000001
 50,0.00000218,0.00000133,0.00000086,-0.00000259,0.00000160,-0.00000152
 ,-0.00000084,-0.00000454,0.00000347,0.00000166,0.00000509,-0.00000256,
 0.00000601,0.00001238,0.00000310,-0.00001114,-0.00000751,-0.00000266,-
 0.00000262,0.00000007,0.00000618,-0.00000246,-0.00000757,0.00000233,0.
 00000868,0.00000334,-0.00000427,0.00000017,-0.00000044,-0.00000053,0.0
 0000022,0.00000018,-0.00000062,-0.00000022,0.00000061,-0.00000046,0.00
 000027,0.00000061,-0.00000052,-0.00000042,0.00000017,0.00000016,0.0000
 0023,0.00000129,0.00000033,0.00000041,0.00000108,-0.00000123,0.0000002
 3,-0.00000006,-0.00000060,0.00000082,-0.00000086,-0.00000138,0.0000006
 6,0.00000063,-0.00000051,-0.00000041,-0.00000036,-0.00000108,0.0000000
 7,0.00000086,0.00000070,-0.00000070,-0.00000136,0.00000169,0.00000015,
 0.00000018,-0.00000039,0.00000027,0.,-0.00000118,0.00000028,-0.0000004
 9,0.00000057,0.00000134,0.00000039,0.00000256,0.00000064,0.00000140,0.
 00000078,0.00000047,-0.00000051,0.00000122,0.00000088,0.00000015,0.000
 00105,-0.00000079,0.,0.00000058,-0.00000088,-0.00000066,-0.00000053,-0
 .00000060,-0.00000035,-0.00000057,-0.00000005,-0.00000175,-0.00000023,
 0.00000042,-0.00000037,0.00000040,-0.00000004,-0.00000043,0.00000012,-
 0.00000021,-0.00000048,0.00000041,0.00000027,-0.00000005,0.00000050,0.
 00000028,-0.00000004,0.00000002,0.00000024,-0.00000039,-0.00000020,0.0
 0000012,-0.00000021,0.00000008,0.00000038,0.00000022,-0.00000005,0.000
 00019,-0.00000035,-0.00000035,0.00000081,0.,-0.00000082,-0.00000028,-0
 .00000011,-0.00000010,0.00000043,0.00000065,-0.00000085,-0.00000006,-0
 .00000018,-0.00000053,-0.00000030,-0.00000025,-0.00000054,-0.00000029,
 0.00000042,-0.00000012,0.00000023,0.00000004,-0.00000041,0.00000004,0.
 00000025,-0.00000042,-0.00000033,0.00000120,-0.00000075,-0.00000054,0.
 00000006,0.00000010,-0.00000100,0.00000053,0.00000005,0.00000099,0.000
 00064,0.00000115,0.00000029,0.00000096,0.00000066,0.00000047,-0.000000
 73,-0.00000118,0.00000060,-0.00000022,-0.00000126,0.00001025,-0.000008
 92,-0.00000860\\\@
 The archive entry for this job was punched.


 TRUTH, IN SCIENCE, CAN BE DEFINED AS THE WORKING HYPOTHESIS 
 BEST FITTED TO OPEN THE WAY TO THE NEXT BETTER ONE.

                              -- KONRAD LORENZ
 Job cpu time:       2 days  9 hours 43 minutes 16.6 seconds.
 Elapsed time:       0 days  1 hours 48 minutes 35.3 seconds.
 File lengths (MBytes):  RWF=  14506 Int=      0 D2E=      0 Chk=     81 Scr=      1
 Normal termination of Gaussian 16 at Tue Dec 10 15:15:21 2024.
