 Entering Gaussian System, Link 0=g16
 Initial command:
 /public/software/apps/Gaussian/g16/l1.exe "/tmp/Gau-56924.inp" -scrdir="/tmp/"
 Entering Link 1 = /public/software/apps/Gaussian/g16/l1.exe PID=     56925.
  
 Copyright (c) 1988-2019, Gaussian, Inc.  All Rights Reserved.
  
 This is part of the Gaussian(R) 16 program.  It is based on
 the Gaussian(R) 09 system (copyright 2009, Gaussian, Inc.),
 the Gaussian(R) 03 system (copyright 2003, Gaussian, Inc.),
 the Gaussian(R) 98 system (copyright 1998, Gaussian, Inc.),
 the Gaussian(R) 94 system (copyright 1995, Gaussian, Inc.),
 the Gaussian 92(TM) system (copyright 1992, Gaussian, Inc.),
 the Gaussian 90(TM) system (copyright 1990, Gaussian, Inc.),
 the Gaussian 88(TM) system (copyright 1988, Gaussian, Inc.),
 the Gaussian 86(TM) system (copyright 1986, Carnegie Mellon
 University), and the Gaussian 82(TM) system (copyright 1983,
 Carnegie Mellon University). Gaussian is a federally registered
 trademark of Gaussian, Inc.
  
 This software contains proprietary and confidential information,
 including trade secrets, belonging to Gaussian, Inc.
  
 This software is provided under written license and may be
 used, copied, transmitted, or stored only in accord with that
 written license.
  
 The following legend is applicable only to US Government
 contracts under FAR:
  
                    RESTRICTED RIGHTS LEGEND
  
 Use, reproduction and disclosure by the US Government is
 subject to restrictions as set forth in subparagraphs (a)
 and (c) of the Commercial Computer Software - Restricted
 Rights clause in FAR 52.227-19.
  
 Gaussian, Inc.
 340 Quinnipiac St., Bldg. 40, Wallingford CT 06492
  
  
 ---------------------------------------------------------------
 Warning -- This program may not be used in any manner that
 competes with the business of Gaussian, Inc. or will provide
 assistance to any competitor of Gaussian, Inc.  The licensee
 of this program is prohibited from giving any competitor of
 Gaussian, Inc. access to this program.  By using this program,
 the user acknowledges that Gaussian, Inc. is engaged in the
 business of creating and licensing software in the field of
 computational chemistry and represents and warrants to the
 licensee that it is not a competitor of Gaussian, Inc. and that
 it will not use this program in any manner prohibited above.
 ---------------------------------------------------------------
  

 Cite this work as:
 Gaussian 16, Revision C.01,
 M. J. Frisch, G. W. Trucks, H. B. Schlegel, G. E. Scuseria, 
 M. A. Robb, J. R. Cheeseman, G. Scalmani, V. Barone, 
 G. A. Petersson, H. Nakatsuji, X. Li, M. Caricato, A. V. Marenich, 
 J. Bloino, B. G. Janesko, R. Gomperts, B. Mennucci, H. P. Hratchian, 
 J. V. Ortiz, A. F. Izmaylov, J. L. Sonnenberg, D. Williams-Young, 
 F. Ding, F. Lipparini, F. Egidi, J. Goings, B. Peng, A. Petrone, 
 T. Henderson, D. Ranasinghe, V. G. Zakrzewski, J. Gao, N. Rega, 
 G. Zheng, W. Liang, M. Hada, M. Ehara, K. Toyota, R. Fukuda, 
 J. Hasegawa, M. Ishida, T. Nakajima, Y. Honda, O. Kitao, H. Nakai, 
 T. Vreven, K. Throssell, J. A. Montgomery, Jr., J. E. Peralta, 
 F. Ogliaro, M. J. Bearpark, J. J. Heyd, E. N. Brothers, K. N. Kudin, 
 V. N. Staroverov, T. A. Keith, R. Kobayashi, J. Normand, 
 K. Raghavachari, A. P. Rendell, J. C. Burant, S. S. Iyengar, 
 J. Tomasi, M. Cossi, J. M. Millam, M. Klene, C. Adamo, R. Cammi, 
 J. W. Ochterski, R. L. Martin, K. Morokuma, O. Farkas, 
 J. B. Foresman, and D. J. Fox, Gaussian, Inc., Wallingford CT, 2019.
 
 ******************************************
 Gaussian 16:  ES64L-G16RevC.01  3-Jul-2019
                11-Dec-2024 
 ******************************************
 %nprocshared=32
 Will use up to   32 processors via shared memory.
 %mem=100GB
 ------------------------------------------
 #p opt freq b3lyp nosymm def2svpp em=gd3bj
 ------------------------------------------
 1/18=20,19=15,26=3,38=1/1,3;
 2/9=110,12=2,15=1,17=6,18=5,40=1/2;
 3/5=43,7=202,11=2,25=1,30=1,71=1,74=-5,124=41/1,2,3;
 4//1;
 5/5=2,38=5/2;
 6/7=2,8=2,9=2,10=2,28=1/1;
 7/30=1/1,2,3,16;
 1/18=20,19=15,26=3/3(2);
 2/9=110,15=1/2;
 99//99;
 2/9=110,15=1/2;
 3/5=43,7=202,11=2,25=1,30=1,71=1,74=-5,124=41/1,2,3;
 4/5=5,16=3,69=1/1;
 5/5=2,38=5/2;
 7/30=1/1,2,3,16;
 1/18=20,19=15,26=3/3(-5);
 2/9=110,15=1/2;
 6/7=2,8=2,9=2,10=2,19=2,28=1/1;
 99/9=1/99;
 Leave Link    1 at Wed Dec 11 18:38:41 2024, MaxMem= 13421772800 cpu:               1.9 elap:               0.1
 (Enter /public/software/apps/Gaussian/g16/l101.exe)
 ------------------
 $$$$Title####0????
 ------------------
 Symbolic Z-matrix:
 Charge =  0 Multiplicity = 2
 C                    -5.41773  -1.43844  -1.82404 
 C                    -6.16836  -0.37068  -1.01522 
 C                    -6.99645  -0.99488   0.11816 
 C                    -7.03238   0.48645  -1.91409 
 C                    -8.11705   0.0898   -2.70355 
 C                    -8.78605   1.06048  -3.46733 
 C                    -8.37014   2.40565  -3.43422 
 C                    -7.28099   2.79173  -2.6375 
 C                    -6.62978   1.81042  -1.88961 
 C                    -5.49754   1.92748  -0.99643 
 C                    -4.75724   3.05266  -0.63936 
 C                    -3.69696   2.89324   0.26555 
 C                    -3.38689   1.61859   0.79743 
 C                    -2.27008   1.46362   1.75963 
 C                    -2.19279   2.31413   2.87082 
 C                    -1.15017   2.18938   3.79706 
 C                    -1.08334   3.05771   4.89862 
 C                    -0.04075   2.94756   5.81931 
 C                     0.94498   1.9759    5.64842 
 C                     0.89279   1.10441   4.5583 
 C                    -0.1606    1.18864   3.62218 
 C                    -0.24665   0.31344   2.51055 
 C                     0.75293  -0.76599   2.2861 
 C                     1.6676   -0.62666   1.22566 
 O                     1.57642   0.48163   0.38605 
 C                     2.65132  -1.60603   0.99329 
 C                     3.641    -1.45132  -0.09923 
 C                     3.86287  -2.50935  -1.01324 
 C                     4.80071  -2.37645  -2.04837 
 C                     5.51077  -1.18129  -2.14805 
 C                     5.3141   -0.14049  -1.25985 
 C                     4.38265  -0.25678  -0.2242 
 C                     6.209     1.0369   -1.57879 
 C                     5.38061   2.27873  -1.94032 
 C                     7.18096   1.31947  -0.42414 
 C                     6.94083   0.4982   -2.78831 
 C                     7.92391   1.13191  -3.55579 
 C                     8.4767    0.44247  -4.64756 
 C                     8.04703  -0.86231  -4.95798 
 C                     7.06058  -1.48844  -4.17975 
 C                     6.52447  -0.78403  -3.10125 
 C                     2.69445  -2.74592   1.80743 
 C                     1.77332  -2.91846   2.8479 
 C                     1.82467  -4.07285   3.64581 
 C                     0.90279  -4.25798   4.67673 
 C                    -0.07932  -3.29789   4.91839 
 C                    -0.1437   -2.14372   4.1344 
 C                     0.7869   -1.92992   3.09439 
 C                    -1.28457   0.47613   1.57415 
 O                    -1.31672  -0.33524   0.4419 
 C                    -4.16227   0.50056   0.4212 
 C                    -5.21521   0.67623  -0.48146 
 H                    -6.13473  -2.15437  -2.27939 
 H                    -4.82519  -0.96743  -2.63811 
 H                    -4.72478  -2.00601  -1.16677 
 H                    -6.33756  -1.55427   0.81632 
 H                    -7.52987  -0.20665   0.69311 
 H                    -7.74857  -1.70121  -0.29506 
 H                    -8.4381   -0.9435   -2.72673 
 H                    -9.62682   0.77322  -4.08485 
 H                    -8.89267   3.14606  -4.02604 
 H                    -6.95849   3.82423  -2.60703 
 H                    -4.99095   4.02718  -1.04669 
 H                    -3.11102   3.75972   0.54566 
 H                    -2.95435   3.07243   3.01744 
 H                    -1.83615   3.82339   5.04608 
 H                     0.00572   3.62102   6.66528 
 H                     1.75463   1.89839   6.36278 
 H                     1.68151   0.37092   4.45578 
 H                     3.29897  -3.43024  -0.93032 
 H                     4.96513  -3.18461  -2.74917 
 H                     4.24847   0.55774   0.47621 
 H                     4.6838    2.05437  -2.77704 
 H                     4.78388   2.61436  -1.06532 
 H                     6.04707   3.11176  -2.25041 
 H                     7.7691    0.40934  -0.17612 
 H                     7.88727   2.13047  -0.70177 
 H                     6.62309   1.63629   0.48277 
 H                     8.25504   2.13352  -3.31481 
 H                     9.23852   0.91653  -5.25259 
 H                     8.48007  -1.38523  -5.80075 
 H                     6.72758  -2.49056  -4.41471 
 H                     3.45467  -3.49944   1.63183 
 H                     2.57547  -4.83401   3.46952 
 H                     0.94738  -5.15061   5.28738 
 H                    -0.79564  -3.4492    5.71569 
 H                    -0.9272   -1.42824   4.34629 
 H                    -3.96006  -0.4804    0.83238 
 Cu                    0.02895   0.34915  -0.78059 
 
 ITRead=  0  0  0  0  0  0  0  0  0  0  0  0  0  0  0  0  0  0  0  0
 ITRead=  0  0  0  0  0  0  0  0  0  0  0  0  0  0  0  0  0  0  0  0
 ITRead=  0  0  0  0  0  0  0  0  0  0  0  0  0  0  0  0  0  0  0  0
 ITRead=  0  0  0  0  0  0  0  0  0  0  0  0  0  0  0  0  0  0  0  0
 ITRead=  0  0  0  0  0  0  0  0  0
 MicOpt= -1 -1 -1 -1 -1 -1 -1 -1 -1 -1 -1 -1 -1 -1 -1 -1 -1 -1 -1 -1
 MicOpt= -1 -1 -1 -1 -1 -1 -1 -1 -1 -1 -1 -1 -1 -1 -1 -1 -1 -1 -1 -1
 MicOpt= -1 -1 -1 -1 -1 -1 -1 -1 -1 -1 -1 -1 -1 -1 -1 -1 -1 -1 -1 -1
 MicOpt= -1 -1 -1 -1 -1 -1 -1 -1 -1 -1 -1 -1 -1 -1 -1 -1 -1 -1 -1 -1
 MicOpt= -1 -1 -1 -1 -1 -1 -1 -1 -1
 NAtoms=     89 NQM=       89 NQMF=       0 NMMI=      0 NMMIF=      0
                NMic=       0 NMicF=      0.
                    Isotopes and Nuclear Properties:
 (Nuclear quadrupole moments (NQMom) in fm**2, nuclear magnetic moments (NMagM)
  in nuclear magnetons)

  Atom         1           2           3           4           5           6           7           8           9          10
 IAtWgt=          12          12          12          12          12          12          12          12          12          12
 AtmWgt=  12.0000000  12.0000000  12.0000000  12.0000000  12.0000000  12.0000000  12.0000000  12.0000000  12.0000000  12.0000000
 NucSpn=           0           0           0           0           0           0           0           0           0           0
 AtZEff=  -0.0000000  -0.0000000  -0.0000000  -0.0000000  -0.0000000  -0.0000000  -0.0000000  -0.0000000  -0.0000000  -0.0000000
 NQMom=    0.0000000   0.0000000   0.0000000   0.0000000   0.0000000   0.0000000   0.0000000   0.0000000   0.0000000   0.0000000
 NMagM=    0.0000000   0.0000000   0.0000000   0.0000000   0.0000000   0.0000000   0.0000000   0.0000000   0.0000000   0.0000000
 AtZNuc=   6.0000000   6.0000000   6.0000000   6.0000000   6.0000000   6.0000000   6.0000000   6.0000000   6.0000000   6.0000000

  Atom        11          12          13          14          15          16          17          18          19          20
 IAtWgt=          12          12          12          12          12          12          12          12          12          12
 AtmWgt=  12.0000000  12.0000000  12.0000000  12.0000000  12.0000000  12.0000000  12.0000000  12.0000000  12.0000000  12.0000000
 NucSpn=           0           0           0           0           0           0           0           0           0           0
 AtZEff=  -0.0000000  -0.0000000  -0.0000000  -0.0000000  -0.0000000  -0.0000000  -0.0000000  -0.0000000  -0.0000000  -0.0000000
 NQMom=    0.0000000   0.0000000   0.0000000   0.0000000   0.0000000   0.0000000   0.0000000   0.0000000   0.0000000   0.0000000
 NMagM=    0.0000000   0.0000000   0.0000000   0.0000000   0.0000000   0.0000000   0.0000000   0.0000000   0.0000000   0.0000000
 AtZNuc=   6.0000000   6.0000000   6.0000000   6.0000000   6.0000000   6.0000000   6.0000000   6.0000000   6.0000000   6.0000000

  Atom        21          22          23          24          25          26          27          28          29          30
 IAtWgt=          12          12          12          12          16          12          12          12          12          12
 AtmWgt=  12.0000000  12.0000000  12.0000000  12.0000000  15.9949146  12.0000000  12.0000000  12.0000000  12.0000000  12.0000000
 NucSpn=           0           0           0           0           0           0           0           0           0           0
 AtZEff=  -0.0000000  -0.0000000  -0.0000000  -0.0000000  -0.0000000  -0.0000000  -0.0000000  -0.0000000  -0.0000000  -0.0000000
 NQMom=    0.0000000   0.0000000   0.0000000   0.0000000   0.0000000   0.0000000   0.0000000   0.0000000   0.0000000   0.0000000
 NMagM=    0.0000000   0.0000000   0.0000000   0.0000000   0.0000000   0.0000000   0.0000000   0.0000000   0.0000000   0.0000000
 AtZNuc=   6.0000000   6.0000000   6.0000000   6.0000000   8.0000000   6.0000000   6.0000000   6.0000000   6.0000000   6.0000000

  Atom        31          32          33          34          35          36          37          38          39          40
 IAtWgt=          12          12          12          12          12          12          12          12          12          12
 AtmWgt=  12.0000000  12.0000000  12.0000000  12.0000000  12.0000000  12.0000000  12.0000000  12.0000000  12.0000000  12.0000000
 NucSpn=           0           0           0           0           0           0           0           0           0           0
 AtZEff=  -0.0000000  -0.0000000  -0.0000000  -0.0000000  -0.0000000  -0.0000000  -0.0000000  -0.0000000  -0.0000000  -0.0000000
 NQMom=    0.0000000   0.0000000   0.0000000   0.0000000   0.0000000   0.0000000   0.0000000   0.0000000   0.0000000   0.0000000
 NMagM=    0.0000000   0.0000000   0.0000000   0.0000000   0.0000000   0.0000000   0.0000000   0.0000000   0.0000000   0.0000000
 AtZNuc=   6.0000000   6.0000000   6.0000000   6.0000000   6.0000000   6.0000000   6.0000000   6.0000000   6.0000000   6.0000000

  Atom        41          42          43          44          45          46          47          48          49          50
 IAtWgt=          12          12          12          12          12          12          12          12          12          16
 AtmWgt=  12.0000000  12.0000000  12.0000000  12.0000000  12.0000000  12.0000000  12.0000000  12.0000000  12.0000000  15.9949146
 NucSpn=           0           0           0           0           0           0           0           0           0           0
 AtZEff=  -0.0000000  -0.0000000  -0.0000000  -0.0000000  -0.0000000  -0.0000000  -0.0000000  -0.0000000  -0.0000000  -0.0000000
 NQMom=    0.0000000   0.0000000   0.0000000   0.0000000   0.0000000   0.0000000   0.0000000   0.0000000   0.0000000   0.0000000
 NMagM=    0.0000000   0.0000000   0.0000000   0.0000000   0.0000000   0.0000000   0.0000000   0.0000000   0.0000000   0.0000000
 AtZNuc=   6.0000000   6.0000000   6.0000000   6.0000000   6.0000000   6.0000000   6.0000000   6.0000000   6.0000000   8.0000000

  Atom        51          52          53          54          55          56          57          58          59          60
 IAtWgt=          12          12           1           1           1           1           1           1           1           1
 AtmWgt=  12.0000000  12.0000000   1.0078250   1.0078250   1.0078250   1.0078250   1.0078250   1.0078250   1.0078250   1.0078250
 NucSpn=           0           0           1           1           1           1           1           1           1           1
 AtZEff=  -0.0000000  -0.0000000  -0.0000000  -0.0000000  -0.0000000  -0.0000000  -0.0000000  -0.0000000  -0.0000000  -0.0000000
 NQMom=    0.0000000   0.0000000   0.0000000   0.0000000   0.0000000   0.0000000   0.0000000   0.0000000   0.0000000   0.0000000
 NMagM=    0.0000000   0.0000000   2.7928460   2.7928460   2.7928460   2.7928460   2.7928460   2.7928460   2.7928460   2.7928460
 AtZNuc=   6.0000000   6.0000000   1.0000000   1.0000000   1.0000000   1.0000000   1.0000000   1.0000000   1.0000000   1.0000000

  Atom        61          62          63          64          65          66          67          68          69          70
 IAtWgt=           1           1           1           1           1           1           1           1           1           1
 AtmWgt=   1.0078250   1.0078250   1.0078250   1.0078250   1.0078250   1.0078250   1.0078250   1.0078250   1.0078250   1.0078250
 NucSpn=           1           1           1           1           1           1           1           1           1           1
 AtZEff=  -0.0000000  -0.0000000  -0.0000000  -0.0000000  -0.0000000  -0.0000000  -0.0000000  -0.0000000  -0.0000000  -0.0000000
 NQMom=    0.0000000   0.0000000   0.0000000   0.0000000   0.0000000   0.0000000   0.0000000   0.0000000   0.0000000   0.0000000
 NMagM=    2.7928460   2.7928460   2.7928460   2.7928460   2.7928460   2.7928460   2.7928460   2.7928460   2.7928460   2.7928460
 AtZNuc=   1.0000000   1.0000000   1.0000000   1.0000000   1.0000000   1.0000000   1.0000000   1.0000000   1.0000000   1.0000000

  Atom        71          72          73          74          75          76          77          78          79          80
 IAtWgt=           1           1           1           1           1           1           1           1           1           1
 AtmWgt=   1.0078250   1.0078250   1.0078250   1.0078250   1.0078250   1.0078250   1.0078250   1.0078250   1.0078250   1.0078250
 NucSpn=           1           1           1           1           1           1           1           1           1           1
 AtZEff=  -0.0000000  -0.0000000  -0.0000000  -0.0000000  -0.0000000  -0.0000000  -0.0000000  -0.0000000  -0.0000000  -0.0000000
 NQMom=    0.0000000   0.0000000   0.0000000   0.0000000   0.0000000   0.0000000   0.0000000   0.0000000   0.0000000   0.0000000
 NMagM=    2.7928460   2.7928460   2.7928460   2.7928460   2.7928460   2.7928460   2.7928460   2.7928460   2.7928460   2.7928460
 AtZNuc=   1.0000000   1.0000000   1.0000000   1.0000000   1.0000000   1.0000000   1.0000000   1.0000000   1.0000000   1.0000000

  Atom        81          82          83          84          85          86          87          88          89
 IAtWgt=           1           1           1           1           1           1           1           1          63
 AtmWgt=   1.0078250   1.0078250   1.0078250   1.0078250   1.0078250   1.0078250   1.0078250   1.0078250  62.9295992
 NucSpn=           1           1           1           1           1           1           1           1           3
 AtZEff=  -0.0000000  -0.0000000  -0.0000000  -0.0000000  -0.0000000  -0.0000000  -0.0000000  -0.0000000  -0.0000000
 NQMom=    0.0000000   0.0000000   0.0000000   0.0000000   0.0000000   0.0000000   0.0000000   0.0000000 -22.0000000
 NMagM=    2.7928460   2.7928460   2.7928460   2.7928460   2.7928460   2.7928460   2.7928460   2.7928460   2.2233000
 AtZNuc=   1.0000000   1.0000000   1.0000000   1.0000000   1.0000000   1.0000000   1.0000000   1.0000000  29.0000000
 Leave Link  101 at Wed Dec 11 18:38:41 2024, MaxMem= 13421772800 cpu:               4.7 elap:               0.2
 (Enter /public/software/apps/Gaussian/g16/l103.exe)

 GradGradGradGradGradGradGradGradGradGradGradGradGradGradGradGradGradGrad
 Berny optimization.
 Initialization pass.
                           ----------------------------
                           !    Initial Parameters    !
                           ! (Angstroms and Degrees)  !
 --------------------------                            --------------------------
 ! Name  Definition              Value          Derivative Info.                !
 --------------------------------------------------------------------------------
 ! R1    R(1,2)                  1.5355         estimate D2E/DX2                !
 ! R2    R(1,53)                 1.1109         estimate D2E/DX2                !
 ! R3    R(1,54)                 1.1116         estimate D2E/DX2                !
 ! R4    R(1,55)                 1.111          estimate D2E/DX2                !
 ! R5    R(2,3)                  1.5362         estimate D2E/DX2                !
 ! R6    R(2,4)                  1.513          estimate D2E/DX2                !
 ! R7    R(2,52)                 1.5131         estimate D2E/DX2                !
 ! R8    R(3,56)                 1.1111         estimate D2E/DX2                !
 ! R9    R(3,57)                 1.1119         estimate D2E/DX2                !
 ! R10   R(3,58)                 1.1115         estimate D2E/DX2                !
 ! R11   R(4,5)                  1.399          estimate D2E/DX2                !
 ! R12   R(4,9)                  1.3841         estimate D2E/DX2                !
 ! R13   R(5,6)                  1.4047         estimate D2E/DX2                !
 ! R14   R(5,59)                 1.0823         estimate D2E/DX2                !
 ! R15   R(6,7)                  1.4084         estimate D2E/DX2                !
 ! R16   R(6,60)                 1.082          estimate D2E/DX2                !
 ! R17   R(7,8)                  1.4036         estimate D2E/DX2                !
 ! R18   R(7,61)                 1.0824         estimate D2E/DX2                !
 ! R19   R(8,9)                  1.3951         estimate D2E/DX2                !
 ! R20   R(8,62)                 1.0821         estimate D2E/DX2                !
 ! R21   R(9,10)                 1.4469         estimate D2E/DX2                !
 ! R22   R(10,11)                1.3934         estimate D2E/DX2                !
 ! R23   R(10,52)                1.3822         estimate D2E/DX2                !
 ! R24   R(11,12)                1.403          estimate D2E/DX2                !
 ! R25   R(11,63)                1.0818         estimate D2E/DX2                !
 ! R26   R(12,13)                1.4155         estimate D2E/DX2                !
 ! R27   R(12,64)                1.0829         estimate D2E/DX2                !
 ! R28   R(13,14)                1.4823         estimate D2E/DX2                !
 ! R29   R(13,51)                1.4117         estimate D2E/DX2                !
 ! R30   R(14,15)                1.4015         estimate D2E/DX2                !
 ! R31   R(14,49)                1.4074         estimate D2E/DX2                !
 ! R32   R(15,16)                1.4002         estimate D2E/DX2                !
 ! R33   R(15,65)                1.0847         estimate D2E/DX2                !
 ! R34   R(16,17)                1.4042         estimate D2E/DX2                !
 ! R35   R(16,21)                1.4182         estimate D2E/DX2                !
 ! R36   R(17,18)                1.3953         estimate D2E/DX2                !
 ! R37   R(17,66)                1.0839         estimate D2E/DX2                !
 ! R38   R(18,19)                1.3946         estimate D2E/DX2                !
 ! R39   R(18,67)                1.0823         estimate D2E/DX2                !
 ! R40   R(19,20)                1.3966         estimate D2E/DX2                !
 ! R41   R(19,68)                1.0825         estimate D2E/DX2                !
 ! R42   R(20,21)                1.4117         estimate D2E/DX2                !
 ! R43   R(20,69)                1.0819         estimate D2E/DX2                !
 ! R44   R(21,22)                1.4174         estimate D2E/DX2                !
 ! R45   R(22,23)                1.4882         estimate D2E/DX2                !
 ! R46   R(22,49)                1.4073         estimate D2E/DX2                !
 ! R47   R(23,24)                1.4073         estimate D2E/DX2                !
 ! R48   R(23,48)                1.4175         estimate D2E/DX2                !
 ! R49   R(24,25)                1.3934         estimate D2E/DX2                !
 ! R50   R(24,26)                1.4074         estimate D2E/DX2                !
 ! R51   R(25,89)                1.9425         estimate D2E/DX2                !
 ! R52   R(26,27)                1.4822         estimate D2E/DX2                !
 ! R53   R(26,42)                1.4014         estimate D2E/DX2                !
 ! R54   R(27,28)                1.4157         estimate D2E/DX2                !
 ! R55   R(27,32)                1.4116         estimate D2E/DX2                !
 ! R56   R(28,29)                1.4031         estimate D2E/DX2                !
 ! R57   R(28,70)                1.083          estimate D2E/DX2                !
 ! R58   R(29,30)                1.3937         estimate D2E/DX2                !
 ! R59   R(29,71)                1.0823         estimate D2E/DX2                !
 ! R60   R(30,31)                1.3823         estimate D2E/DX2                !
 ! R61   R(30,41)                1.4471         estimate D2E/DX2                !
 ! R62   R(31,32)                1.3977         estimate D2E/DX2                !
 ! R63   R(31,33)                1.5129         estimate D2E/DX2                !
 ! R64   R(32,72)                1.0826         estimate D2E/DX2                !
 ! R65   R(33,34)                1.5359         estimate D2E/DX2                !
 ! R66   R(33,35)                1.5355         estimate D2E/DX2                !
 ! R67   R(33,36)                1.5128         estimate D2E/DX2                !
 ! R68   R(34,73)                1.1118         estimate D2E/DX2                !
 ! R69   R(34,74)                1.111          estimate D2E/DX2                !
 ! R70   R(34,75)                1.111          estimate D2E/DX2                !
 ! R71   R(35,76)                1.1116         estimate D2E/DX2                !
 ! R72   R(35,77)                1.1107         estimate D2E/DX2                !
 ! R73   R(35,78)                1.1109         estimate D2E/DX2                !
 ! R74   R(36,37)                1.399          estimate D2E/DX2                !
 ! R75   R(36,41)                1.384          estimate D2E/DX2                !
 ! R76   R(37,38)                1.4046         estimate D2E/DX2                !
 ! R77   R(37,79)                1.0821         estimate D2E/DX2                !
 ! R78   R(38,39)                1.4083         estimate D2E/DX2                !
 ! R79   R(38,80)                1.0822         estimate D2E/DX2                !
 ! R80   R(39,40)                1.4038         estimate D2E/DX2                !
 ! R81   R(39,81)                1.0822         estimate D2E/DX2                !
 ! R82   R(40,41)                1.3953         estimate D2E/DX2                !
 ! R83   R(40,82)                1.0818         estimate D2E/DX2                !
 ! R84   R(42,43)                1.4003         estimate D2E/DX2                !
 ! R85   R(42,83)                1.0847         estimate D2E/DX2                !
 ! R86   R(43,44)                1.4042         estimate D2E/DX2                !
 ! R87   R(43,48)                1.4181         estimate D2E/DX2                !
 ! R88   R(44,45)                1.3953         estimate D2E/DX2                !
 ! R89   R(44,84)                1.0836         estimate D2E/DX2                !
 ! R90   R(45,46)                1.3945         estimate D2E/DX2                !
 ! R91   R(45,85)                1.0824         estimate D2E/DX2                !
 ! R92   R(46,47)                1.3967         estimate D2E/DX2                !
 ! R93   R(46,86)                1.0824         estimate D2E/DX2                !
 ! R94   R(47,48)                1.4119         estimate D2E/DX2                !
 ! R95   R(47,87)                1.082          estimate D2E/DX2                !
 ! R96   R(49,50)                1.3933         estimate D2E/DX2                !
 ! R97   R(50,89)                1.9426         estimate D2E/DX2                !
 ! R98   R(51,52)                1.398          estimate D2E/DX2                !
 ! R99   R(51,88)                1.0827         estimate D2E/DX2                !
 ! A1    A(2,1,53)             110.3991         estimate D2E/DX2                !
 ! A2    A(2,1,54)             110.591          estimate D2E/DX2                !
 ! A3    A(2,1,55)             110.3973         estimate D2E/DX2                !
 ! A4    A(53,1,54)            108.4786         estimate D2E/DX2                !
 ! A5    A(53,1,55)            108.411          estimate D2E/DX2                !
 ! A6    A(54,1,55)            108.4962         estimate D2E/DX2                !
 ! A7    A(1,2,3)              111.6906         estimate D2E/DX2                !
 ! A8    A(1,2,4)              111.1102         estimate D2E/DX2                !
 ! A9    A(1,2,52)             111.0393         estimate D2E/DX2                !
 ! A10   A(3,2,4)              111.1415         estimate D2E/DX2                !
 ! A11   A(3,2,52)             111.1277         estimate D2E/DX2                !
 ! A12   A(4,2,52)             100.2149         estimate D2E/DX2                !
 ! A13   A(2,3,56)             110.3956         estimate D2E/DX2                !
 ! A14   A(2,3,57)             110.6125         estimate D2E/DX2                !
 ! A15   A(2,3,58)             110.4077         estimate D2E/DX2                !
 ! A16   A(56,3,57)            108.4499         estimate D2E/DX2                !
 ! A17   A(56,3,58)            108.3578         estimate D2E/DX2                !
 ! A18   A(57,3,58)            108.5486         estimate D2E/DX2                !
 ! A19   A(2,4,5)              128.1271         estimate D2E/DX2                !
 ! A20   A(2,4,9)              111.4258         estimate D2E/DX2                !
 ! A21   A(5,4,9)              120.447          estimate D2E/DX2                !
 ! A22   A(4,5,6)              118.6973         estimate D2E/DX2                !
 ! A23   A(4,5,59)             120.8496         estimate D2E/DX2                !
 ! A24   A(6,5,59)             120.453          estimate D2E/DX2                !
 ! A25   A(5,6,7)              120.4363         estimate D2E/DX2                !
 ! A26   A(5,6,60)             119.7975         estimate D2E/DX2                !
 ! A27   A(7,6,60)             119.7662         estimate D2E/DX2                !
 ! A28   A(6,7,8)              120.3458         estimate D2E/DX2                !
 ! A29   A(6,7,61)             119.8641         estimate D2E/DX2                !
 ! A30   A(8,7,61)             119.7902         estimate D2E/DX2                !
 ! A31   A(7,8,9)              118.2307         estimate D2E/DX2                !
 ! A32   A(7,8,62)             120.6436         estimate D2E/DX2                !
 ! A33   A(9,8,62)             121.1257         estimate D2E/DX2                !
 ! A34   A(4,9,8)              121.8426         estimate D2E/DX2                !
 ! A35   A(4,9,10)             108.4179         estimate D2E/DX2                !
 ! A36   A(8,9,10)             129.7392         estimate D2E/DX2                !
 ! A37   A(9,10,11)            129.7384         estimate D2E/DX2                !
 ! A38   A(9,10,52)            108.4571         estimate D2E/DX2                !
 ! A39   A(11,10,52)           121.8026         estimate D2E/DX2                !
 ! A40   A(10,11,12)           118.3612         estimate D2E/DX2                !
 ! A41   A(10,11,63)           121.0752         estimate D2E/DX2                !
 ! A42   A(12,11,63)           120.5636         estimate D2E/DX2                !
 ! A43   A(11,12,13)           120.6771         estimate D2E/DX2                !
 ! A44   A(11,12,64)           119.002          estimate D2E/DX2                !
 ! A45   A(13,12,64)           120.3185         estimate D2E/DX2                !
 ! A46   A(12,13,14)           120.2051         estimate D2E/DX2                !
 ! A47   A(12,13,51)           119.5186         estimate D2E/DX2                !
 ! A48   A(14,13,51)           120.2687         estimate D2E/DX2                !
 ! A49   A(13,14,15)           119.5245         estimate D2E/DX2                !
 ! A50   A(13,14,49)           121.024          estimate D2E/DX2                !
 ! A51   A(15,14,49)           119.4515         estimate D2E/DX2                !
 ! A52   A(14,15,16)           120.7634         estimate D2E/DX2                !
 ! A53   A(14,15,65)           119.5204         estimate D2E/DX2                !
 ! A54   A(16,15,65)           119.7146         estimate D2E/DX2                !
 ! A55   A(15,16,17)           119.9517         estimate D2E/DX2                !
 ! A56   A(15,16,21)           120.0575         estimate D2E/DX2                !
 ! A57   A(17,16,21)           119.9908         estimate D2E/DX2                !
 ! A58   A(16,17,18)           120.2901         estimate D2E/DX2                !
 ! A59   A(16,17,66)           120.6974         estimate D2E/DX2                !
 ! A60   A(18,17,66)           119.0123         estimate D2E/DX2                !
 ! A61   A(17,18,19)           120.1513         estimate D2E/DX2                !
 ! A62   A(17,18,67)           119.9165         estimate D2E/DX2                !
 ! A63   A(19,18,67)           119.9315         estimate D2E/DX2                !
 ! A64   A(18,19,20)           120.2637         estimate D2E/DX2                !
 ! A65   A(18,19,68)           119.8453         estimate D2E/DX2                !
 ! A66   A(20,19,68)           119.8909         estimate D2E/DX2                !
 ! A67   A(19,20,21)           120.5452         estimate D2E/DX2                !
 ! A68   A(19,20,69)           118.0183         estimate D2E/DX2                !
 ! A69   A(21,20,69)           121.4363         estimate D2E/DX2                !
 ! A70   A(16,21,20)           118.749          estimate D2E/DX2                !
 ! A71   A(16,21,22)           119.3438         estimate D2E/DX2                !
 ! A72   A(20,21,22)           121.9036         estimate D2E/DX2                !
 ! A73   A(21,22,23)           121.6932         estimate D2E/DX2                !
 ! A74   A(21,22,49)           119.6838         estimate D2E/DX2                !
 ! A75   A(23,22,49)           118.6112         estimate D2E/DX2                !
 ! A76   A(22,23,24)           118.5801         estimate D2E/DX2                !
 ! A77   A(22,23,48)           121.7143         estimate D2E/DX2                !
 ! A78   A(24,23,48)           119.6959         estimate D2E/DX2                !
 ! A79   A(23,24,25)           119.3569         estimate D2E/DX2                !
 ! A80   A(23,24,26)           120.65           estimate D2E/DX2                !
 ! A81   A(25,24,26)           119.9817         estimate D2E/DX2                !
 ! A82   A(24,25,89)           111.0866         estimate D2E/DX2                !
 ! A83   A(24,26,27)           121.0477         estimate D2E/DX2                !
 ! A84   A(24,26,42)           119.4444         estimate D2E/DX2                !
 ! A85   A(27,26,42)           119.5079         estimate D2E/DX2                !
 ! A86   A(26,27,28)           120.1674         estimate D2E/DX2                !
 ! A87   A(26,27,32)           120.2907         estimate D2E/DX2                !
 ! A88   A(28,27,32)           119.5354         estimate D2E/DX2                !
 ! A89   A(27,28,29)           120.6828         estimate D2E/DX2                !
 ! A90   A(27,28,70)           120.296          estimate D2E/DX2                !
 ! A91   A(29,28,70)           119.016          estimate D2E/DX2                !
 ! A92   A(28,29,30)           118.3276         estimate D2E/DX2                !
 ! A93   A(28,29,71)           120.5659         estimate D2E/DX2                !
 ! A94   A(30,29,71)           121.1065         estimate D2E/DX2                !
 ! A95   A(29,30,31)           121.8175         estimate D2E/DX2                !
 ! A96   A(29,30,41)           129.7477         estimate D2E/DX2                !
 ! A97   A(31,30,41)           108.4342         estimate D2E/DX2                !
 ! A98   A(30,31,32)           120.5474         estimate D2E/DX2                !
 ! A99   A(30,31,33)           111.4903         estimate D2E/DX2                !
 ! A100  A(32,31,33)           127.9621         estimate D2E/DX2                !
 ! A101  A(27,32,31)           119.086          estimate D2E/DX2                !
 ! A102  A(27,32,72)           120.9501         estimate D2E/DX2                !
 ! A103  A(31,32,72)           119.9583         estimate D2E/DX2                !
 ! A104  A(31,33,34)           111.0887         estimate D2E/DX2                !
 ! A105  A(31,33,35)           111.046          estimate D2E/DX2                !
 ! A106  A(31,33,36)           100.2286         estimate D2E/DX2                !
 ! A107  A(34,33,35)           111.6914         estimate D2E/DX2                !
 ! A108  A(34,33,36)           111.1378         estimate D2E/DX2                !
 ! A109  A(35,33,36)           111.1325         estimate D2E/DX2                !
 ! A110  A(33,34,73)           110.6116         estimate D2E/DX2                !
 ! A111  A(33,34,74)           110.3987         estimate D2E/DX2                !
 ! A112  A(33,34,75)           110.3895         estimate D2E/DX2                !
 ! A113  A(73,34,74)           108.4856         estimate D2E/DX2                !
 ! A114  A(73,34,75)           108.4964         estimate D2E/DX2                !
 ! A115  A(74,34,75)           108.391          estimate D2E/DX2                !
 ! A116  A(33,35,76)           110.6098         estimate D2E/DX2                !
 ! A117  A(33,35,77)           110.4223         estimate D2E/DX2                !
 ! A118  A(33,35,78)           110.3954         estimate D2E/DX2                !
 ! A119  A(76,35,77)           108.4898         estimate D2E/DX2                !
 ! A120  A(76,35,78)           108.4836         estimate D2E/DX2                !
 ! A121  A(77,35,78)           108.3709         estimate D2E/DX2                !
 ! A122  A(33,36,37)           128.1156         estimate D2E/DX2                !
 ! A123  A(33,36,41)           111.4172         estimate D2E/DX2                !
 ! A124  A(37,36,41)           120.4671         estimate D2E/DX2                !
 ! A125  A(36,37,38)           118.7274         estimate D2E/DX2                !
 ! A126  A(36,37,79)           120.8079         estimate D2E/DX2                !
 ! A127  A(38,37,79)           120.4647         estimate D2E/DX2                !
 ! A128  A(37,38,39)           120.3987         estimate D2E/DX2                !
 ! A129  A(37,38,80)           119.775          estimate D2E/DX2                !
 ! A130  A(39,38,80)           119.8262         estimate D2E/DX2                !
 ! A131  A(38,39,40)           120.3582         estimate D2E/DX2                !
 ! A132  A(38,39,81)           119.8167         estimate D2E/DX2                !
 ! A133  A(40,39,81)           119.8251         estimate D2E/DX2                !
 ! A134  A(39,40,41)           118.2503         estimate D2E/DX2                !
 ! A135  A(39,40,82)           120.6006         estimate D2E/DX2                !
 ! A136  A(41,40,82)           121.149          estimate D2E/DX2                !
 ! A137  A(30,41,36)           108.4295         estimate D2E/DX2                !
 ! A138  A(30,41,40)           129.7723         estimate D2E/DX2                !
 ! A139  A(36,41,40)           121.7982         estimate D2E/DX2                !
 ! A140  A(26,42,43)           120.773          estimate D2E/DX2                !
 ! A141  A(26,42,83)           119.509          estimate D2E/DX2                !
 ! A142  A(43,42,83)           119.717          estimate D2E/DX2                !
 ! A143  A(42,43,44)           119.9634         estimate D2E/DX2                !
 ! A144  A(42,43,48)           120.0544         estimate D2E/DX2                !
 ! A145  A(44,43,48)           119.982          estimate D2E/DX2                !
 ! A146  A(43,44,45)           120.3135         estimate D2E/DX2                !
 ! A147  A(43,44,84)           120.6878         estimate D2E/DX2                !
 ! A148  A(45,44,84)           118.9982         estimate D2E/DX2                !
 ! A149  A(44,45,46)           120.1317         estimate D2E/DX2                !
 ! A150  A(44,45,85)           119.9348         estimate D2E/DX2                !
 ! A151  A(46,45,85)           119.933          estimate D2E/DX2                !
 ! A152  A(45,46,47)           120.2707         estimate D2E/DX2                !
 ! A153  A(45,46,86)           119.832          estimate D2E/DX2                !
 ! A154  A(47,46,86)           119.8972         estimate D2E/DX2                !
 ! A155  A(46,47,48)           120.5455         estimate D2E/DX2                !
 ! A156  A(46,47,87)           118.0264         estimate D2E/DX2                !
 ! A157  A(48,47,87)           121.4274         estimate D2E/DX2                !
 ! A158  A(23,48,43)           119.3378         estimate D2E/DX2                !
 ! A159  A(23,48,47)           121.9109         estimate D2E/DX2                !
 ! A160  A(43,48,47)           118.7483         estimate D2E/DX2                !
 ! A161  A(14,49,22)           120.654          estimate D2E/DX2                !
 ! A162  A(14,49,50)           119.9688         estimate D2E/DX2                !
 ! A163  A(22,49,50)           119.3663         estimate D2E/DX2                !
 ! A164  A(49,50,89)           106.8728         estimate D2E/DX2                !
 ! A165  A(13,51,52)           119.0961         estimate D2E/DX2                !
 ! A166  A(13,51,88)           120.9151         estimate D2E/DX2                !
 ! A167  A(52,51,88)           119.983          estimate D2E/DX2                !
 ! A168  A(2,52,10)            111.4843         estimate D2E/DX2                !
 ! A169  A(2,52,51)            127.9734         estimate D2E/DX2                !
 ! A170  A(10,52,51)           120.5414         estimate D2E/DX2                !
 ! A171  A(25,89,50)           101.4153         estimate D2E/DX2                !
 ! D1    D(53,1,2,3)            59.9434         estimate D2E/DX2                !
 ! D2    D(53,1,2,4)           -64.7819         estimate D2E/DX2                !
 ! D3    D(53,1,2,52)         -175.4025         estimate D2E/DX2                !
 ! D4    D(54,1,2,3)          -179.9937         estimate D2E/DX2                !
 ! D5    D(54,1,2,4)            55.2809         estimate D2E/DX2                !
 ! D6    D(54,1,2,52)          -55.3397         estimate D2E/DX2                !
 ! D7    D(55,1,2,3)           -59.9101         estimate D2E/DX2                !
 ! D8    D(55,1,2,4)           175.3645         estimate D2E/DX2                !
 ! D9    D(55,1,2,52)           64.7439         estimate D2E/DX2                !
 ! D10   D(1,2,3,56)            59.8214         estimate D2E/DX2                !
 ! D11   D(1,2,3,57)           179.8599         estimate D2E/DX2                !
 ! D12   D(1,2,3,58)           -59.9704         estimate D2E/DX2                !
 ! D13   D(4,2,3,56)          -175.4707         estimate D2E/DX2                !
 ! D14   D(4,2,3,57)           -55.4322         estimate D2E/DX2                !
 ! D15   D(4,2,3,58)            64.7375         estimate D2E/DX2                !
 ! D16   D(52,2,3,56)          -64.7833         estimate D2E/DX2                !
 ! D17   D(52,2,3,57)           55.2552         estimate D2E/DX2                !
 ! D18   D(52,2,3,58)          175.425          estimate D2E/DX2                !
 ! D19   D(1,2,4,5)             62.597          estimate D2E/DX2                !
 ! D20   D(1,2,4,9)           -117.4821         estimate D2E/DX2                !
 ! D21   D(3,2,4,5)            -62.4373         estimate D2E/DX2                !
 ! D22   D(3,2,4,9)            117.4836         estimate D2E/DX2                !
 ! D23   D(52,2,4,5)          -179.9771         estimate D2E/DX2                !
 ! D24   D(52,2,4,9)            -0.0562         estimate D2E/DX2                !
 ! D25   D(1,2,52,10)          117.5436         estimate D2E/DX2                !
 ! D26   D(1,2,52,51)          -62.7955         estimate D2E/DX2                !
 ! D27   D(3,2,52,10)         -117.485          estimate D2E/DX2                !
 ! D28   D(3,2,52,51)           62.1759         estimate D2E/DX2                !
 ! D29   D(4,2,52,10)            0.0651         estimate D2E/DX2                !
 ! D30   D(4,2,52,51)          179.726          estimate D2E/DX2                !
 ! D31   D(2,4,5,6)            179.8978         estimate D2E/DX2                !
 ! D32   D(2,4,5,59)            -0.0157         estimate D2E/DX2                !
 ! D33   D(9,4,5,6)             -0.0167         estimate D2E/DX2                !
 ! D34   D(9,4,5,59)          -179.9303         estimate D2E/DX2                !
 ! D35   D(2,4,9,8)           -179.7665         estimate D2E/DX2                !
 ! D36   D(2,4,9,10)             0.0298         estimate D2E/DX2                !
 ! D37   D(5,4,9,8)              0.1613         estimate D2E/DX2                !
 ! D38   D(5,4,9,10)           179.9575         estimate D2E/DX2                !
 ! D39   D(4,5,6,7)             -0.0793         estimate D2E/DX2                !
 ! D40   D(4,5,6,60)           179.9543         estimate D2E/DX2                !
 ! D41   D(59,5,6,7)           179.8346         estimate D2E/DX2                !
 ! D42   D(59,5,6,60)           -0.1318         estimate D2E/DX2                !
 ! D43   D(5,6,7,8)              0.0355         estimate D2E/DX2                !
 ! D44   D(5,6,7,61)          -179.9665         estimate D2E/DX2                !
 ! D45   D(60,6,7,8)          -179.9981         estimate D2E/DX2                !
 ! D46   D(60,6,7,61)           -0.0001         estimate D2E/DX2                !
 ! D47   D(6,7,8,9)              0.1027         estimate D2E/DX2                !
 ! D48   D(6,7,8,62)          -179.8872         estimate D2E/DX2                !
 ! D49   D(61,7,8,9)          -179.8953         estimate D2E/DX2                !
 ! D50   D(61,7,8,62)            0.1148         estimate D2E/DX2                !
 ! D51   D(7,8,9,4)             -0.2022         estimate D2E/DX2                !
 ! D52   D(7,8,9,10)          -179.9509         estimate D2E/DX2                !
 ! D53   D(62,8,9,4)           179.7876         estimate D2E/DX2                !
 ! D54   D(62,8,9,10)            0.039          estimate D2E/DX2                !
 ! D55   D(4,9,10,11)         -179.4781         estimate D2E/DX2                !
 ! D56   D(4,9,10,52)            0.0139         estimate D2E/DX2                !
 ! D57   D(8,9,10,11)            0.2969         estimate D2E/DX2                !
 ! D58   D(8,9,10,52)          179.7888         estimate D2E/DX2                !
 ! D59   D(9,10,11,12)         179.6346         estimate D2E/DX2                !
 ! D60   D(9,10,11,63)          -0.3248         estimate D2E/DX2                !
 ! D61   D(52,10,11,12)          0.2017         estimate D2E/DX2                !
 ! D62   D(52,10,11,63)       -179.7577         estimate D2E/DX2                !
 ! D63   D(9,10,52,2)           -0.0523         estimate D2E/DX2                !
 ! D64   D(9,10,52,51)        -179.7419         estimate D2E/DX2                !
 ! D65   D(11,10,52,2)         179.4881         estimate D2E/DX2                !
 ! D66   D(11,10,52,51)         -0.2016         estimate D2E/DX2                !
 ! D67   D(10,11,12,13)          0.2011         estimate D2E/DX2                !
 ! D68   D(10,11,12,64)        179.6379         estimate D2E/DX2                !
 ! D69   D(63,11,12,13)       -179.8393         estimate D2E/DX2                !
 ! D70   D(63,11,12,64)         -0.4025         estimate D2E/DX2                !
 ! D71   D(11,12,13,14)       -179.5955         estimate D2E/DX2                !
 ! D72   D(11,12,13,51)         -0.5985         estimate D2E/DX2                !
 ! D73   D(64,12,13,14)          0.9752         estimate D2E/DX2                !
 ! D74   D(64,12,13,51)        179.9722         estimate D2E/DX2                !
 ! D75   D(12,13,14,15)         49.8995         estimate D2E/DX2                !
 ! D76   D(12,13,14,49)       -130.0324         estimate D2E/DX2                !
 ! D77   D(51,13,14,15)       -129.0899         estimate D2E/DX2                !
 ! D78   D(51,13,14,49)         50.9782         estimate D2E/DX2                !
 ! D79   D(12,13,51,52)          0.5933         estimate D2E/DX2                !
 ! D80   D(12,13,51,88)       -178.525          estimate D2E/DX2                !
 ! D81   D(14,13,51,52)        179.5897         estimate D2E/DX2                !
 ! D82   D(14,13,51,88)          0.4714         estimate D2E/DX2                !
 ! D83   D(13,14,15,16)        179.9043         estimate D2E/DX2                !
 ! D84   D(13,14,15,65)          0.3608         estimate D2E/DX2                !
 ! D85   D(49,14,15,16)         -0.1627         estimate D2E/DX2                !
 ! D86   D(49,14,15,65)       -179.7063         estimate D2E/DX2                !
 ! D87   D(13,14,49,22)       -178.3682         estimate D2E/DX2                !
 ! D88   D(13,14,49,50)          2.8376         estimate D2E/DX2                !
 ! D89   D(15,14,49,22)          1.6999         estimate D2E/DX2                !
 ! D90   D(15,14,49,50)       -177.0944         estimate D2E/DX2                !
 ! D91   D(14,15,16,17)        179.489          estimate D2E/DX2                !
 ! D92   D(14,15,16,21)         -0.3958         estimate D2E/DX2                !
 ! D93   D(65,15,16,17)         -0.9684         estimate D2E/DX2                !
 ! D94   D(65,15,16,21)        179.1469         estimate D2E/DX2                !
 ! D95   D(15,16,17,18)       -179.4168         estimate D2E/DX2                !
 ! D96   D(15,16,17,66)          0.42           estimate D2E/DX2                !
 ! D97   D(21,16,17,18)          0.4681         estimate D2E/DX2                !
 ! D98   D(21,16,17,66)       -179.6951         estimate D2E/DX2                !
 ! D99   D(15,16,21,20)        178.7702         estimate D2E/DX2                !
 ! D100  D(15,16,21,22)         -0.5593         estimate D2E/DX2                !
 ! D101  D(17,16,21,20)         -1.1145         estimate D2E/DX2                !
 ! D102  D(17,16,21,22)        179.5559         estimate D2E/DX2                !
 ! D103  D(16,17,18,19)          0.21           estimate D2E/DX2                !
 ! D104  D(16,17,18,67)        179.9017         estimate D2E/DX2                !
 ! D105  D(66,17,18,19)       -179.6295         estimate D2E/DX2                !
 ! D106  D(66,17,18,67)          0.0622         estimate D2E/DX2                !
 ! D107  D(17,18,19,20)         -0.2228         estimate D2E/DX2                !
 ! D108  D(17,18,19,68)        179.6636         estimate D2E/DX2                !
 ! D109  D(67,18,19,20)       -179.9144         estimate D2E/DX2                !
 ! D110  D(67,18,19,68)         -0.028          estimate D2E/DX2                !
 ! D111  D(18,19,20,21)         -0.4481         estimate D2E/DX2                !
 ! D112  D(18,19,20,69)        179.4117         estimate D2E/DX2                !
 ! D113  D(68,19,20,21)        179.6655         estimate D2E/DX2                !
 ! D114  D(68,19,20,69)         -0.4747         estimate D2E/DX2                !
 ! D115  D(19,20,21,16)          1.1081         estimate D2E/DX2                !
 ! D116  D(19,20,21,22)       -179.5804         estimate D2E/DX2                !
 ! D117  D(69,20,21,16)       -178.7469         estimate D2E/DX2                !
 ! D118  D(69,20,21,22)          0.5647         estimate D2E/DX2                !
 ! D119  D(16,21,22,23)       -179.2016         estimate D2E/DX2                !
 ! D120  D(16,21,22,49)          2.066          estimate D2E/DX2                !
 ! D121  D(20,21,22,23)          1.4908         estimate D2E/DX2                !
 ! D122  D(20,21,22,49)       -177.2416         estimate D2E/DX2                !
 ! D123  D(21,22,23,24)       -108.6576         estimate D2E/DX2                !
 ! D124  D(21,22,23,48)         72.4852         estimate D2E/DX2                !
 ! D125  D(49,22,23,24)         70.088          estimate D2E/DX2                !
 ! D126  D(49,22,23,48)       -108.7692         estimate D2E/DX2                !
 ! D127  D(21,22,49,14)         -2.6551         estimate D2E/DX2                !
 ! D128  D(21,22,49,50)        176.1464         estimate D2E/DX2                !
 ! D129  D(23,22,49,14)        178.5735         estimate D2E/DX2                !
 ! D130  D(23,22,49,50)         -2.625          estimate D2E/DX2                !
 ! D131  D(22,23,24,25)         -2.7171         estimate D2E/DX2                !
 ! D132  D(22,23,24,26)        178.5088         estimate D2E/DX2                !
 ! D133  D(48,23,24,25)        176.1637         estimate D2E/DX2                !
 ! D134  D(48,23,24,26)         -2.6104         estimate D2E/DX2                !
 ! D135  D(22,23,48,43)       -179.1121         estimate D2E/DX2                !
 ! D136  D(22,23,48,47)          1.5344         estimate D2E/DX2                !
 ! D137  D(24,23,48,43)          2.0432         estimate D2E/DX2                !
 ! D138  D(24,23,48,47)       -177.3103         estimate D2E/DX2                !
 ! D139  D(23,24,25,89)        -72.2185         estimate D2E/DX2                !
 ! D140  D(26,24,25,89)        106.564          estimate D2E/DX2                !
 ! D141  D(23,24,26,27)       -178.4119         estimate D2E/DX2                !
 ! D142  D(23,24,26,42)          1.6462         estimate D2E/DX2                !
 ! D143  D(25,24,26,27)          2.8216         estimate D2E/DX2                !
 ! D144  D(25,24,26,42)       -177.1203         estimate D2E/DX2                !
 ! D145  D(24,25,89,50)         41.4707         estimate D2E/DX2                !
 ! D146  D(24,26,27,28)       -130.0926         estimate D2E/DX2                !
 ! D147  D(24,26,27,32)         50.8404         estimate D2E/DX2                !
 ! D148  D(42,26,27,28)         49.8492         estimate D2E/DX2                !
 ! D149  D(42,26,27,32)       -129.2178         estimate D2E/DX2                !
 ! D150  D(24,26,42,43)         -0.1221         estimate D2E/DX2                !
 ! D151  D(24,26,42,83)       -179.7524         estimate D2E/DX2                !
 ! D152  D(27,26,42,43)        179.9351         estimate D2E/DX2                !
 ! D153  D(27,26,42,83)          0.3048         estimate D2E/DX2                !
 ! D154  D(26,27,28,29)       -179.758          estimate D2E/DX2                !
 ! D155  D(26,27,28,70)          1.0838         estimate D2E/DX2                !
 ! D156  D(32,27,28,29)         -0.684          estimate D2E/DX2                !
 ! D157  D(32,27,28,70)       -179.8422         estimate D2E/DX2                !
 ! D158  D(26,27,32,31)        179.6826         estimate D2E/DX2                !
 ! D159  D(26,27,32,72)          0.5438         estimate D2E/DX2                !
 ! D160  D(28,27,32,31)          0.6097         estimate D2E/DX2                !
 ! D161  D(28,27,32,72)       -178.5291         estimate D2E/DX2                !
 ! D162  D(27,28,29,30)          0.3299         estimate D2E/DX2                !
 ! D163  D(27,28,29,71)       -179.6814         estimate D2E/DX2                !
 ! D164  D(70,28,29,30)        179.4988         estimate D2E/DX2                !
 ! D165  D(70,28,29,71)         -0.5125         estimate D2E/DX2                !
 ! D166  D(28,29,30,31)          0.0946         estimate D2E/DX2                !
 ! D167  D(28,29,30,41)        179.7798         estimate D2E/DX2                !
 ! D168  D(71,29,30,31)       -179.894          estimate D2E/DX2                !
 ! D169  D(71,29,30,41)         -0.2088         estimate D2E/DX2                !
 ! D170  D(29,30,31,32)         -0.1612         estimate D2E/DX2                !
 ! D171  D(29,30,31,33)        179.6849         estimate D2E/DX2                !
 ! D172  D(41,30,31,32)       -179.9061         estimate D2E/DX2                !
 ! D173  D(41,30,31,33)         -0.06           estimate D2E/DX2                !
 ! D174  D(29,30,41,36)       -179.7071         estimate D2E/DX2                !
 ! D175  D(29,30,41,40)          0.2518         estimate D2E/DX2                !
 ! D176  D(31,30,41,36)          0.0109         estimate D2E/DX2                !
 ! D177  D(31,30,41,40)        179.9699         estimate D2E/DX2                !
 ! D178  D(30,31,32,27)         -0.1968         estimate D2E/DX2                !
 ! D179  D(30,31,32,72)        178.9507         estimate D2E/DX2                !
 ! D180  D(33,31,32,27)        179.9848         estimate D2E/DX2                !
 ! D181  D(33,31,32,72)         -0.8677         estimate D2E/DX2                !
 ! D182  D(30,31,33,34)        117.6165         estimate D2E/DX2                !
 ! D183  D(30,31,33,35)       -117.4348         estimate D2E/DX2                !
 ! D184  D(30,31,33,36)          0.0791         estimate D2E/DX2                !
 ! D185  D(32,31,33,34)        -62.5516         estimate D2E/DX2                !
 ! D186  D(32,31,33,35)         62.3971         estimate D2E/DX2                !
 ! D187  D(32,31,33,36)        179.911          estimate D2E/DX2                !
 ! D188  D(31,33,34,73)        -55.4077         estimate D2E/DX2                !
 ! D189  D(31,33,34,74)         64.6768         estimate D2E/DX2                !
 ! D190  D(31,33,34,75)       -175.4997         estimate D2E/DX2                !
 ! D191  D(35,33,34,73)       -179.9926         estimate D2E/DX2                !
 ! D192  D(35,33,34,74)        -59.9081         estimate D2E/DX2                !
 ! D193  D(35,33,34,75)         59.9153         estimate D2E/DX2                !
 ! D194  D(36,33,34,73)         55.2725         estimate D2E/DX2                !
 ! D195  D(36,33,34,74)        175.357          estimate D2E/DX2                !
 ! D196  D(36,33,34,75)        -64.8195         estimate D2E/DX2                !
 ! D197  D(31,33,35,76)         55.2717         estimate D2E/DX2                !
 ! D198  D(31,33,35,77)        175.3757         estimate D2E/DX2                !
 ! D199  D(31,33,35,78)        -64.807          estimate D2E/DX2                !
 ! D200  D(34,33,35,76)        179.8805         estimate D2E/DX2                !
 ! D201  D(34,33,35,77)        -60.0155         estimate D2E/DX2                !
 ! D202  D(34,33,35,78)         59.8017         estimate D2E/DX2                !
 ! D203  D(36,33,35,76)        -55.3816         estimate D2E/DX2                !
 ! D204  D(36,33,35,77)         64.7223         estimate D2E/DX2                !
 ! D205  D(36,33,35,78)       -175.4604         estimate D2E/DX2                !
 ! D206  D(31,33,36,37)        179.9909         estimate D2E/DX2                !
 ! D207  D(31,33,36,41)         -0.0721         estimate D2E/DX2                !
 ! D208  D(34,33,36,37)         62.49           estimate D2E/DX2                !
 ! D209  D(34,33,36,41)       -117.5731         estimate D2E/DX2                !
 ! D210  D(35,33,36,37)        -62.5592         estimate D2E/DX2                !
 ! D211  D(35,33,36,41)        117.3778         estimate D2E/DX2                !
 ! D212  D(33,36,37,38)        179.9915         estimate D2E/DX2                !
 ! D213  D(33,36,37,79)          0.0615         estimate D2E/DX2                !
 ! D214  D(41,36,37,38)          0.0595         estimate D2E/DX2                !
 ! D215  D(41,36,37,79)       -179.8704         estimate D2E/DX2                !
 ! D216  D(33,36,41,30)          0.0422         estimate D2E/DX2                !
 ! D217  D(33,36,41,40)       -179.9206         estimate D2E/DX2                !
 ! D218  D(37,36,41,30)        179.9847         estimate D2E/DX2                !
 ! D219  D(37,36,41,40)          0.0219         estimate D2E/DX2                !
 ! D220  D(36,37,38,39)         -0.0847         estimate D2E/DX2                !
 ! D221  D(36,37,38,80)       -179.9838         estimate D2E/DX2                !
 ! D222  D(79,37,38,39)        179.8455         estimate D2E/DX2                !
 ! D223  D(79,37,38,80)         -0.0536         estimate D2E/DX2                !
 ! D224  D(37,38,39,40)          0.0299         estimate D2E/DX2                !
 ! D225  D(37,38,39,81)       -179.939          estimate D2E/DX2                !
 ! D226  D(80,38,39,40)        179.929          estimate D2E/DX2                !
 ! D227  D(80,38,39,81)         -0.0399         estimate D2E/DX2                !
 ! D228  D(38,39,40,41)          0.0503         estimate D2E/DX2                !
 ! D229  D(38,39,40,82)        179.9964         estimate D2E/DX2                !
 ! D230  D(81,39,40,41)       -179.9808         estimate D2E/DX2                !
 ! D231  D(81,39,40,82)         -0.0347         estimate D2E/DX2                !
 ! D232  D(39,40,41,30)        179.9691         estimate D2E/DX2                !
 ! D233  D(39,40,41,36)         -0.0768         estimate D2E/DX2                !
 ! D234  D(82,40,41,30)          0.0233         estimate D2E/DX2                !
 ! D235  D(82,40,41,36)        179.9774         estimate D2E/DX2                !
 ! D236  D(26,42,43,44)        179.4388         estimate D2E/DX2                !
 ! D237  D(26,42,43,48)         -0.4151         estimate D2E/DX2                !
 ! D238  D(83,42,43,44)         -0.9316         estimate D2E/DX2                !
 ! D239  D(83,42,43,48)        179.2145         estimate D2E/DX2                !
 ! D240  D(42,43,44,45)       -179.4145         estimate D2E/DX2                !
 ! D241  D(42,43,44,84)          0.3355         estimate D2E/DX2                !
 ! D242  D(48,43,44,45)          0.4395         estimate D2E/DX2                !
 ! D243  D(48,43,44,84)       -179.8106         estimate D2E/DX2                !
 ! D244  D(42,43,48,23)         -0.549          estimate D2E/DX2                !
 ! D245  D(42,43,48,47)        178.8251         estimate D2E/DX2                !
 ! D246  D(44,43,48,23)        179.5971         estimate D2E/DX2                !
 ! D247  D(44,43,48,47)         -1.0288         estimate D2E/DX2                !
 ! D248  D(43,44,45,46)          0.2019         estimate D2E/DX2                !
 ! D249  D(43,44,45,85)        179.9388         estimate D2E/DX2                !
 ! D250  D(84,44,45,46)       -179.5522         estimate D2E/DX2                !
 ! D251  D(84,44,45,85)          0.1847         estimate D2E/DX2                !
 ! D252  D(44,45,46,47)         -0.2368         estimate D2E/DX2                !
 ! D253  D(44,45,46,86)        179.6418         estimate D2E/DX2                !
 ! D254  D(85,45,46,47)       -179.9737         estimate D2E/DX2                !
 ! D255  D(85,45,46,86)         -0.0951         estimate D2E/DX2                !
 ! D256  D(45,46,47,48)         -0.3749         estimate D2E/DX2                !
 ! D257  D(45,46,47,87)        179.3166         estimate D2E/DX2                !
 ! D258  D(86,46,47,48)        179.7466         estimate D2E/DX2                !
 ! D259  D(86,46,47,87)         -0.5619         estimate D2E/DX2                !
 ! D260  D(46,47,48,23)       -179.6428         estimate D2E/DX2                !
 ! D261  D(46,47,48,43)          0.9999         estimate D2E/DX2                !
 ! D262  D(87,47,48,23)          0.6763         estimate D2E/DX2                !
 ! D263  D(87,47,48,43)       -178.6809         estimate D2E/DX2                !
 ! D264  D(14,49,50,89)        102.2447         estimate D2E/DX2                !
 ! D265  D(22,49,50,89)        -76.5651         estimate D2E/DX2                !
 ! D266  D(49,50,89,25)         49.9483         estimate D2E/DX2                !
 ! D267  D(13,51,52,2)        -179.8367         estimate D2E/DX2                !
 ! D268  D(13,51,52,10)         -0.2031         estimate D2E/DX2                !
 ! D269  D(88,51,52,2)          -0.7099         estimate D2E/DX2                !
 ! D270  D(88,51,52,10)        178.9237         estimate D2E/DX2                !
 --------------------------------------------------------------------------------
 Trust Radius=3.00D-01 FncErr=1.00D-07 GrdErr=1.00D-06 EigMax=2.50D+02 EigMin=1.00D-04
 Number of steps in this run=    534 maximum allowed number of steps=    534.
 GradGradGradGradGradGradGradGradGradGradGradGradGradGradGradGradGradGrad

 Leave Link  103 at Wed Dec 11 18:38:41 2024, MaxMem= 13421772800 cpu:               0.7 elap:               0.0
 (Enter /public/software/apps/Gaussian/g16/l202.exe)
 Symmetry turned off by external request.
 Stoichiometry    C50H36CuO2(2)
 Framework group  C1[X(C50H36CuO2)]
 Deg. of freedom   261
 Full point group                 C1      NOp   1
                          Input orientation:                          
 ---------------------------------------------------------------------
 Center     Atomic      Atomic             Coordinates (Angstroms)
 Number     Number       Type             X           Y           Z
 ---------------------------------------------------------------------
      1          6           0       -5.417731   -1.438436   -1.824041
      2          6           0       -6.168362   -0.370683   -1.015219
      3          6           0       -6.996452   -0.994878    0.118158
      4          6           0       -7.032377    0.486446   -1.914093
      5          6           0       -8.117054    0.089801   -2.703550
      6          6           0       -8.786053    1.060478   -3.467332
      7          6           0       -8.370140    2.405647   -3.434221
      8          6           0       -7.280993    2.791728   -2.637496
      9          6           0       -6.629777    1.810422   -1.889607
     10          6           0       -5.497537    1.927481   -0.996431
     11          6           0       -4.757236    3.052658   -0.639355
     12          6           0       -3.696964    2.893237    0.265546
     13          6           0       -3.386894    1.618590    0.797433
     14          6           0       -2.270084    1.463619    1.759633
     15          6           0       -2.192795    2.314128    2.870819
     16          6           0       -1.150166    2.189383    3.797059
     17          6           0       -1.083337    3.057706    4.898623
     18          6           0       -0.040751    2.947558    5.819312
     19          6           0        0.944978    1.975899    5.648416
     20          6           0        0.892790    1.104412    4.558299
     21          6           0       -0.160602    1.188635    3.622185
     22          6           0       -0.246647    0.313437    2.510554
     23          6           0        0.752929   -0.765989    2.286099
     24          6           0        1.667600   -0.626664    1.225664
     25          8           0        1.576416    0.481628    0.386053
     26          6           0        2.651321   -1.606029    0.993287
     27          6           0        3.641000   -1.451319   -0.099231
     28          6           0        3.862869   -2.509349   -1.013241
     29          6           0        4.800706   -2.376446   -2.048370
     30          6           0        5.510765   -1.181288   -2.148047
     31          6           0        5.314098   -0.140488   -1.259846
     32          6           0        4.382645   -0.256776   -0.224198
     33          6           0        6.209002    1.036897   -1.578790
     34          6           0        5.380609    2.278731   -1.940320
     35          6           0        7.180962    1.319473   -0.424142
     36          6           0        6.940825    0.498201   -2.788312
     37          6           0        7.923914    1.131912   -3.555790
     38          6           0        8.476702    0.442471   -4.647555
     39          6           0        8.047032   -0.862307   -4.957982
     40          6           0        7.060583   -1.488439   -4.179752
     41          6           0        6.524472   -0.784032   -3.101254
     42          6           0        2.694448   -2.745916    1.807428
     43          6           0        1.773320   -2.918465    2.847904
     44          6           0        1.824669   -4.072847    3.645810
     45          6           0        0.902791   -4.257982    4.676726
     46          6           0       -0.079325   -3.297891    4.918393
     47          6           0       -0.143698   -2.143723    4.134399
     48          6           0        0.786900   -1.929921    3.094394
     49          6           0       -1.284575    0.476132    1.574150
     50          8           0       -1.316723   -0.335245    0.441900
     51          6           0       -4.162275    0.500562    0.421196
     52          6           0       -5.215208    0.676229   -0.481458
     53          1           0       -6.134732   -2.154373   -2.279392
     54          1           0       -4.825190   -0.967427   -2.638106
     55          1           0       -4.724776   -2.006014   -1.166768
     56          1           0       -6.337562   -1.554275    0.816316
     57          1           0       -7.529868   -0.206653    0.693108
     58          1           0       -7.748566   -1.701209   -0.295063
     59          1           0       -8.438104   -0.943499   -2.726731
     60          1           0       -9.626824    0.773215   -4.084846
     61          1           0       -8.892670    3.146059   -4.026041
     62          1           0       -6.958486    3.824227   -2.607031
     63          1           0       -4.990954    4.027175   -1.046688
     64          1           0       -3.111022    3.759723    0.545665
     65          1           0       -2.954350    3.072430    3.017438
     66          1           0       -1.836152    3.823389    5.046081
     67          1           0        0.005721    3.621018    6.665279
     68          1           0        1.754629    1.898387    6.362784
     69          1           0        1.681505    0.370916    4.455779
     70          1           0        3.298968   -3.430245   -0.930317
     71          1           0        4.965126   -3.184612   -2.749174
     72          1           0        4.248465    0.557741    0.476214
     73          1           0        4.683797    2.054373   -2.777043
     74          1           0        4.783884    2.614364   -1.065317
     75          1           0        6.047067    3.111762   -2.250406
     76          1           0        7.769097    0.409343   -0.176118
     77          1           0        7.887266    2.130472   -0.701769
     78          1           0        6.623086    1.636289    0.482775
     79          1           0        8.255039    2.133515   -3.314813
     80          1           0        9.238517    0.916526   -5.252590
     81          1           0        8.480070   -1.385228   -5.800753
     82          1           0        6.727584   -2.490556   -4.414707
     83          1           0        3.454669   -3.499437    1.631834
     84          1           0        2.575465   -4.834015    3.469519
     85          1           0        0.947383   -5.150607    5.287384
     86          1           0       -0.795643   -3.449198    5.715693
     87          1           0       -0.927203   -1.428236    4.346289
     88          1           0       -3.960056   -0.480397    0.832379
     89         29           0        0.028946    0.349146   -0.780590
 ---------------------------------------------------------------------
 Rotational constants (GHZ):           0.0653454           0.0273404           0.0231036
 Leave Link  202 at Wed Dec 11 18:38:41 2024, MaxMem= 13421772800 cpu:               0.6 elap:               0.0
 (Enter /public/software/apps/Gaussian/g16/l301.exe)
 Standard basis: def2SVPP (5D, 7F)
 Ernie: Thresh=  0.10000D-02 Tol=  0.10000D-05 Strict=F.
   824 basis functions,  1515 primitive gaussians,   878 cartesian basis functions
   191 alpha electrons      190 beta electrons
       nuclear repulsion energy      7048.0646000800 Hartrees.
 IExCor=  402 DFT=T Ex+Corr=B3LYP ExCW=0 ScaHFX=  0.200000
 ScaDFX=  0.800000  0.720000  1.000000  0.810000 ScalE2=  1.000000  1.000000
 IRadAn=      5 IRanWt=     -1 IRanGd=            0 ICorTp=0 IEmpDi=141
 NAtoms=   89 NActive=   89 NUniq=   89 SFac= 1.00D+00 NAtFMM=   60 NAOKFM=T Big=T
 Integral buffers will be    131072 words long.
 Raffenetti 2 integral format.
 Two-electron integral symmetry is turned off.
 R6Disp:  Grimme-D3(BJ) Dispersion energy=       -0.2477807421 Hartrees.
 Nuclear repulsion after empirical dispersion term =     7047.8168193379 Hartrees.
 Leave Link  301 at Wed Dec 11 18:38:41 2024, MaxMem= 13421772800 cpu:               0.6 elap:               0.0
 (Enter /public/software/apps/Gaussian/g16/l302.exe)
 NPDir=0 NMtPBC=     1 NCelOv=     1 NCel=       1 NClECP=     1 NCelD=      1
         NCelK=      1 NCelE2=     1 NClLst=     1 CellRange=     0.0.
 One-electron integrals computed using PRISM.
   1 Symmetry operations used in ECPInt.
 ECPInt:  NShTT=   77815 NPrTT=  318030 LenC2=   54804 LenP2D=  133777.
 LDataN:  DoStor=T MaxTD1= 4 Len=   56
 NBasis=   824 RedAO= T EigKep=  1.66D-04  NBF=   824
 NBsUse=   824 1.00D-06 EigRej= -1.00D+00 NBFU=   824
 Precomputing XC quadrature grid using
 IXCGrd= 4 IRadAn=           5 IRanWt=          -1 IRanGd=           0 AccXCQ= 0.00D+00.
 Generated NRdTot=       0 NPtTot=           0 NUsed=           0 NTot=          32
 NSgBfM=   826   825   826   826   826 MxSgAt=    89 MxSgA2=    89.
 Leave Link  302 at Wed Dec 11 18:38:42 2024, MaxMem= 13421772800 cpu:              40.0 elap:               1.3
 (Enter /public/software/apps/Gaussian/g16/l303.exe)
 DipDrv:  MaxL=1.
 Leave Link  303 at Wed Dec 11 18:38:42 2024, MaxMem= 13421772800 cpu:               4.0 elap:               0.1
 (Enter /public/software/apps/Gaussian/g16/l401.exe)
 ExpMin= 3.30D-02 ExpMax= 7.64D+04 ExpMxC= 1.15D+04 IAcc=3 IRadAn=         5 AccDes= 0.00D+00
 Harris functional with IExCor=  402 and IRadAn=       5 diagonalized for initial guess.
 HarFok:  IExCor=  402 AccDes= 0.00D+00 IRadAn=         5 IDoV= 1 UseB2=F ITyADJ=14
 ICtDFT=  3500011 ScaDFX=  1.000000  1.000000  1.000000  1.000000
 FoFCou: FMM=F IPFlag=           0 FMFlag=      100000 FMFlg1=        2001
         NFxFlg=           0 DoJE=T BraDBF=F KetDBF=T FulRan=T
         wScrn=  0.000000 ICntrl=       500 IOpCl=  0 I1Cent=   200000004 NGrid=           0
         NMat0=    1 NMatS0=      1 NMatT0=    0 NMatD0=    1 NMtDS0=    0 NMtDT0=    0
 Symmetry not used in FoFCou.
 Harris En= -3716.76122258619    
 JPrj=0 DoOrth=F DoCkMO=F.
 Initial guess <Sx>= 0.0000 <Sy>= 0.0000 <Sz>= 0.5000 <S**2>= 0.7500 S= 0.5000
 Leave Link  401 at Wed Dec 11 18:38:45 2024, MaxMem= 13421772800 cpu:              84.9 elap:               2.7
 (Enter /public/software/apps/Gaussian/g16/l502.exe)
 Two-electron integral symmetry not used.
 UHF open shell SCF:
 Using DIIS extrapolation, IDIIS=  1040.
 NGot= 13421772800 LenX= 13420193574 LenY= 13419421812
 Requested convergence on RMS density matrix=1.00D-08 within 128 cycles.
 Requested convergence on MAX density matrix=1.00D-06.
 Requested convergence on             energy=1.00D-06.
 No special actions if energy rises.
 Fock matrices will be formed incrementally for  20 cycles.

 Cycle   1  Pass 1  IDiag  1:
 FoFJK:  IHMeth= 1 ICntrl=       0 DoSepK=F KAlg= 0 I1Cent=           0 FoldK=F
 IRaf= 790000000 NMat=       1 IRICut=       1 DoRegI=T DoRafI=F ISym2E= 0 IDoP0=0 IntGTp=1.
 FoFCou: FMM=T IPFlag=           0 FMFlag=      100000 FMFlg1=        2001
         NFxFlg=           0 DoJE=F BraDBF=F KetDBF=F FulRan=T
         wScrn=  0.000000 ICntrl=         0 IOpCl=  1 I1Cent=           0 NGrid=           0
         NMat0=    1 NMatS0=      1 NMatT0=    0 NMatD0=    1 NMtDS0=    0 NMtDT0=    0
 Symmetry not used in FoFCou.
 FMM levels:  10  Number of levels for PrismC:   9
 E= -3683.78190993933    
 DIIS: error= 3.55D-01 at cycle   1 NSaved=   1.
 NSaved= 1 IEnMin= 1 EnMin= -3683.78190993933     IErMin= 1 ErrMin= 3.55D-01
 ErrMax= 3.55D-01  0.00D+00 EMaxC= 1.00D-01 BMatC= 8.88D+01 BMatP= 8.88D+01
 IDIUse=3 WtCom= 0.00D+00 WtEn= 1.00D+00
 Coeff-Com:  0.100D+01
 Coeff-En:   0.100D+01
 Coeff:      0.100D+01
 Gap=    -2.089 Goal=   None    Shift=    0.000
 Gap=    -3.589 Goal=   None    Shift=    0.000
 GapD=   -3.589 DampG=0.250 DampE=0.125 DampFc=0.1250 IDamp=-1.
 Damping current iteration by 1.25D-01
 RMSDP=2.28D-01 MaxDP=5.90D+01              OVMax= 9.95D-01

 Cycle   2  Pass 1  IDiag  1:
 RMSU=  2.84D-02    CP:  1.19D+00
 E= -3695.01477957972     Delta-E=      -11.232869640393 Rises=F Damp=T
 DIIS: error= 2.48D-01 at cycle   2 NSaved=   2.
 NSaved= 2 IEnMin= 2 EnMin= -3695.01477957972     IErMin= 2 ErrMin= 2.48D-01
 ErrMax= 2.48D-01  0.00D+00 EMaxC= 1.00D-01 BMatC= 3.68D+01 BMatP= 8.88D+01
 IDIUse=3 WtCom= 0.00D+00 WtEn= 1.00D+00
 Coeff-Com: -0.125D+01 0.225D+01
 Coeff-En:   0.000D+00 0.100D+01
 Coeff:      0.000D+00 0.100D+01
 Gap=     0.035 Goal=   None    Shift=    0.000
 Gap=    -0.117 Goal=   None    Shift=    0.000
 RMSDP=3.12D-02 MaxDP=7.03D+00 DE=-1.12D+01 OVMax= 9.90D-01

 Cycle   3  Pass 1  IDiag  1:
 RMSU=  2.68D-02    CP:  9.63D-01  4.54D-01
 E= -3641.53048280407     Delta-E=       53.484296775649 Rises=F Damp=F
 DIIS: error= 1.19D-01 at cycle   3 NSaved=   3.
 NSaved= 3 IEnMin= 2 EnMin= -3695.01477957972     IErMin= 3 ErrMin= 1.19D-01
 ErrMax= 1.19D-01  0.00D+00 EMaxC= 1.00D-01 BMatC= 7.35D+01 BMatP= 3.68D+01
 IDIUse=2 WtCom= 0.00D+00 WtEn= 1.00D+00
 EnCoef did   100 forward-backward iterations
 Coeff-En:   0.613D+00 0.257D-01 0.361D+00
 Coeff:      0.613D+00 0.257D-01 0.361D+00
 Gap=    -0.148 Goal=   None    Shift=    0.000
 Gap=    -0.078 Goal=   None    Shift=    0.000
 RMSDP=2.79D-02 MaxDP=6.78D+00 DE= 5.35D+01 OVMax= 9.43D-01

 Cycle   4  Pass 1  IDiag  1:
 RMSU=  7.85D-03    CP:  8.96D-01  4.18D-02  1.03D-01
 E= -3700.21914978234     Delta-E=      -58.688666978265 Rises=F Damp=F
 DIIS: error= 1.67D-01 at cycle   4 NSaved=   4.
 NSaved= 4 IEnMin= 4 EnMin= -3700.21914978234     IErMin= 3 ErrMin= 1.19D-01
 ErrMax= 1.67D-01  0.00D+00 EMaxC= 1.00D-01 BMatC= 4.78D+01 BMatP= 3.68D+01
 IDIUse=2 WtCom= 0.00D+00 WtEn= 1.00D+00
 EnCoef did   100 forward-backward iterations
 Coeff-En:   0.382D+00 0.110D-01 0.187D+00 0.420D+00
 Coeff:      0.382D+00 0.110D-01 0.187D+00 0.420D+00
 Gap=     0.026 Goal=   None    Shift=    0.000
 Gap=     0.205 Goal=   None    Shift=    0.000
 RMSDP=9.48D-03 MaxDP=1.15D+00 DE=-5.87D+01 OVMax= 8.46D-01

 Cycle   5  Pass 1  IDiag  1:
 RMSU=  6.48D-03    CP:  8.81D-01  1.72D-02  1.27D-01  1.28D-01
 E= -3688.93755381604     Delta-E=       11.281595966297 Rises=F Damp=F
 DIIS: error= 1.16D-01 at cycle   5 NSaved=   5.
 NSaved= 5 IEnMin= 4 EnMin= -3700.21914978234     IErMin= 5 ErrMin= 1.16D-01
 ErrMax= 1.16D-01  0.00D+00 EMaxC= 1.00D-01 BMatC= 5.65D+01 BMatP= 3.68D+01
 IDIUse=2 WtCom= 0.00D+00 WtEn= 1.00D+00
 EnCoef did   100 forward-backward iterations
 Coeff-En:   0.203D+00 0.113D-01 0.000D+00 0.467D+00 0.319D+00
 Coeff:      0.203D+00 0.113D-01 0.000D+00 0.467D+00 0.319D+00
 Gap=     0.703 Goal=   None    Shift=    0.000
 Gap=     0.079 Goal=   None    Shift=    0.000
 RMSDP=1.46D-02 MaxDP=1.97D+00 DE= 1.13D+01 OVMax= 9.64D-01

 Cycle   6  Pass 1  IDiag  1:
 RMSU=  1.38D-02    CP:  9.20D-01  8.35D-02  1.70D-01  2.21D-01  3.65D-01
 E= -3661.37898680083     Delta-E=       27.558567015216 Rises=F Damp=F
 DIIS: error= 1.32D-01 at cycle   6 NSaved=   6.
 NSaved= 6 IEnMin= 4 EnMin= -3700.21914978234     IErMin= 5 ErrMin= 1.16D-01
 ErrMax= 1.32D-01  0.00D+00 EMaxC= 1.00D-01 BMatC= 1.08D+02 BMatP= 3.68D+01
 IDIUse=2 WtCom= 0.00D+00 WtEn= 1.00D+00
 EnCoef did   100 forward-backward iterations
 Coeff-En:   0.202D+00 0.641D-02 0.000D+00 0.387D+00 0.304D+00 0.101D+00
[...]
 4,-0.00000499,0.00000675,-0.00000533,-0.00001454,-0.00000099,0.0000075
 4,0.00001098,-0.00000871,-0.00000337,-0.00000333,-0.00000006,0.0000093
 4,0.00001009,-0.00000238,-0.00000419,-0.00000820,0.00000024,0.00000035
 ,0.00000622,0.00000175,0.00000482,0.00000214,-0.00000484,0.00000546,-0
 .00000266,-0.00000601,-0.00000321,-0.00000195,0.00000472,0.00000713,-0
 .00003208,0.00000127,0.00001407,-0.00001485,-0.00000491,0.00000222,-0.
 00000871,0.00001311,-0.00001771,-0.00000707,0.00003086,-0.00002528,-0.
 00000812,0.00002819,0.07252151,0.00002372,-0.00005784,-0.00003821,-0.0
 0058477,-0.00070759,-0.00014519,-0.00004254,-0.00012475,0.00001265,0.0
 0016196,0.00018745,0.00016155,-0.00003001,-0.00003209,-0.00002980,0.00
 005186,-0.00002185,0.00004635,0.00000878,0.00002668,0.00000720,0.00000
 736,0.00005420,0.00002901,-0.00014837,-0.00015309,-0.00013204,0.000268
 11,0.00156302,-0.00048753,-0.00034164,0.00043881,-0.00020614,-0.002675
 22,-0.00147088,-0.00296143,0.00907335,-0.01779608,0.00557198,0.0005827
 8,0.00101660,0.00113011,-0.00008685,-0.00006597,-0.00039605,0.00017838
 ,-0.00007815,0.00015660,-0.00004484,-0.00001841,-0.00005625,0.00006331
 ,-0.00004007,0.00000680,-0.00005981,0.00005155,0.00005130,-0.00002134,
 0.00000366,-0.00009988,-0.00002826,0.00021738,0.00009857,0.00006953,-0
 .00032161,0.00011521,0.00031143,0.00001960,-0.00035551,-0.00032824,-0.
 00047772,0.00053209,-0.00000658,0.00050107,-0.00060726,-0.00015092,0.0
 0023607,0.00008097,-0.00000518,-0.00001066,0.00000097,-0.00000636,0.00
 002354,-0.00001024,0.00001451,0.00001491,-0.00001196,-0.00000611,-0.00
 000881,0.00000411,0.00000139,-0.00002560,-0.00000436,0.00000563,-0.000
 00554,0.00000460,-0.00000540,-0.00000980,0.00000383,0.00000654,0.00000
 377,0.00000285,-0.00000237,0.00000419,-0.00000592,0.00001179,0.0000115
 8,-0.00001255,-0.00000483,-0.00000860,0.00000411,0.00000812,-0.0000044
 3,-0.00001179,0.00000314,0.00001284,-0.00000145,-0.00000130,0.00000845
 ,0.00000214,-0.00000778,-0.00000809,0.00000510,-0.00009361,-0.00010186
 ,0.00017507,0.00005722,0.00011104,-0.00012907,-0.00013601,-0.00009900,
 0.00018445,0.00012242,-0.00007132,-0.00006190,0.00000333,0.00003623,-0
 .00004656,0.00005598,-0.00005489,-0.00003015,0.00001277,-0.00004141,0.
 00015027,-0.00073986,-0.00061374,-0.00113466,0.00318859,0.00104536,0.0
 0031074,0.07885635,-0.30397343,0.05486039,0.00179307,0.00054991,0.0008
 5899,-0.00008641,0.00006323,0.00009027,0.00001677,0.00000128,0.0000027
 7,-0.00017459,0.00012515,-0.00030876,-0.00025533,0.00021497,-0.0001396
 1,0.00001477,-0.00000029,0.00000018,0.00009306,0.00006009,-0.00007228,
 0.00000733,0.00001954,0.00000926,0.00000798,-0.00000121,0.00000763,0.0
 0001076,-0.00000055,0.00000705,-0.00001112,0.00000079,-0.00000734,-0.0
 0001510,-0.00007593,0.00010227,0.00043641,-0.00093463,0.00033806,-0.00
 002681,0.00000669,0.00008693,-0.00000421,0.00000620,0.00001007,0.00000
 061,0.00000522,-0.00000120,-0.00000276,-0.00000134,0.00000094,-0.00001
 781,0.00000093,-0.00002635,-0.00000012,0.00000259,0.00000722,0.0000061
 4,-0.00000408,-0.00000325,-0.00002247,-0.00001090,0.00000060,-0.000000
 52,-0.00000308,0.00000148,-0.00000168,-0.00000596,0.00000134,0.0000031
 3,0.00000540,-0.00000425,-0.00000230,-0.00000125,-0.00000027,0.0000047
 5,0.00000469,-0.00000127,-0.00000157,-0.00000420,0.00000060,0.00000055
 ,0.00000310,0.00000088,0.00000239,0.00000092,-0.00000214,0.00000270,-0
 .00000121,-0.00000268,-0.00000128,-0.00000092,0.00000239,0.00000462,-0
 .00001557,0.00000021,0.00000798,-0.00000806,-0.00000203,0.00000187,-0.
 00000460,0.00000673,-0.00000866,-0.00000038,0.00001378,-0.00001778,0.0
 0000105,0.00001198,-0.08923796,0.32097231,-0.00055338,0.00016603,-0.00
 031432,0.00264254,0.00029340,-0.00158049,0.00000810,0.00011323,0.00010
 440,0.00006235,0.00014572,-0.00014124,0.00002701,-0.00006248,0.0000841
 7,-0.00002637,0.00001385,-0.00003756,-0.00004053,0.00005714,0.00000463
 ,-0.00009740,-0.00019759,-0.00030685,-0.00006887,0.00103513,-0.0000030
 2,-0.00645218,-0.00069957,0.00208358,-0.00011069,-0.00041893,-0.000757
 92,-0.00425802,-0.00217865,0.00236796,0.00345500,-0.01364981,0.0063483
 0,0.00307455,0.00013080,-0.00113795,-0.00046530,-0.00024780,-0.0007631
 5,0.00027413,-0.00012088,0.00042200,-0.00015829,-0.00013094,-0.0003518
 9,0.00031964,-0.00013662,0.00010003,-0.00006428,0.00021081,0.00018514,
 -0.00010334,-0.00005872,-0.00017899,0.00004442,0.00017404,0.00016196,-
 0.00004202,-0.00012515,-0.00005687,-0.00009642,-0.00004406,0.00011609,
 0.00014463,0.00021930,-0.00017574,0.00013605,-0.00016514,0.00020576,0.
 00002185,-0.00007255,-0.00000218,-0.00000199,0.00000673,0.00000916,0.0
 0000051,-0.00000232,-0.00000117,-0.00000134,-0.00000009,-0.00000040,0.
 00000187,0.00000036,-0.00000188,-0.00000194,0.00000050,0.00000043,0.00
 000135,0.00000354,-0.00000304,0.00000096,-0.00000012,0.00000007,-0.000
 00002,0.00000078,0.00000100,-0.00000004,0.00000037,0.00000087,-0.00000
 105,0.00000042,0.00000043,-0.00000003,0.00000034,-0.00000032,-0.000000
 33,0.00000039,-0.00000006,-0.00000035,-0.00000079,-0.00000049,-0.00000
 002,0.00000011,-0.00000067,-0.00000035,-0.00000063,0.00000041,0.000024
 55,0.00001518,-0.00005491,-0.00000612,-0.00004540,0.00002735,0.0000506
 9,0.00003337,-0.00005626,-0.00004368,0.00002488,0.00001731,0.00000715,
 -0.00001485,0.00000925,-0.00003959,0.00004906,0.00003643,-0.00001981,-
 0.00000363,-0.00008988,-0.00070787,-0.00032582,0.00019366,-0.00016989,
 0.00006432,0.00008769,-0.02833940,0.05547629,-0.06176556,-0.00582187,0
 .02019956,0.00105182,0.00033173,-0.00025266,0.00014468,-0.00005048,-0.
 00001365,0.00002873,0.00009657,-0.00069430,-0.00045039,-0.00013902,-0.
 00005188,0.00013572,0.00012322,-0.00002470,0.00006146,-0.00000055,0.00
 006074,-0.00008098,-0.00002610,-0.00001749,-0.00002648,0.00000605,-0.0
 0000617,-0.00000532,-0.00003881,-0.00000980,-0.00001020,0.00001428,-0.
 00000264,0.00000859,0.00061523,0.00011189,-0.00063533,0.00007390,-0.00
 072393,0.00029325,0.00000957,0.00004993,-0.00000542,-0.00000990,-0.000
 00805,0.00000631,0.00000107,-0.00000603,0.00000740,-0.00000240,0.00000
 365,0.00000422,0.00000581,-0.00000951,0.00001161,0.00000067,-0.0000004
 1,0.00000157,0.00000075,-0.00000046,0.00000003,0.00000029,-0.00000119,
 0.00000036,-0.00000017,-0.00000032,-0.00000061,0.00000045,-0.00000002,
 -0.00000021,0.00000003,-0.00000026,0.00000014,-0.00000020,0.00000024,-
 0.00000007,-0.00000024,-0.00000031,0.00000006,0.00000041,-0.00000016,-
 0.00000034,0.00000017,-0.00000029,0.00000018,0.00000010,-0.00000013,0.
 00000030,0.00000030,0.00000004,0.00000021,0.00000053,-0.00000041,0.000
 00018,0.00000200,0.00000141,0.00000179,0.00000263,0.00000202,0.0000007
 9,0.00000154,-0.00000101,0.00000017,-0.00000025,0.00000459,-0.00001048
 ,-0.00000181,-0.00001077,-0.00001409,0.03637203,-0.05824510,0.05478827
 ,-0.00001815,0.00007025,0.00003197,-0.00004071,0.00000667,0.00000738,0
 .00001521,-0.00001425,0.00001216,0.00000957,0.00010545,-0.00003397,-0.
 00000908,-0.00002597,-0.00000675,0.00001166,0.00000359,0.00000971,-0.0
 0000774,-0.00002077,-0.00000633,0.00004727,-0.00000713,0.00003365,-0.0
 0009428,-0.00005854,-0.00012172,0.00004933,0.00009339,0.00008774,-0.00
 012272,-0.00015302,-0.00011092,0.00031397,-0.00003256,-0.00014413,-0.0
 0069351,0.00019883,-0.00034719,0.00245070,-0.00298664,-0.00164623,0.00
 126257,0.00055698,0.00185334,-0.00028498,-0.00082768,-0.00130723,0.000
 84747,0.00046211,0.00132606,-0.00071185,0.00023307,-0.00037610,-0.0002
 8417,0.00011529,-0.00018238,-0.00047418,-0.00022128,-0.00060966,-0.000
 81576,0.00141614,0.00176487,-0.00252354,-0.00178704,-0.00667551,-0.002
 37016,-0.00439129,0.00649626,-0.00487455,0.02142961,-0.02199897,-0.071
 63320,-0.02089765,-0.03704428,0.00297478,-0.00387780,0.00064491,-0.000
 73724,0.00003509,0.00055730,0.00032040,-0.00004618,0.00008277,-0.00008
 832,-0.00018003,0.00004552,0.00003941,0.00008875,-0.00008517,-0.000140
 22,-0.00011529,0.00014572,0.00003948,0.00043677,0.00013636,-0.00004147
 ,-0.00000949,0.00001227,-0.00001006,0.00008818,0.00001152,0.00000781,0
 .00000327,-0.00002164,0.00002166,0.00010402,0.00004941,-0.00001319,-0.
 00003103,0.00000148,0.00001605,0.00000573,-0.00001842,-0.00000628,-0.0
 0001690,-0.00000065,0.00004458,0.00000901,-0.00004316,-0.00009150,-0.0
 0010548,0.00011607,0.00127241,0.00129636,-0.00218496,-0.00018690,-0.00
 146029,0.00127000,0.00085474,0.00108844,-0.00154861,-0.00088414,0.0001
 5672,0.00067493,-0.00029138,-0.00006402,0.00030031,-0.00043332,-0.0003
 7055,0.00067038,-0.00111922,0.00228306,-0.00141043,-0.00060426,0.01205
 697,0.02304561,-0.06192710,-0.02946791,0.03569122,-0.00000983,0.000348
 52,-0.00004408,-0.00013309,-0.00003568,-0.00011183,0.00008377,0.000011
 69,0.00001485,-0.00000497,0.00003267,-0.00006786,0.00000892,-0.0001068
 2,0.00003640,-0.00001245,-0.00002088,0.00001747,0.00001626,-0.00000603
 ,-0.00001432,0.00001261,0.00002105,0.00000621,-0.00001048,0.00000401,-
 0.00000505,0.00001165,0.00000002,0.00000926,0.00000853,-0.00000862,0.0
 0000939,-0.00000735,-0.00000448,-0.00000362,-0.00000913,-0.00001970,0.
 00002717,-0.00002796,-0.00003719,0.00002612,-0.00001617,-0.00011780,-0
 .00009863,-0.00001734,0.00002249,0.00002041,-0.00001269,-0.00000229,0.
 00000446,0.00003592,-0.00000556,-0.00001628,0.00002034,0.00001058,0.00
 001936,-0.00003469,-0.00002920,-0.00002847,-0.00000415,-0.00001535,-0.
 00003143,-0.00016350,-0.00017264,-0.00005199,0.00000611,0.00000156,0.0
 0006044,0.00000398,-0.00009382,-0.00005757,0.00007570,0.00002020,-0.00
 002778,0.00001371,-0.00001111,0.00000653,0.00001708,0.00002579,-0.0000
 0140,-0.00001693,-0.00002083,-0.00002237,-0.00000809,0.00000412,0.0000
 0796,0.00001221,0.00000315,-0.00001071,0.00000933,-0.00000570,-0.00001
 361,-0.00000695,-0.00000629,0.00000518,-0.00000640,-0.00017940,0.00008
 224,-0.00001566,0.00003233,-0.00000869,-0.00001211,0.00000235,0.000005
 18,0.00003939,-0.00001781,0.00000767,0.00003187,0.00002923,-0.00000121
 ,-0.00011751,-0.00011654,0.00000601,0.14117411,-0.00008944,0.00012164,
 -0.00013744,0.00003498,0.00001886,0.00008429,-0.00000584,0.00000198,-0
 .00006889,-0.00006715,0.00000235,-0.00012694,0.00004343,-0.00000844,0.
 00003571,-0.00003401,0.00002264,-0.00002721,0.00000207,-0.00004213,0.0
 0000462,-0.00000694,0.00000179,0.00001238,0.00005680,-0.00002741,0.000
 06622,0.00002167,-0.00012986,0.00002443,0.00012427,-0.00010154,0.00019
 481,-0.00020790,-0.00001308,0.00016333,-0.00027807,-0.00004938,-0.0000
 2254,0.00074781,-0.00147379,-0.00232380,0.00046591,-0.00039851,0.00046
 551,-0.00009305,-0.00030273,-0.00030420,0.00011886,0.00009996,0.000265
 88,-0.00018093,0.00001284,-0.00013029,-0.00005357,-0.00013113,-0.00002
 636,-0.00008542,-0.00000075,-0.00014290,-0.00030145,0.00048400,0.00025
 773,-0.00062284,-0.00049295,-0.00158704,0.00111956,0.00065172,0.000557
 12,0.00590274,-0.00387529,0.00749024,-0.01181352,-0.00000972,-0.009180
 98,0.00008868,-0.00069380,0.00107753,-0.00003447,0.00002240,-0.0001490
 7,-0.00020624,-0.00001812,-0.00011997,0.00004313,-0.00004051,-0.000157
 72,0.00001796,-0.00005037,-0.00000788,0.00005679,0.00010471,0.00001355
 ,0.00000361,0.00010725,0.00001822,0.00002526,0.00008402,-0.00010753,-0
 .00009532,0.00004499,0.00013107,0.00001549,-0.00004909,0.00007623,-0.0
 0006589,-0.00006709,0.00015832,0.00004926,0.00001297,-0.00004525,-0.00
 004328,0.00001480,0.00005754,-0.00000164,-0.00005051,-0.00001330,-0.00
 001268,-0.00000683,-0.00000214,0.00007494,0.00002297,-0.00009301,-0.00
 016371,-0.00069996,0.00040261,0.00005871,0.00027828,-0.00034626,-0.000
 31288,-0.00039479,0.00051691,0.00037559,-0.00016389,-0.00022994,0.0000
 2830,0.00013810,-0.00014397,0.00001458,-0.00010998,-0.00008427,-0.0000
 5199,-0.00047433,0.00052617,0.00225298,0.00309267,0.00208012,-0.022502
 76,-0.00944262,0.01532320,0.00010602,0.00037203,0.00009053,-0.00000677
 ,0.00002436,-0.00008907,0.00003566,-0.00004516,0.00000724,-0.00002085,
 0.00003576,0.00000464,-0.00000220,-0.00009531,0.00009610,0.00000261,-0
 .00001237,0.00004365,0.00002683,-0.00000461,-0.00001148,-0.00002189,-0
 .00001352,0.00000501,-0.00001457,-0.00001262,-0.00001051,-0.00000002,-
 0.00000151,-0.00000096,0.00000414,-0.00000169,-0.00000176,0.00001332,-
 0.00001949,-0.00000275,0.00004597,-0.00001634,-0.00001786,0.00003861,-
 0.00007751,-0.00010256,0.00002921,-0.00007549,-0.00016111,0.00002024,0
 .00000592,-0.00001171,0.00001106,0.00001911,-0.00001781,0.00000399,-0.
 00000075,-0.00001562,0.00002939,0.00004158,-0.00003224,0.00005640,-0.0
 0010091,0.00006032,0.00002721,-0.00000963,0.00000899,-0.00003579,0.000
 02697,-0.00007229,-0.00002622,0.00005746,0.00004504,-0.00001980,-0.000
 05623,-0.00013871,0.00004670,-0.00004767,-0.00000753,0.00003739,-0.000
 00377,0.00001402,-0.00003430,-0.00002043,-0.00000566,0.00000226,0.0000
 1489,-0.00004229,-0.00001723,-0.00002005,0.00000622,-0.00000419,-0.000
 00215,0.00000174,-0.00000087,-0.00000113,0.00000342,0.00001314,-0.0000
 1714,-0.00000991,0.00004808,-0.00003042,0.00007663,0.00001303,-0.00000
 949,0.00000584,0.00001103,0.00000516,0.00000107,0.00000147,0.00001443,
 0.00001784,0.00000167,0.00000028,0.00000090,-0.00012216,-0.00015463,0.
 00011404,0.02528899,0.01420970,-0.00008193,-0.00012761,0.00010461,0.00
 002429,0.00010678,0.00014797,0.00003640,-0.00008898,-0.00007932,-0.000
 07528,-0.00007849,-0.00013857,0.00004610,0.00002912,0.00002365,-0.0000
 5987,0.00002983,-0.00006604,-0.00000962,-0.00004032,-0.00002167,-0.000
 02300,-0.00003093,-0.00003703,0.00011549,0.00007916,0.00008628,-0.0000
 1162,0.00024602,-0.00011678,-0.00018780,0.00005150,-0.00017566,0.00000
 582,-0.00015244,-0.00006252,0.00090618,0.00006814,0.00059771,-0.002768
 44,0.00379344,0.00344648,-0.00236123,-0.00062615,-0.00353946,0.0006783
 9,0.00159114,0.00242676,-0.00173022,-0.00113795,-0.00286242,0.00197848
 ,-0.00079106,0.00086230,0.00035733,0.00072325,0.00068461,0.00038214,-0
 .00042180,0.00065679,0.00059691,-0.00268201,-0.00307500,0.00576225,0.0
 0443079,0.00388951,-0.00496738,-0.00500696,0.00264147,-0.01188973,0.02
 341155,-0.02747772,-0.04026080,-0.01525279,-0.01729099,0.00291865,-0.0
 0454667,0.00216174,-0.00078266,-0.00026785,0.00057198,-0.00011744,0.00
 017318,-0.00006128,0.00019810,0.00001792,-0.00027053,-0.00000727,-0.00
 023960,-0.00018505,-0.00016344,-0.00034274,0.00026338,0.00033733,0.000
 91434,-0.00002204,0.00000473,-0.00012560,0.00008292,0.00007288,0.00009
 966,0.00017150,-0.00004254,0.00009728,-0.00002065,0.00003904,0.0000885
 5,-0.00008063,-0.00002855,-0.00002941,0.00000614,0.00003794,-0.0000045
 4,-0.00006231,0.00000836,0.00003389,-0.00001438,0.00001007,0.00003972,
 -0.00002528,-0.00007575,-0.00008746,0.00003206,0.00180655,0.00138708,-
 0.00325104,-0.00038403,-0.00209425,0.00175486,0.00125392,0.00180331,-0
 .00238189,-0.00171346,0.00042440,0.00120820,-0.00025171,-0.00089751,0.
 00042610,-0.00024704,0.00023163,0.00072406,-0.00084498,0.00319593,-0.0
 0182978,0.00915796,-0.01554639,-0.03862065,0.04130972,0.02248887,-0.01
 784193,-0.00033622,-0.00085869,-0.00023342,0.00022597,0.00028170,0.000
 33495,0.00003735,-0.00001445,-0.00006709,-0.00003745,0.00011276,-0.000
 08846,-0.00000600,-0.00000697,0.00008873,0.00001834,0.00004800,0.00000
 786,0.00003270,0.00001956,-0.00002664,-0.00004501,-0.00003192,-0.00000
 468,-0.00001429,-0.00001950,0.00000134,-0.00001578,-0.00000060,-0.0000
 0356,-0.00001852,0.00000576,-0.00000676,0.00000478,-0.00000148,0.00001
 873,-0.00006094,0.00003357,0.00000591,0.00003746,-0.00001141,0.0000106
 2,0.00003384,0.00023425,0.00023298,-0.00002380,-0.00004457,0.00000289,
 0.00000197,-0.00004315,0.00005472,-0.00001665,0.00006738,0.00000824,-0
 .00009042,-0.00013323,0.00010067,-0.00001571,-0.00002008,0.00004116,0.
 00007272,-0.00003536,-0.00000526,-0.00033918,-0.00047023,-0.00023073,0
 .00001686,-0.00006776,-0.00012181,0.00001144,-0.00002504,0.00005421,-0
 .00004244,0.00001716,-0.00005619,-0.00002796,-0.00001178,-0.00002484,0
 .00003407,0.00002472,-0.00000209,-0.00001605,-0.00004362,-0.00001479,0
 .00001112,0.00001269,0.00000644,0.00001314,0.00000095,-0.00000343,0.00
 001687,-0.00000295,-0.00000804,0.00000238,-0.00000890,0.00001597,0.000
 00651,-0.00029331,0.00017830,0.00003210,0.00003766,0.00001660,0.000010
 94,0.00002786,0.00006773,0.00001272,-0.00006327,-0.00001071,0.00010768
 ,0.00010181,0.00012920,0.00031615,0.00052178,-0.00009312,0.00109005,-0
 .01427629,0.09626391\\-0.00000063,-0.00000132,0.00000079,0.00000023,0.
 00001078,-0.00000484,-0.00000013,-0.00000194,0.00000046,0.00000243,0.0
 0000170,0.00000291,0.00000032,-0.00000336,-0.00000091,-0.00000185,0.00
 000041,-0.00000263,-0.00000189,0.00000138,-0.00000230,0.00000256,0.000
 00146,0.00000142,0.00000237,-0.00000222,0.00000214,0.00000213,0.000010
 51,0.00000156,-0.00001047,-0.00000188,-0.00001030,0.00001027,-0.000002
 87,0.00000917,-0.00000157,0.00000868,-0.00000540,-0.00000166,0.0000091
 6,0.00001245,-0.00000652,0.00000226,-0.00000438,0.00001248,-0.00000493
 ,0.00000686,-0.00000418,-0.00000119,-0.00000396,0.00000261,0.00000141,
 0.00000266,-0.00000022,-0.00000045,0.00000096,0.00000301,-0.00000305,0
 .00000257,-0.00001513,0.00000605,-0.00000738,0.00000547,0.00000146,0.0
 0000814,-0.00000348,-0.00000679,0.00000815,-0.00000972,0.00001248,0.00
 000096,0.00000806,0.00000192,-0.00001472,0.00000654,-0.00001173,0.0000
 0584,-0.00000153,-0.00000457,-0.00000303,-0.00000704,-0.00000095,0.000
 00955,0.00000695,0.00000395,-0.00000811,0.00000030,-0.00000801,-0.0000
 0116,-0.00000105,0.00001022,0.00000429,0.00000473,0.00000550,-0.000004
 49,-0.00000015,-0.00000819,-0.00000484,0.00000129,0.00000049,0.0000018
 5,0.00000075,0.00000194,0.00000173,-0.00000161,-0.00000191,0.00000253,
 0.00000004,0.00000334,0.00000166,0.00000237,0.00000017,-0.00000186,0.0
 0000231,-0.00000021,-0.00000187,-0.00000174,-0.00000185,0.00000248,-0.
 00000245,0.00000105,0.00000356,0.00000344,-0.00000080,-0.00000440,-0.0
 0000989,0.00000259,0.00000766,0.00000243,0.00000129,-0.00000290,-0.000
 00221,-0.00000271,0.00000170,-0.00000069,0.00000025,0.00000085,-0.0000
 0300,0.00000199,0.00000290,0.00001215,-0.00000326,-0.00000937,0.000013
 06,-0.00000027,-0.00000729,-0.00002010,-0.00001788,-0.00001251,-0.0000
 0562,-0.00000456,-0.00000534,0.00000163,-0.00001373,0.00000105,-0.0000
 0018,-0.00000006,-0.00000078,0.00000072,0.00000067,-0.00000110,0.00000
 053,-0.00000003,0.00000007,0.00000054,0.00000026,-0.00000013,-0.000000
 72,0.00000065,0.00000013,-0.00000043,0.00000002,-0.00000093,0.00000058
 ,0.00000192,-0.00000018,0.00000157,0.00000059,0.00000056,0.00000144,-0
 .00000057,0.00000041,-0.00000042,-0.00000094,-0.00000104,0.00000014,-0
 .00000160,-0.00000019,-0.00000105,-0.00000123,-0.00000060,0.00000022,-
 0.00000083,-0.00000063,-0.00000005,-0.00000140,-0.00000060,-0.00000052
 ,-0.00000201,-0.00000074,-0.00000151,0.00000088,-0.00000085,-0.0000005
 7,-0.00000012,-0.00000089,0.00000119,0.00000122,-0.00000087,0.00000007
 ,0.00000127,0.00000100,-0.00000038,-0.00000225,0.00000096,-0.00000046,
 -0.00000021,-0.00000061,-0.00000022,0.00000009,0.00000095,0.00000049,0
 .00000043,0.00000002,0.00000067,-0.00000085,0.00000076,0.00000034,0.00
 000006,0.00000010,-0.00000057,-0.00000031,0.00000079,0.,-0.00000173,0.
 00000047,-0.00000070,-0.00000063,0.00000177,-0.00000061,0.00000050,0.0
 0000181,0.00000079,0.00000136,0.00000007,-0.00000057,0.00000074,0.0000
 0047,-0.00000062,0.00000129,-0.00000024,-0.00000047,0.00000186,-0.0000
 0027,0.00000038,-0.00000085,-0.00000160,-0.00000019,0.00000037,-0.0000
 0128,0.00000063,0.00000191,0.00000092,0.00000458,0.00000770,0.00001741
 \\\@
 The archive entry for this job was punched.


 CLIMB THE MOUNTAINS AND GET THEIR GOOD TIDINGS.
 NATURE'S PEACE WILL FLOW INTO YOU AS SUNSHINE FLOWS INTO TREES.
 THE WINDS WILL BLOW THEIR OWN FRESHNESS INTO YOU, 
 AND CARES WILL DROP OFF LIKE AUTUMN LEAVES.

                                         -- JOHN MUIR
 Job cpu time:       1 days 20 hours 48 minutes  2.5 seconds.
 Elapsed time:       0 days  1 hours 24 minutes 31.6 seconds.
 File lengths (MBytes):  RWF=  13212 Int=      0 D2E=      0 Chk=     81 Scr=      1
 Normal termination of Gaussian 16 at Wed Dec 11 20:51:43 2024.
