 Entering Gaussian System, Link 0=g16
 Initial command:
 /public/software/apps/Gaussian/g16/l1.exe "/tmp/Gau-55999.inp" -scrdir="/tmp/"
 Entering Link 1 = /public/software/apps/Gaussian/g16/l1.exe PID=     56000.
  
 Copyright (c) 1988-2019, Gaussian, Inc.  All Rights Reserved.
  
 This is part of the Gaussian(R) 16 program.  It is based on
 the Gaussian(R) 09 system (copyright 2009, Gaussian, Inc.),
 the Gaussian(R) 03 system (copyright 2003, Gaussian, Inc.),
 the Gaussian(R) 98 system (copyright 1998, Gaussian, Inc.),
 the Gaussian(R) 94 system (copyright 1995, Gaussian, Inc.),
 the Gaussian 92(TM) system (copyright 1992, Gaussian, Inc.),
 the Gaussian 90(TM) system (copyright 1990, Gaussian, Inc.),
 the Gaussian 88(TM) system (copyright 1988, Gaussian, Inc.),
 the Gaussian 86(TM) system (copyright 1986, Carnegie Mellon
 University), and the Gaussian 82(TM) system (copyright 1983,
 Carnegie Mellon University). Gaussian is a federally registered
 trademark of Gaussian, Inc.
  
 This software contains proprietary and confidential information,
 including trade secrets, belonging to Gaussian, Inc.
  
 This software is provided under written license and may be
 used, copied, transmitted, or stored only in accord with that
 written license.
  
 The following legend is applicable only to US Government
 contracts under FAR:
  
                    RESTRICTED RIGHTS LEGEND
  
 Use, reproduction and disclosure by the US Government is
 subject to restrictions as set forth in subparagraphs (a)
 and (c) of the Commercial Computer Software - Restricted
 Rights clause in FAR 52.227-19.
  
 Gaussian, Inc.
 340 Quinnipiac St., Bldg. 40, Wallingford CT 06492
  
  
 ---------------------------------------------------------------
 Warning -- This program may not be used in any manner that
 competes with the business of Gaussian, Inc. or will provide
 assistance to any competitor of Gaussian, Inc.  The licensee
 of this program is prohibited from giving any competitor of
 Gaussian, Inc. access to this program.  By using this program,
 the user acknowledges that Gaussian, Inc. is engaged in the
 business of creating and licensing software in the field of
 computational chemistry and represents and warrants to the
 licensee that it is not a competitor of Gaussian, Inc. and that
 it will not use this program in any manner prohibited above.
 ---------------------------------------------------------------
  

 Cite this work as:
 Gaussian 16, Revision C.01,
 M. J. Frisch, G. W. Trucks, H. B. Schlegel, G. E. Scuseria, 
 M. A. Robb, J. R. Cheeseman, G. Scalmani, V. Barone, 
 G. A. Petersson, H. Nakatsuji, X. Li, M. Caricato, A. V. Marenich, 
 J. Bloino, B. G. Janesko, R. Gomperts, B. Mennucci, H. P. Hratchian, 
 J. V. Ortiz, A. F. Izmaylov, J. L. Sonnenberg, D. Williams-Young, 
 F. Ding, F. Lipparini, F. Egidi, J. Goings, B. Peng, A. Petrone, 
 T. Henderson, D. Ranasinghe, V. G. Zakrzewski, J. Gao, N. Rega, 
 G. Zheng, W. Liang, M. Hada, M. Ehara, K. Toyota, R. Fukuda, 
 J. Hasegawa, M. Ishida, T. Nakajima, Y. Honda, O. Kitao, H. Nakai, 
 T. Vreven, K. Throssell, J. A. Montgomery, Jr., J. E. Peralta, 
 F. Ogliaro, M. J. Bearpark, J. J. Heyd, E. N. Brothers, K. N. Kudin, 
 V. N. Staroverov, T. A. Keith, R. Kobayashi, J. Normand, 
 K. Raghavachari, A. P. Rendell, J. C. Burant, S. S. Iyengar, 
 J. Tomasi, M. Cossi, J. M. Millam, M. Klene, C. Adamo, R. Cammi, 
 J. W. Ochterski, R. L. Martin, K. Morokuma, O. Farkas, 
 J. B. Foresman, and D. J. Fox, Gaussian, Inc., Wallingford CT, 2019.
 
 ******************************************
 Gaussian 16:  ES64L-G16RevC.01  3-Jul-2019
                 1-Aug-2024 
 ******************************************
 %nprocshared=32
 Will use up to   32 processors via shared memory.
 %mem=100GB
 ------------------------------------------
 #p opt freq b3lyp/def2svpp em=gd3bj nosymm
 ------------------------------------------
 1/18=20,19=15,26=3,38=1/1,3;
 2/9=110,12=2,15=1,17=6,18=5,40=1/2;
 3/5=43,7=202,11=2,25=1,30=1,71=1,74=-5,124=41/1,2,3;
 4//1;
 5/5=2,38=5/2;
 6/7=2,8=2,9=2,10=2,28=1/1;
 7/30=1/1,2,3,16;
 1/18=20,19=15,26=3/3(2);
 2/9=110,15=1/2;
 99//99;
 2/9=110,15=1/2;
 3/5=43,7=202,11=2,25=1,30=1,71=1,74=-5,124=41/1,2,3;
 4/5=5,16=3,69=1/1;
 5/5=2,38=5/2;
 7/30=1/1,2,3,16;
 1/18=20,19=15,26=3/3(-5);
 2/9=110,15=1/2;
 6/7=2,8=2,9=2,10=2,19=2,28=1/1;
 99/9=1/99;
 Leave Link    1 at Thu Aug  1 12:09:34 2024, MaxMem= 13421772800 cpu:               0.9 elap:               0.0
 (Enter /public/software/apps/Gaussian/g16/l101.exe)
 ------------------
 $$$$Title####2????
 ------------------
 Symbolic Z-matrix:
 Charge =  2 Multiplicity = 2
 C                    -4.91788  -1.63528  -0.32688 
 C                    -3.46398  -1.45755   0.16447 
 C                    -2.86926  -2.86105   0.40474 
 C                    -3.46621  -0.69719   1.51251 
 C                    -2.61675  -0.71731  -0.92648 
 C                    -3.05694   0.73805  -1.21215 
 O                    -1.95449   1.50309  -0.77029 
 C                    -0.91204   0.66339  -0.42443 
 C                     0.45895   1.20112  -0.01326 
 C                     0.20253   2.34849   1.02059 
 C                     1.40435   2.77428   1.84083 
 C                     2.26771   3.78781   1.3913 
 C                     3.38374   4.15379   2.15002 
 C                     3.64567   3.51615   3.36499 
 C                     2.78878   2.51454   3.82654 
 C                     1.67095   2.147     3.07226 
 C                     1.21505   1.7212   -1.28166 
 C                     0.37543   2.50411  -2.27188 
 C                    -0.28054   1.83251  -3.32053 
 C                    -1.07621   2.54003  -4.22602 
 C                    -1.21818   3.92368  -4.10006 
 C                    -0.5618    4.60193  -3.07025 
 C                     0.23354   3.89776  -2.16101 
 C                     1.34881   0.13331   0.62374 
 N                     0.9388   -1.01225   1.05145 
 C                     2.07003  -1.76837   1.587 
 C                     2.29785  -3.09628   0.78656 
 C                     2.60845  -2.82846  -0.70581 
 C                     3.45766  -3.89971   1.41599 
 C                     1.02316  -3.96246   0.86475 
 C                     3.24661  -0.7656    1.5276 
 O                     2.70229   0.33189   0.82394 
 N                    -1.21951  -0.5858   -0.51581 
 H                    -5.51089  -2.2241    0.40617 
 H                    -5.42865  -0.65957  -0.45748 
 H                    -4.93803  -2.17232  -1.29974 
 H                    -3.51957  -3.45781   1.08062 
 H                    -1.87543  -2.78199   0.88854 
 H                    -2.75991  -3.41533  -0.55241 
 H                    -2.42971  -0.53597   1.87868 
 H                    -4.01423  -1.2794    2.28468 
 H                    -3.96364   0.2901    1.42883 
 H                    -2.64964  -1.29768  -1.87579 
 H                    -3.19257   0.8923   -2.30428 
 H                    -3.9748    1.06285  -0.68582 
 H                    -0.58865   2.02075   1.73312 
 H                    -0.22408   3.23687   0.50953 
 H                     2.08112   4.2987    0.45912 
 H                     4.04588   4.93318   1.79562 
 H                     4.5112    3.79975   3.94963 
 H                     2.99194   2.02046   4.76779 
 H                     1.02113   1.36215   3.43955 
 H                     1.64696   0.85018  -1.82559 
 H                     2.09133   2.33321  -0.98167 
 H                    -0.18785   0.75857  -3.42631 
 H                    -1.58498   2.01462  -5.0238 
 H                    -1.83484   4.47056  -4.8015 
 H                    -0.66876   5.67489  -2.97646 
 H                     0.7368    4.4433   -1.37749 
 H                     1.85601  -2.01162   2.65195 
 H                     3.56499  -2.28353  -0.83712 
 H                     1.79908  -2.23194  -1.17857 
 H                     2.69488  -3.78722  -1.26155 
 H                     4.42263  -3.35932   1.33392 
 H                     3.25804  -4.09539   2.4917 
 H                     3.58128  -4.87814   0.90305 
 H                     1.19485  -4.96379   0.4134 
 H                     0.70448  -4.10592   1.91983 
 H                     0.19626  -3.4848    0.30252 
 H                     4.15159  -1.13385   1.00761 
 H                     3.5262   -0.43845   2.55218 
 Cu                   -0.47078  -2.16421   0.35224 
 
 ITRead=  0  0  0  0  0  0  0  0  0  0  0  0  0  0  0  0  0  0  0  0
 ITRead=  0  0  0  0  0  0  0  0  0  0  0  0  0  0  0  0  0  0  0  0
 ITRead=  0  0  0  0  0  0  0  0  0  0  0  0  0  0  0  0  0  0  0  0
 ITRead=  0  0  0  0  0  0  0  0  0  0  0  0
 MicOpt= -1 -1 -1 -1 -1 -1 -1 -1 -1 -1 -1 -1 -1 -1 -1 -1 -1 -1 -1 -1
 MicOpt= -1 -1 -1 -1 -1 -1 -1 -1 -1 -1 -1 -1 -1 -1 -1 -1 -1 -1 -1 -1
 MicOpt= -1 -1 -1 -1 -1 -1 -1 -1 -1 -1 -1 -1 -1 -1 -1 -1 -1 -1 -1 -1
 MicOpt= -1 -1 -1 -1 -1 -1 -1 -1 -1 -1 -1 -1
 NAtoms=     72 NQM=       72 NQMF=       0 NMMI=      0 NMMIF=      0
                NMic=       0 NMicF=      0.
                    Isotopes and Nuclear Properties:
 (Nuclear quadrupole moments (NQMom) in fm**2, nuclear magnetic moments (NMagM)
  in nuclear magnetons)

  Atom         1           2           3           4           5           6           7           8           9          10
 IAtWgt=          12          12          12          12          12          12          16          12          12          12
 AtmWgt=  12.0000000  12.0000000  12.0000000  12.0000000  12.0000000  12.0000000  15.9949146  12.0000000  12.0000000  12.0000000
 NucSpn=           0           0           0           0           0           0           0           0           0           0
 AtZEff=  -0.0000000  -0.0000000  -0.0000000  -0.0000000  -0.0000000  -0.0000000  -0.0000000  -0.0000000  -0.0000000  -0.0000000
 NQMom=    0.0000000   0.0000000   0.0000000   0.0000000   0.0000000   0.0000000   0.0000000   0.0000000   0.0000000   0.0000000
 NMagM=    0.0000000   0.0000000   0.0000000   0.0000000   0.0000000   0.0000000   0.0000000   0.0000000   0.0000000   0.0000000
 AtZNuc=   6.0000000   6.0000000   6.0000000   6.0000000   6.0000000   6.0000000   8.0000000   6.0000000   6.0000000   6.0000000

  Atom        11          12          13          14          15          16          17          18          19          20
 IAtWgt=          12          12          12          12          12          12          12          12          12          12
 AtmWgt=  12.0000000  12.0000000  12.0000000  12.0000000  12.0000000  12.0000000  12.0000000  12.0000000  12.0000000  12.0000000
 NucSpn=           0           0           0           0           0           0           0           0           0           0
 AtZEff=  -0.0000000  -0.0000000  -0.0000000  -0.0000000  -0.0000000  -0.0000000  -0.0000000  -0.0000000  -0.0000000  -0.0000000
 NQMom=    0.0000000   0.0000000   0.0000000   0.0000000   0.0000000   0.0000000   0.0000000   0.0000000   0.0000000   0.0000000
 NMagM=    0.0000000   0.0000000   0.0000000   0.0000000   0.0000000   0.0000000   0.0000000   0.0000000   0.0000000   0.0000000
 AtZNuc=   6.0000000   6.0000000   6.0000000   6.0000000   6.0000000   6.0000000   6.0000000   6.0000000   6.0000000   6.0000000

  Atom        21          22          23          24          25          26          27          28          29          30
 IAtWgt=          12          12          12          12          14          12          12          12          12          12
 AtmWgt=  12.0000000  12.0000000  12.0000000  12.0000000  14.0030740  12.0000000  12.0000000  12.0000000  12.0000000  12.0000000
 NucSpn=           0           0           0           0           2           0           0           0           0           0
 AtZEff=  -0.0000000  -0.0000000  -0.0000000  -0.0000000  -0.0000000  -0.0000000  -0.0000000  -0.0000000  -0.0000000  -0.0000000
 NQMom=    0.0000000   0.0000000   0.0000000   0.0000000   2.0440000   0.0000000   0.0000000   0.0000000   0.0000000   0.0000000
 NMagM=    0.0000000   0.0000000   0.0000000   0.0000000   0.4037610   0.0000000   0.0000000   0.0000000   0.0000000   0.0000000
 AtZNuc=   6.0000000   6.0000000   6.0000000   6.0000000   7.0000000   6.0000000   6.0000000   6.0000000   6.0000000   6.0000000

  Atom        31          32          33          34          35          36          37          38          39          40
 IAtWgt=          12          16          14           1           1           1           1           1           1           1
 AtmWgt=  12.0000000  15.9949146  14.0030740   1.0078250   1.0078250   1.0078250   1.0078250   1.0078250   1.0078250   1.0078250
 NucSpn=           0           0           2           1           1           1           1           1           1           1
 AtZEff=  -0.0000000  -0.0000000  -0.0000000  -0.0000000  -0.0000000  -0.0000000  -0.0000000  -0.0000000  -0.0000000  -0.0000000
 NQMom=    0.0000000   0.0000000   2.0440000   0.0000000   0.0000000   0.0000000   0.0000000   0.0000000   0.0000000   0.0000000
 NMagM=    0.0000000   0.0000000   0.4037610   2.7928460   2.7928460   2.7928460   2.7928460   2.7928460   2.7928460   2.7928460
 AtZNuc=   6.0000000   8.0000000   7.0000000   1.0000000   1.0000000   1.0000000   1.0000000   1.0000000   1.0000000   1.0000000

  Atom        41          42          43          44          45          46          47          48          49          50
 IAtWgt=           1           1           1           1           1           1           1           1           1           1
 AtmWgt=   1.0078250   1.0078250   1.0078250   1.0078250   1.0078250   1.0078250   1.0078250   1.0078250   1.0078250   1.0078250
 NucSpn=           1           1           1           1           1           1           1           1           1           1
 AtZEff=  -0.0000000  -0.0000000  -0.0000000  -0.0000000  -0.0000000  -0.0000000  -0.0000000  -0.0000000  -0.0000000  -0.0000000
 NQMom=    0.0000000   0.0000000   0.0000000   0.0000000   0.0000000   0.0000000   0.0000000   0.0000000   0.0000000   0.0000000
 NMagM=    2.7928460   2.7928460   2.7928460   2.7928460   2.7928460   2.7928460   2.7928460   2.7928460   2.7928460   2.7928460
 AtZNuc=   1.0000000   1.0000000   1.0000000   1.0000000   1.0000000   1.0000000   1.0000000   1.0000000   1.0000000   1.0000000

  Atom        51          52          53          54          55          56          57          58          59          60
 IAtWgt=           1           1           1           1           1           1           1           1           1           1
 AtmWgt=   1.0078250   1.0078250   1.0078250   1.0078250   1.0078250   1.0078250   1.0078250   1.0078250   1.0078250   1.0078250
 NucSpn=           1           1           1           1           1           1           1           1           1           1
 AtZEff=  -0.0000000  -0.0000000  -0.0000000  -0.0000000  -0.0000000  -0.0000000  -0.0000000  -0.0000000  -0.0000000  -0.0000000
 NQMom=    0.0000000   0.0000000   0.0000000   0.0000000   0.0000000   0.0000000   0.0000000   0.0000000   0.0000000   0.0000000
 NMagM=    2.7928460   2.7928460   2.7928460   2.7928460   2.7928460   2.7928460   2.7928460   2.7928460   2.7928460   2.7928460
 AtZNuc=   1.0000000   1.0000000   1.0000000   1.0000000   1.0000000   1.0000000   1.0000000   1.0000000   1.0000000   1.0000000

  Atom        61          62          63          64          65          66          67          68          69          70
 IAtWgt=           1           1           1           1           1           1           1           1           1           1
 AtmWgt=   1.0078250   1.0078250   1.0078250   1.0078250   1.0078250   1.0078250   1.0078250   1.0078250   1.0078250   1.0078250
 NucSpn=           1           1           1           1           1           1           1           1           1           1
 AtZEff=  -0.0000000  -0.0000000  -0.0000000  -0.0000000  -0.0000000  -0.0000000  -0.0000000  -0.0000000  -0.0000000  -0.0000000
 NQMom=    0.0000000   0.0000000   0.0000000   0.0000000   0.0000000   0.0000000   0.0000000   0.0000000   0.0000000   0.0000000
 NMagM=    2.7928460   2.7928460   2.7928460   2.7928460   2.7928460   2.7928460   2.7928460   2.7928460   2.7928460   2.7928460
 AtZNuc=   1.0000000   1.0000000   1.0000000   1.0000000   1.0000000   1.0000000   1.0000000   1.0000000   1.0000000   1.0000000

  Atom        71          72
 IAtWgt=           1          63
 AtmWgt=   1.0078250  62.9295992
 NucSpn=           1           3
 AtZEff=  -0.0000000  -0.0000000
 NQMom=    0.0000000 -22.0000000
 NMagM=    2.7928460   2.2233000
 AtZNuc=   1.0000000  29.0000000
 Leave Link  101 at Thu Aug  1 12:09:34 2024, MaxMem= 13421772800 cpu:               3.6 elap:               0.1
 (Enter /public/software/apps/Gaussian/g16/l103.exe)

 GradGradGradGradGradGradGradGradGradGradGradGradGradGradGradGradGradGrad
 Berny optimization.
 Initialization pass.
                           ----------------------------
                           !    Initial Parameters    !
                           ! (Angstroms and Degrees)  !
 --------------------------                            --------------------------
 ! Name  Definition              Value          Derivative Info.                !
 --------------------------------------------------------------------------------
 ! R1    R(1,2)                  1.5449         estimate D2E/DX2                !
 ! R2    R(1,34)                 1.1116         estimate D2E/DX2                !
 ! R3    R(1,35)                 1.109          estimate D2E/DX2                !
 ! R4    R(1,36)                 1.1114         estimate D2E/DX2                !
 ! R5    R(2,3)                  1.5431         estimate D2E/DX2                !
 ! R6    R(2,4)                  1.5477         estimate D2E/DX2                !
 ! R7    R(2,5)                  1.5671         estimate D2E/DX2                !
 ! R8    R(3,37)                 1.1117         estimate D2E/DX2                !
 ! R9    R(3,38)                 1.1082         estimate D2E/DX2                !
 ! R10   R(3,39)                 1.1115         estimate D2E/DX2                !
 ! R11   R(4,40)                 1.111          estimate D2E/DX2                !
 ! R12   R(4,41)                 1.1116         estimate D2E/DX2                !
 ! R13   R(4,42)                 1.1087         estimate D2E/DX2                !
 ! R14   R(5,6)                  1.5471         estimate D2E/DX2                !
 ! R15   R(5,33)                 1.4623         estimate D2E/DX2                !
 ! R16   R(5,43)                 1.1131         estimate D2E/DX2                !
 ! R17   R(6,7)                  1.4128         estimate D2E/DX2                !
 ! R18   R(6,44)                 1.1113         estimate D2E/DX2                !
 ! R19   R(6,45)                 1.1068         estimate D2E/DX2                !
 ! R20   R(7,8)                  1.3825         estimate D2E/DX2                !
 ! R21   R(8,9)                  1.529          estimate D2E/DX2                !
 ! R22   R(8,33)                 1.2897         estimate D2E/DX2                !
 ! R23   R(9,10)                 1.5656         estimate D2E/DX2                !
 ! R24   R(9,17)                 1.5656         estimate D2E/DX2                !
 ! R25   R(9,24)                 1.529          estimate D2E/DX2                !
 ! R26   R(10,11)                1.5161         estimate D2E/DX2                !
 ! R27   R(10,46)                1.114          estimate D2E/DX2                !
 ! R28   R(10,47)                1.1101         estimate D2E/DX2                !
 ! R29   R(11,12)                1.4052         estimate D2E/DX2                !
 ! R30   R(11,16)                1.4075         estimate D2E/DX2                !
 ! R31   R(12,13)                1.3983         estimate D2E/DX2                !
 ! R32   R(12,48)                1.0793         estimate D2E/DX2                !
 ! R33   R(13,14)                1.3969         estimate D2E/DX2                !
 ! R34   R(13,49)                1.0823         estimate D2E/DX2                !
 ! R35   R(14,15)                1.3966         estimate D2E/DX2                !
 ! R36   R(14,50)                1.0823         estimate D2E/DX2                !
 ! R37   R(15,16)                1.3977         estimate D2E/DX2                !
 ! R38   R(15,51)                1.0823         estimate D2E/DX2                !
 ! R39   R(16,52)                1.0831         estimate D2E/DX2                !
 ! R40   R(17,18)                1.5161         estimate D2E/DX2                !
 ! R41   R(17,53)                1.114          estimate D2E/DX2                !
 ! R42   R(17,54)                1.1101         estimate D2E/DX2                !
 ! R43   R(18,19)                1.4075         estimate D2E/DX2                !
 ! R44   R(18,23)                1.4052         estimate D2E/DX2                !
 ! R45   R(19,20)                1.3977         estimate D2E/DX2                !
 ! R46   R(19,55)                1.0831         estimate D2E/DX2                !
 ! R47   R(20,21)                1.3966         estimate D2E/DX2                !
 ! R48   R(20,56)                1.0823         estimate D2E/DX2                !
 ! R49   R(21,22)                1.3969         estimate D2E/DX2                !
 ! R50   R(21,57)                1.0823         estimate D2E/DX2                !
 ! R51   R(22,23)                1.3983         estimate D2E/DX2                !
 ! R52   R(22,58)                1.0823         estimate D2E/DX2                !
 ! R53   R(23,59)                1.0793         estimate D2E/DX2                !
 ! R54   R(24,25)                1.2897         estimate D2E/DX2                !
 ! R55   R(24,32)                1.3825         estimate D2E/DX2                !
 ! R56   R(25,26)                1.4623         estimate D2E/DX2                !
 ! R57   R(25,72)                1.9501         estimate D2E/DX2                !
 ! R58   R(26,27)                1.5671         estimate D2E/DX2                !
 ! R59   R(26,31)                1.5471         estimate D2E/DX2                !
 ! R60   R(26,60)                1.1131         estimate D2E/DX2                !
 ! R61   R(27,28)                1.5477         estimate D2E/DX2                !
 ! R62   R(27,29)                1.5449         estimate D2E/DX2                !
 ! R63   R(27,30)                1.5431         estimate D2E/DX2                !
 ! R64   R(28,61)                1.1087         estimate D2E/DX2                !
 ! R65   R(28,62)                1.111          estimate D2E/DX2                !
 ! R66   R(28,63)                1.1115         estimate D2E/DX2                !
 ! R67   R(29,64)                1.109          estimate D2E/DX2                !
 ! R68   R(29,65)                1.1114         estimate D2E/DX2                !
 ! R69   R(29,66)                1.1116         estimate D2E/DX2                !
 ! R70   R(30,67)                1.1117         estimate D2E/DX2                !
 ! R71   R(30,68)                1.1114         estimate D2E/DX2                !
 ! R72   R(30,69)                1.1082         estimate D2E/DX2                !
 ! R73   R(31,32)                1.4128         estimate D2E/DX2                !
 ! R74   R(31,70)                1.1068         estimate D2E/DX2                !
 ! R75   R(31,71)                1.1113         estimate D2E/DX2                !
 ! R76   R(33,72)                1.9508         estimate D2E/DX2                !
 ! R77   R(38,72)                1.6255         estimate D2E/DX2                !
 ! R78   R(69,72)                1.4803         estimate D2E/DX2                !
 ! A1    A(2,1,34)             110.6848         estimate D2E/DX2                !
 ! A2    A(2,1,35)             111.694          estimate D2E/DX2                !
 ! A3    A(2,1,36)             110.5506         estimate D2E/DX2                !
 ! A4    A(34,1,35)            107.3368         estimate D2E/DX2                !
 ! A5    A(34,1,36)            108.1558         estimate D2E/DX2                !
 ! A6    A(35,1,36)            108.2817         estimate D2E/DX2                !
 ! A7    A(1,2,3)              107.9132         estimate D2E/DX2                !
 ! A8    A(1,2,4)              109.4008         estimate D2E/DX2                !
 ! A9    A(1,2,5)              109.9808         estimate D2E/DX2                !
 ! A10   A(3,2,4)              108.166          estimate D2E/DX2                !
 ! A11   A(3,2,5)              109.2472         estimate D2E/DX2                !
 ! A12   A(4,2,5)              112.0279         estimate D2E/DX2                !
 ! A13   A(2,3,37)             110.944          estimate D2E/DX2                !
 ! A14   A(2,3,38)             110.4095         estimate D2E/DX2                !
 ! A15   A(2,3,39)             110.9413         estimate D2E/DX2                !
 ! A16   A(37,3,38)            107.307          estimate D2E/DX2                !
 ! A17   A(37,3,39)            108.2649         estimate D2E/DX2                !
 ! A18   A(38,3,39)            108.8637         estimate D2E/DX2                !
 ! A19   A(2,4,40)             110.9164         estimate D2E/DX2                !
 ! A20   A(2,4,41)             110.3925         estimate D2E/DX2                !
 ! A21   A(2,4,42)             111.8634         estimate D2E/DX2                !
 ! A22   A(40,4,41)            107.8786         estimate D2E/DX2                !
 ! A23   A(40,4,42)            108.3143         estimate D2E/DX2                !
 ! A24   A(41,4,42)            107.317          estimate D2E/DX2                !
 ! A25   A(2,5,6)              114.7756         estimate D2E/DX2                !
 ! A26   A(2,5,33)             111.3188         estimate D2E/DX2                !
 ! A27   A(2,5,43)             109.356          estimate D2E/DX2                !
 ! A28   A(6,5,33)             103.835          estimate D2E/DX2                !
 ! A29   A(6,5,43)             108.9404         estimate D2E/DX2                !
 ! A30   A(33,5,43)            108.3388         estimate D2E/DX2                !
 ! A31   A(5,6,7)              103.2755         estimate D2E/DX2                !
 ! A32   A(5,6,44)             110.2899         estimate D2E/DX2                !
 ! A33   A(5,6,45)             115.1011         estimate D2E/DX2                !
 ! A34   A(7,6,44)             109.1143         estimate D2E/DX2                !
 ! A35   A(7,6,45)             109.8457         estimate D2E/DX2                !
 ! A36   A(44,6,45)            108.9897         estimate D2E/DX2                !
 ! A37   A(6,7,8)              109.7387         estimate D2E/DX2                !
 ! A38   A(7,8,9)              121.9893         estimate D2E/DX2                !
 ! A39   A(7,8,33)             113.0038         estimate D2E/DX2                !
 ! A40   A(9,8,33)             124.9918         estimate D2E/DX2                !
 ! A41   A(8,9,10)             106.7661         estimate D2E/DX2                !
 ! A42   A(8,9,17)             109.3904         estimate D2E/DX2                !
 ! A43   A(8,9,24)             112.8467         estimate D2E/DX2                !
 ! A44   A(10,9,17)            111.7563         estimate D2E/DX2                !
 ! A45   A(10,9,24)            109.3917         estimate D2E/DX2                !
 ! A46   A(17,9,24)            106.7656         estimate D2E/DX2                !
 ! A47   A(9,10,11)            115.6751         estimate D2E/DX2                !
 ! A48   A(9,10,46)            108.8494         estimate D2E/DX2                !
 ! A49   A(9,10,47)            110.2073         estimate D2E/DX2                !
 ! A50   A(11,10,46)           107.4317         estimate D2E/DX2                !
 ! A51   A(11,10,47)           109.2047         estimate D2E/DX2                !
 ! A52   A(46,10,47)           104.8889         estimate D2E/DX2                !
 ! A53   A(10,11,12)           121.0998         estimate D2E/DX2                !
 ! A54   A(10,11,16)           119.8904         estimate D2E/DX2                !
 ! A55   A(12,11,16)           119.0094         estimate D2E/DX2                !
 ! A56   A(11,12,13)           120.3697         estimate D2E/DX2                !
 ! A57   A(11,12,48)           120.7644         estimate D2E/DX2                !
 ! A58   A(13,12,48)           118.8656         estimate D2E/DX2                !
 ! A59   A(12,13,14)           120.141          estimate D2E/DX2                !
 ! A60   A(12,13,49)           119.9399         estimate D2E/DX2                !
 ! A61   A(14,13,49)           119.9191         estimate D2E/DX2                !
 ! A62   A(13,14,15)           119.9837         estimate D2E/DX2                !
 ! A63   A(13,14,50)           120.0112         estimate D2E/DX2                !
 ! A64   A(15,14,50)           120.0049         estimate D2E/DX2                !
 ! A65   A(14,15,16)           120.0626         estimate D2E/DX2                !
 ! A66   A(14,15,51)           119.9761         estimate D2E/DX2                !
 ! A67   A(16,15,51)           119.9611         estimate D2E/DX2                !
 ! A68   A(11,16,15)           120.4275         estimate D2E/DX2                !
 ! A69   A(11,16,52)           120.3975         estimate D2E/DX2                !
 ! A70   A(15,16,52)           119.1676         estimate D2E/DX2                !
 ! A71   A(9,17,18)            115.6742         estimate D2E/DX2                !
 ! A72   A(9,17,53)            108.8493         estimate D2E/DX2                !
 ! A73   A(9,17,54)            110.2074         estimate D2E/DX2                !
 ! A74   A(18,17,53)           107.4319         estimate D2E/DX2                !
 ! A75   A(18,17,54)           109.2056         estimate D2E/DX2                !
 ! A76   A(53,17,54)           104.8889         estimate D2E/DX2                !
 ! A77   A(17,18,19)           119.8902         estimate D2E/DX2                !
 ! A78   A(17,18,23)           121.1001         estimate D2E/DX2                !
 ! A79   A(19,18,23)           119.0094         estimate D2E/DX2                !
 ! A80   A(18,19,20)           120.4278         estimate D2E/DX2                !
 ! A81   A(18,19,55)           120.3976         estimate D2E/DX2                !
 ! A82   A(20,19,55)           119.1673         estimate D2E/DX2                !
 ! A83   A(19,20,21)           120.0624         estimate D2E/DX2                !
 ! A84   A(19,20,56)           119.9607         estimate D2E/DX2                !
 ! A85   A(21,20,56)           119.9767         estimate D2E/DX2                !
 ! A86   A(20,21,22)           119.9838         estimate D2E/DX2                !
 ! A87   A(20,21,57)           120.0051         estimate D2E/DX2                !
 ! A88   A(22,21,57)           120.011          estimate D2E/DX2                !
 ! A89   A(21,22,23)           120.141          estimate D2E/DX2                !
 ! A90   A(21,22,58)           119.9188         estimate D2E/DX2                !
 ! A91   A(23,22,58)           119.9401         estimate D2E/DX2                !
 ! A92   A(18,23,22)           120.3696         estimate D2E/DX2                !
 ! A93   A(18,23,59)           120.7642         estimate D2E/DX2                !
 ! A94   A(22,23,59)           118.8659         estimate D2E/DX2                !
 ! A95   A(9,24,25)            124.9917         estimate D2E/DX2                !
 ! A96   A(9,24,32)            121.9897         estimate D2E/DX2                !
 ! A97   A(25,24,32)           113.0037         estimate D2E/DX2                !
 ! A98   A(24,25,26)           109.5612         estimate D2E/DX2                !
 ! A99   A(24,25,72)           129.4633         estimate D2E/DX2                !
 ! A100  A(26,25,72)           112.6471         estimate D2E/DX2                !
 ! A101  A(25,26,27)           111.3187         estimate D2E/DX2                !
 ! A102  A(25,26,31)           103.8349         estimate D2E/DX2                !
 ! A103  A(25,26,60)           108.3391         estimate D2E/DX2                !
 ! A104  A(27,26,31)           114.775          estimate D2E/DX2                !
 ! A105  A(27,26,60)           109.3562         estimate D2E/DX2                !
 ! A106  A(31,26,60)           108.9407         estimate D2E/DX2                !
 ! A107  A(26,27,28)           112.0277         estimate D2E/DX2                !
 ! A108  A(26,27,29)           109.9803         estimate D2E/DX2                !
 ! A109  A(26,27,30)           109.2481         estimate D2E/DX2                !
 ! A110  A(28,27,29)           109.4014         estimate D2E/DX2                !
 ! A111  A(28,27,30)           108.1656         estimate D2E/DX2                !
 ! A112  A(29,27,30)           107.9129         estimate D2E/DX2                !
 ! A113  A(27,28,61)           111.8636         estimate D2E/DX2                !
 ! A114  A(27,28,62)           110.9166         estimate D2E/DX2                !
 ! A115  A(27,28,63)           110.3922         estimate D2E/DX2                !
 ! A116  A(61,28,62)           108.3141         estimate D2E/DX2                !
 ! A117  A(61,28,63)           107.3165         estimate D2E/DX2                !
 ! A118  A(62,28,63)           107.8792         estimate D2E/DX2                !
 ! A119  A(27,29,64)           111.6938         estimate D2E/DX2                !
 ! A120  A(27,29,65)           110.5513         estimate D2E/DX2                !
 ! A121  A(27,29,66)           110.6845         estimate D2E/DX2                !
 ! A122  A(64,29,65)           108.282          estimate D2E/DX2                !
 ! A123  A(64,29,66)           107.336          estimate D2E/DX2                !
 ! A124  A(65,29,66)           108.1562         estimate D2E/DX2                !
 ! A125  A(27,30,67)           110.9436         estimate D2E/DX2                !
 ! A126  A(27,30,68)           110.9409         estimate D2E/DX2                !
 ! A127  A(27,30,69)           110.4097         estimate D2E/DX2                !
 ! A128  A(67,30,68)           108.2661         estimate D2E/DX2                !
 ! A129  A(67,30,69)           107.3071         estimate D2E/DX2                !
 ! A130  A(68,30,69)           108.8631         estimate D2E/DX2                !
 ! A131  A(26,31,32)           103.2753         estimate D2E/DX2                !
 ! A132  A(26,31,70)           115.1017         estimate D2E/DX2                !
 ! A133  A(26,31,71)           110.2891         estimate D2E/DX2                !
 ! A134  A(32,31,70)           109.8465         estimate D2E/DX2                !
 ! A135  A(32,31,71)           109.1143         estimate D2E/DX2                !
 ! A136  A(70,31,71)           108.9894         estimate D2E/DX2                !
 ! A137  A(24,32,31)           109.7385         estimate D2E/DX2                !
 ! A138  A(5,33,8)             109.5611         estimate D2E/DX2                !
 ! A139  A(5,33,72)            114.7679         estimate D2E/DX2                !
 ! A140  A(8,33,72)            131.351          estimate D2E/DX2                !
 ! A141  A(3,38,72)            131.1509         estimate D2E/DX2                !
 ! A142  A(30,69,72)           134.7264         estimate D2E/DX2                !
 ! A143  A(25,72,33)            87.6511         estimate D2E/DX2                !
 ! A144  A(25,72,38)           136.9552         estimate D2E/DX2                !
 ! A145  A(25,72,69)           102.3163         estimate D2E/DX2                !
 ! A146  A(33,72,38)            97.0456         estimate D2E/DX2                !
 ! A147  A(33,72,69)           151.6202         estimate D2E/DX2                !
 ! A148  A(38,72,69)            93.5212         estimate D2E/DX2                !
 ! D1    D(34,1,2,3)            56.7954         estimate D2E/DX2                !
 ! D2    D(34,1,2,4)           -60.6703         estimate D2E/DX2                !
 ! D3    D(34,1,2,5)           175.8837         estimate D2E/DX2                !
 ! D4    D(35,1,2,3)           176.3338         estimate D2E/DX2                !
 ! D5    D(35,1,2,4)            58.8681         estimate D2E/DX2                !
 ! D6    D(35,1,2,5)           -64.5779         estimate D2E/DX2                !
 ! D7    D(36,1,2,3)           -63.0232         estimate D2E/DX2                !
 ! D8    D(36,1,2,4)           179.5111         estimate D2E/DX2                !
 ! D9    D(36,1,2,5)            56.0651         estimate D2E/DX2                !
 ! D10   D(1,2,3,37)           -53.4797         estimate D2E/DX2                !
 ! D11   D(1,2,3,38)          -172.3145         estimate D2E/DX2                !
 ! D12   D(1,2,3,39)            66.904          estimate D2E/DX2                !
 ! D13   D(4,2,3,37)            64.7805         estimate D2E/DX2                !
 ! D14   D(4,2,3,38)           -54.0544         estimate D2E/DX2                !
 ! D15   D(4,2,3,39)          -174.8359         estimate D2E/DX2                !
 ! D16   D(5,2,3,37)          -173.0334         estimate D2E/DX2                !
 ! D17   D(5,2,3,38)            68.1318         estimate D2E/DX2                !
 ! D18   D(5,2,3,39)           -52.6497         estimate D2E/DX2                !
 ! D19   D(1,2,4,40)          -178.7731         estimate D2E/DX2                !
 ! D20   D(1,2,4,41)            61.7079         estimate D2E/DX2                !
 ! D21   D(1,2,4,42)           -57.7205         estimate D2E/DX2                !
 ! D22   D(3,2,4,40)            63.9201         estimate D2E/DX2                !
 ! D23   D(3,2,4,41)           -55.5989         estimate D2E/DX2                !
 ! D24   D(3,2,4,42)          -175.0273         estimate D2E/DX2                !
 ! D25   D(5,2,4,40)           -56.5451         estimate D2E/DX2                !
 ! D26   D(5,2,4,41)          -176.0641         estimate D2E/DX2                !
 ! D27   D(5,2,4,42)            64.5075         estimate D2E/DX2                !
 ! D28   D(1,2,5,6)             64.9376         estimate D2E/DX2                !
 ! D29   D(1,2,5,33)          -177.4919         estimate D2E/DX2                !
 ! D30   D(1,2,5,43)           -57.8171         estimate D2E/DX2                !
 ! D31   D(3,2,5,6)           -176.794          estimate D2E/DX2                !
 ! D32   D(3,2,5,33)           -59.2235         estimate D2E/DX2                !
 ! D33   D(3,2,5,43)            60.4513         estimate D2E/DX2                !
 ! D34   D(4,2,5,6)            -56.9591         estimate D2E/DX2                !
 ! D35   D(4,2,5,33)            60.6114         estimate D2E/DX2                !
 ! D36   D(4,2,5,43)          -179.7138         estimate D2E/DX2                !
 ! D37   D(2,3,38,72)          -65.4262         estimate D2E/DX2                !
 ! D38   D(37,3,38,72)         173.5479         estimate D2E/DX2                !
 ! D39   D(39,3,38,72)          56.5877         estimate D2E/DX2                !
 ! D40   D(2,5,6,7)            114.3032         estimate D2E/DX2                !
 ! D41   D(2,5,6,44)          -129.2139         estimate D2E/DX2                !
 ! D42   D(2,5,6,45)            -5.4136         estimate D2E/DX2                !
 ! D43   D(33,5,6,7)            -7.4353         estimate D2E/DX2                !
 ! D44   D(33,5,6,44)          109.0477         estimate D2E/DX2                !
 ! D45   D(33,5,6,45)         -127.1521         estimate D2E/DX2                !
 ! D46   D(43,5,6,7)          -122.7187         estimate D2E/DX2                !
 ! D47   D(43,5,6,44)           -6.2358         estimate D2E/DX2                !
 ! D48   D(43,5,6,45)          117.5644         estimate D2E/DX2                !
 ! D49   D(2,5,33,8)          -118.2399         estimate D2E/DX2                !
 ! D50   D(2,5,33,72)           41.1674         estimate D2E/DX2                !
 ! D51   D(6,5,33,8)             5.7744         estimate D2E/DX2                !
 ! D52   D(6,5,33,72)          165.1817         estimate D2E/DX2                !
 ! D53   D(43,5,33,8)          121.4833         estimate D2E/DX2                !
 ! D54   D(43,5,33,72)         -79.1093         estimate D2E/DX2                !
 ! D55   D(5,6,7,8)              6.8038         estimate D2E/DX2                !
 ! D56   D(44,6,7,8)          -110.509          estimate D2E/DX2                !
 ! D57   D(45,6,7,8)           130.0708         estimate D2E/DX2                !
 ! D58   D(6,7,8,9)            175.0542         estimate D2E/DX2                !
 ! D59   D(6,7,8,33)            -3.601          estimate D2E/DX2                !
 ! D60   D(7,8,9,10)            46.7689         estimate D2E/DX2                !
 ! D61   D(7,8,9,17)           -74.3243         estimate D2E/DX2                !
 ! D62   D(7,8,9,24)           166.982          estimate D2E/DX2                !
 ! D63   D(33,8,9,10)         -134.7421         estimate D2E/DX2                !
 ! D64   D(33,8,9,17)          104.1647         estimate D2E/DX2                !
 ! D65   D(33,8,9,24)          -14.529          estimate D2E/DX2                !
 ! D66   D(7,8,33,5)            -1.7383         estimate D2E/DX2                !
 ! D67   D(7,8,33,72)         -156.5598         estimate D2E/DX2                !
 ! D68   D(9,8,33,5)           179.654          estimate D2E/DX2                !
 ! D69   D(9,8,33,72)           24.8325         estimate D2E/DX2                !
 ! D70   D(8,9,10,11)          164.1358         estimate D2E/DX2                !
 ! D71   D(8,9,10,46)           43.1155         estimate D2E/DX2                !
 ! D72   D(8,9,10,47)          -71.402          estimate D2E/DX2                !
 ! D73   D(17,9,10,11)         -76.2888         estimate D2E/DX2                !
 ! D74   D(17,9,10,46)         162.6909         estimate D2E/DX2                !
 ! D75   D(17,9,10,47)          48.1735         estimate D2E/DX2                !
 ! D76   D(24,9,10,11)          41.7283         estimate D2E/DX2                !
 ! D77   D(24,9,10,46)         -79.292          estimate D2E/DX2                !
 ! D78   D(24,9,10,47)         166.1905         estimate D2E/DX2                !
 ! D79   D(8,9,17,18)           41.7301         estimate D2E/DX2                !
 ! D80   D(8,9,17,53)          -79.2896         estimate D2E/DX2                !
 ! D81   D(8,9,17,54)          166.193          estimate D2E/DX2                !
 ! D82   D(10,9,17,18)         -76.2866         estimate D2E/DX2                !
 ! D83   D(10,9,17,53)         162.6937         estimate D2E/DX2                !
 ! D84   D(10,9,17,54)          48.1762         estimate D2E/DX2                !
 ! D85   D(24,9,17,18)         164.1366         estimate D2E/DX2                !
 ! D86   D(24,9,17,53)          43.1169         estimate D2E/DX2                !
 ! D87   D(24,9,17,54)         -71.4006         estimate D2E/DX2                !
 ! D88   D(8,9,24,25)          -14.501          estimate D2E/DX2                !
 ! D89   D(8,9,24,32)          167.0015         estimate D2E/DX2                !
 ! D90   D(10,9,24,25)         104.1941         estimate D2E/DX2                !
 ! D91   D(10,9,24,32)         -74.3033         estimate D2E/DX2                !
 ! D92   D(17,9,24,25)        -134.7122         estimate D2E/DX2                !
 ! D93   D(17,9,24,32)          46.7903         estimate D2E/DX2                !
 ! D94   D(9,10,11,12)          89.4735         estimate D2E/DX2                !
 ! D95   D(9,10,11,16)         -90.3079         estimate D2E/DX2                !
 ! D96   D(46,10,11,12)       -148.7453         estimate D2E/DX2                !
 ! D97   D(46,10,11,16)         31.4733         estimate D2E/DX2                !
 ! D98   D(47,10,11,12)        -35.5071         estimate D2E/DX2                !
 ! D99   D(47,10,11,16)        144.7116         estimate D2E/DX2                !
 ! D100  D(10,11,12,13)       -178.9778         estimate D2E/DX2                !
 ! D101  D(10,11,12,48)          1.2146         estimate D2E/DX2                !
 ! D102  D(16,11,12,13)          0.8054         estimate D2E/DX2                !
 ! D103  D(16,11,12,48)       -179.0021         estimate D2E/DX2                !
 ! D104  D(10,11,16,15)        178.8837         estimate D2E/DX2                !
 ! D105  D(10,11,16,52)         -0.1239         estimate D2E/DX2                !
 ! D106  D(12,11,16,15)         -0.9022         estimate D2E/DX2                !
 ! D107  D(12,11,16,52)       -179.9099         estimate D2E/DX2                !
 ! D108  D(11,12,13,14)         -0.2321         estimate D2E/DX2                !
 ! D109  D(11,12,13,49)        179.8034         estimate D2E/DX2                !
 ! D110  D(48,12,13,14)        179.5791         estimate D2E/DX2                !
 ! D111  D(48,12,13,49)         -0.3854         estimate D2E/DX2                !
 ! D112  D(12,13,14,15)         -0.2579         estimate D2E/DX2                !
 ! D113  D(12,13,14,50)        179.8797         estimate D2E/DX2                !
 ! D114  D(49,13,14,15)        179.7066         estimate D2E/DX2                !
 ! D115  D(49,13,14,50)         -0.1558         estimate D2E/DX2                !
 ! D116  D(13,14,15,16)          0.1616         estimate D2E/DX2                !
 ! D117  D(13,14,15,51)        179.9878         estimate D2E/DX2                !
 ! D118  D(50,14,15,16)       -179.976          estimate D2E/DX2                !
 ! D119  D(50,14,15,51)         -0.1498         estimate D2E/DX2                !
 ! D120  D(14,15,16,11)          0.4247         estimate D2E/DX2                !
 ! D121  D(14,15,16,52)        179.4444         estimate D2E/DX2                !
 ! D122  D(51,15,16,11)       -179.4016         estimate D2E/DX2                !
 ! D123  D(51,15,16,52)         -0.3818         estimate D2E/DX2                !
 ! D124  D(9,17,18,19)         -90.3029         estimate D2E/DX2                !
 ! D125  D(9,17,18,23)          89.4789         estimate D2E/DX2                !
 ! D126  D(53,17,18,19)         31.4776         estimate D2E/DX2                !
 ! D127  D(53,17,18,23)       -148.7406         estimate D2E/DX2                !
 ! D128  D(54,17,18,19)        144.7165         estimate D2E/DX2                !
 ! D129  D(54,17,18,23)        -35.5017         estimate D2E/DX2                !
 ! D130  D(17,18,19,20)        178.8849         estimate D2E/DX2                !
 ! D131  D(17,18,19,55)         -0.1229         estimate D2E/DX2                !
 ! D132  D(23,18,19,20)         -0.9014         estimate D2E/DX2                !
 ! D133  D(23,18,19,55)       -179.9092         estimate D2E/DX2                !
 ! D134  D(17,18,23,22)       -178.9797         estimate D2E/DX2                !
 ! D135  D(17,18,23,59)          1.2136         estimate D2E/DX2                !
 ! D136  D(19,18,23,22)          0.8039         estimate D2E/DX2                !
 ! D137  D(19,18,23,59)       -179.0028         estimate D2E/DX2                !
 ! D138  D(18,19,20,21)          0.4251         estimate D2E/DX2                !
 ! D139  D(18,19,20,56)       -179.4012         estimate D2E/DX2                !
 ! D140  D(55,19,20,21)        179.4451         estimate D2E/DX2                !
 ! D141  D(55,19,20,56)         -0.3812         estimate D2E/DX2                !
 ! D142  D(19,20,21,22)          0.1605         estimate D2E/DX2                !
 ! D143  D(19,20,21,57)       -179.9766         estimate D2E/DX2                !
 ! D144  D(56,20,21,22)        179.9868         estimate D2E/DX2                !
 ! D145  D(56,20,21,57)         -0.1503         estimate D2E/DX2                !
 ! D146  D(20,21,22,23)         -0.2575         estimate D2E/DX2                !
 ! D147  D(20,21,22,58)        179.7077         estimate D2E/DX2                !
 ! D148  D(57,21,22,23)        179.8796         estimate D2E/DX2                !
 ! D149  D(57,21,22,58)         -0.1552         estimate D2E/DX2                !
 ! D150  D(21,22,23,18)         -0.2312         estimate D2E/DX2                !
 ! D151  D(21,22,23,59)        179.5791         estimate D2E/DX2                !
 ! D152  D(58,22,23,18)        179.8036         estimate D2E/DX2                !
 ! D153  D(58,22,23,59)         -0.3861         estimate D2E/DX2                !
 ! D154  D(9,24,25,26)         179.6473         estimate D2E/DX2                !
 ! D155  D(9,24,25,72)          34.3792         estimate D2E/DX2                !
 ! D156  D(32,24,25,26)         -1.7372         estimate D2E/DX2                !
 ! D157  D(32,24,25,72)       -147.0052         estimate D2E/DX2                !
 ! D158  D(9,24,32,31)         175.0578         estimate D2E/DX2                !
 ! D159  D(25,24,32,31)         -3.605          estimate D2E/DX2                !
 ! D160  D(24,25,26,27)       -118.2371         estimate D2E/DX2                !
 ! D161  D(24,25,26,31)          5.7763         estimate D2E/DX2                !
 ! D162  D(24,25,26,60)        121.4857         estimate D2E/DX2                !
 ! D163  D(72,25,26,27)         33.299          estimate D2E/DX2                !
 ! D164  D(72,25,26,31)        157.3124         estimate D2E/DX2                !
 ! D165  D(72,25,26,60)        -86.9782         estimate D2E/DX2                !
 ! D166  D(24,25,72,33)        -21.4023         estimate D2E/DX2                !
 ! D167  D(24,25,72,38)       -119.2149         estimate D2E/DX2                !
 ! D168  D(24,25,72,69)        131.767          estimate D2E/DX2                !
 ! D169  D(26,25,72,33)       -165.8315         estimate D2E/DX2                !
 ! D170  D(26,25,72,38)         96.3559         estimate D2E/DX2                !
 ! D171  D(26,25,72,69)        -12.6622         estimate D2E/DX2                !
 ! D172  D(25,26,27,28)         60.6152         estimate D2E/DX2                !
 ! D173  D(25,26,27,29)       -177.488          estimate D2E/DX2                !
 ! D174  D(25,26,27,30)        -59.2197         estimate D2E/DX2                !
 ! D175  D(31,26,27,28)        -56.9546         estimate D2E/DX2                !
 ! D176  D(31,26,27,29)         64.9423         estimate D2E/DX2                !
 ! D177  D(31,26,27,30)       -176.7895         estimate D2E/DX2                !
 ! D178  D(60,26,27,28)       -179.7096         estimate D2E/DX2                !
 ! D179  D(60,26,27,29)        -57.8127         estimate D2E/DX2                !
 ! D180  D(60,26,27,30)         60.4556         estimate D2E/DX2                !
 ! D181  D(25,26,31,32)         -7.4392         estimate D2E/DX2                !
 ! D182  D(25,26,31,70)       -127.1572         estimate D2E/DX2                !
 ! D183  D(25,26,31,71)        109.0431         estimate D2E/DX2                !
 ! D184  D(27,26,31,32)        114.2986         estimate D2E/DX2                !
 ! D185  D(27,26,31,70)         -5.4193         estimate D2E/DX2                !
 ! D186  D(27,26,31,71)       -129.219          estimate D2E/DX2                !
 ! D187  D(60,26,31,32)       -122.7231         estimate D2E/DX2                !
 ! D188  D(60,26,31,70)        117.5589         estimate D2E/DX2                !
 ! D189  D(60,26,31,71)         -6.2407         estimate D2E/DX2                !
 ! D190  D(26,27,28,61)         64.5111         estimate D2E/DX2                !
 ! D191  D(26,27,28,62)        -56.5414         estimate D2E/DX2                !
 ! D192  D(26,27,28,63)       -176.0611         estimate D2E/DX2                !
 ! D193  D(29,27,28,61)        -57.7165         estimate D2E/DX2                !
 ! D194  D(29,27,28,62)       -178.769          estimate D2E/DX2                !
 ! D195  D(29,27,28,63)         61.7113         estimate D2E/DX2                !
 ! D196  D(30,27,28,61)       -175.023          estimate D2E/DX2                !
 ! D197  D(30,27,28,62)         63.9245         estimate D2E/DX2                !
 ! D198  D(30,27,28,63)        -55.5952         estimate D2E/DX2                !
 ! D199  D(26,27,29,64)        -64.5757         estimate D2E/DX2                !
 ! D200  D(26,27,29,65)         56.068          estimate D2E/DX2                !
 ! D201  D(26,27,29,66)        175.8873         estimate D2E/DX2                !
 ! D202  D(28,27,29,64)         58.8701         estimate D2E/DX2                !
 ! D203  D(28,27,29,65)        179.5138         estimate D2E/DX2                !
 ! D204  D(28,27,29,66)        -60.667          estimate D2E/DX2                !
 ! D205  D(30,27,29,64)        176.3355         estimate D2E/DX2                !
 ! D206  D(30,27,29,65)        -63.0208         estimate D2E/DX2                !
 ! D207  D(30,27,29,66)         56.7984         estimate D2E/DX2                !
 ! D208  D(26,27,30,67)       -173.0307         estimate D2E/DX2                !
 ! D209  D(26,27,30,68)        -52.6461         estimate D2E/DX2                !
 ! D210  D(26,27,30,69)         68.1345         estimate D2E/DX2                !
 ! D211  D(28,27,30,67)         64.7831         estimate D2E/DX2                !
 ! D212  D(28,27,30,68)       -174.8322         estimate D2E/DX2                !
 ! D213  D(28,27,30,69)        -54.0517         estimate D2E/DX2                !
 ! D214  D(29,27,30,67)        -53.4773         estimate D2E/DX2                !
 ! D215  D(29,27,30,68)         66.9073         estimate D2E/DX2                !
 ! D216  D(29,27,30,69)       -172.3121         estimate D2E/DX2                !
 ! D217  D(27,30,69,72)        -56.0123         estimate D2E/DX2                !
 ! D218  D(67,30,69,72)       -177.0379         estimate D2E/DX2                !
 ! D219  D(68,30,69,72)         66.0008         estimate D2E/DX2                !
 ! D220  D(26,31,32,24)          6.8086         estimate D2E/DX2                !
 ! D221  D(70,31,32,24)        130.0766         estimate D2E/DX2                !
 ! D222  D(71,31,32,24)       -110.5031         estimate D2E/DX2                !
 ! D223  D(5,33,72,25)        -161.7642         estimate D2E/DX2                !
 ! D224  D(5,33,72,38)         -24.7156         estimate D2E/DX2                !
 ! D225  D(5,33,72,69)          86.3213         estimate D2E/DX2                !
 ! D226  D(8,33,72,25)          -7.9636         estimate D2E/DX2                !
 ! D227  D(8,33,72,38)         129.0849         estimate D2E/DX2                !
 ! D228  D(8,33,72,69)        -119.8782         estimate D2E/DX2                !
 ! D229  D(3,38,72,25)         135.4119         estimate D2E/DX2                !
 ! D230  D(3,38,72,33)          41.2929         estimate D2E/DX2                !
 ! D231  D(3,38,72,69)        -112.3174         estimate D2E/DX2                !
 ! D232  D(30,69,72,25)         27.3071         estimate D2E/DX2                !
 ! D233  D(30,69,72,33)        135.7211         estimate D2E/DX2                !
 ! D234  D(30,69,72,38)       -112.4123         estimate D2E/DX2                !
 --------------------------------------------------------------------------------
 Trust Radius=3.00D-01 FncErr=1.00D-07 GrdErr=1.00D-06 EigMax=2.50D+02 EigMin=1.00D-04
 Number of steps in this run=    432 maximum allowed number of steps=    432.
 GradGradGradGradGradGradGradGradGradGradGradGradGradGradGradGradGradGrad

 Leave Link  103 at Thu Aug  1 12:09:34 2024, MaxMem= 13421772800 cpu:               0.3 elap:               0.0
 (Enter /public/software/apps/Gaussian/g16/l202.exe)
 Symmetry turned off by external request.
 Stoichiometry    C29H38CuN2O2(2+,2)
 Framework group  C1[X(C29H38CuN2O2)]
 Deg. of freedom   210
 Full point group                 C1      NOp   1
                          Input orientation:                          
 ---------------------------------------------------------------------
 Center     Atomic      Atomic             Coordinates (Angstroms)
 Number     Number       Type             X           Y           Z
 ---------------------------------------------------------------------
      1          6           0       -4.917884   -1.635281   -0.326882
      2          6           0       -3.463979   -1.457548    0.164471
      3          6           0       -2.869261   -2.861045    0.404739
      4          6           0       -3.466208   -0.697187    1.512510
      5          6           0       -2.616747   -0.717313   -0.926480
      6          6           0       -3.056935    0.738047   -1.212149
      7          8           0       -1.954494    1.503087   -0.770287
      8          6           0       -0.912039    0.663385   -0.424434
      9          6           0        0.458952    1.201120   -0.013258
     10          6           0        0.202529    2.348486    1.020589
     11          6           0        1.404345    2.774283    1.840826
     12          6           0        2.267705    3.787807    1.391297
     13          6           0        3.383739    4.153789    2.150016
     14          6           0        3.645669    3.516148    3.364990
     15          6           0        2.788775    2.514543    3.826537
     16          6           0        1.670946    2.146998    3.072262
     17          6           0        1.215053    1.721198   -1.281661
     18          6           0        0.375425    2.504105   -2.271884
     19          6           0       -0.280542    1.832514   -3.320534
     20          6           0       -1.076210    2.540026   -4.226015
     21          6           0       -1.218180    3.923677   -4.100056
     22          6           0       -0.561797    4.601928   -3.070254
     23          6           0        0.233539    3.897760   -2.161011
     24          6           0        1.348810    0.133307    0.623743
     25          7           0        0.938797   -1.012249    1.051452
     26          6           0        2.070026   -1.768374    1.586996
     27          6           0        2.297850   -3.096276    0.786560
     28          6           0        2.608446   -2.828462   -0.705810
     29          6           0        3.457660   -3.899713    1.415994
     30          6           0        1.023161   -3.962457    0.864753
     31          6           0        3.246611   -0.765598    1.527602
     32          8           0        2.702291    0.331894    0.823944
     33          7           0       -1.219510   -0.585799   -0.515812
     34          1           0       -5.510885   -2.224102    0.406166
     35          1           0       -5.428646   -0.659574   -0.457476
     36          1           0       -4.938032   -2.172321   -1.299739
     37          1           0       -3.519573   -3.457813    1.080616
     38          1           0       -1.875429   -2.781986    0.888543
     39          1           0       -2.759912   -3.415330   -0.552410
     40          1           0       -2.429705   -0.535967    1.878682
     41          1           0       -4.014227   -1.279397    2.284683
     42          1           0       -3.963644    0.290098    1.428827
     43          1           0       -2.649640   -1.297679   -1.875790
     44          1           0       -3.192569    0.892295   -2.304282
     45          1           0       -3.974795    1.062850   -0.685823
     46          1           0       -0.588651    2.020751    1.733119
     47          1           0       -0.224083    3.236872    0.509531
     48          1           0        2.081122    4.298703    0.459119
     49          1           0        4.045882    4.933175    1.795616
     50          1           0        4.511201    3.799748    3.949629
     51          1           0        2.991939    2.020459    4.767791
     52          1           0        1.021132    1.362150    3.439551
     53          1           0        1.646962    0.850177   -1.825587
     54          1           0        2.091328    2.333209   -0.981673
     55          1           0       -0.187853    0.758566   -3.426311
     56          1           0       -1.584984    2.014620   -5.023796
     57          1           0       -1.834836    4.470562   -4.801504
     58          1           0       -0.668761    5.674885   -2.976459
     59          1           0        0.736800    4.443296   -1.377491
     60          1           0        1.856005   -2.011616    2.651948
     61          1           0        3.564992   -2.283531   -0.837116
     62          1           0        1.799076   -2.231939   -1.178565
     63          1           0        2.694880   -3.787224   -1.261548
     64          1           0        4.422630   -3.359316    1.333918
     65          1           0        3.258042   -4.095392    2.491699
     66          1           0        3.581282   -4.878144    0.903054
     67          1           0        1.194847   -4.963785    0.413396
     68          1           0        0.704482   -4.105923    1.919826
     69          1           0        0.196263   -3.484799    0.302522
     70          1           0        4.151594   -1.133849    1.007612
     71          1           0        3.526196   -0.438453    2.552176
     72         29           0       -0.470783   -2.164206    0.352237
 ---------------------------------------------------------------------
 Rotational constants (GHZ):           0.1235538           0.1180129           0.0780032
 Leave Link  202 at Thu Aug  1 12:09:34 2024, MaxMem= 13421772800 cpu:               0.9 elap:               0.0
 (Enter /public/software/apps/Gaussian/g16/l301.exe)
 Standard basis: def2SVPP (5D, 7F)
 Ernie: Thresh=  0.10000D-02 Tol=  0.10000D-05 Strict=F.
   562 basis functions,  1048 primitive gaussians,   597 cartesian basis functions
   135 alpha electrons      134 beta electrons
       nuclear repulsion energy      4576.8667670205 Hartrees.
 IExCor=  402 DFT=T Ex+Corr=B3LYP ExCW=0 ScaHFX=  0.200000
 ScaDFX=  0.800000  0.720000  1.000000  0.810000 ScalE2=  1.000000  1.000000
 IRadAn=      5 IRanWt=     -1 IRanGd=            0 ICorTp=0 IEmpDi=141
 NAtoms=   72 NActive=   72 NUniq=   72 SFac= 1.00D+00 NAtFMM=   60 NAOKFM=T Big=T
 Integral buffers will be    131072 words long.
 Raffenetti 2 integral format.
 Two-electron integral symmetry is turned off.
 R6Disp:  Grimme-D3(BJ) Dispersion energy=       -0.1845947050 Hartrees.
 Nuclear repulsion after empirical dispersion term =     4576.6821723154 Hartrees.
 Leave Link  301 at Thu Aug  1 12:09:34 2024, MaxMem= 13421772800 cpu:               1.4 elap:               0.1
 (Enter /public/software/apps/Gaussian/g16/l302.exe)
 NPDir=0 NMtPBC=     1 NCelOv=     1 NCel=       1 NClECP=     1 NCelD=      1
         NCelK=      1 NCelE2=     1 NClLst=     1 CellRange=     0.0.
 One-electron integrals computed using PRISM.
   1 Symmetry operations used in ECPInt.
 ECPInt:  NShTT=   40470 NPrTT=  166759 LenC2=   36501 LenP2D=   96274.
 LDataN:  DoStor=T MaxTD1= 4 Len=   56
 NBasis=   562 RedAO= T EigKep=  2.75D-04  NBF=   562
 NBsUse=   562 1.00D-06 EigRej= -1.00D+00 NBFU=   562
 Precomputing XC quadrature grid using
 IXCGrd= 4 IRadAn=           5 IRanWt=          -1 IRanGd=           0 AccXCQ= 0.00D+00.
 Generated NRdTot=       0 NPtTot=           0 NUsed=           0 NTot=          32
 NSgBfM=   590   590   590   590   590 MxSgAt=    72 MxSgA2=    72.
 Leave Link  302 at Thu Aug  1 12:09:35 2024, MaxMem= 13421772800 cpu:              24.1 elap:               0.8
 (Enter /public/software/apps/Gaussian/g16/l303.exe)
 DipDrv:  MaxL=1.
 Leave Link  303 at Thu Aug  1 12:09:35 2024, MaxMem= 13421772800 cpu:               4.0 elap:               0.1
 (Enter /public/software/apps/Gaussian/g16/l401.exe)
 ExpMin= 3.30D-02 ExpMax= 7.64D+04 ExpMxC= 1.15D+04 IAcc=3 IRadAn=         5 AccDes= 0.00D+00
 Harris functional with IExCor=  402 and IRadAn=       5 diagonalized for initial guess.
 HarFok:  IExCor=  402 AccDes= 0.00D+00 IRadAn=         5 IDoV= 1 UseB2=F ITyADJ=14
 ICtDFT=  3500011 ScaDFX=  1.000000  1.000000  1.000000  1.000000
 FoFCou: FMM=F IPFlag=           0 FMFlag=      100000 FMFlg1=        2001
         NFxFlg=           0 DoJE=T BraDBF=F KetDBF=T FulRan=T
         wScrn=  0.000000 ICntrl=       500 IOpCl=  0 I1Cent=   200000004 NGrid=           0
         NMat0=    1 NMatS0=      1 NMatT0=    0 NMatD0=    1 NMtDS0=    0 NMtDT0=    0
 Symmetry not used in FoFCou.
 Harris En= -3026.96531792520    
 JPrj=0 DoOrth=F DoCkMO=F.
 Initial guess <Sx>= 0.0000 <Sy>= 0.0000 <Sz>= 0.5000 <S**2>= 0.7500 S= 0.5000
 Leave Link  401 at Thu Aug  1 12:09:37 2024, MaxMem= 13421772800 cpu:              63.0 elap:               2.0
 (Enter /public/software/apps/Gaussian/g16/l502.exe)
 Two-electron integral symmetry not used.
 UHF open shell SCF:
 Using DIIS extrapolation, IDIIS=  1040.
 NGot= 13421772800 LenX= 13421033839 LenY= 13420676833
 Requested convergence on RMS density matrix=1.00D-08 within 128 cycles.
 Requested convergence on MAX density matrix=1.00D-06.
 Requested convergence on             energy=1.00D-06.
 No special actions if energy rises.
 Fock matrices will be formed incrementally for  20 cycles.

 Cycle   1  Pass 1  IDiag  1:
 FoFJK:  IHMeth= 1 ICntrl=       0 DoSepK=F KAlg= 0 I1Cent=           0 FoldK=F
 IRaf= 990000000 NMat=       1 IRICut=       1 DoRegI=T DoRafI=F ISym2E= 0 IDoP0=0 IntGTp=1.
 FoFCou: FMM=T IPFlag=           0 FMFlag=      100000 FMFlg1=        2001
         NFxFlg=           0 DoJE=F BraDBF=F KetDBF=F FulRan=T
         wScrn=  0.000000 ICntrl=         0 IOpCl=  1 I1Cent=           0 NGrid=           0
         NMat0=    1 NMatS0=      1 NMatT0=    0 NMatD0=    1 NMtDS0=    0 NMtDT0=    0
 Symmetry not used in FoFCou.
 FMM levels:  10  Number of levels for PrismC:   9
 E= -3023.57956346721    
 DIIS: error= 1.07D-01 at cycle   1 NSaved=   1.
 NSaved= 1 IEnMin= 1 EnMin= -3023.57956346721     IErMin= 1 ErrMin= 1.07D-01
 ErrMax= 1.07D-01  0.00D+00 EMaxC= 1.00D-01 BMatC= 2.00D+01 BMatP= 2.00D+01
 IDIUse=3 WtCom= 0.00D+00 WtEn= 1.00D+00
 Coeff-Com:  0.100D+01
 Coeff-En:   0.100D+01
 Coeff:      0.100D+01
 Gap=     0.900 Goal=   None    Shift=    0.000
 Gap=     1.197 Goal=   None    Shift=    0.000
 GapD=    0.900 DampG=2.000 DampE=0.125 DampFc=0.2500 IDamp=-1.
 Damping current iteration by 2.50D-01
 RMSDP=2.60D-02 MaxDP=7.51D+00              OVMax= 9.37D-01

 Cycle   2  Pass 1  IDiag  1:
 RMSU=  6.49D-03    CP:  9.84D-01
 E= -3024.09232132343     Delta-E=       -0.512757856221 Rises=F Damp=T
 DIIS: error= 3.31D-02 at cycle   2 NSaved=   2.
 NSaved= 2 IEnMin= 2 EnMin= -3024.09232132343     IErMin= 2 ErrMin= 3.31D-02
 ErrMax= 3.31D-02  0.00D+00 EMaxC= 1.00D-01 BMatC= 2.71D+00 BMatP= 2.00D+01
 IDIUse=3 WtCom= 6.69D-01 WtEn= 3.31D-01
 Coeff-Com: -0.222D+00 0.122D+01
 Coeff-En:   0.388D+00 0.612D+00
 Coeff:     -0.200D-01 0.102D+01
 Gap=    -0.029 Goal=   None    Shift=    0.000
 Gap=     0.008 Goal=   None    Shift=    0.000
 RMSDP=9.04D-03 MaxDP=1.65D+00 DE=-5.13D-01 OVMax= 9.88D-01

 Cycle   3  Pass 1  IDiag  1:
 RMSU=  6.97D-03    CP:  9.00D-01  1.44D-01
 E= -3014.27201956963     Delta-E=        9.820301753795 Rises=F Damp=F
 DIIS: error= 6.23D-02 at cycle   3 NSaved=   3.
 NSaved= 3 IEnMin= 2 EnMin= -3024.09232132343     IErMin= 2 ErrMin= 3.31D-02
 ErrMax= 6.23D-02  0.00D+00 EMaxC= 1.00D-01 BMatC= 3.06D+01 BMatP= 2.71D+00
 IDIUse=2 WtCom= 0.00D+00 WtEn= 1.00D+00
 EnCoef did     4 forward-backward iterations
 Coeff-En:   0.234D+00 0.640D+00 0.126D+00
 Coeff:      0.234D+00 0.640D+00 0.126D+00
 Gap=    -0.067 Goal=   None    Shift=    0.000
 Gap=     0.034 Goal=   None    Shift=    0.000
 RMSDP=6.22D-03 MaxDP=2.57D-01 DE= 9.82D+00 OVMax= 6.53D-01

 Cycle   4  Pass 1  IDiag  1:
 RMSU=  4.42D-03    CP:  9.02D-01  3.58D-01  4.05D-01
 E= -3025.25550144172     Delta-E=      -10.983481872084 Rises=F Damp=F
 DIIS: error= 6.57D-02 at cycle   4 NSaved=   4.
 NSaved= 4 IEnMin= 4 EnMin= -3025.25550144172     IErMin= 2 ErrMin= 3.31D-02
 ErrMax= 6.57D-02  0.00D+00 EMaxC= 1.00D-01 BMatC= 7.71D+00 BMatP= 2.71D+00
 IDIUse=2 WtCom= 0.00D+00 WtEn= 1.00D+00
 EnCoef did   100 forward-backward iterations
 Coeff-En:   0.371D+00 0.553D-02 0.000D+00 0.623D+00
 Coeff:      0.371D+00 0.553D-02 0.000D+00 0.623D+00
 Gap=     0.242 Goal=   None    Shift=    0.000
 Gap=     0.019 Goal=   None    Shift=    0.000
 RMSDP=3.57D-03 MaxDP=4.51D-01 DE=-1.10D+01 OVMax= 8.16D-01

 Cycle   5  Pass 1  IDiag  1:
 RMSU=  2.29D-03    CP:  9.22D-01  9.79D-02  2.52D-01  5.81D-01
 E= -3026.52957143350     Delta-E=       -1.274069991785 Rises=F Damp=F
 DIIS: error= 1.17D-02 at cycle   5 NSaved=   5.
 NSaved= 5 IEnMin= 5 EnMin= -3026.52957143350     IErMin= 5 ErrMin= 1.17D-02
 ErrMax= 1.17D-02  0.00D+00 EMaxC= 1.00D-01 BMatC= 8.13D-01 BMatP= 2.71D+00
 IDIUse=3 WtCom= 8.83D-01 WtEn= 1.17D-01
 Coeff-Com:  0.180D-01 0.255D+00 0.440D-01 0.176D+00 0.507D+00
 Coeff-En:   0.000D+00 0.000D+00 0.000D+00 0.581D-01 0.942D+00
 Coeff:      0.159D-01 0.226D+00 0.389D-01 0.162D+00 0.558D+00
 Gap=     0.382 Goal=   None    Shift=    0.000
 Gap=    -0.110 Goal=   None    Shift=    0.000
 RMSDP=2.39D-03 MaxDP=2.83D-01 DE=-1.27D+00 OVMax= 6.06D-01

 Cycle   6  Pass 1  IDiag  1:
 RMSU=  1.83D-03    CP:  9.23D-01  6.05D-02  2.88D-01  5.08D-01  3.63D-01
 E= -3026.47333161747     Delta-E=        0.056239816028 Rises=F Damp=F
 DIIS: error= 1.78D-02 at cycle   6 NSaved=   6.
 NSaved= 6 IEnMin= 5 EnMin= -3026.52957143350     IErMin= 5 ErrMin= 1.17D-02
 ErrMax= 1.78D-02  0.00D+00 EMaxC= 1.00D-01 BMatC= 1.12D+00 BMatP= 8.13D-01
 IDIUse=2 WtCom= 0.00D+00 WtEn= 1.00D+00
 EnCoef did     2 forward-backward iterations
 Coeff-En:   0.000D+00 0.000D+00 0.000D+00 0.274D-01 0.524D+00 0.449D+00
 Coeff:      0.000D+00 0.000D+00 0.000D+00 0.274D-01 0.524D+00 0.449D+00
 Gap=     0.374 Goal=   None    Shift=    0.000
 Gap=    -0.169 Goal=   None    Shift=    0.000
 RMSDP=2.17D-03 MaxDP=3.79D-01 DE= 5.62D-02 OVMax= 6.04D-01

 Cycle   7  Pass 1  IDiag  1:
 RMSU=  1.07D-03    CP:  9.10D-01  1.52D-01  3.18D-01  8.02D-01  3.36D-01
                    CP:  3.56D-01
 E= -3026.37311095116     Delta-E=        0.100220666311 Rises=F Damp=F
 DIIS: error= 3.09D-02 at cycle   7 NSaved=   7.
 NSaved= 7 IEnMin= 5 EnMin= -3026.52957143350     IErMin= 5 ErrMin= 1.17D-02
 ErrMax= 3.09D-02  0.00D+00 EMaxC= 1.00D-01 BMatC= 1.84D+00 BMatP= 8.13D-01
 IDIUse=2 WtCom= 0.00D+00 WtEn= 1.00D+00
 EnCoef did     2 forward-backward iterations
 Coeff-En:   0.000D+00 0.000D+00 0.000D+00 0.000D+00 0.407D+00 0.323D+00
 Coeff-En:   0.270D+00
 Coeff:      0.000D+00 0.000D+00 0.000D+00 0.000D+00 0.407D+00 0.323D+00
 Coeff:      0.270D+00
 Gap=     0.212 Goal=   None    Shift=    0.000
 Gap=     0.017 Goal=   None    Shift=    0.000
 RMSDP=1.77D-03 MaxDP=2.92D-01 DE= 1.00D-01 OVMax= 9.20D-01

 Cycle   8  Pass 1  IDiag  1:
 RMSU=  7.44D-04    CP:  9.18D-01  8.73D-02  2.81D-01  6.06D-01  5.55D-01
                    CP:  5.93D-01  1.13D-02
 E= -3026.73530403224     Delta-E=       -0.362193081076 Rises=F Damp=F
 DIIS: error= 1.01D-02 at cycle   8 NSaved=   8.
 NSaved= 8 IEnMin= 8 EnMin= -3026.73530403224     IErMin= 8 ErrMin= 1.01D-02
 ErrMax= 1.01D-02  0.00D+00 EMaxC= 1.00D-01 BMatC= 1.42D-01 BMatP= 8.13D-01
 IDIUse=3 WtCom= 8.99D-01 WtEn= 1.01D-01
 Coeff-Com: -0.194D-01 0.205D-01-0.176D-02-0.242D-01 0.223D+00 0.119D+00
 Coeff-Com:  0.249D+00 0.433D+00
 Coeff-En:   0.000D+00 0.000D+00 0.000D+00 0.000D+00 0.000D+00 0.000D+00
 Coeff-En:   0.175D+00 0.825D+00
 Coeff:     -0.175D-01 0.184D-01-0.159D-02-0.218D-01 0.200D+00 0.107D+00
 Coeff:      0.242D+00 0.473D+00
 Gap=     0.198 Goal=   None    Shift=    0.000
 Gap=     0.009 Goal=   None    Shift=    0.000
 RMSDP=5.12D-04 MaxDP=8.45D-02 DE=-3.62D-01 OVMax= 3.03D-01

 Cycle   9  Pass 1  IDiag  1:
 RMSU=  3.92D-04    CP:  9.16D-01  9.64D-02  2.84D-01  6.43D-01  6.04D-01
                    CP:  4.77D-01  1.16D-01  8.84D-01
 E= -3026.76799608228     Delta-E=       -0.032692050045 Rises=F Damp=F
 DIIS: error= 2.44D-03 at cycle   9 NSaved=   9.
 NSaved= 9 IEnMin= 9 EnMin= -3026.76799608228     IErMin= 9 ErrMin= 2.44D-03
 ErrMax= 2.44D-03  0.00D+00 EMaxC= 1.00D-01 BMatC= 1.54D-02 BMatP= 1.42D-01
 IDIUse=3 WtCom= 9.76D-01 WtEn= 2.44D-02
 Coeff-Com: -0.576D-02-0.508D-04-0.108D-02-0.373D-01 0.117D+00 0.396D-01
 Coeff-Com:  0.180D+00 0.223D+00 0.485D+00
 Coeff-En:   0.000D+00 0.000D+00 0.000D+00 0.000D+00 0.000D+00 0.000D+00
 Coeff-En:   0.000D+00 0.000D+00 0.100D+01
 Coeff:     -0.562D-02-0.495D-04-0.105D-02-0.364D-01 0.114D+00 0.386D-01
 Coeff:      0.176D+00 0.217D+00 0.497D+00
 Gap=     0.194 Goal=   None    Shift=    0.000
 Gap=     0.020 Goal=   None    Shift=    0.000
 RMSDP=5.23D-04 MaxDP=4.36D-02 DE=-3.27D-02 OVMax= 2.92D-01

 Cycle  10  Pass 1  IDiag  1:
 RMSU=  4.48D-04    CP:  9.16D-01  9.67D-02  2.82D-01  6.51D-01  5.70D-01
                    CP:  4.88D-01  2.96D-01  8.05D-01  6.04D-01
 E= -3026.76899448391     Delta-E=       -0.000998401627 Rises=F Damp=F
 DIIS: error= 2.11D-03 at cycle  10 NSaved=  10.
 NSaved=10 IEnMin=10 EnMin= -3026.76899448391     IErMin=10 ErrMin= 2.11D-03
 ErrMax= 2.11D-03  0.00D+00 EMaxC= 1.00D-01 BMatC= 1.41D-02 BMatP= 1.54D-02
 IDIUse=3 WtCom= 9.79D-01 WtEn= 2.11D-02
 Coeff-Com:  0.559D-04 0.412D-02-0.741D-03-0.136D-01 0.250D-01-0.206D-01
 Coeff-Com:  0.398D-01 0.520D-01 0.456D+00 0.458D+00
 Coeff-En:   0.000D+00 0.000D+00 0.000D+00 0.000D+00 0.000D+00 0.000D+00
 Coeff-En:   0.000D+00 0.000D+00 0.467D+00 0.533D+00
 Coeff:      0.547D-04 0.403D-02-0.725D-03-0.134D-01 0.245D-01-0.202D-01
 Coeff:      0.390D-01 0.509D-01 0.456D+00 0.460D+00
 Gap=     0.192 Goal=   None    Shift=    0.000
 Gap=     0.021 Goal=   None    Shift=    0.000
 RMSDP=2.79D-04 MaxDP=2.41D-02 DE=-9.98D-04 OVMax= 1.87D-01

 Cycle  11  Pass 1  IDiag  1:
 RMSU=  8.90D-05    CP:  9.17D-01  9.67D-02  2.82D-01  6.48D-01  6.02D-01
                    CP:  4.58D-01  2.07D-01  8.85D-01  8.79D-01  5.69D-01
 E= -3026.77422735737     Delta-E=       -0.005232873455 Rises=F Damp=F
 DIIS: error= 5.89D-04 at cycle  11 NSaved=  11.
 NSaved=11 IEnMin=11 EnMin= -3026.77422735737     IErMin=11 ErrMin= 5.89D-04
 ErrMax= 5.89D-04  0.00D+00 EMaxC= 1.00D-01 BMatC= 1.23D-03 BMatP= 1.41D-02
 IDIUse=3 WtCom= 9.94D-01 WtEn= 5.89D-03
 Coeff-Com:  0.858D-04 0.374D-02-0.377D-03-0.631D-02 0.132D-01-0.588D-02
 Coeff-Com:  0.874D-02 0.107D-02 0.245D+00 0.293D+00 0.448D+00
 Coeff-En:   0.000D+00 0.000D+00 0.000D+00 0.000D+00 0.000D+00 0.000D+00
 Coeff-En:   0.000D+00 0.000D+00 0.000D+00 0.000D+00 0.100D+01
 Coeff:      0.853D-04 0.372D-02-0.375D-03-0.628D-02 0.131D-01-0.585D-02
 Coeff:      0.869D-02 0.106D-02 0.243D+00 0.291D+00 0.451D+00
 Gap=     0.190 Goal=   None    Shift=    0.000
 Gap=     0.024 Goal=   None    Shift=    0.000
 RMSDP=7.22D-05 MaxDP=5.14D-03 DE=-5.23D-03 OVMax= 4.14D-02

 Cycle  12  Pass 1  IDiag  1:
 RMSU=  4.11D-05    CP:  9.17D-01  9.64D-02  2.82D-01  6.49D-01  5.99D-01
                    CP:  4.57D-01  2.28D-01  8.58D-01  8.84D-01  6.80D-01
                    CP:  8.87D-01
 E= -3026.77439665317     Delta-E=       -0.000169295801 Rises=F Damp=F
 DIIS: error= 7.37D-04 at cycle  12 NSaved=  12.
 NSaved=12 IEnMin=12 EnMin= -3026.77439665317     IErMin=11 ErrMin= 5.89D-04
 ErrMax= 7.37D-04  0.00D+00 EMaxC= 1.00D-01 BMatC= 1.00D-03 BMatP= 1.23D-03
 IDIUse=3 WtCom= 9.94D-01 WtEn= 5.89D-03
 Coeff-Com: -0.971D-03 0.462D-02-0.575D-03-0.169D-02 0.685D-02 0.305D-02
 Coeff-Com: -0.425D-02 0.172D-01 0.659D-01 0.785D-01 0.291D+00 0.540D+00
 Coeff-En:   0.000D+00 0.000D+00 0.000D+00 0.000D+00 0.000D+00 0.000D+00
 Coeff-En:   0.000D+00 0.000D+00 0.000D+00 0.000D+00 0.258D+00 0.742D+00
 Coeff:     -0.965D-03 0.459D-02-0.572D-03-0.168D-02 0.681D-02 0.303D-02
 Coeff:     -0.422D-02 0.171D-01 0.655D-01 0.781D-01 0.291D+00 0.542D+00
 Gap=     0.190 Goal=   None    Shift=    0.000
 Gap=     0.024 Goal=   None    Shift=    0.000
 RMSDP=2.94D-05 MaxDP=2.74D-03 DE=-1.69D-04 OVMax= 1.30D-02

 Cycle  13  Pass 1  IDiag  1:
 RMSU=  1.84D-05    CP:  9.17D-01  9.61D-02  2.81D-01  6.47D-01  6.00D-01
                    CP:  4.59D-01  2.20D-01  8.67D-01  8.72D-01  6.76D-01
                    CP:  1.05D+00  1.26D+00
 E= -3026.77456677640     Delta-E=       -0.000170123230 Rises=F Damp=F
 DIIS: error= 4.34D-04 at cycle  13 NSaved=  13.
 NSaved=13 IEnMin=13 EnMin= -3026.77456677640     IErMin=13 ErrMin= 4.34D-04
 ErrMax= 4.34D-04  0.00D+00 EMaxC= 1.00D-01 BMatC= 3.57D-04 BMatP= 1.00D-03
 IDIUse=3 WtCom= 9.96D-01 WtEn= 4.34D-03
 Coeff-Com: -0.112D-02 0.358D-02-0.568D-03 0.500D-03 0.180D-02 0.502D-02
 Coeff-Com: -0.653D-02 0.203D-01-0.590D-01-0.970D-01 0.379D-02-0.711D-02
 Coeff-Com:  0.114D+01
 Coeff-En:   0.000D+00 0.000D+00 0.000D+00 0.000D+00 0.000D+00 0.000D+00
 Coeff-En:   0.000D+00 0.000D+00 0.000D+00 0.000D+00 0.000D+00 0.000D+00
 Coeff-En:   0.100D+01
 Coeff:     -0.111D-02 0.356D-02-0.566D-03 0.498D-03 0.179D-02 0.500D-02
 Coeff:     -0.650D-02 0.202D-01-0.587D-01-0.966D-01 0.378D-02-0.708D-02
 Coeff:      0.114D+01
 Gap=     0.191 Goal=   None    Shift=    0.000
 Gap=     0.025 Goal=   None    Shift=    0.000
 RMSDP=4.40D-05 MaxDP=2.25D-03 DE=-1.70D-04 OVMax= 3.02D-02

 Cycle  14  Pass 1  IDiag  1:
 RMSU=  1.55D-05    CP:  9.17D-01  9.57D-02  2.81D-01  6.46D-01  6.03D-01
                    CP:  4.57D-01  2.16D-01  8.69D-01  8.80D-01  6.70D-01
                    CP:  1.33D+00  1.86D+00  1.93D+00
 E= -3026.77468394172     Delta-E=       -0.000117165328 Rises=F Damp=F
 DIIS: error= 2.90D-04 at cycle  14 NSaved=  14.
 NSaved=14 IEnMin=14 EnMin= -3026.77468394172     IErMin=14 ErrMin= 2.90D-04
 ErrMax= 2.90D-04  0.00D+00 EMaxC= 1.00D-01 BMatC= 1.49D-04 BMatP= 3.57D-04
 IDIUse=3 WtCom= 9.97D-01 WtEn= 2.90D-03
 Coeff-Com: -0.159D-03 0.745D-03-0.150D-03-0.113D-02 0.252D-02 0.269D-02
 Coeff-Com:  0.167D-02 0.541D-02-0.518D-01-0.791D-01-0.132D+00-0.519D+00
 Coeff-Com:  0.859D+00 0.911D+00
 Coeff-En:   0.000D+00 0.000D+00 0.000D+00 0.000D+00 0.000D+00 0.000D+00
 Coeff-En:   0.000D+00 0.000D+00 0.000D+00 0.000D+00 0.000D+00 0.000D+00
 Coeff-En:   0.000D+00 0.100D+01
 Coeff:     -0.159D-03 0.743D-03-0.150D-03-0.112D-02 0.251D-02 0.268D-02
 Coeff:      0.167D-02 0.539D-02-0.517D-01-0.788D-01-0.131D+00-0.518D+00
 Coeff:      0.856D+00 0.911D+00
 Gap=     0.192 Goal=   None    Shift=    0.000
 Gap=     0.025 Goal=   None    Shift=    0.000
 RMSDP=4.20D-05 MaxDP=2.18D-03 DE=-1.17D-04 OVMax= 2.45D-02

 Cycle  15  Pass 1  IDiag  1:
 RMSU=  1.03D-05    CP:  9.17D-01  9.52D-02  2.80D-01  6.44D-01  6.07D-01
                    CP:  4.54D-01  2.15D-01  8.63D-01  8.89D-01  6.68D-01
                    CP:  1.59D+00  2.40D+00  2.98D+00  1.43D+00
 E= -3026.77473702955     Delta-E=       -0.000053087829 Rises=F Damp=F
 DIIS: error= 1.76D-04 at cycle  15 NSaved=  15.
 NSaved=15 IEnMin=15 EnMin= -3026.77473702955     IErMin=15 ErrMin= 1.76D-04
 ErrMax= 1.76D-04  0.00D+00 EMaxC= 1.00D-01 BMatC= 5.61D-05 BMatP= 1.49D-04
 IDIUse=3 WtCom= 9.98D-01 WtEn= 1.76D-03
 Coeff-Com:  0.279D-04 0.712D-04 0.211D-04-0.133D-02 0.172D-02 0.129D-02
 Coeff-Com:  0.293D-02 0.541D-02-0.225D-01-0.243D-01-0.991D-01-0.375D+00
 Coeff-Com:  0.412D+00 0.557D+00 0.542D+00
 Coeff-En:   0.000D+00 0.000D+00 0.000D+00 0.000D+00 0.000D+00 0.000D+00
 Coeff-En:   0.000D+00 0.000D+00 0.000D+00 0.000D+00 0.000D+00 0.000D+00
 Coeff-En:   0.000D+00 0.000D+00 0.100D+01
 Coeff:      0.279D-04 0.711D-04 0.211D-04-0.133D-02 0.172D-02 0.129D-02
 Coeff:      0.292D-02 0.540D-02-0.225D-01-0.243D-01-0.989D-01-0.374D+00
 Coeff:      0.411D+00 0.556D+00 0.543D+00
 Gap=     0.192 Goal=   None    Shift=    0.000
 Gap=     0.025 Goal=   None    Shift=    0.000
 RMSDP=1.35D-05 MaxDP=6.71D-04 DE=-5.31D-05 OVMax= 8.73D-03

 Cycle  16  Pass 1  IDiag  1:
 RMSU=  7.76D-06    CP:  9.17D-01  9.51D-02  2.80D-01  6.44D-01  6.08D-01
                    CP:  4.55D-01  2.15D-01  8.62D-01  8.88D-01  6.67D-01
                    CP:  1.65D+00  2.57D+00  3.00D+00  1.73D+00  1.15D+00
 E= -3026.77474959578     Delta-E=       -0.000012566226 Rises=F Damp=F
 DIIS: error= 1.11D-04 at cycle  16 NSaved=  16.
 NSaved=16 IEnMin=16 EnMin= -3026.77474959578     IErMin=16 ErrMin= 1.11D-04
 ErrMax= 1.11D-04  0.00D+00 EMaxC= 1.00D-01 BMatC= 2.29D-05 BMatP= 5.61D-05
[...]
 000280,0.00000064,0.00000185,0.00000240,-0.00000918,-0.00000435,-0.000
 00697,0.00001133,-0.00001194,0.00000066,-0.00090870,0.00402463,-0.0010
 9255,-0.00098552,-0.00056068,-0.00039385,0.00001652,0.00074784,0.00096
 110,0.00056634,-0.00071388,0.00008154,-0.00094428,-0.00059023,-0.00007
 194,0.00065090,-0.00014547,-0.00014519,-0.00015859,0.00018837,-0.00012
 638,0.13275351,-0.04509725,-0.13869736,-0.02396262,0.00989769,0.010681
 98,-0.00001460,-0.00007673,-0.00000289,-0.00000234,-0.00000012,-0.0000
 0093,0.00000315,-0.00000167,0.00000100,-0.00000041,0.00000056,-0.00000
 035,0.00000767,-0.00000507,0.00000541,0.00001580,-0.00000115,0.0000153
 0,-0.00000132,-0.00000115,-0.00000185,0.00000228,0.00000276,-0.0000009
 8,-0.00000193,0.00000026,0.00000066,0.00000223,-0.00000198,-0.00000070
 ,-0.00000573,0.00000027,-0.00000125,-0.00000560,-0.00000533,-0.0000019
 5,-0.00000672,-0.00000394,-0.00000516,-0.00001587,0.00002048,-0.000002
 22,0.00000117,-0.00000143,0.00000666,-0.00000581,-0.00000890,-0.000000
 07,0.00001027,-0.00000901,0.00000498,-0.00000317,-0.00001407,-0.000005
 86,0.00000857,0.00003735,0.00005942,-0.00010867,0.00001416,0.00003509,
 -0.00002631,-0.00001610,-0.00003405,0.00000463,0.00000735,0.00002031,-
 0.00000408,-0.00000289,-0.00000028,-0.00000122,0.00000093,-0.00000059,
 0.00000023,-0.00000043,-0.00000003,-0.00000064,-0.00000014,0.00000077,
 0.00000007,-0.00000049,-0.00000057,0.00037068,0.00008297,0.00030352,-0
 .00033981,-0.00110678,-0.00097278,0.00001184,0.00002282,-0.00005156,0.
 00020208,0.00008541,0.00014849,-0.00045711,0.00022979,0.00022068,-0.00
 003915,0.00002805,-0.00002374,-0.00022802,-0.00013355,-0.00000052,0.00
 005500,0.00005213,0.00001967,0.00005286,0.00002700,0.00001130,-0.00004
 536,-0.00001503,0.00000036,-0.12769401,0.03979064,0.14021468,-0.000009
 44,-0.00001964,-0.00000238,-0.00001134,0.00004632,0.00000215,-0.000027
 64,0.00003894,-0.00008951,-0.00001164,-0.00000965,-0.00000243,-0.00008
 499,-0.00013173,0.00002769,0.00002001,0.00002885,0.00001440,0.00004369
 ,-0.00024647,-0.00004857,0.00019131,0.00057481,0.00013565,-0.00044639,
 0.00015811,0.00027676,-0.00022315,-0.00003868,-0.00022613,0.00038823,-
 0.00010252,0.00008658,-0.00062625,-0.00052950,0.00003381,0.00044763,-0
 .00024039,0.00101368,0.00006440,0.00037324,-0.00054073,0.00045674,0.00
 013968,0.00013670,-0.00034479,-0.00007120,-0.00076493,-0.00004318,-0.0
 0014505,0.00004053,0.00000068,-0.00001060,0.00003203,-0.00000433,0.000
 02370,-0.00001244,-0.00000572,-0.00002298,-0.00000393,-0.00000708,0.00
 000718,-0.00000827,0.00001089,0.00000206,0.00001024,0.00000077,0.00000
 843,-0.00001051,0.00153260,0.00224963,-0.00170847,-0.00134365,-0.00078
 693,0.00051141,-0.00319360,-0.01149588,-0.01667743,-0.00258234,-0.0003
 9475,0.00119965,-0.00040810,0.00018564,0.00054192,-0.00004865,-0.00001
 462,-0.00013925,0.00044062,-0.00063376,-0.00028688,-0.06971386,-0.0287
 9201,-0.05454851,-0.00924350,-0.00071389,-0.01980396,0.00002946,-0.000
 23790,0.00008169,-0.00000182,0.00000207,-0.00000133,0.00000591,-0.0000
 0358,0.00000370,-0.00000177,0.00000138,-0.00000011,0.00003292,-0.00001
 716,0.00001671,0.00001547,-0.00001997,0.00004699,-0.00000575,-0.000010
 98,-0.00000834,0.00000609,0.00001053,0.00000776,-0.00000052,0.00000181
 ,0.00000092,0.00000759,-0.00000505,0.00000249,0.00000263,0.00000351,-0
 .00000093,0.00000231,-0.00001120,-0.00000346,-0.00000316,-0.00000522,-
 0.00000043,-0.00005258,0.00004419,-0.00001471,-0.00003628,-0.00002980,
 0.00008690,-0.00002006,-0.00000061,-0.00001041,0.00001313,-0.00001496,
 0.00001087,-0.00002441,-0.00005241,-0.00001917,0.00005116,0.00004821,0
 .00006138,-0.00023390,0.00004321,0.00013966,0.00001700,0.00000998,0.00
 002595,-0.00000406,-0.00003632,0.00004629,0.00000263,-0.00000446,-0.00
 000391,-0.00000179,0.00000208,-0.00000261,-0.00000031,-0.00000030,-0.0
 0000092,-0.00000022,0.00000010,0.00000037,-0.00000585,-0.00000615,0.00
 000098,0.00126285,0.00061916,-0.00022624,0.00035402,0.00013080,-0.0002
 6363,0.00008041,0.00004159,-0.00003014,0.00021173,0.00009154,-0.000101
 00,0.00007397,-0.00015990,0.00015767,0.00007609,0.00003202,-0.00001591
 ,0.00002490,-0.00005304,0.00002814,-0.00026264,-0.00013080,-0.00000324
 ,0.00002030,0.00002531,0.00001525,-0.00011338,0.00006350,-0.00007134,0
 .01000913,0.00953807,0.02161118,0.07310595,0.00000254,0.00001872,-0.00
 000408,0.00001499,-0.00002860,0.00000627,0.00002142,-0.00002013,0.0000
 5494,-0.00001469,0.00000294,-0.00000679,-0.00001187,0.00005301,-0.0000
 2926,-0.00002280,-0.00003165,-0.00004364,0.00015094,0.00005522,0.00013
 498,-0.00020282,-0.00028280,-0.00015404,0.00065874,-0.00044956,-0.0007
 4985,0.00039278,0.00000431,0.00048690,-0.00011382,0.00044772,-0.000637
 45,0.00024743,0.00020491,-0.00001590,-0.00049645,0.00016169,-0.0007228
 6,-0.00033025,-0.00055962,0.00067447,-0.00033316,0.00018709,-0.0002179
 1,0.00082570,-0.00022690,0.00104648,0.00030287,0.00016216,-0.00002834,
 -0.00016892,0.00013318,-0.00021461,0.00014058,0.00000986,0.00027413,-0
 .00007659,0.00026228,-0.00004158,0.00005977,-0.00006771,0.00007227,-0.
 00014361,-0.00005370,-0.00021623,0.00009778,-0.00027934,0.00008885,-0.
 00581379,-0.00446625,0.00394285,-0.00027752,0.00107988,-0.00202590,-0.
 00444660,-0.00821492,-0.01677719,-0.00310708,-0.00067071,0.00043201,0.
 00010474,0.00001857,0.00029489,-0.00019318,0.00023387,0.00002831,0.000
 42797,-0.00079669,-0.00027511,-0.03448658,-0.09886514,-0.11204099,0.01
 975567,0.00667305,0.03156374,0.00004844,0.00004163,0.00007852,0.000003
 33,-0.00000138,0.00000084,-0.00000351,0.00000082,-0.00000317,0.0000023
 5,0.00000052,0.00000205,-0.00001221,0.00000600,-0.00001257,-0.00003781
 ,-0.00001142,-0.00002848,0.00000224,0.00000103,0.00000200,0.00000383,-
 0.00000438,0.00000060,0.00000252,-0.00000076,0.00000045,-0.00000167,0.
 00000248,0.00000086,0.00000598,0.00000466,0.00000291,0.00001554,0.0000
 1245,0.00000695,0.00000700,0.00000476,0.00000525,0.00001120,-0.0000557
 5,0.00000512,0.00005759,-0.00004821,-0.00016765,0.00000113,-0.00000867
 ,0.00000694,-0.00000521,0.00000208,-0.00002219,0.00001392,-0.00001249,
 -0.00000316,0.00003574,-0.00001186,-0.00006331,-0.00007959,-0.00001728
 ,0.00002167,-0.00000223,-0.00001279,-0.00005608,-0.00000472,0.00001199
 ,-0.00005516,0.00000063,-0.00001597,-0.00000771,0.00000835,-0.00000232
 ,-0.00000570,0.00000137,-0.00000339,0.00000470,0.00000540,0.00000164,0
 .00000044,0.00001249,0.00001369,0.00000954,0.00007721,0.00056825,-0.00
 022275,-0.00012928,-0.00001547,0.00012295,-0.00003672,0.00000162,-0.00
 003059,-0.00007241,-0.00004515,0.00000744,0.00010112,0.00005492,-0.000
 15254,-0.00004375,-0.00011992,0.00006071,0.00006742,-0.00000339,0.0000
 5263,-0.00027613,-0.00014529,0.00002822,-0.00002335,0.00001667,0.00003
 343,-0.00005083,0.00007891,-0.00003322,-0.00298585,-0.00085659,-0.0061
 0084,0.03041201,0.10603932,0.00000333,-0.00000508,-0.00000467,-0.00003
 238,0.00000768,0.00001476,0.00000843,0.00001108,-0.00004457,0.00001449
 ,0.00000704,0.00000020,0.00003108,0.00001153,0.00001487,-0.00001365,0.
 00001547,0.00003543,-0.00008411,-0.00002362,-0.00010956,0.00017527,0.0
 0019593,0.00012707,-0.00035023,-0.00005852,0.00023935,0.00008122,0.000
 05670,-0.00003143,0.00020741,0.00123171,-0.00129790,-0.00047583,-0.000
 38383,0.00011838,-0.00050338,0.00014846,-0.00074580,-0.00045712,-0.000
 99260,0.00100080,0.00052854,0.00049655,-0.00006827,0.00074776,-0.00051
 927,0.00093100,-0.00002168,0.00004272,-0.00003956,0.00013004,-0.000217
 27,0.00020920,-0.00017043,-0.00002754,-0.00023267,0.00009563,-0.000282
 70,0.00003429,-0.00004908,0.00010956,-0.00004760,0.00012511,0.00004890
 ,0.00018117,-0.00008916,0.00032466,-0.00006114,0.00496028,0.00213425,-
 0.00205836,-0.00005353,-0.00081274,0.00016579,0.00311444,0.00296466,0.
 00765204,0.00095350,0.00079583,0.00053238,0.00015747,-0.00002730,-0.00
 010880,-0.00019233,-0.00010896,-0.00003669,0.00001014,0.00031178,0.000
 13962,-0.05990632,-0.10366423,-0.25671407,-0.01423265,0.00327276,-0.01
 487117,-0.00012909,-0.00006939,-0.00005573,0.00000064,0.00000046,0.000
 00112,-0.00000092,-0.00000061,0.00000293,-0.00000171,-0.00000146,-0.00
 000022,0.00001125,-0.00000551,0.00000709,0.00001080,0.00000500,0.00001
 713,-0.00000422,-0.00000337,-0.00000202,-0.00000381,0.00000077,0.00000
 370,0.00000027,0.00000025,-0.00000216,-0.00000142,-0.00000080,0.000000
 86,0.00000497,-0.00000811,0.00000090,-0.00001187,-0.00000856,-0.000008
 95,-0.00000173,0.00000473,-0.00000490,-0.00001116,-0.00001553,0.000032
 16,0.00001864,0.00002175,0.00003866,0.00001334,-0.00003193,-0.00000226
 ,0.00001132,0.00002156,-0.00002083,-0.00000526,0.00000603,0.00002802,0
 .00000939,-0.00003238,-0.00009408,-0.00002720,-0.00004138,0.00004244,-
 0.00001789,0.00001257,0.00005942,-0.00005448,-0.00006767,0.00002975,-0
 .00000235,0.00001441,0.00000839,-0.00000156,0.00000259,0.00000129,-0.0
 0000578,0.00000256,-0.00000215,-0.00000331,-0.00000253,0.00000039,-0.0
 0000746,-0.00001684,-0.00000615,0.00028507,0.00061584,0.00158357,-0.00
 014613,-0.00003760,0.00013241,-0.00003376,0.00000060,0.00002324,-0.000
 06415,-0.00003509,0.00004079,-0.00000868,0.00006761,-0.00007617,-0.000
 01597,-0.00002821,0.00002029,0.00005727,0.00003984,0.00001635,0.000011
 88,0.00008094,-0.00005804,-0.00001669,-0.00002365,-0.00000328,-0.00002
 570,-0.00007602,0.00000168,-0.00397799,-0.00718911,-0.01062187,0.06923
 414,0.10169652,0.27387811,-0.00007396,-0.00111376,0.00010914,-0.002316
 92,0.00323334,-0.00118434,-0.00935853,0.00310412,-0.01123937,-0.001059
 85,-0.00055338,0.00033898,-0.00301050,0.00629949,-0.00461216,-0.001133
 00,0.00006331,-0.00048241,-0.00023811,-0.00286698,-0.00091870,0.005830
 62,0.00573254,0.00227529,-0.00033622,0.00019027,0.00093334,-0.00062997
 ,0.00029782,-0.00151591,-0.00082212,-0.00093252,-0.00057348,0.00133581
 ,0.00110160,-0.00004588,-0.00073583,0.00036166,-0.00137729,0.00044042,
 0.00013186,0.00034264,-0.00132192,-0.00082739,0.00003251,0.00052801,-0
 .00012692,0.00157484,-0.00098532,0.00021269,-0.00085278,0.00072214,-0.
 00008079,0.00044701,-0.00037450,-0.00003998,-0.00024673,0.00000951,-0.
 00017174,0.00004687,-0.00003128,0.00012910,-0.00003412,0.00000536,0.00
 006940,0.00008018,-0.00011778,0.00023160,-0.00016390,-0.00737837,-0.01
 930536,0.00513402,-0.05333790,-0.02466424,-0.02270936,-0.00857555,0.00
 003841,-0.00449209,-0.00350487,-0.00005168,-0.00075159,-0.00119692,0.0
 0101383,-0.00048537,-0.00003743,0.00002691,-0.00030192,-0.00663209,-0.
 00183199,-0.00676470,-0.00090720,0.00038876,-0.00111493,0.00685734,0.0
 0407024,-0.00148453,-0.02254097,0.02021607,-0.01789169,-0.00018168,0.0
 0001142,0.00008947,0.00046723,-0.00027849,0.00020239,-0.00002546,0.000
 13769,-0.00002624,0.00340478,-0.00054642,0.00222403,-0.00587434,-0.009
 22778,0.01292459,-0.00056178,-0.00055533,0.00019773,0.00020982,0.00061
 819,0.00070347,0.00013365,0.00010859,0.00020320,0.00040264,-0.00034202
 ,-0.00018350,-0.00031651,0.00024712,-0.00024055,0.00000108,0.00004066,
 0.00014589,-0.00003135,0.00021913,-0.00011127,0.00017605,0.00003250,0.
 00025708,0.00000837,0.00047271,0.00045170,0.00003547,-0.00003695,0.000
 04855,0.00000027,-0.00003534,-0.00001014,0.00003607,-0.00001429,-0.000
 00686,0.00002996,-0.00006438,-0.00010079,0.00028013,0.00000756,-0.0001
 9589,-0.00003481,-0.00010014,0.00033307,-0.00009181,-0.00006357,0.0002
 5528,0.00012278,-0.00002134,0.00000395,0.00002453,0.00001427,-0.000055
 46,0.00001117,0.00001477,-0.00001491,-0.00000505,0.00001244,-0.0000214
 5,0.00001831,-0.00002912,-0.00002863,-0.00013117,-0.00035456,0.0000874
 6,0.00046980,-0.00008974,-0.00003202,-0.00001854,-0.00040998,0.0014027
 1,0.00030178,-0.00024374,0.00018076,0.00028468,0.00010951,0.00006141,-
 0.00003176,-0.00005454,0.00006119,0.00004981,-0.00002412,0.00008488,0.
 00228205,-0.00055696,0.00188227,0.00009714,0.00064795,0.00014993,0.001
 65585,0.00882379,0.00563694,0.00005892,0.00001308,0.00001835,0.0001449
 1,-0.00009571,0.00019904,0.10752490,0.00007114,-0.00142778,0.00059978,
 0.00171178,0.00174991,0.00006503,-0.00411835,-0.00150114,-0.00284059,0
 .00155728,-0.00025664,0.00114573,0.00833832,0.00327256,0.00185358,0.00
 016017,0.00022106,0.00108903,-0.00633277,0.00827941,-0.00140938,0.0009
 5134,-0.02804920,0.00453175,0.00014397,-0.00018950,-0.00024146,0.00076
 148,0.00016599,-0.00081532,-0.00246451,-0.00107969,-0.00170067,0.00249
 565,0.00199847,0.00012334,-0.00107829,0.00062930,-0.00228629,0.0008692
 7,0.00039891,0.00051608,-0.00224173,-0.00154137,0.00004173,0.00135394,
 -0.00051275,0.00292471,-0.00012994,0.00087737,0.00127219,0.00154486,-0
 .00197843,0.00220551,-0.00169702,-0.00041693,-0.00309056,0.00117960,-0
 .00270610,0.00055845,-0.00062618,0.00061940,-0.00076947,0.00163475,0.0
 0052942,0.00243302,-0.00110589,0.00320791,-0.00084634,-0.01484046,-0.0
 1719550,0.00086888,-0.02802935,-0.02376972,-0.01155456,-0.00225782,0.0
 0879428,-0.00147226,0.00141652,0.00295763,-0.00025896,-0.00057860,-0.0
 0065004,-0.00081231,-0.00107502,-0.00185690,-0.00016599,0.00961731,-0.
 00233997,0.00980803,0.00048599,-0.00014593,-0.00081756,0.00867664,0.00
 262740,0.00077450,0.02376712,-0.04358447,0.02836321,-0.00035383,-0.000
 00844,-0.00000351,0.00033929,-0.00000824,0.00010574,-0.00006509,0.0000
 5549,-0.00012529,0.00079379,-0.00038772,-0.00016425,-0.00386812,-0.001
 82287,0.00514507,-0.00077465,-0.00000974,-0.00052563,-0.00039622,-0.00
 044752,-0.00122132,-0.00053390,0.00001967,0.00003313,-0.00025485,-0.00
 017872,-0.00026959,-0.00067829,-0.00024988,-0.00037365,-0.00032246,-0.
 00001973,-0.00009994,-0.00011524,0.00034146,-0.00019860,0.00019572,-0.
 00027729,-0.00014421,0.00006632,0.00043908,0.00029384,0.00000234,-0.00
 006581,0.00013470,0.00002265,-0.00003125,0.00001736,0.00005658,0.00001
 721,0.00000594,0.00002919,-0.00003143,-0.00006836,0.00022824,0.0000965
 9,-0.00032496,-0.00030285,-0.00006734,0.00001113,0.00024502,0.00037441
 ,-0.00059816,-0.00019277,0.00032589,0.00029248,-0.00005683,0.00000610,
 0.00011169,-0.00004835,0.00003788,-0.00001056,-0.00004198,-0.00002716,
 0.00000164,-0.00006937,-0.00008879,-0.00011508,0.00049671,-0.00042321,
 0.00046127,-0.00026466,-0.00012077,0.00034698,0.00007439,0.00021209,0.
 00053046,0.00031826,-0.00017200,-0.00018023,-0.00061460,0.00014047,-0.
 00020021,0.00012516,0.00012160,0.00006501,0.00037843,-0.00025544,-0.00
 000053,-0.00260567,0.00075443,-0.00145045,0.00018491,-0.00028003,-0.00
 006747,-0.00007822,-0.01159620,-0.00914210,0.00041048,0.00040389,0.000
 12614,0.00024237,-0.00016571,0.00003813,0.00726690,0.10626207,0.000415
 92,0.00109741,-0.00069630,-0.00127619,-0.00020942,0.00011014,0.0068823
 7,-0.00110207,0.00482648,0.00188592,0.00046539,0.00042877,-0.00671290,
 -0.00068632,-0.00144595,-0.00021239,-0.00054077,-0.00072136,0.00278663
 ,-0.00595862,0.00180663,0.00324972,0.01038767,0.00086590,0.00054663,-0
 .00015166,0.00004618,-0.00083388,-0.00009436,-0.00009325,0.00042016,-0
 .00023943,0.00024790,0.00003155,-0.00000778,-0.00007183,0.00005280,0.0
 0000658,0.00008896,0.00006116,0.00014146,-0.00013021,-0.00009409,0.000
 00812,-0.00001489,-0.00026146,-0.00001675,-0.00005440,-0.00056430,0.00
 026767,-0.00046396,0.00004906,0.00056485,-0.00040333,0.00026125,0.0002
 5913,0.00076621,-0.00040346,0.00078105,-0.00017355,0.00013541,-0.00036
 161,0.00012031,-0.00038973,-0.00015909,-0.00056423,0.00033067,-0.00090
 621,0.00016897,0.00160427,-0.00412201,0.00323176,-0.02183139,-0.012176
 37,-0.01365787,-0.00426583,0.00163093,-0.00140279,-0.00106646,0.000141
 11,0.00008910,0.00166570,-0.00124492,0.00095387,-0.00002074,-0.0008402
 8,-0.00030561,0.00496849,-0.00087168,0.00302280,0.00000198,0.00039011,
 -0.00057031,0.00304905,0.00284674,0.00037436,-0.01777798,0.02866695,-0
 .02476751,0.00028676,-0.00000047,0.00003630,-0.00031926,0.00004237,-0.
 00004290,-0.00008544,-0.00011558,-0.00004361,-0.00087386,-0.00069327,-
 0.00131550,-0.00260503,0.00241676,-0.00290818,-0.00243264,-0.00079549,
 -0.00169983,-0.00075697,-0.00041027,-0.00023644,-0.00003750,-0.0000212
 1,-0.00021941,-0.00045635,0.00000223,-0.00012575,-0.00017011,0.0004833
 9,-0.00023352,0.00014689,0.00008475,0.00005753,0.00009425,-0.00048908,
 0.00014721,0.00012310,0.00006813,-0.00000852,0.00006515,0.00009383,0.0
 0005083,0.00000646,0.00002511,-0.00001714,-0.00000926,0.00000228,-0.00
 000013,0.00001230,-0.00000481,-0.00001180,-0.00001139,-0.00002476,-0.0
 0001427,0.00007102,-0.00002005,-0.00005773,0.00015007,-0.00010326,-0.0
 0000762,-0.00004965,-0.00019514,0.00022060,0.00011011,-0.00012295,-0.0
 0013494,0.00001601,0.00002054,-0.00004715,0.00002429,-0.00001717,-0.00
 000782,0.00000239,0.00000955,0.00000090,0.00000745,-0.00000314,0.00002
 301,-0.00055928,-0.00022154,-0.00024618,-0.00037706,0.00026092,-0.0002
 5012,-0.00049485,0.00068673,-0.00063993,-0.00014696,0.00004588,-0.0001
 9490,-0.00016487,0.00008614,-0.00000830,-0.00004385,0.00010489,-0.0001
 0328,0.00014853,-0.00008142,0.00005190,0.00002613,0.00056157,-0.001333
 67,-0.00186482,0.00162870,-0.00209661,-0.00393554,0.00106077,-0.000474
 98,0.00025511,0.00028369,-0.00000959,0.00000992,-0.00008497,0.00006402
 ,0.04115081,-0.02252943,0.04022652\\0.00000183,-0.00000218,0.00000088,
 0.00001166,0.00000053,0.00000074,-0.00001778,0.00001606,-0.00002117,-0
 .00000006,-0.00000276,-0.00000330,-0.00002321,-0.00001348,0.00001111,0
 .00002253,0.00002811,0.00000301,-0.00001833,-0.00001283,-0.00001146,0.
 00000082,-0.00000895,-0.00001042,0.00000726,0.00004054,0.00000476,-0.0
 0000439,-0.00002077,-0.00000691,0.00000039,0.00000635,-0.00000074,0.00
 000238,-0.00000280,-0.00000050,0.00000033,-0.00000157,0.00000175,0.000
 00111,0.00000294,-0.00000331,-0.00000064,-0.00000160,0.00000158,-0.000
 00072,0.00000187,-0.00000180,-0.00000419,-0.00001324,0.00000154,0.0000
 0269,0.00000351,0.00000479,-0.00000117,0.00000134,-0.00000293,0.000000
 03,-0.00000231,-0.00000113,-0.00000033,-0.00000090,-0.00000085,0.00000
 141,-0.00000156,0.00000216,-0.00000442,0.00000102,-0.00000067,0.000000
 05,-0.00000207,-0.00000404,-0.00001967,0.00003827,-0.00000090,0.000017
 82,-0.00003926,0.00000214,-0.00000321,0.00001278,-0.00000997,-0.000002
 72,-0.00000440,0.00000778,-0.00000455,0.00000217,0.00000260,0.00001397
 ,0.00000221,0.00002181,-0.00000780,0.00004419,-0.00002381,0.00001692,-
 0.00003372,0.00001758,0.00001316,0.00001840,0.00000489,-0.00000141,0.0
 0000062,0.00000064,-0.00000043,0.00000110,0.00000043,-0.00000057,-0.00
 000073,0.00000117,0.00000391,-0.00000221,0.00000786,0.00000942,0.00000
 458,-0.00000666,0.00000170,0.00000138,0.00000397,-0.00000038,0.0000001
 9,0.00000008,-0.00000107,0.00000149,0.00000100,-0.00000056,0.00000094,
 0.00000067,0.00000336,0.00000387,-0.00000310,-0.00000351,-0.00000268,0
 .00000061,-0.00000148,-0.00000555,0.00000439,0.00000207,-0.00000124,0.
 00000067,-0.00000128,0.00000245,0.00000085,-0.00000053,0.00000099,-0.0
 0000209,0.,0.00000027,-0.00000127,0.00000041,-0.00000048,-0.00000031,0
 .00000077,0.00000059,-0.00000023,-0.00000053,0.00000054,0.00000055,-0.
 00000329,-0.00000191,0.00000090,0.00000174,0.00000188,0.00000098,0.000
 00063,-0.00000062,-0.00000049,-0.00000053,-0.00000004,0.00000017,-0.00
 000061,-0.00000062,0.00000007,-0.00000006,-0.00000004,-0.00000009,0.00
 000189,0.00000083,-0.00000053,-0.00000038,0.00000493,-0.00000007,0.000
 00002,0.00000023,-0.00000127,-0.00000034,0.00000085,-0.00000028,0.0000
 0068,0.00000057,-0.00000096,0.00000196,-0.00000048,-0.00000026,0.00000
 035,-0.00000103,-0.00000034,0.00000189,-0.00000054,0.,-0.00000374,-0.0
 0000024,-0.00000708,0.00000143,0.00000314,-0.00000322,0.00000568,-0.00
 000746,-0.00000717,-0.00000067,-0.00000474,0.00000128,-0.00000161,-0.0
 0000369,0.00000352,-0.00001612,-0.00005302,0.00002042\\\@
 The archive entry for this job was punched.


 SUCCESS IS COUNTED SWEETEST
 BY THOSE WHO NE'ER SUCCEED.
 TO COMPREHEND NECTAR
 REQUIRES SOREST NEED.
           EMILY DICKINSON
 Job cpu time:       1 days  2 hours 57 minutes 58.3 seconds.
 Elapsed time:       0 days  0 hours 50 minutes 47.9 seconds.
 File lengths (MBytes):  RWF=   5088 Int=      0 D2E=      0 Chk=     40 Scr=      1
 Normal termination of Gaussian 16 at Thu Aug  1 14:04:18 2024.
