 Entering Gaussian System, Link 0=g16
 Initial command:
 /public/software/apps/Gaussian/g16/l1.exe "/public/home/LJQ_HG/tmp/Gau-104597.inp" -scrdir="/public/home/LJQ_HG/tmp/"
 Entering Link 1 = /public/software/apps/Gaussian/g16/l1.exe PID=    104598.
  
 Copyright (c) 1988-2019, Gaussian, Inc.  All Rights Reserved.
  
 This is part of the Gaussian(R) 16 program.  It is based on
 the Gaussian(R) 09 system (copyright 2009, Gaussian, Inc.),
 the Gaussian(R) 03 system (copyright 2003, Gaussian, Inc.),
 the Gaussian(R) 98 system (copyright 1998, Gaussian, Inc.),
 the Gaussian(R) 94 system (copyright 1995, Gaussian, Inc.),
 the Gaussian 92(TM) system (copyright 1992, Gaussian, Inc.),
 the Gaussian 90(TM) system (copyright 1990, Gaussian, Inc.),
 the Gaussian 88(TM) system (copyright 1988, Gaussian, Inc.),
 the Gaussian 86(TM) system (copyright 1986, Carnegie Mellon
 University), and the Gaussian 82(TM) system (copyright 1983,
 Carnegie Mellon University). Gaussian is a federally registered
 trademark of Gaussian, Inc.
  
 This software contains proprietary and confidential information,
 including trade secrets, belonging to Gaussian, Inc.
  
 This software is provided under written license and may be
 used, copied, transmitted, or stored only in accord with that
 written license.
  
 The following legend is applicable only to US Government
 contracts under FAR:
  
                    RESTRICTED RIGHTS LEGEND
  
 Use, reproduction and disclosure by the US Government is
 subject to restrictions as set forth in subparagraphs (a)
 and (c) of the Commercial Computer Software - Restricted
 Rights clause in FAR 52.227-19.
  
 Gaussian, Inc.
 340 Quinnipiac St., Bldg. 40, Wallingford CT 06492
  
  
 ---------------------------------------------------------------
 Warning -- This program may not be used in any manner that
 competes with the business of Gaussian, Inc. or will provide
 assistance to any competitor of Gaussian, Inc.  The licensee
 of this program is prohibited from giving any competitor of
 Gaussian, Inc. access to this program.  By using this program,
 the user acknowledges that Gaussian, Inc. is engaged in the
 business of creating and licensing software in the field of
 computational chemistry and represents and warrants to the
 licensee that it is not a competitor of Gaussian, Inc. and that
 it will not use this program in any manner prohibited above.
 ---------------------------------------------------------------
  

 Cite this work as:
 Gaussian 16, Revision C.01,
 M. J. Frisch, G. W. Trucks, H. B. Schlegel, G. E. Scuseria, 
 M. A. Robb, J. R. Cheeseman, G. Scalmani, V. Barone, 
 G. A. Petersson, H. Nakatsuji, X. Li, M. Caricato, A. V. Marenich, 
 J. Bloino, B. G. Janesko, R. Gomperts, B. Mennucci, H. P. Hratchian, 
 J. V. Ortiz, A. F. Izmaylov, J. L. Sonnenberg, D. Williams-Young, 
 F. Ding, F. Lipparini, F. Egidi, J. Goings, B. Peng, A. Petrone, 
 T. Henderson, D. Ranasinghe, V. G. Zakrzewski, J. Gao, N. Rega, 
 G. Zheng, W. Liang, M. Hada, M. Ehara, K. Toyota, R. Fukuda, 
 J. Hasegawa, M. Ishida, T. Nakajima, Y. Honda, O. Kitao, H. Nakai, 
 T. Vreven, K. Throssell, J. A. Montgomery, Jr., J. E. Peralta, 
 F. Ogliaro, M. J. Bearpark, J. J. Heyd, E. N. Brothers, K. N. Kudin, 
 V. N. Staroverov, T. A. Keith, R. Kobayashi, J. Normand, 
 K. Raghavachari, A. P. Rendell, J. C. Burant, S. S. Iyengar, 
 J. Tomasi, M. Cossi, J. M. Millam, M. Klene, C. Adamo, R. Cammi, 
 J. W. Ochterski, R. L. Martin, K. Morokuma, O. Farkas, 
 J. B. Foresman, and D. J. Fox, Gaussian, Inc., Wallingford CT, 2019.
 
 ******************************************
 Gaussian 16:  ES64L-G16RevC.01  3-Jul-2019
                 8-Mar-2024 
 ******************************************
 %nprocshared=32
 Will use up to   32 processors via shared memory.
 %mem=100GB
 ------------------------------------------
 #p opt freq b3lyp nosymm def2svpp em=gd3bj
 ------------------------------------------
 1/18=20,19=15,26=3,38=1/1,3;
 2/9=110,12=2,15=1,17=6,18=5,40=1/2;
 3/5=43,7=202,11=2,25=1,30=1,71=1,74=-5,124=41/1,2,3;
 4//1;
 5/5=2,38=5/2;
 6/7=2,8=2,9=2,10=2,28=1/1;
 7/30=1/1,2,3,16;
 1/18=20,19=15,26=3/3(2);
 2/9=110,15=1/2;
 99//99;
 2/9=110,15=1/2;
 3/5=43,7=202,11=2,25=1,30=1,71=1,74=-5,124=41/1,2,3;
 4/5=5,16=3,69=1/1;
 5/5=2,38=5/2;
 7/30=1/1,2,3,16;
 1/18=20,19=15,26=3/3(-5);
 2/9=110,15=1/2;
 6/7=2,8=2,9=2,10=2,19=2,28=1/1;
 99/9=1/99;
 Leave Link    1 at Fri Mar  8 01:29:55 2024, MaxMem= 13421772800 cpu:               1.6 elap:               0.1
 (Enter /public/software/apps/Gaussian/g16/l101.exe)
 ------------------
 $$$$Title####2????
 ------------------
 Symbolic Z-matrix:
 Charge =  2 Multiplicity = 2
 C                    -2.13476   0.01304  -2.34462 
 C                    -2.32376  -0.49459  -0.90657 
 C                    -3.78848  -0.91336  -0.70223 
 C                    -1.9056    0.58395   0.1243 
 C                    -1.87147   0.06334   1.58072 
 O                    -0.55764   0.3663    2.01097 
 C                     0.13892   0.95608   0.97322 
 C                     1.55494   1.34258   1.0615 
 C                     2.25359   1.23314   2.27319 
 C                     3.59807   1.60775   2.3248 
 C                     4.23158   2.08516   1.17636 
 C                     3.50644   2.18114  -0.01304 
 N                     2.19795   1.81176  -0.0445 
 N                    -0.53917   1.03743  -0.1178 
 H                    -2.72636   0.93843  -2.51416 
 H                    -2.46267  -0.75994  -3.07223 
 H                    -1.06405   0.22834  -2.54528 
 H                    -1.67971  -1.39263  -0.77435 
 H                    -3.94112  -1.34499   0.30835 
 H                    -4.07247  -1.68959  -1.44461 
 H                    -4.46524  -0.04014  -0.82249 
 H                    -2.58808   1.46067   0.05655 
 H                    -2.02876  -1.03401   1.65069 
 H                    -2.61141   0.59614   2.21523 
 H                     1.76683   0.86327   3.16701 
 H                     4.14795   1.52799   3.25364 
 H                     5.27315   2.37764   1.20738 
 H                     3.98341   2.5492   -0.91151 
 Cu                    0.77464   1.74205  -1.39019 
 
 ITRead=  0  0  0  0  0  0  0  0  0  0  0  0  0  0  0  0  0  0  0  0
 ITRead=  0  0  0  0  0  0  0  0  0
 MicOpt= -1 -1 -1 -1 -1 -1 -1 -1 -1 -1 -1 -1 -1 -1 -1 -1 -1 -1 -1 -1
 MicOpt= -1 -1 -1 -1 -1 -1 -1 -1 -1
 NAtoms=     29 NQM=       29 NQMF=       0 NMMI=      0 NMMIF=      0
                NMic=       0 NMicF=      0.
                    Isotopes and Nuclear Properties:
 (Nuclear quadrupole moments (NQMom) in fm**2, nuclear magnetic moments (NMagM)
  in nuclear magnetons)

  Atom         1           2           3           4           5           6           7           8           9          10
 IAtWgt=          12          12          12          12          12          16          12          12          12          12
 AtmWgt=  12.0000000  12.0000000  12.0000000  12.0000000  12.0000000  15.9949146  12.0000000  12.0000000  12.0000000  12.0000000
 NucSpn=           0           0           0           0           0           0           0           0           0           0
 AtZEff=  -0.0000000  -0.0000000  -0.0000000  -0.0000000  -0.0000000  -0.0000000  -0.0000000  -0.0000000  -0.0000000  -0.0000000
 NQMom=    0.0000000   0.0000000   0.0000000   0.0000000   0.0000000   0.0000000   0.0000000   0.0000000   0.0000000   0.0000000
 NMagM=    0.0000000   0.0000000   0.0000000   0.0000000   0.0000000   0.0000000   0.0000000   0.0000000   0.0000000   0.0000000
 AtZNuc=   6.0000000   6.0000000   6.0000000   6.0000000   6.0000000   8.0000000   6.0000000   6.0000000   6.0000000   6.0000000

  Atom        11          12          13          14          15          16          17          18          19          20
 IAtWgt=          12          12          14          14           1           1           1           1           1           1
 AtmWgt=  12.0000000  12.0000000  14.0030740  14.0030740   1.0078250   1.0078250   1.0078250   1.0078250   1.0078250   1.0078250
 NucSpn=           0           0           2           2           1           1           1           1           1           1
 AtZEff=  -0.0000000  -0.0000000  -0.0000000  -0.0000000  -0.0000000  -0.0000000  -0.0000000  -0.0000000  -0.0000000  -0.0000000
 NQMom=    0.0000000   0.0000000   2.0440000   2.0440000   0.0000000   0.0000000   0.0000000   0.0000000   0.0000000   0.0000000
 NMagM=    0.0000000   0.0000000   0.4037610   0.4037610   2.7928460   2.7928460   2.7928460   2.7928460   2.7928460   2.7928460
 AtZNuc=   6.0000000   6.0000000   7.0000000   7.0000000   1.0000000   1.0000000   1.0000000   1.0000000   1.0000000   1.0000000

  Atom        21          22          23          24          25          26          27          28          29
 IAtWgt=           1           1           1           1           1           1           1           1          63
 AtmWgt=   1.0078250   1.0078250   1.0078250   1.0078250   1.0078250   1.0078250   1.0078250   1.0078250  62.9295992
 NucSpn=           1           1           1           1           1           1           1           1           3
 AtZEff=  -0.0000000  -0.0000000  -0.0000000  -0.0000000  -0.0000000  -0.0000000  -0.0000000  -0.0000000  -0.0000000
 NQMom=    0.0000000   0.0000000   0.0000000   0.0000000   0.0000000   0.0000000   0.0000000   0.0000000 -22.0000000
 NMagM=    2.7928460   2.7928460   2.7928460   2.7928460   2.7928460   2.7928460   2.7928460   2.7928460   2.2233000
 AtZNuc=   1.0000000   1.0000000   1.0000000   1.0000000   1.0000000   1.0000000   1.0000000   1.0000000  29.0000000
 Leave Link  101 at Fri Mar  8 01:29:56 2024, MaxMem= 13421772800 cpu:              11.9 elap:               0.4
 (Enter /public/software/apps/Gaussian/g16/l103.exe)

 GradGradGradGradGradGradGradGradGradGradGradGradGradGradGradGradGradGrad
 Berny optimization.
 Initialization pass.
                           ----------------------------
                           !    Initial Parameters    !
                           ! (Angstroms and Degrees)  !
 --------------------------                            --------------------------
 ! Name  Definition              Value          Derivative Info.                !
 --------------------------------------------------------------------------------
 ! R1    R(1,2)                  1.5367         estimate D2E/DX2                !
 ! R2    R(1,15)                 1.1113         estimate D2E/DX2                !
 ! R3    R(1,16)                 1.1111         estimate D2E/DX2                !
 ! R4    R(1,17)                 1.1104         estimate D2E/DX2                !
 ! R5    R(2,3)                  1.5371         estimate D2E/DX2                !
 ! R6    R(2,4)                  1.5494         estimate D2E/DX2                !
 ! R7    R(2,18)                 1.113          estimate D2E/DX2                !
 ! R8    R(3,19)                 1.1094         estimate D2E/DX2                !
 ! R9    R(3,20)                 1.111          estimate D2E/DX2                !
 ! R10   R(3,21)                 1.1113         estimate D2E/DX2                !
 ! R11   R(4,5)                  1.5471         estimate D2E/DX2                !
 ! R12   R(4,14)                 1.4599         estimate D2E/DX2                !
 ! R13   R(4,22)                 1.1131         estimate D2E/DX2                !
 ! R14   R(5,6)                  1.4153         estimate D2E/DX2                !
 ! R15   R(5,23)                 1.1108         estimate D2E/DX2                !
 ! R16   R(5,24)                 1.1108         estimate D2E/DX2                !
 ! R17   R(6,7)                  1.382          estimate D2E/DX2                !
 ! R18   R(7,8)                  1.4705         estimate D2E/DX2                !
 ! R19   R(7,14)                 1.2871         estimate D2E/DX2                !
 ! R20   R(8,9)                  1.4029         estimate D2E/DX2                !
 ! R21   R(8,13)                 1.3627         estimate D2E/DX2                !
 ! R22   R(9,10)                 1.3966         estimate D2E/DX2                !
 ! R23   R(9,25)                 1.0829         estimate D2E/DX2                !
 ! R24   R(10,11)                1.3958         estimate D2E/DX2                !
 ! R25   R(10,26)                1.0824         estimate D2E/DX2                !
 ! R26   R(11,12)                1.3963         estimate D2E/DX2                !
 ! R27   R(11,27)                1.0823         estimate D2E/DX2                !
 ! R28   R(12,13)                1.36           estimate D2E/DX2                !
 ! R29   R(12,28)                1.0818         estimate D2E/DX2                !
 ! R30   R(13,29)                1.96           estimate D2E/DX2                !
 ! R31   R(14,29)                1.96           estimate D2E/DX2                !
 ! A1    A(2,1,15)             110.6321         estimate D2E/DX2                !
 ! A2    A(2,1,16)             110.2871         estimate D2E/DX2                !
 ! A3    A(2,1,17)             110.5943         estimate D2E/DX2                !
 ! A4    A(15,1,16)            108.8016         estimate D2E/DX2                !
 ! A5    A(15,1,17)            108.9217         estimate D2E/DX2                !
 ! A6    A(16,1,17)            107.5254         estimate D2E/DX2                !
 ! A7    A(1,2,3)              109.3667         estimate D2E/DX2                !
 ! A8    A(1,2,4)              111.0675         estimate D2E/DX2                !
 ! A9    A(1,2,18)             107.8514         estimate D2E/DX2                !
 ! A10   A(3,2,4)              111.0005         estimate D2E/DX2                !
 ! A11   A(3,2,18)             108.4094         estimate D2E/DX2                !
 ! A12   A(4,2,18)             109.053          estimate D2E/DX2                !
 ! A13   A(2,3,19)             110.9897         estimate D2E/DX2                !
 ! A14   A(2,3,20)             110.1889         estimate D2E/DX2                !
 ! A15   A(2,3,21)             110.6012         estimate D2E/DX2                !
 ! A16   A(19,3,20)            107.5582         estimate D2E/DX2                !
 ! A17   A(19,3,21)            108.6928         estimate D2E/DX2                !
 ! A18   A(20,3,21)            108.7237         estimate D2E/DX2                !
 ! A19   A(2,4,5)              113.4558         estimate D2E/DX2                !
 ! A20   A(2,4,14)             111.0071         estimate D2E/DX2                !
 ! A21   A(2,4,22)             110.0169         estimate D2E/DX2                !
 ! A22   A(5,4,14)             103.8863         estimate D2E/DX2                !
 ! A23   A(5,4,22)             109.6254         estimate D2E/DX2                !
 ! A24   A(14,4,22)            108.6098         estimate D2E/DX2                !
 ! A25   A(4,5,6)              103.57           estimate D2E/DX2                !
 ! A26   A(4,5,23)             112.8696         estimate D2E/DX2                !
 ! A27   A(4,5,24)             111.2008         estimate D2E/DX2                !
 ! A28   A(6,5,23)             108.8915         estimate D2E/DX2                !
 ! A29   A(6,5,24)             110.0009         estimate D2E/DX2                !
 ! A30   A(23,5,24)            110.092          estimate D2E/DX2                !
 ! A31   A(5,6,7)              109.3271         estimate D2E/DX2                !
 ! A32   A(6,7,8)              123.5346         estimate D2E/DX2                !
 ! A33   A(6,7,14)             113.4487         estimate D2E/DX2                !
 ! A34   A(8,7,14)             122.7916         estimate D2E/DX2                !
 ! A35   A(7,8,9)              120.7232         estimate D2E/DX2                !
 ! A36   A(7,8,13)             119.7472         estimate D2E/DX2                !
 ! A37   A(9,8,13)             119.5295         estimate D2E/DX2                !
 ! A38   A(8,9,10)             119.3654         estimate D2E/DX2                !
 ! A39   A(8,9,25)             121.043          estimate D2E/DX2                !
 ! A40   A(10,9,25)            119.5916         estimate D2E/DX2                !
 ! A41   A(9,10,11)            119.8851         estimate D2E/DX2                !
 ! A42   A(9,10,26)            120.0673         estimate D2E/DX2                !
 ! A43   A(11,10,26)           120.0476         estimate D2E/DX2                !
 ! A44   A(10,11,12)           119.2533         estimate D2E/DX2                !
 ! A45   A(10,11,27)           120.3746         estimate D2E/DX2                !
 ! A46   A(12,11,27)           120.372          estimate D2E/DX2                !
 ! A47   A(11,12,13)           120.0458         estimate D2E/DX2                !
 ! A48   A(11,12,28)           120.1251         estimate D2E/DX2                !
 ! A49   A(13,12,28)           119.8291         estimate D2E/DX2                !
 ! A50   A(8,13,12)            121.9209         estimate D2E/DX2                !
 ! A51   A(8,13,29)            101.6743         estimate D2E/DX2                !
 ! A52   A(12,13,29)           136.4046         estimate D2E/DX2                !
 ! A53   A(4,14,7)             109.4442         estimate D2E/DX2                !
 ! A54   A(4,14,29)            147.855          estimate D2E/DX2                !
 ! A55   A(7,14,29)            102.7004         estimate D2E/DX2                !
 ! A56   A(13,29,14)            93.0863         estimate D2E/DX2                !
 ! D1    D(15,1,2,3)            64.724          estimate D2E/DX2                !
 ! D2    D(15,1,2,4)           -58.1289         estimate D2E/DX2                !
 ! D3    D(15,1,2,18)         -177.5734         estimate D2E/DX2                !
 ! D4    D(16,1,2,3)           -55.696          estimate D2E/DX2                !
 ! D5    D(16,1,2,4)          -178.549          estimate D2E/DX2                !
 ! D6    D(16,1,2,18)           62.0065         estimate D2E/DX2                !
 ! D7    D(17,1,2,3)          -174.5032         estimate D2E/DX2                !
 ! D8    D(17,1,2,4)            62.6438         estimate D2E/DX2                !
 ! D9    D(17,1,2,18)          -56.8007         estimate D2E/DX2                !
 ! D10   D(1,2,3,19)           176.3986         estimate D2E/DX2                !
 ! D11   D(1,2,3,20)            57.3639         estimate D2E/DX2                !
 ! D12   D(1,2,3,21)           -62.8749         estimate D2E/DX2                !
 ! D13   D(4,2,3,19)           -60.7085         estimate D2E/DX2                !
 ! D14   D(4,2,3,20)          -179.7433         estimate D2E/DX2                !
 ! D15   D(4,2,3,21)            60.0179         estimate D2E/DX2                !
 ! D16   D(18,2,3,19)           59.0467         estimate D2E/DX2                !
 ! D17   D(18,2,3,20)          -59.9881         estimate D2E/DX2                !
 ! D18   D(18,2,3,21)          179.7731         estimate D2E/DX2                !
 ! D19   D(1,2,4,5)           -171.3731         estimate D2E/DX2                !
 ! D20   D(1,2,4,14)           -54.8308         estimate D2E/DX2                !
 ! D21   D(1,2,4,22)            65.4153         estimate D2E/DX2                !
 ! D22   D(3,2,4,5)             66.7211         estimate D2E/DX2                !
 ! D23   D(3,2,4,14)          -176.7367         estimate D2E/DX2                !
 ! D24   D(3,2,4,22)           -56.4906         estimate D2E/DX2                !
 ! D25   D(18,2,4,5)           -52.6494         estimate D2E/DX2                !
 ! D26   D(18,2,4,14)           63.8929         estimate D2E/DX2                !
 ! D27   D(18,2,4,22)         -175.861          estimate D2E/DX2                !
 ! D28   D(2,4,5,6)            124.7574         estimate D2E/DX2                !
 ! D29   D(2,4,5,23)             7.1572         estimate D2E/DX2                !
 ! D30   D(2,4,5,24)          -117.1417         estimate D2E/DX2                !
 ! D31   D(14,4,5,6)             4.1065         estimate D2E/DX2                !
 ! D32   D(14,4,5,23)         -113.4937         estimate D2E/DX2                !
 ! D33   D(14,4,5,24)          122.2074         estimate D2E/DX2                !
 ! D34   D(22,4,5,6)          -111.8163         estimate D2E/DX2                !
 ! D35   D(22,4,5,23)          130.5835         estimate D2E/DX2                !
 ! D36   D(22,4,5,24)            6.2846         estimate D2E/DX2                !
 ! D37   D(2,4,14,7)          -128.0676         estimate D2E/DX2                !
 ! D38   D(2,4,14,29)           52.2205         estimate D2E/DX2                !
 ! D39   D(5,4,14,7)            -5.7811         estimate D2E/DX2                !
 ! D40   D(5,4,14,29)          174.5069         estimate D2E/DX2                !
 ! D41   D(22,4,14,7)          110.8546         estimate D2E/DX2                !
 ! D42   D(22,4,14,29)         -68.8574         estimate D2E/DX2                !
 ! D43   D(4,5,6,7)             -1.3219         estimate D2E/DX2                !
 ! D44   D(23,5,6,7)           119.0199         estimate D2E/DX2                !
 ! D45   D(24,5,6,7)          -120.2529         estimate D2E/DX2                !
 ! D46   D(5,6,7,8)           -177.164          estimate D2E/DX2                !
 ! D47   D(5,6,7,14)            -2.488          estimate D2E/DX2                !
 ! D48   D(6,7,8,9)             -5.6626         estimate D2E/DX2                !
 ! D49   D(6,7,8,13)           174.3015         estimate D2E/DX2                !
 ! D50   D(14,7,8,9)          -179.8507         estimate D2E/DX2                !
 ! D51   D(14,7,8,13)            0.1134         estimate D2E/DX2                !
 ! D52   D(6,7,14,4)             5.3812         estimate D2E/DX2                !
 ! D53   D(6,7,14,29)         -174.7759         estimate D2E/DX2                !
 ! D54   D(8,7,14,4)          -179.8978         estimate D2E/DX2                !
 ! D55   D(8,7,14,29)           -0.0549         estimate D2E/DX2                !
 ! D56   D(7,8,9,10)           179.9717         estimate D2E/DX2                !
 ! D57   D(7,8,9,25)            -0.025          estimate D2E/DX2                !
 ! D58   D(13,8,9,10)            0.0075         estimate D2E/DX2                !
 ! D59   D(13,8,9,25)         -179.9892         estimate D2E/DX2                !
 ! D60   D(7,8,13,12)         -179.9719         estimate D2E/DX2                !
 ! D61   D(7,8,13,29)           -0.0919         estimate D2E/DX2                !
 ! D62   D(9,8,13,12)           -0.0073         estimate D2E/DX2                !
 ! D63   D(9,8,13,29)          179.8727         estimate D2E/DX2                !
 ! D64   D(8,9,10,11)           -0.0037         estimate D2E/DX2                !
 ! D65   D(8,9,10,26)          179.9995         estimate D2E/DX2                !
 ! D66   D(25,9,10,11)         179.993          estimate D2E/DX2                !
 ! D67   D(25,9,10,26)          -0.0038         estimate D2E/DX2                !
 ! D68   D(9,10,11,12)          -0.0004         estimate D2E/DX2                !
 ! D69   D(9,10,11,27)        -179.9983         estimate D2E/DX2                !
 ! D70   D(26,10,11,12)        179.9964         estimate D2E/DX2                !
 ! D71   D(26,10,11,27)         -0.0015         estimate D2E/DX2                !
 ! D72   D(10,11,12,13)          0.0007         estimate D2E/DX2                !
 ! D73   D(10,11,12,28)       -179.9965         estimate D2E/DX2                !
 ! D74   D(27,11,12,13)        179.9986         estimate D2E/DX2                !
 ! D75   D(27,11,12,28)          0.0014         estimate D2E/DX2                !
 ! D76   D(11,12,13,8)           0.0032         estimate D2E/DX2                !
 ! D77   D(11,12,13,29)       -179.8264         estimate D2E/DX2                !
 ! D78   D(28,12,13,8)        -179.9995         estimate D2E/DX2                !
 ! D79   D(28,12,13,29)          0.1709         estimate D2E/DX2                !
 ! D80   D(8,13,29,14)           0.0508         estimate D2E/DX2                !
 ! D81   D(12,13,29,14)        179.9031         estimate D2E/DX2                !
 ! D82   D(4,14,29,13)         179.7215         estimate D2E/DX2                !
 ! D83   D(7,14,29,13)           0.0            estimate D2E/DX2                !
 --------------------------------------------------------------------------------
 Trust Radius=3.00D-01 FncErr=1.00D-07 GrdErr=1.00D-06 EigMax=2.50D+02 EigMin=1.00D-04
 Number of steps in this run=    174 maximum allowed number of steps=    174.
 GradGradGradGradGradGradGradGradGradGradGradGradGradGradGradGradGradGrad

 Leave Link  103 at Fri Mar  8 01:29:56 2024, MaxMem= 13421772800 cpu:               0.3 elap:               0.0
 (Enter /public/software/apps/Gaussian/g16/l202.exe)
                          Input orientation:                          
 ---------------------------------------------------------------------
 Center     Atomic      Atomic             Coordinates (Angstroms)
 Number     Number       Type             X           Y           Z
 ---------------------------------------------------------------------
      1          6           0       -2.134761    0.013043   -2.344616
      2          6           0       -2.323756   -0.494591   -0.906568
      3          6           0       -3.788475   -0.913360   -0.702228
      4          6           0       -1.905596    0.583952    0.124295
      5          6           0       -1.871473    0.063339    1.580718
      6          8           0       -0.557638    0.366297    2.010971
      7          6           0        0.138920    0.956078    0.973221
      8          6           0        1.554944    1.342578    1.061504
      9          6           0        2.253586    1.233141    2.273185
     10          6           0        3.598070    1.607745    2.324799
     11          6           0        4.231579    2.085160    1.176363
     12          6           0        3.506438    2.181143   -0.013040
     13          7           0        2.197954    1.811762   -0.044504
     14          7           0       -0.539170    1.037429   -0.117798
     15          1           0       -2.726356    0.938427   -2.514159
     16          1           0       -2.462672   -0.759937   -3.072227
     17          1           0       -1.064050    0.228340   -2.545278
     18          1           0       -1.679712   -1.392630   -0.774345
     19          1           0       -3.941115   -1.344992    0.308346
     20          1           0       -4.072475   -1.689585   -1.444611
     21          1           0       -4.465244   -0.040139   -0.822494
     22          1           0       -2.588078    1.460672    0.056554
     23          1           0       -2.028764   -1.034008    1.650691
     24          1           0       -2.611410    0.596135    2.215230
     25          1           0        1.766835    0.863268    3.167005
     26          1           0        4.147951    1.527992    3.253645
     27          1           0        5.273154    2.377638    1.207379
     28          1           0        3.983407    2.549204   -0.911512
     29         29           0        0.774642    1.742055   -1.390194
 ---------------------------------------------------------------------
                    Distance matrix (angstroms):
                    1          2          3          4          5
     1  C    0.000000
     2  C    1.536683   0.000000
     3  C    2.508073   1.537050   0.000000
     4  C    2.544401   1.549449   2.543682   0.000000
     5  C    3.934475   2.588907   3.136986   1.547052   0.000000
     6  O    4.645777   3.517433   4.408773   2.328929   1.415296
     7  C    4.131221   3.420939   4.661155   2.244816   2.282042
     8  C    5.194539   4.721526   6.062354   3.664589   3.694099
     9  C    6.486163   5.835062   7.068737   4.726306   4.343277
    10  C    7.563852   7.066086   8.371375   6.015040   5.731906
    11  C    7.564473   7.346165   8.765928   6.405107   6.441934
    12  C    6.477656   6.476813   7.954036   5.644466   5.995589
    13  N    5.224780   5.148619   6.610312   4.286623   4.717898
    14  N    2.924721   2.480724   3.834725   1.459921   2.368299
    15  H    1.111335   2.190885   2.800055   2.785810   4.273713
    16  H    1.111054   2.186272   2.719961   3.511997   4.762058
    17  H    1.110423   2.189717   3.481782   2.821574   4.207493
    18  H    2.156093   1.112991   2.163743   2.182992   2.775417
    19  H    3.485022   2.194322   1.109444   2.810345   2.808157
    20  H    2.731975   2.185296   1.110997   3.510812   4.131558
    21  H    2.784032   2.190791   1.111303   2.799589   3.537483
    22  H    2.840201   2.195569   2.766357   1.113108   2.188410
    23  H    4.131589   2.630126   2.940641   2.227745   1.110769
    24  H    4.621622   3.319345   3.489358   2.206883   1.110848
    25  H    6.806122   5.930490   6.999203   4.777327   4.048886
    26  H    8.550325   7.954948   9.197607   6.879642   6.416958
    27  H    8.548987   8.392349   9.828041   7.478291   7.519379
    28  H    6.776273   7.003215   8.510893   6.294082   6.831571
    29  Cu   3.516394   3.851824   5.324149   3.289157   4.318139
                    6          7          8          9         10
     6  O    0.000000
     7  C    1.382013   0.000000
     8  C    2.513487   1.470476   0.000000
     9  C    2.953499   2.497695   1.402943   0.000000
    10  C    4.348516   3.770564   2.416732   1.396650   0.000000
    11  C    5.156322   4.250406   2.780107   2.416902   1.395766
    12  C    4.889479   3.716675   2.380371   2.774018   2.408874
    13  N    3.729294   2.451036   1.362662   2.389473   2.759627
    14  N    2.232133   1.287147   2.422639   3.681656   4.838212
    15  H    5.050492   4.513528   5.592694   6.914141   7.991362
    16  H    5.544047   5.106725   6.135922   7.401951   8.453780
    17  H    4.586381   3.789007   4.594511   5.935817   6.881553
    18  H    3.480066   3.446424   4.616785   5.626095   6.816299
    19  H    4.156364   4.731138   6.164166   6.991543   8.344103
    20  H    5.340578   5.530036   6.866037   7.898315   9.160682
    21  H    4.843872   5.041366   6.457865   7.506474   8.811243
    22  H    3.023258   2.920858   4.264798   5.329815   6.590523
    23  H    2.062733   3.019646   4.340307   4.885282   6.252563
    24  H    2.076662   3.039155   4.387114   4.906864   6.292297
    25  H    2.643212   2.733388   2.169740   1.082888   2.148717
    26  H    5.003633   4.647553   3.400521   2.153336   1.082351
    27  H    6.220080   5.332543   3.862346   3.400531   2.155752
    28  H    5.824696   4.568407   3.353531   3.855723   3.392424
    29  Cu   3.903281   2.570531   2.603704   3.983292   4.668078
                   11         12         13         14         15
    11  C    0.000000
    12  C    1.396324   0.000000
    13  N    2.387654   1.359986   0.000000
    14  N    5.052983   4.205473   2.845490   0.000000
    15  H    7.959134   6.829909   5.577700   3.245941   0.000000
    16  H    8.423662   7.323855   6.123902   3.957150   1.807044
    17  H    6.733653   5.578085   4.404744   2.612046   1.807886
    18  H    7.130473   6.344099   5.083020   2.763526   3.091317
    19  H    8.905747   8.246391   6.912146   4.175016   3.828339
    20  H    9.490812   8.629708   7.316967   4.656316   3.140448
    21  H    9.173170   8.314868   6.959383   4.131804   2.615923
    22  H    6.939141   6.137349   4.799956   2.099418   2.626866
    23  H    7.010427   6.613899   5.370031   3.104399   4.660806
    24  H    7.079756   6.701157   5.451067   3.151498   4.743153
    25  H    3.395680   3.856903   3.376284   4.017203   7.243620
    26  H    2.152331   3.392547   3.841978   5.794513   8.992844
    27  H    1.082305   2.156228   3.368127   6.110267   8.939426
    28  H    2.153172   1.081767   2.117396   4.834165   7.084067
    29  Cu   4.319184   3.090641   1.959989   1.959998   3.763788
                   16         17         18         19         20
    16  H    0.000000
    17  H    1.791790   0.000000
    18  H    2.508703   2.478465   0.000000
    19  H    3.735821   4.346958   2.507675   0.000000
    20  H    2.470798   3.733701   2.502549   1.791329   0.000000
    21  H    3.096724   3.822066   3.096892   1.804481   1.806092
    22  H    3.838763   3.257427   3.107548   3.125037   3.792235
    23  H    4.750721   4.486686   2.476135   2.357051   3.766621
    24  H    5.460609   5.019167   3.709556   3.028580   4.555619
    25  H    7.710482   6.406810   5.701053   6.754927   7.866486
    26  H    9.431416   7.904527   7.662662   9.075341  10.000090
    27  H    9.380960   7.672162   8.153803   9.978426  10.531673
    28  H    7.561153   5.790719   6.901289   8.913522   9.118594
    29  Cu   4.423732   2.646949   4.028570   5.886702   5.939163
                   21         22         23         24         25
    21  H    0.000000
    22  H    2.559084   0.000000
    23  H    3.611212   3.012894   0.000000
    24  H    3.615150   2.325479   1.820864   0.000000
    25  H    7.454599   5.384892   4.506155   4.488459   0.000000
    26  H    9.657177   7.456541   6.876417   6.901856   2.473677
    27  H   10.237306   7.997762   8.071794   8.145911   4.292753
    28  H    8.836986   6.731008   7.453220   7.555303   4.938611
    29  Cu   5.563713   3.671531   4.981224   5.077161   4.746027
                   26         27         28         29
    26  H    0.000000
    27  H    2.484992   0.000000
    28  H    4.291676   2.486480   0.000000
    29  Cu   5.743716   5.233351   3.343172   0.000000
 Symmetry turned off by external request.
 Stoichiometry    C11H14CuN2O(2+,2)
 Framework group  C1[X(C11H14CuN2O)]
 Deg. of freedom    81
 Full point group                 C1      NOp   1
 Rotational constants (GHZ):           1.0138922           0.3394613           0.2619111
 Leave Link  202 at Fri Mar  8 01:29:56 2024, MaxMem= 13421772800 cpu:               0.7 elap:               0.0
 (Enter /public/software/apps/Gaussian/g16/l301.exe)
 Standard basis: def2SVPP (5D, 7F)
 Ernie: Thresh=  0.10000D-02 Tol=  0.10000D-05 Strict=F.
   248 basis functions,   477 primitive gaussians,   264 cartesian basis functions
    65 alpha electrons       64 beta electrons
       nuclear repulsion energy      1326.1185746724 Hartrees.
 IExCor=  402 DFT=T Ex+Corr=B3LYP ExCW=0 ScaHFX=  0.200000
 ScaDFX=  0.800000  0.720000  1.000000  0.810000 ScalE2=  1.000000  1.000000
 IRadAn=      5 IRanWt=     -1 IRanGd=            0 ICorTp=0 IEmpDi=141
 NAtoms=   29 NActive=   29 NUniq=   29 SFac= 1.00D+00 NAtFMM=   60 NAOKFM=F Big=F
 Integral buffers will be    131072 words long.
 Raffenetti 2 integral format.
 Two-electron integral symmetry is turned off.
 R6Disp:  Grimme-D3(BJ) Dispersion energy=       -0.0602985421 Hartrees.
 Nuclear repulsion after empirical dispersion term =     1326.0582761303 Hartrees.
 Leave Link  301 at Fri Mar  8 01:29:56 2024, MaxMem= 13421772800 cpu:               0.9 elap:               0.0
 (Enter /public/software/apps/Gaussian/g16/l302.exe)
 NPDir=0 NMtPBC=     1 NCelOv=     1 NCel=       1 NClECP=     1 NCelD=      1
         NCelK=      1 NCelE2=     1 NClLst=     1 CellRange=     0.0.
 One-electron integrals computed using PRISM.
   1 Symmetry operations used in ECPInt.
 ECPInt:  NShTT=    7503 NPrTT=   32142 LenC2=    7149 LenP2D=   21457.
 LDataN:  DoStor=T MaxTD1= 4 Len=   56
 NBasis=   248 RedAO= T EigKep=  6.16D-04  NBF=   248
 NBsUse=   248 1.00D-06 EigRej= -1.00D+00 NBFU=   248
 Precomputing XC quadrature grid using
 IXCGrd= 4 IRadAn=           5 IRanWt=          -1 IRanGd=           0 AccXCQ= 0.00D+00.
 Generated NRdTot=       0 NPtTot=           0 NUsed=           0 NTot=          32
 NSgBfM=   262   262   262   262   262 MxSgAt=    29 MxSgA2=    29.
 Leave Link  302 at Fri Mar  8 01:29:56 2024, MaxMem= 13421772800 cpu:               9.7 elap:               0.3
 (Enter /public/software/apps/Gaussian/g16/l303.exe)
 DipDrv:  MaxL=1.
 Leave Link  303 at Fri Mar  8 01:29:56 2024, MaxMem= 13421772800 cpu:               1.2 elap:               0.1
 (Enter /public/software/apps/Gaussian/g16/l401.exe)
 ExpMin= 3.30D-02 ExpMax= 7.64D+04 ExpMxC= 1.15D+04 IAcc=3 IRadAn=         5 AccDes= 0.00D+00
 Harris functional with IExCor=  402 and IRadAn=       5 diagonalized for initial guess.
 HarFok:  IExCor=  402 AccDes= 0.00D+00 IRadAn=         5 IDoV= 1 UseB2=F ITyADJ=14
 ICtDFT=  3500011 ScaDFX=  1.000000  1.000000  1.000000  1.000000
 FoFCou: FMM=F IPFlag=           0 FMFlag=      100000 FMFlg1=           0
         NFxFlg=           0 DoJE=T BraDBF=F KetDBF=T FulRan=T
         wScrn=  0.000000 ICntrl=       500 IOpCl=  0 I1Cent=   200000004 NGrid=           0
         NMat0=    1 NMatS0=      1 NMatT0=    0 NMatD0=    1 NMtDS0=    0 NMtDT0=    0
 Symmetry not used in FoFCou.
 Harris En= -2251.97371554193    
 JPrj=0 DoOrth=F DoCkMO=F.
 Initial guess <Sx>= 0.0000 <Sy>= 0.0000 <Sz>= 0.5000 <S**2>= 0.7500 S= 0.5000
 Leave Link  401 at Fri Mar  8 01:29:57 2024, MaxMem= 13421772800 cpu:              14.6 elap:               0.5
 (Enter /public/software/apps/Gaussian/g16/l502.exe)
 Two-electron integral symmetry not used.
 UHF open shell SCF:
 Using DIIS extrapolation, IDIIS=  1040.
 NGot= 13421772800 LenX= 13421621908 LenY= 13421551771
 Requested convergence on RMS density matrix=1.00D-08 within 128 cycles.
 Requested convergence on MAX density matrix=1.00D-06.
 Requested convergence on             energy=1.00D-06.
 No special actions if energy rises.
 Fock matrices will be formed incrementally for  20 cycles.

 Cycle   1  Pass 1  IDiag  1:
 FoFJK:  IHMeth= 1 ICntrl=       0 DoSepK=F KAlg= 0 I1Cent=           0 FoldK=F
 IRaf= 910000000 NMat=       1 IRICut=       1 DoRegI=T DoRafI=F ISym2E= 0 IDoP0=0 IntGTp=1.
 FoFCou: FMM=F IPFlag=           0 FMFlag=      100000 FMFlg1=           0
         NFxFlg=           0 DoJE=F BraDBF=F KetDBF=F FulRan=T
         wScrn=  0.000000 ICntrl=         0 IOpCl=  1 I1Cent=           0 NGrid=           0
         NMat0=    1 NMatS0=      1 NMatT0=    0 NMatD0=    1 NMtDS0=    0 NMtDT0=    0
 Symmetry not used in FoFCou.
 E= -2243.24584950503    
 DIIS: error= 2.99D-01 at cycle   1 NSaved=   1.
 NSaved= 1 IEnMin= 1 EnMin= -2243.24584950503     IErMin= 1 ErrMin= 2.99D-01
 ErrMax= 2.99D-01  0.00D+00 EMaxC= 1.00D-01 BMatC= 4.55D+01 BMatP= 4.55D+01
 IDIUse=3 WtCom= 0.00D+00 WtEn= 1.00D+00
 Coeff-Com:  0.100D+01
 Coeff-En:   0.100D+01
 Coeff:      0.100D+01
 Gap=     1.401 Goal=   None    Shift=    0.000
 Gap=     0.285 Goal=   None    Shift=    0.000
 GapD=    0.285 DampG=1.000 DampE=0.125 DampFc=0.1250 IDamp=-1.
 Damping current iteration by 1.25D-01
 RMSDP=5.00D-02 MaxDP=5.93D+00              OVMax= 9.73D-01

 Cycle   2  Pass 1  IDiag  1:
 RMSU=  6.25D-03    CP:  9.90D-01
 E= -2245.74299961760     Delta-E=       -2.497150112572 Rises=F Damp=T
 DIIS: error= 1.59D-01 at cycle   2 NSaved=   2.
 NSaved= 2 IEnMin= 2 EnMin= -2245.74299961760     IErMin= 2 ErrMin= 1.59D-01
 ErrMax= 1.59D-01  0.00D+00 EMaxC= 1.00D-01 BMatC= 1.60D+01 BMatP= 4.55D+01
 IDIUse=3 WtCom= 0.00D+00 WtEn= 1.00D+00
 Coeff-Com: -0.121D+01 0.221D+01
 Coeff-En:   0.000D+00 0.100D+01
 Coeff:      0.000D+00 0.100D+01
 Gap=    -0.084 Goal=   None    Shift=    0.000
 Gap=     0.213 Goal=   None    Shift=    0.000
 RMSDP=1.70D-02 MaxDP=1.79D+00 DE=-2.50D+00 OVMax= 8.00D-01

 Cycle   3  Pass 1  IDiag  1:
 RMSU=  1.39D-02    CP:  9.35D-01  2.54D+00
 E= -2240.73743756127     Delta-E=        5.005562056333 Rises=F Damp=F
 DIIS: error= 1.63D-01 at cycle   3 NSaved=   3.
 NSaved= 3 IEnMin= 2 EnMin= -2245.74299961760     IErMin= 2 ErrMin= 1.59D-01
 ErrMax= 1.63D-01  0.00D+00 EMaxC= 1.00D-01 BMatC= 2.59D+01 BMatP= 1.60D+01
 IDIUse=2 WtCom= 0.00D+00 WtEn= 1.00D+00
 EnCoef did   100 forward-backward iterations
 Coeff-En:   0.532D+00 0.175D-01 0.450D+00
 Coeff:      0.532D+00 0.175D-01 0.450D+00
 Gap=     0.370 Goal=   None    Shift=    0.000
 Gap=    -0.204 Goal=   None    Shift=    0.000
 RMSDP=5.09D-02 MaxDP=4.17D+00 DE= 5.01D+00 OVMax= 9.63D-01

 Cycle   4  Pass 1  IDiag  1:
 RMSU=  4.86D-02    CP:  9.50D-01  1.03D+00  1.52D-01
 E= -2230.60400633597     Delta-E=       10.133431225300 Rises=F Damp=F
 DIIS: error= 1.24D-01 at cycle   4 NSaved=   4.
 NSaved= 4 IEnMin= 2 EnMin= -2245.74299961760     IErMin= 4 ErrMin= 1.24D-01
 ErrMax= 1.24D-01  0.00D+00 EMaxC= 1.00D-01 BMatC= 4.58D+01 BMatP= 1.60D+01
 IDIUse=2 WtCom= 0.00D+00 WtEn= 1.00D+00
 EnCoef did   100 forward-backward iterations
 Coeff-En:   0.486D+00 0.883D-02 0.389D+00 0.116D+00
 Coeff:      0.486D+00 0.883D-02 0.389D+00 0.116D+00
 Gap=    -0.123 Goal=   None    Shift=    0.000
 Gap=     0.032 Goal=   None    Shift=    0.000
 RMSDP=4.81D-02 MaxDP=4.14D+00 DE= 1.01D+01 OVMax= 9.66D-01

 Cycle   5  Pass 1  IDiag  1:
 RMSU=  7.53D-03    CP:  9.38D-01  3.71D-01  3.24D-01  2.79D-02
 E= -2250.62806697708     Delta-E=      -20.024060641110 Rises=F Damp=F
 DIIS: error= 1.01D-01 at cycle   5 NSaved=   5.
 NSaved= 5 IEnMin= 5 EnMin= -2250.62806697708     IErMin= 5 ErrMin= 1.01D-01
 ErrMax= 1.01D-01  0.00D+00 EMaxC= 1.00D-01 BMatC= 4.80D+00 BMatP= 1.60D+01
 IDIUse=3 WtCom= 0.00D+00 WtEn= 1.00D+00
 EnCoef did   100 forward-backward iterations
 Coeff-Com: -0.457D+00 0.969D+00 0.110D-02-0.656D-01 0.553D+00
 Coeff-En:   0.190D+00 0.269D-02 0.000D+00 0.000D+00 0.807D+00
 Coeff:      0.190D+00 0.269D-02 0.000D+00 0.000D+00 0.807D+00
 Gap=     0.231 Goal=   None    Shift=    0.000
 Gap=     0.038 Goal=   None    Shift=    0.000
 RMSDP=7.20D-03 MaxDP=2.00D-01 DE=-2.00D+01 OVMax= 8.04D-01

 Cycle   6  Pass 1  IDiag  1:
 RMSU=  6.11D-03    CP:  9.40D-01  2.15D-01  2.44D-01  9.35D-03  5.52D-01
 E= -2249.92224974357     Delta-E=        0.705817233503 Rises=F Damp=F
 DIIS: error= 5.95D-02 at cycle   6 NSaved=   6.
 NSaved= 6 IEnMin= 5 EnMin= -2250.62806697708     IErMin= 6 ErrMin= 5.95D-02
 ErrMax= 5.95D-02  0.00D+00 EMaxC= 1.00D-01 BMatC= 4.88D+00 BMatP= 4.80D+00
 IDIUse=3 WtCom= 4.05D-01 WtEn= 5.95D-01
 EnCoef did     8 forward-backward iterations
 Coeff-Com: -0.222D+00 0.465D+00-0.746D-01-0.767D-02 0.485D+00 0.355D+00
 Coeff-En:   0.126D+00 0.000D+00 0.000D+00 0.000D+00 0.639D+00 0.235D+00
 Coeff:     -0.155D-01 0.188D+00-0.302D-01-0.311D-02 0.577D+00 0.284D+00
 Gap=    -0.009 Goal=   None    Shift=    0.000
 Gap=     0.015 Goal=   None    Shift=    0.000
 RMSDP=5.61D-03 MaxDP=3.90D-01 DE= 7.06D-01 OVMax= 7.05D-01

 Cycle   7  Pass 1  IDiag  1:
 RMSU=  3.40D-03    CP:  9.40D-01  1.55D-01  2.11D-01  1.58D-02  7.17D-01
                    CP:  3.08D-01
 E= -2251.37372181758     Delta-E=       -1.451472074009 Rises=F Damp=F
 DIIS: error= 3.91D-02 at cycle   7 NSaved=   7.
 NSaved= 7 IEnMin= 7 EnMin= -2251.37372181758     IErMin= 7 ErrMin= 3.91D-02
 ErrMax= 3.91D-02  0.00D+00 EMaxC= 1.00D-01 BMatC= 1.11D+00 BMatP= 4.80D+00
 IDIUse=3 WtCom= 6.09D-01 WtEn= 3.91D-01
 EnCoef did     2 forward-backward iterations
 Coeff-Com: -0.164D+00 0.279D+00-0.241D-01-0.114D-01 0.312D+00 0.165D+00
 Coeff-Com:  0.444D+00
 Coeff-En:   0.000D+00 0.000D+00 0.000D+00 0.000D+00 0.226D+00 0.261D-01
 Coeff-En:   0.747D+00
 Coeff:     -0.998D-01 0.170D+00-0.147D-01-0.697D-02 0.278D+00 0.111D+00
 Coeff:      0.562D+00
 Gap=     0.248 Goal=   None    Shift=    0.000
 Gap=     0.030 Goal=   None    Shift=    0.000
 RMSDP=4.09D-03 MaxDP=4.81D-01 DE=-1.45D+00 OVMax= 8.91D-01

 Cycle   8  Pass 1  IDiag  1:
 RMSU=  2.80D-03    CP:  9.34D-01  2.32D-01  2.67D-01  1.68D-02  8.36D-01
                    CP:  4.03D-01  2.29D-01
 E= -2251.36054913259     Delta-E=        0.013172684990 Rises=F Damp=F
 DIIS: error= 3.66D-02 at cycle   8 NSaved=   8.
 NSaved= 8 IEnMin= 7 EnMin= -2251.37372181758     IErMin= 8 ErrMin= 3.66D-02
 ErrMax= 3.66D-02  0.00D+00 EMaxC= 1.00D-01 BMatC= 1.01D+00 BMatP= 1.11D+00
 IDIUse=3 WtCom= 6.34D-01 WtEn= 3.66D-01
 Coeff-Com: -0.715D-01 0.112D+00-0.125D-01 0.319D-02 0.495D-01 0.261D-01
 Coeff-Com:  0.469D+00 0.424D+00
 Coeff-En:   0.000D+00 0.000D+00 0.000D+00 0.000D+00 0.000D+00 0.000D+00
 Coeff-En:   0.509D+00 0.491D+00
 Coeff:     -0.453D-01 0.711D-01-0.793D-02 0.202D-02 0.314D-01 0.166D-01
 Coeff:      0.484D+00 0.449D+00
 Gap=     0.208 Goal=   None    Shift=    0.000
 Gap=     0.024 Goal=   None    Shift=    0.000
 RMSDP=3.41D-03 MaxDP=4.42D-01 DE= 1.32D-02 OVMax= 6.72D-01

 Cycle   9  Pass 1  IDiag  1:
 RMSU=  1.44D-03    CP:  9.38D-01  1.91D-01  2.25D-01  1.78D-02  7.73D-01
                    CP:  2.93D-01  8.04D-01  2.34D-01
 E= -2251.57253232137     Delta-E=       -0.211983188777 Rises=F Damp=F
 DIIS: error= 1.25D-02 at cycle   9 NSaved=   9.
 NSaved= 9 IEnMin= 9 EnMin= -2251.57253232137     IErMin= 9 ErrMin= 1.25D-02
 ErrMax= 1.25D-02  0.00D+00 EMaxC= 1.00D-01 BMatC= 1.35D-01 BMatP= 1.01D+00
 IDIUse=3 WtCom= 8.75D-01 WtEn= 1.25D-01
 Coeff-Com: -0.257D-01 0.318D-01-0.270D-04-0.488D-03 0.207D-01 0.143D-01
 Coeff-Com:  0.202D+00 0.289D+00 0.469D+00
 Coeff-En:   0.000D+00 0.000D+00 0.000D+00 0.000D+00 0.000D+00 0.000D+00
 Coeff-En:   0.000D+00 0.210D+00 0.790D+00
 Coeff:     -0.225D-01 0.278D-01-0.236D-04-0.427D-03 0.182D-01 0.125D-01
 Coeff:      0.177D+00 0.279D+00 0.509D+00
 Gap=     0.188 Goal=   None    Shift=    0.000
 Gap=     0.026 Goal=   None    Shift=    0.000
 RMSDP=7.87D-04 MaxDP=3.01D-02 DE=-2.12D-01 OVMax= 7.08D-02

 Cycle  10  Pass 1  IDiag  1:
 RMSU=  7.08D-04    CP:  9.37D-01  2.06D-01  2.37D-01  1.65D-02  7.75D-01
                    CP:  3.10D-01  7.77D-01  2.43D-01  8.38D-01
 E= -2251.59647741256     Delta-E=       -0.023945091186 Rises=F Damp=F
 DIIS: error= 7.87D-03 at cycle  10 NSaved=  10.
 NSaved=10 IEnMin=10 EnMin= -2251.59647741256     IErMin=10 ErrMin= 7.87D-03
 ErrMax= 7.87D-03  0.00D+00 EMaxC= 1.00D-01 BMatC= 4.87D-02 BMatP= 1.35D-01
 IDIUse=3 WtCom= 9.21D-01 WtEn= 7.87D-02
 Coeff-Com: -0.331D-02 0.527D-03 0.408D-02-0.415D-03 0.740D-02 0.964D-02
 Coeff-Com: -0.872D-01 0.927D-01 0.203D+00 0.774D+00
 Coeff-En:   0.000D+00 0.000D+00 0.000D+00 0.000D+00 0.000D+00 0.000D+00
 Coeff-En:   0.000D+00 0.961D-01 0.000D+00 0.904D+00
 Coeff:     -0.305D-02 0.485D-03 0.376D-02-0.382D-03 0.681D-02 0.888D-02
 Coeff:     -0.803D-01 0.930D-01 0.187D+00 0.784D+00
 Gap=     0.169 Goal=   None    Shift=    0.000
 Gap=     0.023 Goal=   None    Shift=    0.000
 RMSDP=5.88D-04 MaxDP=4.11D-02 DE=-2.39D-02 OVMax= 7.55D-02

 Cycle  11  Pass 1  IDiag  1:
 RMSU=  4.05D-04    CP:  9.36D-01  2.26D-01  2.45D-01  1.71D-02  7.86D-01
                    CP:  3.20D-01  7.17D-01  3.12D-01  9.97D-01  1.14D+00
 E= -2251.60652944968     Delta-E=       -0.010052037127 Rises=F Damp=F
 DIIS: error= 2.87D-03 at cycle  11 NSaved=  11.
 NSaved=11 IEnMin=11 EnMin= -2251.60652944968     IErMin=11 ErrMin= 2.87D-03
 ErrMax= 2.87D-03  0.00D+00 EMaxC= 1.00D-01 BMatC= 7.73D-03 BMatP= 4.87D-02
 IDIUse=3 WtCom= 9.71D-01 WtEn= 2.87D-02
 Coeff-Com:  0.261D-02-0.428D-02 0.971D-03 0.150D-04-0.312D-02 0.587D-02
 Coeff-Com: -0.971D-01 0.264D-01-0.308D-02 0.495D+00 0.577D+00
 Coeff-En:   0.000D+00 0.000D+00 0.000D+00 0.000D+00 0.000D+00 0.000D+00
 Coeff-En:   0.000D+00 0.000D+00 0.000D+00 0.000D+00 0.100D+01
 Coeff:      0.253D-02-0.416D-02 0.943D-03 0.146D-04-0.303D-02 0.570D-02
 Coeff:     -0.943D-01 0.256D-01-0.300D-02 0.481D+00 0.589D+00
 Gap=     0.160 Goal=   None    Shift=    0.000
 Gap=     0.025 Goal=   None    Shift=    0.000
 RMSDP=2.96D-04 MaxDP=2.20D-02 DE=-1.01D-02 OVMax= 5.14D-02

 Cycle  12  Pass 1  IDiag  1:
 RMSU=  2.16D-04    CP:  9.36D-01  2.28D-01  2.48D-01  1.71D-02  7.88D-01
                    CP:  3.30D-01  6.90D-01  3.41D-01  9.78D-01  1.33D+00
                    CP:  9.02D-01
 E= -2251.60829439084     Delta-E=       -0.001764941162 Rises=F Damp=F
 DIIS: error= 1.35D-03 at cycle  12 NSaved=  12.
 NSaved=12 IEnMin=12 EnMin= -2251.60829439084     IErMin=12 ErrMin= 1.35D-03
 ErrMax= 1.35D-03  0.00D+00 EMaxC= 1.00D-01 BMatC= 2.38D-03 BMatP= 7.73D-03
 IDIUse=3 WtCom= 9.86D-01 WtEn= 1.35D-02
 Coeff-Com: -0.825D-03 0.252D-02-0.564D-03-0.279D-04-0.675D-02-0.328D-03
 Coeff-Com: -0.271D-01 0.189D-01-0.349D-02 0.146D+00 0.362D+00 0.509D+00
 Coeff-En:   0.000D+00 0.000D+00 0.000D+00 0.000D+00 0.000D+00 0.000D+00
 Coeff-En:   0.000D+00 0.000D+00 0.000D+00 0.000D+00 0.186D+00 0.814D+00
 Coeff:     -0.814D-03 0.249D-02-0.557D-03-0.275D-04-0.665D-02-0.323D-03
 Coeff:     -0.268D-01 0.186D-01-0.344D-02 0.144D+00 0.360D+00 0.513D+00
 Gap=     0.164 Goal=   None    Shift=    0.000
 Gap=     0.028 Goal=   None    Shift=    0.000
 RMSDP=1.42D-04 MaxDP=9.29D-03 DE=-1.76D-03 OVMax= 3.25D-02

 Cycle  13  Pass 1  IDiag  1:
 RMSU=  1.11D-04    CP:  9.36D-01  2.27D-01  2.47D-01  1.71D-02  7.89D-01
                    CP:  3.30D-01  6.84D-01  3.57D-01  9.62D-01  1.32D+00
                    CP:  1.06D+00  1.06D+00
 E= -2251.60865480564     Delta-E=       -0.000360414793 Rises=F Damp=F
 DIIS: error= 1.69D-03 at cycle  13 NSaved=  13.
 NSaved=13 IEnMin=13 EnMin= -2251.60865480564     IErMin=12 ErrMin= 1.35D-03
 ErrMax= 1.69D-03  0.00D+00 EMaxC= 1.00D-01 BMatC= 1.49D-03 BMatP= 2.38D-03
 IDIUse=3 WtCom= 9.86D-01 WtEn= 1.35D-02
 Coeff-Com: -0.139D-02 0.308D-02-0.321D-03 0.189D-04-0.660D-02-0.520D-03
 Coeff-Com: -0.958D-02 0.126D-01 0.248D-01 0.857D-01 0.159D+00 0.239D+00
 Coeff-Com:  0.494D+00
 Coeff-En:   0.000D+00 0.000D+00 0.000D+00 0.000D+00 0.000D+00 0.000D+00
 Coeff-En:   0.000D+00 0.000D+00 0.000D+00 0.000D+00 0.000D+00 0.000D+00
 Coeff-En:   0.100D+01
 Coeff:     -0.137D-02 0.304D-02-0.317D-03 0.186D-04-0.651D-02-0.513D-03
 Coeff:     -0.945D-02 0.124D-01 0.245D-01 0.845D-01 0.157D+00 0.236D+00
 Coeff:      0.501D+00
 Gap=     0.165 Goal=   None    Shift=    0.000
 Gap=     0.030 Goal=   None    Shift=    0.000
 RMSDP=7.41D-05 MaxDP=3.87D-03 DE=-3.60D-04 OVMax= 1.85D-02

 Cycle  14  Pass 1  IDiag  1:
 RMSU=  4.73D-05    CP:  9.36D-01  2.25D-01  2.46D-01  1.71D-02  7.88D-01
                    CP:  3.30D-01  6.82D-01  3.64D-01  9.52D-01  1.31D+00
                    CP:  1.07D+00  1.23D+00  1.30D+00
 E= -2251.60882854337     Delta-E=       -0.000173737731 Rises=F Damp=F
 DIIS: error= 1.36D-03 at cycle  14 NSaved=  14.
 NSaved=14 IEnMin=14 EnMin= -2251.60882854337     IErMin=12 ErrMin= 1.35D-03
 ErrMax= 1.36D-03  0.00D+00 EMaxC= 1.00D-01 BMatC= 9.10D-04 BMatP= 1.49D-03
 IDIUse=3 WtCom= 9.86D-01 WtEn= 1.35D-02
 Coeff-Com: -0.154D-02 0.283D-02 0.874D-04 0.760D-05-0.466D-02 0.362D-03
 Coeff-Com: -0.413D-02 0.372D-02 0.381D-01 0.659D-01 0.133D-01-0.638D-01
 Coeff-Com:  0.140D+00 0.810D+00
 Coeff-En:   0.000D+00 0.000D+00 0.000D+00 0.000D+00 0.000D+00 0.000D+00
 Coeff-En:   0.000D+00 0.000D+00 0.000D+00 0.000D+00 0.000D+00 0.000D+00
 Coeff-En:   0.000D+00 0.100D+01
 Coeff:     -0.152D-02 0.279D-02 0.862D-04 0.750D-05-0.460D-02 0.357D-03
 Coeff:     -0.408D-02 0.367D-02 0.376D-01 0.650D-01 0.131D-01-0.630D-01
 Coeff:      0.138D+00 0.812D+00
 Gap=     0.167 Goal=   None    Shift=    0.000
 Gap=     0.031 Goal=   None    Shift=    0.000
 RMSDP=1.10D-04 MaxDP=6.45D-03 DE=-1.74D-04 OVMax= 3.04D-02

 Cycle  15  Pass 1  IDiag  1:
 RMSU=  3.56D-05    CP:  9.36D-01  2.25D-01  2.46D-01  1.72D-02  7.89D-01
                    CP:  3.30D-01  6.79D-01  3.75D-01  9.36D-01  1.30D+00
                    CP:  1.11D+00  1.44D+00  1.90D+00  1.98D+00
 E= -2251.60900862492     Delta-E=       -0.000180081552 Rises=F Damp=F
 DIIS: error= 1.08D-03 at cycle  15 NSaved=  15.
 NSaved=15 IEnMin=15 EnMin= -2251.60900862492     IErMin=15 ErrMin= 1.08D-03
 ErrMax= 1.08D-03  0.00D+00 EMaxC= 1.00D-01 BMatC= 5.80D-04 BMatP= 9.10D-04
 IDIUse=3 WtCom= 9.89D-01 WtEn= 1.08D-02
 Coeff-Com: -0.304D-03 0.584D-03 0.173D-03-0.476D-04-0.299D-02 0.115D-02
 Coeff-Com: -0.563D-02 0.173D-02 0.301D-01 0.445D-01 0.618D-02-0.998D-01
 Coeff-Com: -0.336D+00 0.996D-01 0.126D+01
 Coeff-En:   0.000D+00 0.000D+00 0.000D+00 0.000D+00 0.000D+00 0.000D+00
 Coeff-En:   0.000D+00 0.000D+00 0.000D+00 0.000D+00 0.000D+00 0.000D+00
 Coeff-En:   0.000D+00 0.000D+00 0.100D+01
 Coeff:     -0.301D-03 0.578D-03 0.171D-03-0.471D-04-0.295D-02 0.114D-02
 Coeff:     -0.557D-02 0.171D-02 0.298D-01 0.441D-01 0.611D-02-0.987D-01
 Coeff:     -0.333D+00 0.985D-01 0.126D+01
 Gap=     0.168 Goal=   None    Shift=    0.000
 Gap=     0.034 Goal=   None    Shift=    0.000
 RMSDP=1.81D-04 MaxDP=1.04D-02 DE=-1.80D-04 OVMax= 5.01D-02

 Cycle  16  Pass 1  IDiag  1:
 RMSU=  4.78D-05    CP:  9.36D-01  2.23D-01  2.45D-01  1.72D-02  7.89D-01
                    CP:  3.31D-01  6.70D-01  3.95D-01  9.11D-01  1.27D+00
                    CP:  1.16D+00  1.76D+00  2.82D+00  3.00D+00  2.44D+00
 E= -2251.60925992832     Delta-E=       -0.000251303399 Rises=F Damp=F
 DIIS: error= 7.84D-04 at cycle  16 NSaved=  16.
 NSaved=16 IEnMin=16 EnMin= -2251.60925992832     IErMin=16 ErrMin= 7.84D-04
 ErrMax= 7.84D-04  0.00D+00 EMaxC= 1.00D-01 BMatC= 3.33D-04 BMatP= 5.80D-04
 IDIUse=3 WtCom= 9.92D-01 WtEn= 7.84D-03
 Coeff-Com:  0.299D-03-0.409D-03 0.132D-03-0.736D-04-0.267D-02 0.931D-03
 Coeff-Com: -0.513D-02 0.259D-02 0.254D-01 0.357D-01 0.194D-01-0.607D-01
 Coeff-Com: -0.276D+00-0.821D-01 0.793D+00 0.550D+00
 Coeff-En:   0.000D+00 0.000D+00 0.000D+00 0.000D+00 0.000D+00 0.000D+00
 Coeff-En:   0.000D+00 0.000D+00 0.000D+00 0.000D+00 0.000D+00 0.000D+00
 Coeff-En:   0.000D+00 0.000D+00 0.000D+00 0.100D+01
 Coeff:      0.297D-03-0.406D-03 0.131D-03-0.730D-04-0.265D-02 0.924D-03
 Coeff:     -0.509D-02 0.257D-02 0.252D-01 0.354D-01 0.193D-01-0.603D-01
 Coeff:     -0.274D+00-0.814D-01 0.787D+00 0.554D+00
 Gap=     0.168 Goal=   None    Shift=    0.000
 Gap=     0.035 Goal=   None    Shift=    0.000
 RMSDP=9.74D-05 MaxDP=6.43D-03 DE=-2.51D-04 OVMax= 2.73D-02

 Cycle  17  Pass 1  IDiag  1:
 RMSU=  3.81D-05    CP:  9.36D-01  2.22D-01  2.44D-01  1.73D-02  7.89D-01
                    CP:  3.31D-01  6.64D-01  4.06D-01  8.96D-01  1.25D+00
                    CP:  1.19D+00  1.92D+00  3.00D+00  3.00D+00  3.00D+00
                    CP:  1.93D+00
 E= -2251.60937532960     Delta-E=       -0.000115401285 Rises=F Damp=F
 DIIS: error= 7.33D-04 at cycle  17 NSaved=  17.
 NSaved=17 IEnMin=17 EnMin= -2251.60937532960     IErMin=17 ErrMin= 7.33D-04
 ErrMax= 7.33D-04  0.00D+00 EMaxC= 1.00D-01 BMatC= 3.00D-04 BMatP= 3.33D-04
 IDIUse=3 WtCom= 9.93D-01 WtEn= 7.33D-03
 Coeff-Com:  0.781D-03-0.124D-02 0.549D-04-0.641D-04-0.218D-02 0.839D-03
 Coeff-Com: -0.367D-02 0.255D-02 0.228D-01 0.322D-01 0.298D-01-0.220D-01
 Coeff-Com: -0.528D-01 0.343D-01-0.159D+00 0.555D-01 0.106D+01
 Coeff-En:   0.000D+00 0.000D+00 0.000D+00 0.000D+00 0.000D+00 0.000D+00
 Coeff-En:   0.000D+00 0.000D+00 0.000D+00 0.000D+00 0.000D+00 0.000D+00
 Coeff-En:   0.000D+00 0.000D+00 0.000D+00 0.000D+00 0.100D+01
 Coeff:      0.776D-03-0.123D-02 0.545D-04-0.636D-04-0.216D-02 0.833D-03
 Coeff:     -0.364D-02 0.253D-02 0.226D-01 0.319D-01 0.295D-01-0.218D-01
 Coeff:     -0.525D-01 0.341D-01-0.158D+00 0.551D-01 0.106D+01
 Gap=     0.169 Goal=   None    Shift=    0.000
 Gap=     0.035 Goal=   None    Shift=    0.000
 RMSDP=1.34D-04 MaxDP=9.11D-03 DE=-1.15D-04 OVMax= 3.65D-02

 Cycle  18  Pass 1  IDiag  1:
 RMSU=  3.40D-05    CP:  9.36D-01  2.21D-01  2.44D-01  1.73D-02  7.89D-01
                    CP:  3.33D-01  6.56D-01  4.22D-01  8.74D-01  1.22D+00
                    CP:  1.21D+00  2.12D+00  3.00D+00  3.00D+00  3.00D+00
                    CP:  3.00D+00  3.00D+00
 E= -2251.60953079072     Delta-E=       -0.000155461114 Rises=F Damp=F
 DIIS: error= 6.45D-04 at cycle  18 NSaved=  18.
 NSaved=18 IEnMin=18 EnMin= -2251.60953079072     IErMin=18 ErrMin= 6.45D-04
 ErrMax= 6.45D-04  0.00D+00 EMaxC= 1.00D-01 BMatC= 2.50D-04 BMatP= 3.00D-04
 IDIUse=3 WtCom= 9.94D-01 WtEn= 6.45D-03
 Coeff-Com:  0.841D-03-0.137D-02 0.321D-04-0.813D-04-0.117D-02 0.649D-03
 Coeff-Com: -0.288D-02-0.292D-04 0.200D-01 0.319D-01 0.333D-01-0.613D-02
 Coeff-Com:  0.116D+00 0.264D+00-0.674D+00-0.715D+00 0.529D+00 0.141D+01
 Coeff-En:   0.000D+00 0.000D+00 0.000D+00 0.000D+00 0.000D+00 0.000D+00
 Coeff-En:   0.000D+00 0.000D+00 0.000D+00 0.000D+00 0.000D+00 0.000D+00
 Coeff-En:   0.000D+00 0.000D+00 0.000D+00 0.000D+00 0.000D+00 0.100D+01
 Coeff:      0.836D-03-0.136D-02 0.319D-04-0.808D-04-0.116D-02 0.645D-03
 Coeff:     -0.286D-02-0.290D-04 0.199D-01 0.317D-01 0.331D-01-0.609D-02
 Coeff:      0.115D+00 0.262D+00-0.670D+00-0.710D+00 0.525D+00 0.140D+01
 Gap=     0.170 Goal=   None    Shift=    0.000
 Gap=     0.037 Goal=   None    Shift=    0.000
 RMSDP=2.07D-04 MaxDP=1.58D-02 DE=-1.55D-04 OVMax= 5.54D-02

 Cycle  19  Pass 1  IDiag  1:
 RMSU=  1.35D-04    CP:  9.36D-01  2.19D-01  2.43D-01  1.74D-02  7.90D-01
                    CP:  3.35D-01  6.42D-01  4.46D-01  8.34D-01  1.15D+00
                    CP:  1.25D+00  2.40D+00  3.00D+00  3.00D+00  3.00D+00
                    CP:  3.00D+00  3.00D+00  3.00D+00
 E= -2251.60973083150     Delta-E=       -0.000200040786 Rises=F Damp=F
 DIIS: error= 6.32D-04 at cycle  19 NSaved=  19.
 NSaved=19 IEnMin=19 EnMin= -2251.60973083150     IErMin=19 ErrMin= 6.32D-04
 ErrMax= 6.32D-04  0.00D+00 EMaxC= 1.00D-01 BMatC= 2.34D-04 BMatP= 2.50D-04
 IDIUse=3 WtCom= 9.94D-01 WtEn= 6.32D-03
 Coeff-Com:  0.529D-03-0.829D-03 0.680D-04-0.520D-04-0.850D-03 0.491D-03
 Coeff-Com: -0.509D-02-0.239D-02 0.187D-01 0.340D-01 0.245D-01-0.457D-01
 Coeff-Com: -0.832D-01 0.177D+00 0.214D+00-0.513D+00-0.113D+01 0.110D+01
 Coeff-Com:  0.121D+01
 Coeff-En:   0.000D+00 0.000D+00 0.000D+00 0.000D+00 0.000D+00 0.000D+00
 Coeff-En:   0.000D+00 0.000D+00 0.000D+00 0.000D+00 0.000D+00 0.000D+00
 Coeff-En:   0.000D+00 0.000D+00 0.000D+00 0.000D+00 0.000D+00 0.000D+00
 Coeff-En:   0.100D+01
 Coeff:      0.525D-03-0.823D-03 0.675D-04-0.517D-04-0.845D-03 0.488D-03
 Coeff:     -0.506D-02-0.237D-02 0.186D-01 0.338D-01 0.244D-01-0.454D-01
 Coeff:     -0.826D-01 0.176D+00 0.213D+00-0.510D+00-0.112D+01 0.110D+01
 Coeff:      0.121D+01
 Gap=     0.171 Goal=   None    Shift=    0.000
 Gap=     0.039 Goal=   None    Shift=    0.000
 RMSDP=2.14D-04 MaxDP=1.79D-02 DE=-2.00D-04 OVMax= 5.43D-02

 Cycle  20  Pass 1  IDiag  1:
 RMSU=  7.41D-05    CP:  9.36D-01  2.17D-01  2.42D-01  1.75D-02  7.90D-01
                    CP:  3.37D-01  6.27D-01  4.68D-01  7.89D-01  1.07D+00
                    CP:  1.27D+00  2.66D+00  3.00D+00  3.00D+00  3.00D+00
                    CP:  3.00D+00  3.00D+00  3.00D+00  2.09D+00
 E= -2251.60988962555     Delta-E=       -0.000158794051 Rises=F Damp=F
 DIIS: error= 5.59D-04 at cycle  20 NSaved=  20.
 NSaved=20 IEnMin=20 EnMin= -2251.60988962555     IErMin=20 ErrMin= 5.59D-04
 ErrMax= 5.59D-04  0.00D+00 EMaxC= 1.00D-01 BMatC= 1.74D-04 BMatP= 2.34D-04
 IDIUse=3 WtCom= 9.94D-01 WtEn= 5.59D-03
 Coeff-Com:  0.208D-03-0.186D-03 0.162D-04-0.344D-04-0.144D-02 0.448D-03
 Coeff-Com: -0.593D-02-0.102D-02 0.154D-01 0.286D-01 0.913D-02-0.762D-01
 Coeff-Com: -0.292D+00-0.122D+00 0.879D+00 0.330D+00-0.892D+00-0.366D+00
 Coeff-Com:  0.443D+00 0.105D+01
 Coeff-En:   0.000D+00 0.000D+00 0.000D+00 0.000D+00 0.000D+00 0.000D+00
 Coeff-En:   0.000D+00 0.000D+00 0.000D+00 0.000D+00 0.000D+00 0.000D+00
 Coeff-En:   0.000D+00 0.000D+00 0.000D+00 0.000D+00 0.000D+00 0.000D+00
 Coeff-En:   0.000D+00 0.100D+01
 Coeff:      0.207D-03-0.185D-03 0.161D-04-0.342D-04-0.143D-02 0.446D-03
 Coeff:     -0.590D-02-0.102D-02 0.153D-01 0.285D-01 0.908D-02-0.758D-01
 Coeff:     -0.291D+00-0.121D+00 0.874D+00 0.329D+00-0.887D+00-0.364D+00
 Coeff:      0.440D+00 0.105D+01
 Gap=     0.172 Goal=   None    Shift=    0.000
 Gap=     0.040 Goal=   None    Shift=    0.000
 RMSDP=8.48D-05 MaxDP=7.73D-03 DE=-1.59D-04 OVMax= 1.95D-02

 Cycle  21  Pass 1  IDiag  1:
 Restarting incremental Fock formation.
 E= -2251.60994457078     Delta-E=       -0.000054945223 Rises=F Damp=F
 DIIS: error= 4.21D-04 at cycle  21 NSaved=  20.
 NSaved=20 IEnMin=20 EnMin= -2251.60994457078     IErMin=20 ErrMin= 4.21D-04
 ErrMax= 4.21D-04  0.00D+00 EMaxC= 1.00D-01 BMatC= 9.03D-05 BMatP= 1.74D-04
 IDIUse=3 WtCom= 9.96D-01 WtEn= 4.21D-03
 Coeff-Com: -0.235D-03 0.535D-03 0.765D-04-0.168D-02 0.193D-03-0.119D-02
 Coeff-Com:  0.206D-02-0.234D-02 0.842D-02-0.551D-02-0.898D-02-0.800D-01
 Coeff-Com: -0.144D+00 0.953D-01 0.280D+00 0.630D+00-0.422D+00-0.122D+01
 Coeff-Com: -0.569D+00 0.244D+01
 Coeff-En:   0.000D+00 0.000D+00 0.000D+00 0.000D+00 0.000D+00 0.000D+00
 Coeff-En:   0.000D+00 0.000D+00 0.000D+00 0.000D+00 0.000D+00 0.000D+00
 Coeff-En:   0.000D+00 0.000D+00 0.000D+00 0.000D+00 0.000D+00 0.000D+00
 Coeff-En:   0.000D+00 0.100D+01
 Coeff:     -0.234D-03 0.533D-03 0.762D-04-0.167D-02 0.192D-03-0.119D-02
 Coeff:      0.206D-02-0.233D-02 0.838D-02-0.549D-02-0.894D-02-0.797D-01
 Coeff:     -0.144D+00 0.949D-01 0.279D+00 0.628D+00-0.420D+00-0.122D+01
 Coeff:     -0.566D+00 0.244D+01
 Gap=     0.173 Goal=   None    Shift=    0.000
 Gap=     0.041 Goal=   None    Shift=    0.000
 RMSDP=1.70D-04 MaxDP=1.48D-02 DE=-5.49D-05 OVMax= 3.43D-02

 Cycle  22  Pass 1  IDiag  1:
 RMSU=  1.70D-04    CP:  1.00D+00
 E= -2251.60999169166     Delta-E=       -0.000047120886 Rises=F Damp=F
 DIIS: error= 2.14D-04 at cycle  22 NSaved=  20.
 NSaved=20 IEnMin=20 EnMin= -2251.60999169166     IErMin=20 ErrMin= 2.14D-04
 ErrMax= 2.14D-04  0.00D+00 EMaxC= 1.00D-01 BMatC= 3.00D-05 BMatP= 9.03D-05
 IDIUse=3 WtCom= 9.98D-01 WtEn= 2.14D-03
 Coeff-Com: -0.181D-03 0.312D-03-0.333D-03 0.909D-04 0.855D-03 0.882D-03
 Coeff-Com: -0.401D-02-0.104D-02-0.309D-02 0.344D-02 0.336D-01 0.278D-02
 Coeff-Com: -0.786D-01-0.635D-01 0.414D-01 0.146D+00-0.285D+00-0.307D+00
 Coeff-Com:  0.947D+00 0.566D+00
 Coeff-En:   0.000D+00 0.000D+00 0.000D+00 0.000D+00 0.000D+00 0.000D+00
 Coeff-En:   0.000D+00 0.000D+00 0.000D+00 0.000D+00 0.000D+00 0.000D+00
 Coeff-En:   0.000D+00 0.000D+00 0.000D+00 0.000D+00 0.000D+00 0.000D+00
 Coeff-En:   0.000D+00 0.100D+01
 Coeff:     -0.181D-03 0.311D-03-0.333D-03 0.907D-04 0.854D-03 0.880D-03
 Coeff:     -0.401D-02-0.103D-02-0.308D-02 0.343D-02 0.335D-01 0.277D-02
 Coeff:     -0.785D-01-0.633D-01 0.413D-01 0.146D+00-0.285D+00-0.306D+00
 Coeff:      0.945D+00 0.567D+00
 Gap=     0.173 Goal=   None    Shift=    0.000
 Gap=     0.042 Goal=   None    Shift=    0.000
 RMSDP=1.45D-05 MaxDP=1.72D-03 DE=-4.71D-05 OVMax= 3.71D-03

 Cycle  23  Pass 1  IDiag  1:
 RMSU=  1.05D-05    CP:  1.00D+00  1.06D+00
 E= -2251.60999705691     Delta-E=       -0.000005365250 Rises=F Damp=F
 DIIS: error= 1.12D-04 at cycle  23 NSaved=  20.
 NSaved=20 IEnMin=20 EnMin= -2251.60999705691     IErMin=20 ErrMin= 1.12D-04
 ErrMax= 1.12D-04  0.00D+00 EMaxC= 1.00D-01 BMatC= 7.53D-06 BMatP= 3.00D-05
 IDIUse=3 WtCom= 9.99D-01 WtEn= 1.12D-03
 Coeff-Com: -0.670D-05-0.126D-03-0.241D-04 0.842D-03 0.559D-03-0.188D-02
 Coeff-Com: -0.273D-02-0.166D-02-0.141D-03 0.274D-01 0.107D-01-0.428D-01
 Coeff-Com: -0.386D-01-0.212D-01 0.930D-01-0.341D-01-0.897D-01 0.310D+00
 Coeff-Com:  0.220D+00 0.571D+00
 Coeff-En:   0.000D+00 0.000D+00 0.000D+00 0.000D+00 0.000D+00 0.000D+00
 Coeff-En:   0.000D+00 0.000D+00 0.000D+00 0.000D+00 0.000D+00 0.000D+00
 Coeff-En:   0.000D+00 0.000D+00 0.000D+00 0.000D+00 0.000D+00 0.000D+00
 Coeff-En:   0.000D+00 0.100D+01
 Coeff:     -0.669D-05-0.126D-03-0.240D-04 0.841D-03 0.558D-03-0.188D-02
 Coeff:     -0.273D-02-0.166D-02-0.141D-03 0.274D-01 0.107D-01-0.427D-01
 Coeff:     -0.386D-01-0.212D-01 0.929D-01-0.340D-01-0.896D-01 0.309D+00
 Coeff:      0.220D+00 0.571D+00
 Gap=     0.173 Goal=   None    Shift=    0.000
 Gap=     0.041 Goal=   None    Shift=    0.000
 RMSDP=2.27D-05 MaxDP=1.64D-03 DE=-5.37D-06 OVMax= 4.83D-03

 Cycle  24  Pass 1  IDiag  1:
 RMSU=  4.81D-06    CP:  1.00D+00  9.28D-01  1.02D+00
 E= -2251.60999829015     Delta-E=       -0.000001233239 Rises=F Damp=F
 DIIS: error= 4.30D-05 at cycle  24 NSaved=  20.
 NSaved=20 IEnMin=20 EnMin= -2251.60999829015     IErMin=20 ErrMin= 4.30D-05
 ErrMax= 4.30D-05  0.00D+00 EMaxC= 1.00D-01 BMatC= 9.81D-07 BMatP= 7.53D-06
 IDIUse=1 WtCom= 1.00D+00 WtEn= 0.00D+00
 Coeff-Com:  0.626D-04-0.955D-05 0.223D-03 0.494D-04 0.109D-03-0.181D-02
 Coeff-Com: -0.196D-02-0.137D-02-0.193D-01-0.172D-01 0.889D-01 0.103D+00
 Coeff-Com:  0.101D-01-0.190D+00-0.548D-01 0.359D-01-0.132D-01-0.245D+00
 Coeff-Com: -0.727D-01 0.138D+01
 Coeff:      0.626D-04-0.955D-05 0.223D-03 0.494D-04 0.109D-03-0.181D-02
 Coeff:     -0.196D-02-0.137D-02-0.193D-01-0.172D-01 0.889D-01 0.103D+00
 Coeff:      0.101D-01-0.190D+00-0.548D-01 0.359D-01-0.132D-01-0.245D+00
 Coeff:     -0.727D-01 0.138D+01
 Gap=     0.173 Goal=   None    Shift=    0.000
 Gap=     0.041 Goal=   None    Shift=    0.000
 RMSDP=6.92D-06 MaxDP=6.14D-04 DE=-1.23D-06 OVMax= 9.55D-04

 Cycle  25  Pass 1  IDiag  1:
 RMSU=  3.17D-06    CP:  1.00D+00  9.38D-01  1.06D+00  2.23D+00
 E= -2251.60999875634     Delta-E=       -0.000000466189 Rises=F Damp=F
 DIIS: error= 3.98D-05 at cycle  25 NSaved=  20.
 NSaved=20 IEnMin=20 EnMin= -2251.60999875634     IErMin=20 ErrMin= 3.98D-05
 ErrMax= 3.98D-05  0.00D+00 EMaxC= 1.00D-01 BMatC= 8.70D-07 BMatP= 9.81D-07
 IDIUse=1 WtCom= 1.00D+00 WtEn= 0.00D+00
 Coeff-Com:  0.117D-03 0.226D-04-0.242D-03-0.588D-05-0.111D-02-0.199D-02
 Coeff-Com: -0.905D-03-0.148D-01-0.956D-02 0.588D-01 0.615D-01-0.181D-01
 Coeff-Com: -0.144D+00-0.270D-01 0.100D+00-0.243D-01-0.160D+00-0.988D-01
 Coeff-Com:  0.601D+00 0.679D+00
 Coeff:      0.117D-03 0.226D-04-0.242D-03-0.588D-05-0.111D-02-0.199D-02
 Coeff:     -0.905D-03-0.148D-01-0.956D-02 0.588D-01 0.615D-01-0.181D-01
 Coeff:     -0.144D+00-0.270D-01 0.100D+00-0.243D-01-0.160D+00-0.988D-01
 Coeff:      0.601D+00 0.679D+00
 Gap=     0.173 Goal=   None    Shift=    0.000
 Gap=     0.041 Goal=   None    Shift=    0.000
 RMSDP=1.47D-05 MaxDP=1.53D-03 DE=-4.66D-07 OVMax= 3.61D-03

 Cycle  26  Pass 1  IDiag  1:
 RMSU=  1.51D-06    CP:  1.00D+00  1.02D+00  1.37D+00  2.04D+00  8.02D-01
 E= -2251.60999918574     Delta-E=       -0.000000429401 Rises=F Damp=F
 DIIS: error= 2.71D-05 at cycle  26 NSaved=  20.
 NSaved=20 IEnMin=20 EnMin= -2251.60999918574     IErMin=20 ErrMin= 2.71D-05
 ErrMax= 2.71D-05  0.00D+00 EMaxC= 1.00D-01 BMatC= 3.75D-07 BMatP= 8.70D-07
 IDIUse=1 WtCom= 1.00D+00 WtEn= 0.00D+00
 Coeff-Com: -0.791D-04-0.467D-04 0.164D-03-0.261D-03-0.112D-02-0.781D-03
 Coeff-Com: -0.985D-02-0.134D-01 0.242D-01 0.477D-01 0.433D-01-0.974D-01
 Coeff-Com: -0.602D-01 0.646D-01 0.219D-01-0.695D-01-0.115D+00 0.904D-02
 Coeff-Com:  0.181D+00 0.976D+00
 Coeff:     -0.791D-04-0.467D-04 0.164D-03-0.261D-03-0.112D-02-0.781D-03
 Coeff:     -0.985D-02-0.134D-01 0.242D-01 0.477D-01 0.433D-01-0.974D-01
 Coeff:     -0.602D-01 0.646D-01 0.219D-01-0.695D-01-0.115D+00 0.904D-02
 Coeff:      0.181D+00 0.976D+00
 Gap=     0.173 Goal=   None    Shift=    0.000
 Gap=     0.041 Goal=   None    Shift=    0.000
 RMSDP=2.59D-06 MaxDP=1.32D-04 DE=-4.29D-07 OVMax= 3.80D-04

 Cycle  27  Pass 1  IDiag  1:
 RMSU=  8.00D-07    CP:  1.00D+00  1.01D+00  1.45D+00  2.39D+00  9.67D-01
                    CP:  1.27D+00
 E= -2251.60999926839     Delta-E=       -0.000000082645 Rises=F Damp=F
 DIIS: error= 2.72D-06 at cycle  27 NSaved=  20.
 NSaved=20 IEnMin=20 EnMin= -2251.60999926839     IErMin=20 ErrMin= 2.72D-06
 ErrMax= 2.72D-06  0.00D+00 EMaxC= 1.00D-01 BMatC= 1.16D-08 BMatP= 3.75D-07
 IDIUse=1 WtCom= 1.00D+00 WtEn= 0.00D+00
 Coeff-Com:  0.522D-05 0.404D-04-0.129D-03-0.486D-03 0.573D-04-0.163D-03
 Coeff-Com: -0.180D-02-0.394D-02 0.767D-02 0.206D-01-0.204D-01-0.232D-01
 Coeff-Com:  0.186D-01 0.122D-01-0.100D-01-0.405D-01-0.737D-01-0.277D-01
 Coeff-Com:  0.540D+00 0.603D+00
 Coeff:      0.522D-05 0.404D-04-0.129D-03-0.486D-03 0.573D-04-0.163D-03
 Coeff:     -0.180D-02-0.394D-02 0.767D-02 0.206D-01-0.204D-01-0.232D-01
 Coeff:      0.186D-01 0.122D-01-0.100D-01-0.405D-01-0.737D-01-0.277D-01
 Coeff:      0.540D+00 0.603D+00
 Gap=     0.173 Goal=   None    Shift=    0.000
 Gap=     0.041 Goal=   None    Shift=    0.000
 RMSDP=3.45D-06 MaxDP=3.59D-04 DE=-8.26D-08 OVMax= 8.18D-04

 Cycle  28  Pass 1  IDiag  1:
 RMSU=  2.55D-07    CP:  1.00D+00  1.03D+00  1.51D+00  2.36D+00  9.46D-01
                    CP:  1.47D+00  1.01D+00
 E= -2251.60999928709     Delta-E=       -0.000000018698 Rises=F Damp=F
 DIIS: error= 1.15D-06 at cycle  28 NSaved=  20.
 NSaved=20 IEnMin=20 EnMin= -2251.60999928709     IErMin=20 ErrMin= 1.15D-06
 ErrMax= 1.15D-06  0.00D+00 EMaxC= 1.00D-01 BMatC= 1.78D-09 BMatP= 1.16D-08
 IDIUse=1 WtCom= 1.00D+00 WtEn= 0.00D+00
 Coeff-Com:  0.321D-04 0.149D-04-0.765D-04 0.346D-04 0.618D-03 0.143D-02
 Coeff-Com: -0.169D-02-0.222D-02-0.442D-03 0.283D-02 0.134D-02-0.167D-02
 Coeff-Com: -0.659D-02-0.127D-02-0.435D-02 0.747D-02-0.409D-01 0.376D-01
 Coeff-Com:  0.260D+00 0.748D+00
 Coeff:      0.321D-04 0.149D-04-0.765D-04 0.346D-04 0.618D-03 0.143D-02
 Coeff:     -0.169D-02-0.222D-02-0.442D-03 0.283D-02 0.134D-02-0.167D-02
 Coeff:     -0.659D-02-0.127D-02-0.435D-02 0.747D-02-0.409D-01 0.376D-01
 Coeff:      0.260D+00 0.748D+00
 Gap=     0.173 Goal=   None    Shift=    0.000
 Gap=     0.041 Goal=   None    Shift=    0.000
 RMSDP=4.39D-07 MaxDP=5.76D-05 DE=-1.87D-08 OVMax= 7.27D-05

 Cycle  29  Pass 1  IDiag  1:
 RMSU=  1.46D-07    CP:  1.00D+00  1.03D+00  1.52D+00  2.39D+00  9.65D-01
                    CP:  1.50D+00  1.10D+00  1.22D+00
 E= -2251.60999928808     Delta-E=       -0.000000000998 Rises=F Damp=F
 DIIS: error= 1.25D-06 at cycle  29 NSaved=  20.
 NSaved=20 IEnMin=20 EnMin= -2251.60999928808     IErMin=19 ErrMin= 1.15D-06
 ErrMax= 1.25D-06  0.00D+00 EMaxC= 1.00D-01 BMatC= 1.04D-09 BMatP= 1.78D-09
 IDIUse=1 WtCom= 1.00D+00 WtEn= 0.00D+00
 Coeff-Com:  0.480D-04 0.205D-04-0.405D-04 0.631D-03 0.110D-02-0.245D-02
 Coeff-Com: -0.507D-02-0.244D-02 0.110D-01 0.543D-02-0.726D-02-0.354D-02
 Coeff-Com:  0.792D-02 0.128D-01 0.257D-02-0.507D-02-0.114D+00-0.601D-01
 Coeff-Com:  0.250D+00 0.909D+00
 Coeff:      0.480D-04 0.205D-04-0.405D-04 0.631D-03 0.110D-02-0.245D-02
 Coeff:     -0.507D-02-0.244D-02 0.110D-01 0.543D-02-0.726D-02-0.354D-02
 Coeff:      0.792D-02 0.128D-01 0.257D-02-0.507D-02-0.114D+00-0.601D-01
 Coeff:      0.250D+00 0.909D+00
 Gap=     0.173 Goal=   None    Shift=    0.000
 Gap=     0.041 Goal=   None    Shift=    0.000
 RMSDP=1.64D-07 MaxDP=1.18D-05 DE=-9.98D-10 OVMax= 2.55D-05

 Cycle  30  Pass 1  IDiag  1:
 RMSU=  8.55D-08    CP:  1.00D+00  1.03D+00  1.52D+00  2.39D+00  9.64D-01
                    CP:  1.51D+00  1.20D+00  1.58D+00  1.29D+00
 E= -2251.60999928841     Delta-E=       -0.000000000328 Rises=F Damp=F
 DIIS: error= 1.32D-06 at cycle  30 NSaved=  20.
 NSaved=20 IEnMin=20 EnMin= -2251.60999928841     IErMin=18 ErrMin= 1.15D-06
 ErrMax= 1.32D-06  0.00D+00 EMaxC= 1.00D-01 BMatC= 9.04D-10 BMatP= 1.04D-09
 IDIUse=1 WtCom= 1.00D+00 WtEn= 0.00D+00
 Coeff-Com:  0.432D-04 0.103D-03 0.215D-03 0.122D-03-0.110D-02-0.755D-03
 Coeff-Com:  0.118D-02 0.180D-02-0.589D-04-0.198D-02-0.951D-03 0.113D-02
 Coeff-Com:  0.314D-02 0.206D-02 0.152D-01-0.249D-01-0.476D-01-0.676D-01
 Coeff-Com:  0.125D+00 0.995D+00
 Coeff:      0.432D-04 0.103D-03 0.215D-03 0.122D-03-0.110D-02-0.755D-03
 Coeff:      0.118D-02 0.180D-02-0.589D-04-0.198D-02-0.951D-03 0.113D-02
 Coeff:      0.314D-02 0.206D-02 0.152D-01-0.249D-01-0.476D-01-0.676D-01
 Coeff:      0.125D+00 0.995D+00
 Gap=     0.173 Goal=   None    Shift=    0.000
 Gap=     0.041 Goal=   None    Shift=    0.000
 RMSDP=2.32D-07 MaxDP=2.31D-05 DE=-3.28D-10 OVMax= 6.43D-05

 Cycle  31  Pass 1  IDiag  1:
 RMSU=  4.22D-08    CP:  1.00D+00  1.03D+00  1.51D+00  2.41D+00  9.77D-01
                    CP:  1.50D+00  1.21D+00  1.69D+00  1.54D+00  1.46D+00
 E= -2251.60999928867     Delta-E=       -0.000000000253 Rises=F Damp=F
 DIIS: error= 1.96D-07 at cycle  31 NSaved=  20.
 NSaved=20 IEnMin=20 EnMin= -2251.60999928867     IErMin=20 ErrMin= 1.96D-07
 ErrMax= 1.96D-07  0.00D+00 EMaxC= 1.00D-01 BMatC= 3.89D-11 BMatP= 9.04D-10
 IDIUse=1 WtCom= 1.00D+00 WtEn= 0.00D+00
 Coeff-Com:  0.283D-04 0.325D-04 0.378D-04-0.157D-03 0.312D-03 0.248D-03
 Coeff-Com: -0.877D-03-0.974D-03 0.129D-02 0.832D-03 0.594D-04-0.172D-03
 Coeff-Com: -0.621D-02 0.169D-02 0.171D-01 0.476D-02-0.483D-01-0.148D+00
 Coeff-Com:  0.275D+00 0.904D+00
 Coeff:      0.283D-04 0.325D-04 0.378D-04-0.157D-03 0.312D-03 0.248D-03
 Coeff:     -0.877D-03-0.974D-03 0.129D-02 0.832D-03 0.594D-04-0.172D-03
 Coeff:     -0.621D-02 0.169D-02 0.171D-01 0.476D-02-0.483D-01-0.148D+00
 Coeff:      0.275D+00 0.904D+00
 Gap=     0.173 Goal=   None    Shift=    0.000
 Gap=     0.041 Goal=   None    Shift=    0.000
 RMSDP=1.71D-07 MaxDP=1.43D-05 DE=-2.53D-10 OVMax= 3.79D-05

 Cycle  32  Pass 1  IDiag  1:
 RMSU=  2.30D-08    CP:  1.00D+00  1.03D+00  1.51D+00  2.40D+00  9.78D-01
                    CP:  1.51D+00  1.21D+00  1.74D+00  1.65D+00  1.67D+00
                    CP:  1.49D+00
 E= -2251.60999928870     Delta-E=       -0.000000000036 Rises=F Damp=F
 DIIS: error= 3.98D-07 at cycle  32 NSaved=  20.
 NSaved=20 IEnMin=20 EnMin= -2251.60999928870     IErMin=19 ErrMin= 1.96D-07
 ErrMax= 3.98D-07  0.00D+00 EMaxC= 1.00D-01 BMatC= 9.48D-11 BMatP= 3.89D-11
 IDIUse=1 WtCom= 1.00D+00 WtEn= 0.00D+00
 Coeff-Com: -0.851D-04-0.117D-03 0.439D-03 0.587D-03-0.127D-03-0.132D-02
 Coeff-Com: -0.664D-03 0.169D-02 0.787D-03-0.839D-03-0.202D-02-0.375D-02
 Coeff-Com: -0.440D-02 0.201D-01 0.140D-01-0.326D-01-0.157D+00-0.115D+00
 Coeff-Com:  0.557D+00 0.723D+00
 Coeff:     -0.851D-04-0.117D-03 0.439D-03 0.587D-03-0.127D-03-0.132D-02
 Coeff:     -0.664D-03 0.169D-02 0.787D-03-0.839D-03-0.202D-02-0.375D-02
 Coeff:     -0.440D-02 0.201D-01 0.140D-01-0.326D-01-0.157D+00-0.115D+00
 Coeff:      0.557D+00 0.723D+00
 Gap=     0.173 Goal=   None    Shift=    0.000
 Gap=     0.041 Goal=   None    Shift=    0.000
 RMSDP=8.47D-08 MaxDP=5.94D-06 DE=-3.59D-11 OVMax= 1.70D-05

 Cycle  33  Pass 1  IDiag  1:
 RMSU=  1.33D-08    CP:  1.00D+00  1.03D+00  1.51D+00  2.41D+00  9.80D-01
                    CP:  1.51D+00  1.22D+00  1.79D+00  1.75D+00  1.86D+00
                    CP:  1.86D+00  1.16D+00
 E= -2251.60999928873     Delta-E=       -0.000000000030 Rises=F Damp=F
 DIIS: error= 9.82D-08 at cycle  33 NSaved=  20.
 NSaved=20 IEnMin=20 EnMin= -2251.60999928873     IErMin=20 ErrMin= 9.82D-08
 ErrMax= 9.82D-08  0.00D+00 EMaxC= 1.00D-01 BMatC= 6.09D-12 BMatP= 3.89D-11
 IDIUse=1 WtCom= 1.00D+00 WtEn= 0.00D+00
 Coeff-Com: -0.172D-04 0.613D-04 0.931D-04-0.235D-04-0.356D-03-0.176D-03
 Coeff-Com:  0.400D-03 0.459D-03-0.245D-03-0.806D-03-0.783D-03-0.201D-02
 Coeff-Com:  0.452D-02 0.544D-02-0.497D-02-0.266D-01-0.764D-01 0.879D-01
 Coeff-Com:  0.210D+00 0.804D+00
 Coeff:     -0.172D-04 0.613D-04 0.931D-04-0.235D-04-0.356D-03-0.176D-03
 Coeff:      0.400D-03 0.459D-03-0.245D-03-0.806D-03-0.783D-03-0.201D-02
 Coeff:      0.452D-02 0.544D-02-0.497D-02-0.266D-01-0.764D-01 0.879D-01
 Coeff:      0.210D+00 0.804D+00
 Gap=     0.173 Goal=   None    Shift=    0.000
 Gap=     0.041 Goal=   None    Shift=    0.000
 RMSDP=3.85D-08 MaxDP=3.68D-06 DE=-2.96D-11 OVMax= 9.67D-06

 Cycle  34  Pass 1  IDiag  1:
 RMSU=  5.15D-09    CP:  1.00D+00  1.03D+00  1.51D+00  2.40D+00  9.79D-01
                    CP:  1.52D+00  1.22D+00  1.80D+00  1.77D+00  1.88D+00
                    CP:  1.95D+00  1.36D+00  1.18D+00
 E= -2251.60999928873     Delta-E=        0.000000000001 Rises=F Damp=F
 DIIS: error= 2.40D-08 at cycle  34 NSaved=  20.
 NSaved=20 IEnMin=19 EnMin= -2251.60999928873     IErMin=20 ErrMin= 2.40D-08
 ErrMax= 2.40D-08  0.00D+00 EMaxC= 1.00D-01 BMatC= 6.28D-13 BMatP= 6.09D-12
 IDIUse=1 WtCom= 1.00D+00 WtEn= 0.00D+00
 Coeff-Com: -0.285D-04-0.726D-04 0.476D-04 0.177D-03 0.127D-03-0.396D-03
 Coeff-Com: -0.661D-04 0.640D-04 0.123D-03 0.136D-02 0.168D-02-0.518D-02
 Coeff-Com: -0.394D-02-0.206D-02 0.366D-01 0.279D-01-0.134D+00-0.150D+00
 Coeff-Com:  0.198D+00 0.103D+01
 Coeff:     -0.285D-04-0.726D-04 0.476D-04 0.177D-03 0.127D-03-0.396D-03
 Coeff:     -0.661D-04 0.640D-04 0.123D-03 0.136D-02 0.168D-02-0.518D-02
 Coeff:     -0.394D-02-0.206D-02 0.366D-01 0.279D-01-0.134D+00-0.150D+00
 Coeff:      0.198D+00 0.103D+01
 Gap=     0.173 Goal=   None    Shift=    0.000
 Gap=     0.041 Goal=   None    Shift=    0.000
 RMSDP=2.29D-08 MaxDP=1.85D-06 DE= 1.36D-12 OVMax= 4.88D-06

 Cycle  35  Pass 1  IDiag  1:
 RMSU=  3.23D-09    CP:  1.00D+00  1.03D+00  1.51D+00  2.41D+00  9.79D-01
                    CP:  1.52D+00  1.22D+00  1.81D+00  1.78D+00  1.91D+00
                    CP:  2.01D+00  1.46D+00  1.46D+00  1.58D+00
 E= -2251.60999928874     Delta-E=       -0.000000000009 Rises=F Damp=F
 DIIS: error= 3.53D-08 at cycle  35 NSaved=  20.
 NSaved=20 IEnMin=20 EnMin= -2251.60999928874     IErMin=19 ErrMin= 2.40D-08
 ErrMax= 3.53D-08  0.00D+00 EMaxC= 1.00D-01 BMatC= 6.91D-13 BMatP= 6.28D-13
 IDIUse=1 WtCom= 1.00D+00 WtEn= 0.00D+00
 Coeff-Com: -0.331D-04 0.431D-05 0.708D-04 0.640D-04-0.160D-03-0.100D-03
 Coeff-Com:  0.208D-04 0.112D-03 0.574D-03 0.974D-03-0.156D-02-0.124D-02
 Coeff-Com: -0.551D-03 0.934D-02 0.216D-01-0.513D-01-0.786D-01-0.928D-01
 Coeff-Com:  0.429D+00 0.765D+00
 Coeff:     -0.331D-04 0.431D-05 0.708D-04 0.640D-04-0.160D-03-0.100D-03
 Coeff:      0.208D-04 0.112D-03 0.574D-03 0.974D-03-0.156D-02-0.124D-02
 Coeff:     -0.551D-03 0.934D-02 0.216D-01-0.513D-01-0.786D-01-0.928D-01
 Coeff:      0.429D+00 0.765D+00
 Gap=     0.173 Goal=   None    Shift=    0.000
 Gap=     0.041 Goal=   None    Shift=    0.000
 RMSDP=5.24D-09 MaxDP=2.15D-07 DE=-8.64D-12 OVMax= 7.32D-07

 SCF Done:  E(UB3LYP) =  -2251.60999929     A.U. after   35 cycles
            NFock= 35  Conv=0.52D-08     -V/T= 2.0044
 <Sx>= 0.0000 <Sy>= 0.0000 <Sz>= 0.5000 <S**2>= 0.7540 S= 0.5020
 <L.S>=  0.00000000000    
 KE= 2.241754393385D+03 PE=-7.951365833702D+03 EE= 2.131943164898D+03
 Annihilation of the first spin contaminant:
 S**2 before annihilation     0.7540,   after     0.7500
 Leave Link  502 at Fri Mar  8 01:30:30 2024, MaxMem= 13421772800 cpu:            1059.6 elap:              33.3
 (Enter /public/software/apps/Gaussian/g16/l601.exe)
 Copying SCF densities to generalized density rwf, IOpCl= 1 IROHF=0.

 **********************************************************************

            Population analysis using the SCF Density.

 **********************************************************************

 Alpha  occ. eigenvalues -- -323.45947 -39.26980 -34.49300 -34.49051 -34.47512
 Alpha  occ. eigenvalues --  -19.50387 -14.70947 -14.69525 -10.63815 -10.57549
 Alpha  occ. eigenvalues --  -10.55331 -10.53089 -10.52626 -10.51307 -10.50661
 Alpha  occ. eigenvalues --  -10.50465 -10.46175 -10.43282 -10.40751  -4.73153
 Alpha  occ. eigenvalues --   -3.23963  -3.23398  -3.20182  -1.41317  -1.28900
 Alpha  occ. eigenvalues --   -1.25513  -1.12377  -1.11210  -1.07660  -1.02467
 Alpha  occ. eigenvalues --   -0.97282  -0.95984  -0.93648  -0.92477  -0.89191
 Alpha  occ. eigenvalues --   -0.86511  -0.84351  -0.82810  -0.80900  -0.79211
 Alpha  occ. eigenvalues --   -0.77529  -0.76558  -0.75917  -0.75186  -0.74764
 Alpha  occ. eigenvalues --   -0.73022  -0.71671  -0.70905  -0.70054  -0.69678
 Alpha  occ. eigenvalues --   -0.69452  -0.68908  -0.68377  -0.68162  -0.67152
 Alpha  occ. eigenvalues --   -0.65813  -0.63614  -0.62493  -0.62244  -0.61064
 Alpha  occ. eigenvalues --   -0.60663  -0.59072  -0.58836  -0.58413  -0.57170
 Alpha virt. eigenvalues --   -0.39896  -0.38491  -0.34304  -0.27972  -0.23483
 Alpha virt. eigenvalues --   -0.20409  -0.19842  -0.19318  -0.18449  -0.16901
 Alpha virt. eigenvalues --   -0.16628  -0.16474  -0.15934  -0.14757  -0.13325
 Alpha virt. eigenvalues --   -0.11919  -0.11696  -0.10139  -0.09801  -0.09533
 Alpha virt. eigenvalues --   -0.09047  -0.08288  -0.07897  -0.06831  -0.05538
 Alpha virt. eigenvalues --   -0.04963  -0.03436  -0.03090  -0.02012  -0.01216
 Alpha virt. eigenvalues --   -0.00918  -0.00382   0.00684   0.01693   0.03902
 Alpha virt. eigenvalues --    0.05715   0.08990   0.10180   0.11735   0.12858
 Alpha virt. eigenvalues --    0.14849   0.16266   0.16866   0.17283   0.17794
 Alpha virt. eigenvalues --    0.19017   0.19542   0.20636   0.22221   0.23179
 Alpha virt. eigenvalues --    0.24139   0.24748   0.25406   0.27065   0.28737
 Alpha virt. eigenvalues --    0.29310   0.30963   0.32940   0.33634   0.34351
 Alpha virt. eigenvalues --    0.35771   0.37586   0.38229   0.38343   0.38747
 Alpha virt. eigenvalues --    0.40537   0.40671   0.41348   0.42354   0.43100
 Alpha virt. eigenvalues --    0.43414   0.44199   0.44573   0.45112   0.45847
[...]
 0.00002147,-0.00014915,-0.00004154,0.00001477,-0.00040232,-0.00019067,
 -0.00032650,-0.00001201,-0.00010338,0.00017069,-0.00006724,0.00000651,
 0.00008253,0.00001179,0.00021908,-0.00021034,0.05946189,-0.00011039,0.
 00006652,-0.00018280,-0.00086837,0.00023979,-0.00151818,0.00000144,0.0
 0002555,0.00005215,0.00177649,-0.00258072,0.00193035,-0.02923195,-0.33
 085553,0.02290840,-0.00406852,0.00215085,0.00000281,0.00093953,-0.0001
 7682,-0.00035974,-0.00001851,-0.00014261,-0.00011282,0.00005197,0.0000
 0221,-0.00000197,-0.00003472,-0.00001108,0.00001784,-0.00000850,0.0000
 1563,-0.00005015,0.00005064,0.00002928,0.00005943,0.00001094,-0.000020
 55,-0.00000888,-0.00019315,-0.00014307,-0.00055973,0.00002705,-0.00002
 953,-0.00009816,-0.00000646,0.00003850,-0.00001055,0.00003358,0.000005
 53,0.00002669,0.00003152,0.00047888,0.00058825,0.00006158,0.00026659,-
 0.00024734,0.00009852,0.00004494,-0.00010452,-0.00002563,0.00000586,-0
 .00000983,-0.00066513,0.00000831,0.00067233,0.03367910,0.34108873,-0.0
 0048863,-0.00014662,0.00070261,0.00022762,0.00191059,0.00303569,-0.000
 02060,-0.00018232,-0.00072404,-0.00036591,0.02477471,-0.00226789,0.004
 65092,0.02706618,-0.05366693,-0.00503076,-0.01231849,0.00422288,-0.001
 26726,0.00048654,-0.00508389,-0.00039535,0.00011970,0.00059925,-0.0000
 4007,-0.00000380,-0.00014612,0.00009502,0.00005590,-0.00007200,-0.0000
 3219,-0.00012296,0.00008931,0.00008719,0.00014873,-0.00042681,-0.00042
 389,0.00006776,0.00023281,0.00526009,0.00107242,-0.00142113,-0.0000526
 7,-0.00005529,0.00014780,0.00023679,-0.00003181,-0.00015332,0.00031880
 ,-0.00001290,-0.00005514,0.00052989,-0.00070967,-0.00038778,-0.0005194
 7,-0.00013806,-0.00003577,-0.00011917,-0.00007469,0.00018582,0.0000747
 6,0.00002748,0.00021522,0.00042546,0.00112216,-0.00283841,-0.00028520,
 -0.02527076,0.05259173,0.00009815,0.00000180,-0.00056939,0.00024284,-0
 .00069194,-0.00106843,-0.00000027,0.00008123,0.00018446,0.00547930,-0.
 00006836,-0.00119065,-0.14382197,0.08243599,0.10371059,-0.03336060,0.0
 0666823,0.01608399,-0.00227748,0.00414657,-0.00549938,-0.00016974,-0.0
 0124064,0.00049075,-0.00006290,-0.00005682,0.00022172,0.00009943,0.000
 06074,-0.00002280,0.00009429,0.00003412,0.00013919,-0.00036559,-0.0000
 0871,0.00033526,0.00020273,-0.00015993,-0.00056543,-0.00013179,-0.0003
 7821,0.00062023,0.00002220,-0.00000456,-0.00000142,-0.00016396,0.00003
 159,0.00000966,-0.00019333,-0.00004730,0.00019651,-0.00010292,0.000182
 07,0.00009956,0.00006333,-0.00010649,-0.00002390,0.00000335,-0.0000014
 8,-0.00002284,0.00000285,0.00001869,-0.00006485,0.00092564,-0.00012955
 ,-0.00111069,0.00662676,-0.00157837,-0.00239932,0.16655613,-0.00043868
 ,0.00042042,0.00071536,-0.00001289,-0.00045109,0.00094828,0.00000845,0
 .00015055,-0.00010391,-0.00808121,0.00654248,0.01000340,0.09080258,-0.
 12655063,-0.09117092,-0.00967481,0.00771738,0.00624511,-0.00181371,-0.
 00075784,0.00069269,-0.00061475,-0.00058797,0.00022710,0.00014416,0.00
 013658,0.00007137,-0.00003644,0.00004257,0.00006070,0.00010627,-0.0001
 6540,0.00008630,-0.00018346,-0.00013942,-0.00023740,0.00014539,0.00009
 976,-0.00018919,0.00091085,-0.00025166,-0.00044732,0.00002977,0.000025
 56,-0.00008135,0.00017283,-0.00007738,-0.00001177,0.00030953,0.0000138
 4,-0.00020367,-0.00022029,0.00015469,0.00008074,0.00017458,-0.00004952
 ,0.00005427,-0.00000917,-0.00000731,0.00006433,-0.00001736,0.00000856,
 -0.00001741,-0.00025705,0.00110525,0.00006724,0.01838290,-0.01044667,-
 0.01813360,-0.08932501,0.12324232,-0.00078339,-0.00068436,-0.00063452,
 0.00100759,0.00225912,-0.00196787,0.00014608,0.00013135,-0.00008614,0.
 01305561,-0.01171502,-0.01579131,0.11362645,-0.08935901,-0.15829609,-0
 .01575167,0.00482365,0.01187282,-0.00122466,0.00302547,-0.00464154,-0.
 00002907,-0.00090465,0.00038169,-0.00023073,-0.00008203,0.00002901,0.0
 0018784,0.00008176,-0.00010465,0.00001469,-0.00003260,0.00016917,-0.00
 019938,0.00009981,-0.00001975,-0.00009104,0.00006498,-0.00030691,0.001
 79939,-0.00094695,0.00044965,-0.00000910,0.00003174,-0.00000482,0.0001
 4137,0.00018987,-0.00027101,0.00023907,0.00005310,0.00020308,-0.000025
 58,0.00021343,0.00017769,-0.00002646,-0.00013536,0.00003492,-0.0001015
 6,-0.00001975,0.00003882,-0.00004150,-0.00000557,-0.00005507,0.0000791
 9,-0.00039227,0.00099317,-0.00265939,0.00236435,0.00395789,-0.10913962
 ,0.09087874,0.16384097,0.00003258,-0.00001559,0.00009662,0.00012761,0.
 00021298,0.00021683,-0.00004318,-0.00006054,-0.00005508,-0.00047595,-0
 .00017360,-0.00055417,-0.00065687,-0.00003433,0.00010368,0.00013891,-0
 .00011758,0.00079113,-0.00023380,0.00179909,-0.00172986,0.01163763,0.0
 0559188,-0.01745258,-0.09524412,-0.03028602,0.09264707,-0.00444634,-0.
 00757561,0.02669099,-0.00501841,-0.00244091,-0.00041960,-0.00117374,0.
 00002735,-0.00054224,-0.00192114,-0.00145525,-0.00465045,0.00146486,-0
 .00067015,0.00097198,-0.00003726,0.00000441,-0.00000572,0.00003206,0.0
 0000336,-0.00001648,-0.00012226,-0.00003850,-0.00006374,0.00000823,-0.
 00002620,-0.00004594,0.00000248,0.00000849,0.00001435,-0.00002128,0.00
 001999,0.00002140,-0.00000417,0.00000395,0.00000427,-0.00002595,-0.000
 07100,0.00013811,0.00001839,0.00000904,-0.00009212,0.00005323,-0.00003
 861,-0.00001251,0.09414216,0.00024154,-0.00007430,-0.00010019,0.000025
 52,0.00003426,-0.00019776,0.00002293,0.00002725,0.00010710,0.00006068,
 0.00015554,0.00060958,-0.00029052,0.00004590,0.00010431,-0.00021006,-0
 .00010656,0.00041158,0.00052643,-0.00366736,-0.00108086,-0.00028169,0.
 00303913,-0.00107870,-0.03039811,-0.06225282,0.07077837,-0.00188473,0.
 00458648,0.00588985,-0.00182645,0.00553454,0.00139056,-0.00075378,-0.0
 0068145,-0.00030874,-0.00087364,0.00752422,0.00097121,0.00039798,0.000
 26116,0.00021011,0.00003189,-0.00000222,0.00001313,-0.00006271,-0.0000
 1194,0.00004965,-0.00011922,0.00000575,-0.00000707,0.00000876,0.000002
 70,0.00000504,-0.00002310,0.00000619,-0.00000015,0.00002621,0.00000468
 ,-0.00000864,0.00000223,-0.00000139,0.00000402,-0.00002410,-0.00001285
 ,-0.00002389,-0.00002824,0.00000580,-0.00007007,0.00003709,-0.00006777
 ,0.00001193,0.03404562,0.04973713,-0.00002886,0.00002368,0.00004307,0.
 00010161,0.00000338,0.00000386,-0.00002465,0.00001666,0.00002215,-0.00
 011297,0.00013100,0.00007509,-0.00048324,-0.00010002,0.00017919,0.0004
 7391,-0.00010945,0.00047275,0.00003941,-0.00053875,-0.00100846,0.00878
 911,0.00574261,-0.01491879,0.09240037,0.07062416,-0.29236989,-0.000540
 92,0.00013034,0.00450740,-0.00102875,0.00088167,0.00126151,-0.00017981
 ,-0.00020402,0.00036118,-0.00336436,0.00106083,-0.00099968,0.00085745,
 -0.00010555,0.00041503,-0.00000756,0.00000448,-0.00000846,0.00001387,0
 .00000014,-0.00000806,0.00001852,-0.00000669,-0.00002546,0.00000039,-0
 .00001303,-0.00000601,-0.00000365,-0.00000648,-0.00000041,0.00000940,0
 .00000091,0.00000380,0.00000008,0.00000025,-0.00000005,-0.00000113,-0.
 00001652,0.00003888,0.00002452,0.00000311,0.00000171,0.00004016,-0.000
 01766,0.00003513,-0.09741182,-0.07652546,0.30145399,-0.00008540,0.0000
 2620,0.00003537,-0.00005339,-0.00006635,-0.00003112,0.00000927,0.00001
 360,-0.00001103,0.00009995,0.00007529,0.00000963,0.00002214,-0.0000525
 9,-0.00003735,-0.00000858,0.00007504,-0.00005463,0.00016281,0.00022902
 ,-0.00095973,-0.00368304,-0.00275787,0.00129581,-0.01325244,-0.0001879
 0,-0.02238419,-0.17352593,-0.00115871,-0.14255589,0.01223691,-0.000929
 54,0.01053579,0.00017197,-0.00226026,0.00286399,-0.00024199,0.00024513
 ,0.00067350,-0.00070809,-0.00001336,-0.00007185,0.00000930,0.00000135,
 -0.00000364,0.00001563,-0.00000177,-0.00001042,0.00009551,0.00001366,0
 .00001866,-0.00000236,0.00000376,0.00001176,0.00000168,-0.00000672,-0.
 00000252,-0.00000032,-0.00000869,-0.00000322,0.00000096,-0.00000189,-0
 .00000205,-0.00001190,0.00000354,-0.00002585,-0.00000554,-0.00000275,0
 .00001907,-0.00001980,0.00001370,-0.00000346,0.00120043,0.00105524,0.0
 0017454,0.17693149,0.00012354,0.00000159,-0.00008106,-0.00003178,-0.00
 003862,-0.00008197,0.00000936,0.00001364,0.00004165,0.00010018,0.00004
 046,0.00018587,-0.00003498,0.00000572,-0.00003041,-0.00006499,-0.00000
 535,-0.00000186,0.00025383,-0.00028483,-0.00026914,-0.00288696,0.00635
 344,0.00142860,-0.00495652,0.00653635,-0.00549954,-0.00149125,-0.04776
 623,0.00453522,0.00436519,0.00738230,0.00643033,-0.00239467,0.00733705
 ,0.00274872,0.00029934,-0.00185286,-0.00021420,-0.00028798,-0.00003906
 ,-0.00023906,-0.00001398,-0.00000618,0.00000230,-0.00003767,0.00000293
 ,0.00001714,-0.00012171,-0.00001869,-0.00000990,0.00000582,0.00000639,
 0.00000761,-0.00000903,-0.00000096,-0.00000133,0.00000884,-0.00000057,
 -0.00000671,0.00000205,-0.00000153,-0.00000128,-0.00000131,0.00000382,
 -0.00001226,0.00000178,0.00000045,0.00001635,-0.00000779,0.00000046,0.
 00000523,0.00103337,-0.00310637,-0.00077652,0.00453892,0.03033181,-0.0
 0004329,0.00001699,0.00001392,0.00000887,-0.00002338,-0.00002791,-0.00
 000763,0.00001534,0.00000771,0.00002854,-0.00002834,0.00005049,-0.0000
 3922,-0.00002149,-0.00000505,0.00009362,0.00005262,-0.00005668,0.00008
 519,-0.00016197,0.00058268,0.00209123,0.00165271,0.00079935,0.00559303
 ,0.00058964,0.00976006,-0.14284714,0.00414288,-0.23476920,-0.01721925,
 0.00048192,-0.01484816,0.00152119,0.00257814,-0.00335956,0.00110486,-0
 .00016477,0.00002408,0.00029213,0.00006122,0.00004756,-0.00000216,0.00
 000058,-0.00000555,0.00000662,0.00000006,-0.00000610,0.00003678,0.0000
 0196,-0.00000085,-0.00000208,-0.00000188,0.00000794,-0.00000042,-0.000
 00590,-0.00000147,0.00000448,-0.00000311,0.00000034,0.00000005,-0.0000
 0123,-0.00000207,0.00001997,0.00001868,-0.00000846,0.00000723,-0.00000
 318,0.00001566,-0.00000102,0.00000751,0.00001257,0.00002545,-0.0007282
 3,0.00045279,0.15000650,-0.00715558,0.24098512,-0.00000247,0.00001098,
 0.00000546,0.00003156,-0.00000789,-0.00004623,-0.00000863,0.00001772,0
 .00002315,-0.00005321,0.00004018,0.00006521,-0.00008192,-0.00002210,0.
 00000022,0.00023077,0.00003363,-0.00002273,-0.00083581,0.00012976,-0.0
 0001664,0.00110379,0.00038579,-0.00006057,0.00105883,-0.00159145,0.000
 18595,-0.00124509,-0.00167777,-0.00020955,-0.32376341,-0.07333897,0.04
 427891,-0.01159932,-0.00416753,0.00485076,-0.00035076,-0.00127891,-0.0
 0283170,0.00028753,-0.00010268,0.00014344,-0.00000283,0.00000140,-0.00
 000577,0.00000167,0.00000016,-0.00000161,0.00001445,-0.00000031,-0.000
 01691,0.00000016,-0.00000324,0.00000400,-0.00000320,-0.00000523,-0.000
 00106,0.00000846,-0.00000162,0.00000062,-0.00000018,-0.00000052,-0.000
 00165,0.00000557,0.00000641,-0.00000262,0.00000259,-0.00000284,0.00000
 219,0.00001168,-0.00000105,0.00001439,-0.00003778,0.00015185,-0.000136
 20,0.00044529,0.00108165,0.00000720,0.33419782,-0.00045439,0.00008167,
 0.00025574,0.00010589,0.00010107,0.00034184,-0.00005849,-0.00005513,-0
 .00016854,-0.00056538,-0.00006742,-0.00076203,0.00017117,0.00000228,-0
 .00006844,-0.00003933,0.00019124,-0.00013722,0.00021860,-0.00076394,-0
 .00050287,0.00068157,-0.00053080,0.00045841,-0.00232278,0.00666440,0.0
 0173812,-0.00616371,0.00478887,0.00057415,-0.07386339,-0.06141165,0.01
 428211,0.00140961,0.00340030,0.00136255,-0.00129992,0.00613768,0.00105
 919,0.00045338,-0.00019519,0.00068675,-0.00001698,0.00000843,-0.000014
 43,0.00013203,0.00001122,-0.00008900,0.00030369,0.00002511,0.00002603,
 -0.00000662,-0.00002466,-0.00002758,0.00003286,0.00000469,0.00000601,-
 0.00003773,0.00000159,0.00001622,-0.00000018,-0.00000055,0.00000322,-0
 .00000385,-0.00003881,0.00006269,0.00000461,-0.00000540,0.00000913,-0.
 00003122,0.00006238,-0.00002467,-0.00008607,-0.00056140,-0.00015672,0.
 00097108,-0.00371144,-0.00100823,0.07958318,0.04862141,0.00005934,-0.0
 0006027,0.00000337,0.00014174,0.00020435,0.00021115,-0.00003999,-0.000
 06631,-0.00004515,-0.00050176,-0.00001813,-0.00045092,-0.00004693,0.00
 008872,0.00005990,0.00021570,-0.00013501,0.00028956,-0.00107413,0.0000
 9139,-0.00082085,0.00021588,0.00022378,-0.00138993,0.00109002,0.002558
 11,-0.00485389,0.02746489,0.00727323,0.00064239,0.04500217,0.01500115,
 -0.06572460,-0.02334198,-0.00632435,0.00769402,-0.00508432,0.00072090,
 -0.00290541,0.00111129,-0.00035545,0.00068708,-0.00002344,0.00000399,0
 .00000599,0.00000112,0.00000597,-0.00000189,-0.00011467,-0.00001950,-0
 .00004853,0.00000614,-0.00002176,-0.00004394,0.00000656,0.00001960,0.0
 0000938,-0.00001653,0.00002132,0.00001580,-0.00000161,0.00000510,0.000
 00830,-0.00002284,-0.00006595,0.00008825,-0.00000440,0.00000408,-0.000
 05972,0.00003731,-0.00001496,-0.00000656,0.00110994,0.00013997,0.00012
 980,-0.00000376,-0.00098752,0.00103468,-0.04658702,-0.01766107,0.06425
 191,-0.00008587,0.00004795,0.00001252,-0.00009294,-0.00017103,-0.00018
 061,0.00001807,0.00005367,0.00003101,0.00040814,0.00002194,0.00037792,
 0.00002257,-0.00008357,0.00005206,-0.00059434,0.00000955,-0.00027932,0
 .00072133,-0.00069671,0.00158556,-0.00342682,-0.00210848,-0.00219138,0
 .00000778,0.00005157,0.00047397,-0.00284089,-0.00148416,-0.00325649,0.
 01077122,0.00423048,-0.01932300,-0.07728155,-0.02136638,0.06962232,-0.
 01461285,-0.00880184,0.03232530,-0.00091817,0.00032344,-0.00023621,0.0
 0001353,-0.00000078,-0.00000562,0.00000666,-0.00000634,-0.00000142,0.0
 0016076,0.00003369,0.00003577,-0.00000478,0.00001797,0.00003329,-0.000
 00033,-0.00001209,-0.00000833,0.00001541,-0.00001628,-0.00001308,-0.00
 000007,-0.00000503,-0.00000591,0.00002532,0.00005656,-0.00008321,-0.00
 000798,-0.00000414,0.00004670,-0.00005870,0.00000077,-0.00001032,0.000
 12068,0.00018923,0.00012622,0.00042529,0.00046203,-0.00072967,0.000574
 48,0.00084241,0.00032965,0.08778125,-0.00027162,0.00013283,0.00012504,
 -0.00004513,-0.00009507,0.00015858,-0.00002790,-0.00001096,-0.00009257
 ,-0.00024384,0.00000296,-0.00052392,0.00031889,-0.00035878,-0.00033093
 ,-0.00001185,0.00018892,-0.00059371,0.00093413,0.00134328,0.00115682,-
 0.00173063,0.00716991,0.00268980,-0.00083736,-0.00070200,-0.00065588,-
 0.00099549,0.00566037,0.00018588,-0.00170136,0.00847706,-0.00017072,-0
 .02077331,-0.05914044,0.06736867,-0.00417440,-0.00374372,0.00440620,-0
 .00032283,-0.00002871,-0.00010997,-0.00004322,0.00000027,-0.00001872,0
 .00006383,0.00002023,-0.00005968,0.00011370,-0.00000722,0.00000991,-0.
 00000129,-0.00000462,0.00000293,0.00001766,-0.00000735,-0.00000304,-0.
 00002102,-0.00000639,0.00000314,0.00000012,-0.00000482,-0.00000483,0.0
 0000013,-0.00000003,0.00001939,-0.00002791,-0.00000353,0.00006893,-0.0
 0001288,0.00014046,0.00001096,0.00020175,-0.00071922,-0.00017141,0.000
 17978,-0.00086291,-0.00026054,0.00080280,-0.00290930,-0.00071522,0.028
 84228,0.04615706,-0.00005531,-0.00004927,-0.00002578,0.00007120,0.0000
 9577,0.00014511,-0.00001794,-0.00003510,-0.00006184,-0.00020021,0.0000
 1633,-0.00025441,0.00006332,0.00003439,0.00002948,-0.00008924,-0.00014
 344,0.00006173,-0.00005409,0.00049983,-0.00013041,-0.00160522,0.000632
 00,0.00378829,-0.00113196,-0.00033681,-0.00020922,-0.00316420,0.000875
 79,-0.00197127,0.00778748,0.00597107,-0.01321027,0.07371954,0.06760032
 ,-0.30938523,0.00218482,-0.00080937,0.00414942,0.00040554,-0.00016922,
 0.00017786,-0.00001283,0.00000288,0.00000733,0.00000003,0.00000003,-0.
 00000517,0.00000160,0.00000434,-0.00002715,0.00000252,-0.00000759,-0.0
 0002666,0.00001204,0.00001397,0.00000674,-0.00001596,0.00000797,0.0000
 0823,-0.00000298,0.00000173,0.00000677,-0.00001949,-0.00003747,0.00004
 793,-0.00000987,0.00000300,-0.00001693,0.00000321,-0.00000666,-0.00001
 199,0.00006462,-0.00017440,-0.00006071,0.00058930,0.00007358,-0.000550
 96,0.00033027,-0.00074516,0.00064629,-0.07902179,-0.07312184,0.3162481
 9,-0.00702931,0.00288143,0.00479788,-0.00037518,0.00025017,0.00525150,
 -0.00018948,-0.00013956,-0.00091454,-0.00886556,-0.00243015,0.00272676
 ,-0.00173299,0.00123168,0.00097616,-0.00036098,0.00252118,-0.00626755,
 0.01233249,-0.00011293,0.01021645,0.00205857,0.00121615,-0.00799768,0.
 00080162,-0.00075949,0.00272713,-0.00000976,0.00004742,-0.00009260,0.0
 0011735,-0.00128334,0.00350088,-0.01162256,-0.00175523,-0.00558918,-0.
 03797176,-0.00263870,-0.02629389,-0.03886102,-0.00877255,0.03767281,-0
 .00293089,-0.00010151,-0.00095384,0.00335013,0.00126111,-0.00179343,-0
 .00307621,-0.01161003,-0.00994064,0.00004206,-0.00012633,-0.00098356,0
 .00038044,0.00021763,-0.00020993,-0.00011642,-0.00009031,0.00003535,-0
 .00007754,0.00004302,0.00016201,-0.00061060,-0.00068429,0.00121965,-0.
 00001707,0.00004799,-0.00044191,0.00024713,-0.00047730,0.00002778,0.00
 048298,-0.00004687,0.00025436,-0.00022986,0.00005471,-0.00004106,0.000
 00997,0.00003998,0.00007163,-0.00114720,-0.00023303,0.00016559,0.09540
 166,-0.01617698,-0.00280412,0.00437221,0.00013073,0.00073197,0.0024042
 8,-0.00021379,-0.00041541,-0.00178160,-0.00053855,-0.00004723,0.004650
 61,-0.00151708,0.00007510,0.00075470,-0.00072953,0.00108104,0.00050046
 ,0.00009050,-0.00011524,0.00611024,0.00148576,0.00102810,0.00051835,-0
 .00028780,0.00115950,0.00132025,-0.00010037,-0.00025740,0.00022691,-0.
 00052034,0.00181832,0.00079294,-0.00199944,0.00016068,-0.00166834,-0.0
 0569010,-0.01203432,-0.00611038,-0.00613496,-0.00718742,0.00009441,0.0
 0374734,0.00076105,0.00008318,0.00365023,-0.00061332,0.00002545,0.0033
 3511,-0.00571808,-0.00993003,-0.00027728,-0.00073264,-0.00002745,0.000
 46855,0.00032458,-0.00007297,-0.00018835,-0.00012544,0.00006309,0.0000
 2791,0.00003751,0.00017561,0.00017481,0.00003849,0.00001681,0.00000165
 ,-0.00005794,0.00032446,0.00015112,-0.00031058,0.00005673,0.00012870,0
 .00029491,0.00012508,0.00000310,-0.00032080,-0.00005244,-0.00004339,0.
 00017334,0.00008385,-0.00042671,-0.00068829,-0.00019668,0.02144916,0.0
 2374362,-0.00811348,-0.00066494,-0.00446075,0.00069693,-0.00261184,-0.
 00079626,0.00051138,0.00104577,-0.00164792,0.01455951,0.00473501,0.009
 33228,0.00132688,-0.00293367,-0.00159275,-0.00718949,-0.00093625,0.002
 66123,0.01523287,0.00058683,-0.02218964,-0.00964671,0.00233243,-0.0193
 0028,0.00437477,0.00179504,0.00188173,-0.00160302,-0.00037458,0.000835
 10,0.00266233,-0.00034082,0.00134910,-0.00712825,-0.00425286,0.0044423
 8,-0.01960395,-0.00088869,-0.04229139,0.02403133,0.01118266,-0.0727853
 7,0.00015853,0.00009559,0.00012537,0.00006677,0.00058905,0.00051669,-0
 .00142950,-0.00805631,-0.00697784,-0.00008297,0.00065556,0.00020843,0.
 00045646,-0.00001726,-0.00002975,-0.00012323,-0.00047261,-0.00018063,-
 0.00008385,-0.00010938,0.00004984,-0.00060352,0.00056847,-0.00132274,-
 0.00009607,-0.00009418,0.00135751,-0.00049283,0.00043268,0.00000166,0.
 00015587,-0.00039223,-0.00005134,-0.00007324,-0.00012426,-0.00015293,0
 .00002849,0.00048379,0.00057356,0.00029406,0.00062674,0.00062463,-0.00
 828610,-0.00285974,0.14982005\\0.00001084,-0.00001118,0.00000033,0.000
 00682,0.00000019,-0.00001869,0.00000305,0.00000782,0.00000816,-0.00000
 164,-0.00000381,0.00002513,0.00002430,0.00000920,-0.00001456,-0.000040
 37,-0.00001267,-0.00001325,0.00003015,0.00001023,0.00002401,-0.0000172
 5,-0.00000009,0.00000188,0.00000121,0.00000262,-0.00000348,0.00000843,
 0.00000050,0.00000060,0.00000738,0.00000103,0.00000950,-0.00001301,0.0
 0000539,-0.00001534,0.00000186,-0.00001365,-0.00001014,-0.00000618,0.0
 0001232,-0.00000061,0.00000431,0.00000194,0.00000252,-0.00000352,-0.00
 000760,0.00000654,-0.00001413,0.00000544,0.00000337,0.00000257,-0.0000
 0210,-0.00000125,-0.00000251,-0.00000258,-0.00000013,-0.00000340,-0.00
 000148,-0.00000113,-0.00000113,0.00000180,-0.00000254,-0.00000104,0.00
 000337,-0.00000428,-0.00000354,-0.00000413,-0.00000191,-0.00000503,-0.
 00000234,0.00000409,0.00000393,0.00000147,-0.00000017,-0.00000449,0.00
 000077,-0.00000070,-0.00000263,-0.00000248,0.00000004,0.00000424,-0.00
 000404,0.00000425,0.00001080,0.00000407,-0.00000224\\\@
 The archive entry for this job was punched.


 CURIOUSER AND CURIOUSER

                  -- ALICE, IN WONDERLAND
 Job cpu time:       0 days  1 hours  2 minutes 45.9 seconds.
 Elapsed time:       0 days  0 hours  1 minutes 58.9 seconds.
 File lengths (MBytes):  RWF=    495 Int=      0 D2E=      0 Chk=      9 Scr=      2
 Normal termination of Gaussian 16 at Fri Mar  8 01:37:16 2024.
