 Entering Gaussian System, Link 0=g16
 Initial command:
 /public/software/apps/Gaussian/g16/l1.exe "/public/home/LJQ_HG/tmp/Gau-87054.inp" -scrdir="/public/home/LJQ_HG/tmp/"
 Entering Link 1 = /public/software/apps/Gaussian/g16/l1.exe PID=     87055.
  
 Copyright (c) 1988-2019, Gaussian, Inc.  All Rights Reserved.
  
 This is part of the Gaussian(R) 16 program.  It is based on
 the Gaussian(R) 09 system (copyright 2009, Gaussian, Inc.),
 the Gaussian(R) 03 system (copyright 2003, Gaussian, Inc.),
 the Gaussian(R) 98 system (copyright 1998, Gaussian, Inc.),
 the Gaussian(R) 94 system (copyright 1995, Gaussian, Inc.),
 the Gaussian 92(TM) system (copyright 1992, Gaussian, Inc.),
 the Gaussian 90(TM) system (copyright 1990, Gaussian, Inc.),
 the Gaussian 88(TM) system (copyright 1988, Gaussian, Inc.),
 the Gaussian 86(TM) system (copyright 1986, Carnegie Mellon
 University), and the Gaussian 82(TM) system (copyright 1983,
 Carnegie Mellon University). Gaussian is a federally registered
 trademark of Gaussian, Inc.
  
 This software contains proprietary and confidential information,
 including trade secrets, belonging to Gaussian, Inc.
  
 This software is provided under written license and may be
 used, copied, transmitted, or stored only in accord with that
 written license.
  
 The following legend is applicable only to US Government
 contracts under FAR:
  
                    RESTRICTED RIGHTS LEGEND
  
 Use, reproduction and disclosure by the US Government is
 subject to restrictions as set forth in subparagraphs (a)
 and (c) of the Commercial Computer Software - Restricted
 Rights clause in FAR 52.227-19.
  
 Gaussian, Inc.
 340 Quinnipiac St., Bldg. 40, Wallingford CT 06492
  
  
 ---------------------------------------------------------------
 Warning -- This program may not be used in any manner that
 competes with the business of Gaussian, Inc. or will provide
 assistance to any competitor of Gaussian, Inc.  The licensee
 of this program is prohibited from giving any competitor of
 Gaussian, Inc. access to this program.  By using this program,
 the user acknowledges that Gaussian, Inc. is engaged in the
 business of creating and licensing software in the field of
 computational chemistry and represents and warrants to the
 licensee that it is not a competitor of Gaussian, Inc. and that
 it will not use this program in any manner prohibited above.
 ---------------------------------------------------------------
  

 Cite this work as:
 Gaussian 16, Revision C.01,
 M. J. Frisch, G. W. Trucks, H. B. Schlegel, G. E. Scuseria, 
 M. A. Robb, J. R. Cheeseman, G. Scalmani, V. Barone, 
 G. A. Petersson, H. Nakatsuji, X. Li, M. Caricato, A. V. Marenich, 
 J. Bloino, B. G. Janesko, R. Gomperts, B. Mennucci, H. P. Hratchian, 
 J. V. Ortiz, A. F. Izmaylov, J. L. Sonnenberg, D. Williams-Young, 
 F. Ding, F. Lipparini, F. Egidi, J. Goings, B. Peng, A. Petrone, 
 T. Henderson, D. Ranasinghe, V. G. Zakrzewski, J. Gao, N. Rega, 
 G. Zheng, W. Liang, M. Hada, M. Ehara, K. Toyota, R. Fukuda, 
 J. Hasegawa, M. Ishida, T. Nakajima, Y. Honda, O. Kitao, H. Nakai, 
 T. Vreven, K. Throssell, J. A. Montgomery, Jr., J. E. Peralta, 
 F. Ogliaro, M. J. Bearpark, J. J. Heyd, E. N. Brothers, K. N. Kudin, 
 V. N. Staroverov, T. A. Keith, R. Kobayashi, J. Normand, 
 K. Raghavachari, A. P. Rendell, J. C. Burant, S. S. Iyengar, 
 J. Tomasi, M. Cossi, J. M. Millam, M. Klene, C. Adamo, R. Cammi, 
 J. W. Ochterski, R. L. Martin, K. Morokuma, O. Farkas, 
 J. B. Foresman, and D. J. Fox, Gaussian, Inc., Wallingford CT, 2019.
 
 ******************************************
 Gaussian 16:  ES64L-G16RevC.01  3-Jul-2019
                 8-Mar-2024 
 ******************************************
 %nprocshared=32
 Will use up to   32 processors via shared memory.
 %mem=100GB
 ------------------------------------------
 #p opt freq b3lyp/def2svpp em=gd3bj nosymm
 ------------------------------------------
 1/18=20,19=15,26=3,38=1/1,3;
 2/9=110,12=2,15=1,17=6,18=5,40=1/2;
 3/5=43,7=202,11=2,25=1,30=1,71=1,74=-5,124=41/1,2,3;
 4//1;
 5/5=2,38=5/2;
 6/7=2,8=2,9=2,10=2,28=1/1;
 7/30=1/1,2,3,16;
 1/18=20,19=15,26=3/3(2);
 2/9=110,15=1/2;
 99//99;
 2/9=110,15=1/2;
 3/5=43,7=202,11=2,25=1,30=1,71=1,74=-5,124=41/1,2,3;
 4/5=5,16=3,69=1/1;
 5/5=2,38=5/2;
 7/30=1/1,2,3,16;
 1/18=20,19=15,26=3/3(-5);
 2/9=110,15=1/2;
 6/7=2,8=2,9=2,10=2,19=2,28=1/1;
 99/9=1/99;
 Leave Link    1 at Fri Mar  8 00:48:25 2024, MaxMem= 13421772800 cpu:               2.1 elap:               0.1
 (Enter /public/software/apps/Gaussian/g16/l101.exe)
 ------------------
 $$$$Title####2????
 ------------------
 Symbolic Z-matrix:
 Charge =  2 Multiplicity = 2
 C                    -0.43958   3.59696  -3.86134 
 C                    -0.32337   2.94117  -2.47358 
 C                     1.09611   2.3882   -2.2896 
 C                    -1.38578   1.82696  -2.30088 
 C                    -2.84094   2.36629  -2.26034 
 O                    -3.35471   1.85776  -1.04129 
 C                    -2.35671   1.16713  -0.39299 
 C                    -2.48172   0.51448   0.8948 
 C                    -3.3514    0.8973    1.92146 
 C                    -3.05896   0.46807   3.23483 
 C                    -1.87738  -0.25671   3.49871 
 C                    -1.06105  -0.60667   2.4162 
 C                     0.33858  -0.99007   2.50867 
 N                     1.12949  -0.83165   1.49215 
 C                     2.47228  -1.26058   1.88618 
 C                     3.01401  -2.34319   0.9167 
 C                     4.4485   -2.75988   1.279 
 C                     2.10458  -3.57807   0.80939 
 C                     2.3216   -1.7094    3.3642 
 O                     0.95011  -1.4819    3.64273 
 N                    -1.44239  -0.27018   1.17923 
 N                    -1.22159   1.13548  -1.0195 
 H                    -1.43921   4.05832  -4.0008 
 H                    -0.28043   2.8449   -4.66462 
 H                     0.32052   4.40135  -3.97052 
 H                    -0.48919   3.72402  -1.70099 
 H                     1.22741   1.9828   -1.26407 
 H                     1.30013   1.5821   -3.02536 
 H                     1.84507   3.19648  -2.42731 
 H                    -1.29108   1.08091  -3.12202 
 H                    -3.43719   1.97795  -3.11507 
 H                    -2.88783   3.47679  -2.23651 
 H                    -4.18271   1.56426   1.73113 
 H                    -3.69715   0.77057   4.05408 
 H                    -1.58234  -0.47645   4.51856 
 H                     3.14485  -0.37424   1.84714 
 H                     3.0591   -1.88004  -0.09313 
 H                     4.86316  -3.42726   0.49253 
 H                     4.47696  -3.30127   2.24714 
 H                     5.10215  -1.86475   1.34886 
 H                     2.0484   -4.12939   1.76864 
 H                     2.49827  -4.27083   0.03615 
 H                     1.07866  -3.2808    0.50613 
 H                     2.94768  -1.07912   4.03268 
 H                     2.56131  -2.77932   3.53516 
 Cu                    0.12724   0.27587   0.17458 
 
 ITRead=  0  0  0  0  0  0  0  0  0  0  0  0  0  0  0  0  0  0  0  0
 ITRead=  0  0  0  0  0  0  0  0  0  0  0  0  0  0  0  0  0  0  0  0
 ITRead=  0  0  0  0  0  0
 MicOpt= -1 -1 -1 -1 -1 -1 -1 -1 -1 -1 -1 -1 -1 -1 -1 -1 -1 -1 -1 -1
 MicOpt= -1 -1 -1 -1 -1 -1 -1 -1 -1 -1 -1 -1 -1 -1 -1 -1 -1 -1 -1 -1
 MicOpt= -1 -1 -1 -1 -1 -1
 NAtoms=     46 NQM=       46 NQMF=       0 NMMI=      0 NMMIF=      0
                NMic=       0 NMicF=      0.
                    Isotopes and Nuclear Properties:
 (Nuclear quadrupole moments (NQMom) in fm**2, nuclear magnetic moments (NMagM)
  in nuclear magnetons)

  Atom         1           2           3           4           5           6           7           8           9          10
 IAtWgt=          12          12          12          12          12          16          12          12          12          12
 AtmWgt=  12.0000000  12.0000000  12.0000000  12.0000000  12.0000000  15.9949146  12.0000000  12.0000000  12.0000000  12.0000000
 NucSpn=           0           0           0           0           0           0           0           0           0           0
 AtZEff=  -0.0000000  -0.0000000  -0.0000000  -0.0000000  -0.0000000  -0.0000000  -0.0000000  -0.0000000  -0.0000000  -0.0000000
 NQMom=    0.0000000   0.0000000   0.0000000   0.0000000   0.0000000   0.0000000   0.0000000   0.0000000   0.0000000   0.0000000
 NMagM=    0.0000000   0.0000000   0.0000000   0.0000000   0.0000000   0.0000000   0.0000000   0.0000000   0.0000000   0.0000000
 AtZNuc=   6.0000000   6.0000000   6.0000000   6.0000000   6.0000000   8.0000000   6.0000000   6.0000000   6.0000000   6.0000000

  Atom        11          12          13          14          15          16          17          18          19          20
 IAtWgt=          12          12          12          14          12          12          12          12          12          16
 AtmWgt=  12.0000000  12.0000000  12.0000000  14.0030740  12.0000000  12.0000000  12.0000000  12.0000000  12.0000000  15.9949146
 NucSpn=           0           0           0           2           0           0           0           0           0           0
 AtZEff=  -0.0000000  -0.0000000  -0.0000000  -0.0000000  -0.0000000  -0.0000000  -0.0000000  -0.0000000  -0.0000000  -0.0000000
 NQMom=    0.0000000   0.0000000   0.0000000   2.0440000   0.0000000   0.0000000   0.0000000   0.0000000   0.0000000   0.0000000
 NMagM=    0.0000000   0.0000000   0.0000000   0.4037610   0.0000000   0.0000000   0.0000000   0.0000000   0.0000000   0.0000000
 AtZNuc=   6.0000000   6.0000000   6.0000000   7.0000000   6.0000000   6.0000000   6.0000000   6.0000000   6.0000000   8.0000000

  Atom        21          22          23          24          25          26          27          28          29          30
 IAtWgt=          14          14           1           1           1           1           1           1           1           1
 AtmWgt=  14.0030740  14.0030740   1.0078250   1.0078250   1.0078250   1.0078250   1.0078250   1.0078250   1.0078250   1.0078250
 NucSpn=           2           2           1           1           1           1           1           1           1           1
 AtZEff=  -0.0000000  -0.0000000  -0.0000000  -0.0000000  -0.0000000  -0.0000000  -0.0000000  -0.0000000  -0.0000000  -0.0000000
 NQMom=    2.0440000   2.0440000   0.0000000   0.0000000   0.0000000   0.0000000   0.0000000   0.0000000   0.0000000   0.0000000
 NMagM=    0.4037610   0.4037610   2.7928460   2.7928460   2.7928460   2.7928460   2.7928460   2.7928460   2.7928460   2.7928460
 AtZNuc=   7.0000000   7.0000000   1.0000000   1.0000000   1.0000000   1.0000000   1.0000000   1.0000000   1.0000000   1.0000000

  Atom        31          32          33          34          35          36          37          38          39          40
 IAtWgt=           1           1           1           1           1           1           1           1           1           1
 AtmWgt=   1.0078250   1.0078250   1.0078250   1.0078250   1.0078250   1.0078250   1.0078250   1.0078250   1.0078250   1.0078250
 NucSpn=           1           1           1           1           1           1           1           1           1           1
 AtZEff=  -0.0000000  -0.0000000  -0.0000000  -0.0000000  -0.0000000  -0.0000000  -0.0000000  -0.0000000  -0.0000000  -0.0000000
 NQMom=    0.0000000   0.0000000   0.0000000   0.0000000   0.0000000   0.0000000   0.0000000   0.0000000   0.0000000   0.0000000
 NMagM=    2.7928460   2.7928460   2.7928460   2.7928460   2.7928460   2.7928460   2.7928460   2.7928460   2.7928460   2.7928460
 AtZNuc=   1.0000000   1.0000000   1.0000000   1.0000000   1.0000000   1.0000000   1.0000000   1.0000000   1.0000000   1.0000000

  Atom        41          42          43          44          45          46
 IAtWgt=           1           1           1           1           1          63
 AtmWgt=   1.0078250   1.0078250   1.0078250   1.0078250   1.0078250  62.9295992
 NucSpn=           1           1           1           1           1           3
 AtZEff=  -0.0000000  -0.0000000  -0.0000000  -0.0000000  -0.0000000  -0.0000000
 NQMom=    0.0000000   0.0000000   0.0000000   0.0000000   0.0000000 -22.0000000
 NMagM=    2.7928460   2.7928460   2.7928460   2.7928460   2.7928460   2.2233000
 AtZNuc=   1.0000000   1.0000000   1.0000000   1.0000000   1.0000000  29.0000000
 Leave Link  101 at Fri Mar  8 00:48:25 2024, MaxMem= 13421772800 cpu:               3.8 elap:               0.1
 (Enter /public/software/apps/Gaussian/g16/l103.exe)

 GradGradGradGradGradGradGradGradGradGradGradGradGradGradGradGradGradGrad
 Berny optimization.
 Initialization pass.
                           ----------------------------
                           !    Initial Parameters    !
                           ! (Angstroms and Degrees)  !
 --------------------------                            --------------------------
 ! Name  Definition              Value          Derivative Info.                !
 --------------------------------------------------------------------------------
 ! R1    R(1,2)                  1.5393         estimate D2E/DX2                !
 ! R2    R(1,23)                 1.1098         estimate D2E/DX2                !
 ! R3    R(1,24)                 1.1118         estimate D2E/DX2                !
 ! R4    R(1,25)                 1.1121         estimate D2E/DX2                !
 ! R5    R(2,3)                  1.5344         estimate D2E/DX2                !
 ! R6    R(2,4)                  1.5492         estimate D2E/DX2                !
 ! R7    R(2,26)                 1.1123         estimate D2E/DX2                !
 ! R8    R(3,27)                 1.1105         estimate D2E/DX2                !
 ! R9    R(3,28)                 1.1103         estimate D2E/DX2                !
 ! R10   R(3,29)                 1.1105         estimate D2E/DX2                !
 ! R11   R(4,5)                  1.5524         estimate D2E/DX2                !
 ! R12   R(4,22)                 1.4653         estimate D2E/DX2                !
 ! R13   R(4,30)                 1.1135         estimate D2E/DX2                !
 ! R14   R(5,6)                  1.4173         estimate D2E/DX2                !
 ! R15   R(5,31)                 1.1122         estimate D2E/DX2                !
 ! R16   R(5,32)                 1.1117         estimate D2E/DX2                !
 ! R17   R(6,7)                  1.376          estimate D2E/DX2                !
 ! R18   R(7,8)                  1.4491         estimate D2E/DX2                !
 ! R19   R(7,22)                 1.2969         estimate D2E/DX2                !
 ! R20   R(8,9)                  1.3989         estimate D2E/DX2                !
 ! R21   R(8,21)                 1.333          estimate D2E/DX2                !
 ! R22   R(9,10)                 1.4123         estimate D2E/DX2                !
 ! R23   R(9,33)                 1.0827         estimate D2E/DX2                !
 ! R24   R(10,11)                1.411          estimate D2E/DX2                !
 ! R25   R(10,34)                1.0816         estimate D2E/DX2                !
 ! R26   R(11,12)                1.4003         estimate D2E/DX2                !
 ! R27   R(11,35)                1.0842         estimate D2E/DX2                !
 ! R28   R(12,13)                1.4541         estimate D2E/DX2                !
 ! R29   R(12,21)                1.3374         estimate D2E/DX2                !
 ! R30   R(13,14)                1.2977         estimate D2E/DX2                !
 ! R31   R(13,20)                1.3791         estimate D2E/DX2                !
 ! R32   R(14,15)                1.4637         estimate D2E/DX2                !
 ! R33   R(14,46)                1.9918         estimate D2E/DX2                !
 ! R34   R(15,16)                1.5509         estimate D2E/DX2                !
 ! R35   R(15,19)                1.552          estimate D2E/DX2                !
 ! R36   R(15,36)                1.1133         estimate D2E/DX2                !
 ! R37   R(16,17)                1.5371         estimate D2E/DX2                !
 ! R38   R(16,18)                1.5374         estimate D2E/DX2                !
 ! R39   R(16,37)                1.1119         estimate D2E/DX2                !
 ! R40   R(17,38)                1.1117         estimate D2E/DX2                !
 ! R41   R(17,39)                1.1096         estimate D2E/DX2                !
 ! R42   R(17,40)                1.1106         estimate D2E/DX2                !
 ! R43   R(18,41)                1.1078         estimate D2E/DX2                !
 ! R44   R(18,42)                1.1103         estimate D2E/DX2                !
 ! R45   R(18,43)                1.1103         estimate D2E/DX2                !
 ! R46   R(19,20)                1.4179         estimate D2E/DX2                !
 ! R47   R(19,44)                1.1118         estimate D2E/DX2                !
 ! R48   R(19,45)                1.1097         estimate D2E/DX2                !
 ! R49   R(21,46)                1.942          estimate D2E/DX2                !
 ! R50   R(22,46)                1.996          estimate D2E/DX2                !
 ! A1    A(2,1,23)             111.0026         estimate D2E/DX2                !
 ! A2    A(2,1,24)             110.6322         estimate D2E/DX2                !
 ! A3    A(2,1,25)             110.1857         estimate D2E/DX2                !
 ! A4    A(23,1,24)            108.6241         estimate D2E/DX2                !
 ! A5    A(23,1,25)            107.6155         estimate D2E/DX2                !
 ! A6    A(24,1,25)            108.6932         estimate D2E/DX2                !
 ! A7    A(1,2,3)              109.3576         estimate D2E/DX2                !
 ! A8    A(1,2,4)              110.802          estimate D2E/DX2                !
 ! A9    A(1,2,26)             108.3666         estimate D2E/DX2                !
 ! A10   A(3,2,4)              111.2139         estimate D2E/DX2                !
 ! A11   A(3,2,26)             107.9543         estimate D2E/DX2                !
 ! A12   A(4,2,26)             109.0579         estimate D2E/DX2                !
 ! A13   A(2,3,27)             110.588          estimate D2E/DX2                !
 ! A14   A(2,3,28)             110.62           estimate D2E/DX2                !
 ! A15   A(2,3,29)             110.2879         estimate D2E/DX2                !
 ! A16   A(27,3,28)            108.9766         estimate D2E/DX2                !
 ! A17   A(27,3,29)            107.4858         estimate D2E/DX2                !
 ! A18   A(28,3,29)            108.8041         estimate D2E/DX2                !
 ! A19   A(2,4,5)              113.3196         estimate D2E/DX2                !
 ! A20   A(2,4,22)             111.1029         estimate D2E/DX2                !
 ! A21   A(2,4,30)             109.9595         estimate D2E/DX2                !
 ! A22   A(5,4,22)             104.2493         estimate D2E/DX2                !
 ! A23   A(5,4,30)             109.3757         estimate D2E/DX2                !
 ! A24   A(22,4,30)            108.6136         estimate D2E/DX2                !
 ! A25   A(4,5,6)              103.7452         estimate D2E/DX2                !
 ! A26   A(4,5,31)             111.1709         estimate D2E/DX2                !
 ! A27   A(4,5,32)             112.7755         estimate D2E/DX2                !
 ! A28   A(6,5,31)             109.9626         estimate D2E/DX2                !
 ! A29   A(6,5,32)             108.9469         estimate D2E/DX2                !
 ! A30   A(31,5,32)            110.0381         estimate D2E/DX2                !
 ! A31   A(5,6,7)              108.81           estimate D2E/DX2                !
 ! A32   A(6,7,8)              125.6048         estimate D2E/DX2                !
 ! A33   A(6,7,22)             114.8009         estimate D2E/DX2                !
 ! A34   A(8,7,22)             119.5905         estimate D2E/DX2                !
 ! A35   A(7,8,9)              125.6317         estimate D2E/DX2                !
 ! A36   A(7,8,21)             112.7978         estimate D2E/DX2                !
 ! A37   A(9,8,21)             119.2897         estimate D2E/DX2                !
 ! A38   A(8,9,10)             118.0721         estimate D2E/DX2                !
 ! A39   A(8,9,33)             121.1263         estimate D2E/DX2                !
 ! A40   A(10,9,33)            120.6434         estimate D2E/DX2                !
 ! A41   A(9,10,11)            120.2249         estimate D2E/DX2                !
 ! A42   A(9,10,34)            119.8127         estimate D2E/DX2                !
 ! A43   A(11,10,34)           119.7407         estimate D2E/DX2                !
 ! A44   A(10,11,12)           118.1632         estimate D2E/DX2                !
 ! A45   A(10,11,35)           120.5243         estimate D2E/DX2                !
 ! A46   A(12,11,35)           121.1917         estimate D2E/DX2                !
 ! A47   A(11,12,13)           125.3012         estimate D2E/DX2                !
 ! A48   A(11,12,21)           119.0714         estimate D2E/DX2                !
 ! A49   A(13,12,21)           113.5525         estimate D2E/DX2                !
 ! A50   A(12,13,14)           120.3072         estimate D2E/DX2                !
 ! A51   A(12,13,20)           124.968          estimate D2E/DX2                !
 ! A52   A(14,13,20)           114.6726         estimate D2E/DX2                !
 ! A53   A(13,14,15)           108.2093         estimate D2E/DX2                !
 ! A54   A(13,14,46)           106.2235         estimate D2E/DX2                !
 ! A55   A(15,14,46)           143.3865         estimate D2E/DX2                !
 ! A56   A(14,15,16)           110.8992         estimate D2E/DX2                !
 ! A57   A(14,15,19)           104.5988         estimate D2E/DX2                !
 ! A58   A(14,15,36)           108.148          estimate D2E/DX2                !
 ! A59   A(16,15,19)           115.2997         estimate D2E/DX2                !
 ! A60   A(16,15,36)           108.8319         estimate D2E/DX2                !
 ! A61   A(19,15,36)           108.8007         estimate D2E/DX2                !
 ! A62   A(15,16,17)           111.5843         estimate D2E/DX2                !
 ! A63   A(15,16,18)           113.4341         estimate D2E/DX2                !
 ! A64   A(15,16,37)           106.9251         estimate D2E/DX2                !
 ! A65   A(17,16,18)           110.5339         estimate D2E/DX2                !
 ! A66   A(17,16,37)           106.8071         estimate D2E/DX2                !
 ! A67   A(18,16,37)           107.1685         estimate D2E/DX2                !
 ! A68   A(16,17,38)           110.1266         estimate D2E/DX2                !
 ! A69   A(16,17,39)           111.2148         estimate D2E/DX2                !
 ! A70   A(16,17,40)           110.2189         estimate D2E/DX2                !
 ! A71   A(38,17,39)           108.3477         estimate D2E/DX2                !
 ! A72   A(38,17,40)           107.9888         estimate D2E/DX2                !
 ! A73   A(39,17,40)           108.8608         estimate D2E/DX2                !
 ! A74   A(16,18,41)           111.6731         estimate D2E/DX2                !
 ! A75   A(16,18,42)           109.8785         estimate D2E/DX2                !
 ! A76   A(16,18,43)           110.5234         estimate D2E/DX2                !
 ! A77   A(41,18,42)           108.0887         estimate D2E/DX2                !
 ! A78   A(41,18,43)           108.8365         estimate D2E/DX2                !
 ! A79   A(42,18,43)           107.7252         estimate D2E/DX2                !
 ! A80   A(15,19,20)           103.5681         estimate D2E/DX2                !
 ! A81   A(15,19,44)           110.7314         estimate D2E/DX2                !
 ! A82   A(15,19,45)           113.8638         estimate D2E/DX2                !
 ! A83   A(20,19,44)           109.611          estimate D2E/DX2                !
 ! A84   A(20,19,45)           109.4747         estimate D2E/DX2                !
 ! A85   A(44,19,45)           109.4089         estimate D2E/DX2                !
 ! A86   A(13,20,19)           108.9412         estimate D2E/DX2                !
 ! A87   A(8,21,12)            124.5951         estimate D2E/DX2                !
 ! A88   A(8,21,46)            110.751          estimate D2E/DX2                !
 ! A89   A(12,21,46)           108.588          estimate D2E/DX2                !
 ! A90   A(4,22,7)             108.2313         estimate D2E/DX2                !
 ! A91   A(4,22,46)            143.3314         estimate D2E/DX2                !
 ! A92   A(7,22,46)            108.2388         estimate D2E/DX2                !
 ! A93   A(14,46,21)            84.7294         estimate D2E/DX2                !
 ! A94   A(21,46,22)            83.3609         estimate D2E/DX2                !
 ! A95   L(14,46,22,21,-1)     168.0903         estimate D2E/DX2                !
 ! A96   L(14,46,22,21,-2)     184.6292         estimate D2E/DX2                !
 ! D1    D(23,1,2,3)          -176.7318         estimate D2E/DX2                !
 ! D2    D(23,1,2,4)            60.3291         estimate D2E/DX2                !
 ! D3    D(23,1,2,26)          -59.2861         estimate D2E/DX2                !
 ! D4    D(24,1,2,3)            62.599          estimate D2E/DX2                !
 ! D5    D(24,1,2,4)           -60.34           estimate D2E/DX2                !
 ! D6    D(24,1,2,26)         -179.9553         estimate D2E/DX2                !
 ! D7    D(25,1,2,3)           -57.6196         estimate D2E/DX2                !
 ! D8    D(25,1,2,4)           179.4414         estimate D2E/DX2                !
 ! D9    D(25,1,2,26)           59.8262         estimate D2E/DX2                !
 ! D10   D(1,2,3,27)           175.4511         estimate D2E/DX2                !
 ! D11   D(1,2,3,28)           -63.7194         estimate D2E/DX2                !
 ! D12   D(1,2,3,29)            56.6965         estimate D2E/DX2                !
 ! D13   D(4,2,3,27)           -61.8552         estimate D2E/DX2                !
 ! D14   D(4,2,3,28)            58.9743         estimate D2E/DX2                !
 ! D15   D(4,2,3,29)           179.3902         estimate D2E/DX2                !
 ! D16   D(26,2,3,27)           57.7464         estimate D2E/DX2                !
 ! D17   D(26,2,3,28)          178.5759         estimate D2E/DX2                !
 ! D18   D(26,2,3,29)          -61.0083         estimate D2E/DX2                !
 ! D19   D(1,2,4,5)            -66.9714         estimate D2E/DX2                !
 ! D20   D(1,2,4,22)           176.0493         estimate D2E/DX2                !
 ! D21   D(1,2,4,30)            55.7743         estimate D2E/DX2                !
 ! D22   D(3,2,4,5)            171.1708         estimate D2E/DX2                !
 ! D23   D(3,2,4,22)            54.1915         estimate D2E/DX2                !
 ! D24   D(3,2,4,30)           -66.0834         estimate D2E/DX2                !
 ! D25   D(26,2,4,5)            52.2283         estimate D2E/DX2                !
 ! D26   D(26,2,4,22)          -64.751          estimate D2E/DX2                !
 ! D27   D(26,2,4,30)          174.9741         estimate D2E/DX2                !
 ! D28   D(2,4,5,6)           -124.754          estimate D2E/DX2                !
 ! D29   D(2,4,5,31)           117.1049         estimate D2E/DX2                !
 ! D30   D(2,4,5,32)            -7.0287         estimate D2E/DX2                !
 ! D31   D(22,4,5,6)            -3.8239         estimate D2E/DX2                !
 ! D32   D(22,4,5,31)         -121.965          estimate D2E/DX2                !
 ! D33   D(22,4,5,32)          113.9013         estimate D2E/DX2                !
 ! D34   D(30,4,5,6)           112.1778         estimate D2E/DX2                !
 ! D35   D(30,4,5,31)           -5.9633         estimate D2E/DX2                !
 ! D36   D(30,4,5,32)         -130.0969         estimate D2E/DX2                !
 ! D37   D(2,4,22,7)           126.2439         estimate D2E/DX2                !
 ! D38   D(2,4,22,46)          -47.5846         estimate D2E/DX2                !
 ! D39   D(5,4,22,7)             3.8461         estimate D2E/DX2                !
 ! D40   D(5,4,22,46)         -169.9824         estimate D2E/DX2                !
 ! D41   D(30,4,22,7)         -112.6871         estimate D2E/DX2                !
 ! D42   D(30,4,22,46)          73.4844         estimate D2E/DX2                !
 ! D43   D(4,5,6,7)              2.5819         estimate D2E/DX2                !
 ! D44   D(31,5,6,7)           121.5561         estimate D2E/DX2                !
 ! D45   D(32,5,6,7)          -117.7717         estimate D2E/DX2                !
 ! D46   D(5,6,7,8)            179.0759         estimate D2E/DX2                !
 ! D47   D(5,6,7,22)            -0.2074         estimate D2E/DX2                !
 ! D48   D(6,7,8,9)            -28.3354         estimate D2E/DX2                !
 ! D49   D(6,7,8,21)           169.0736         estimate D2E/DX2                !
 ! D50   D(22,7,8,9)           150.9164         estimate D2E/DX2                !
 ! D51   D(22,7,8,21)          -11.6746         estimate D2E/DX2                !
 ! D52   D(6,7,22,4)            -2.473          estimate D2E/DX2                !
 ! D53   D(6,7,22,46)          173.651          estimate D2E/DX2                !
 ! D54   D(8,7,22,4)           178.1971         estimate D2E/DX2                !
 ! D55   D(8,7,22,46)           -5.6788         estimate D2E/DX2                !
 ! D56   D(7,8,9,10)          -159.3892         estimate D2E/DX2                !
 ! D57   D(7,8,9,33)            16.0676         estimate D2E/DX2                !
 ! D58   D(21,8,9,10)            2.1747         estimate D2E/DX2                !
 ! D59   D(21,8,9,33)          177.6315         estimate D2E/DX2                !
 ! D60   D(7,8,21,12)          155.5133         estimate D2E/DX2                !
 ! D61   D(7,8,21,46)           23.0265         estimate D2E/DX2                !
 ! D62   D(9,8,21,12)           -8.2968         estimate D2E/DX2                !
 ! D63   D(9,8,21,46)         -140.7836         estimate D2E/DX2                !
 ! D64   D(8,9,10,11)            3.7309         estimate D2E/DX2                !
 ! D65   D(8,9,10,34)          178.3071         estimate D2E/DX2                !
 ! D66   D(33,9,10,11)        -171.7488         estimate D2E/DX2                !
 ! D67   D(33,9,10,34)           2.8274         estimate D2E/DX2                !
 ! D68   D(9,10,11,12)          -4.0753         estimate D2E/DX2                !
 ! D69   D(9,10,11,35)         171.977          estimate D2E/DX2                !
 ! D70   D(34,10,11,12)       -178.6554         estimate D2E/DX2                !
 ! D71   D(34,10,11,35)         -2.6031         estimate D2E/DX2                !
 ! D72   D(10,11,12,13)        161.0631         estimate D2E/DX2                !
 ! D73   D(10,11,12,21)         -1.4602         estimate D2E/DX2                !
 ! D74   D(35,11,12,13)        -14.9616         estimate D2E/DX2                !
 ! D75   D(35,11,12,21)       -177.4848         estimate D2E/DX2                !
 ! D76   D(11,12,13,14)       -155.0408         estimate D2E/DX2                !
 ! D77   D(11,12,13,20)         22.1891         estimate D2E/DX2                !
 ! D78   D(21,12,13,14)          8.3204         estimate D2E/DX2                !
 ! D79   D(21,12,13,20)       -174.4497         estimate D2E/DX2                !
 ! D80   D(11,12,21,8)           7.9228         estimate D2E/DX2                !
 ! D81   D(11,12,21,46)        141.2416         estimate D2E/DX2                !
 ! D82   D(13,12,21,8)        -156.5693         estimate D2E/DX2                !
 ! D83   D(13,12,21,46)        -23.2505         estimate D2E/DX2                !
 ! D84   D(12,13,14,15)        178.2577         estimate D2E/DX2                !
 ! D85   D(12,13,14,46)         10.9            estimate D2E/DX2                !
 ! D86   D(20,13,14,15)          0.7556         estimate D2E/DX2                !
 ! D87   D(20,13,14,46)       -166.6021         estimate D2E/DX2                !
 ! D88   D(12,13,20,19)       -178.4591         estimate D2E/DX2                !
 ! D89   D(14,13,20,19)         -1.0908         estimate D2E/DX2                !
 ! D90   D(13,14,15,16)        124.7529         estimate D2E/DX2                !
 ! D91   D(13,14,15,19)         -0.1486         estimate D2E/DX2                !
 ! D92   D(13,14,15,36)       -115.987          estimate D2E/DX2                !
 ! D93   D(46,14,15,16)        -75.8785         estimate D2E/DX2                !
 ! D94   D(46,14,15,19)        159.2201         estimate D2E/DX2                !
 ! D95   D(46,14,15,36)         43.3816         estimate D2E/DX2                !
 ! D96   D(13,14,46,21)        -18.532          estimate D2E/DX2                !
 ! D97   D(15,14,46,21)       -178.1309         estimate D2E/DX2                !
 ! D98   D(14,15,16,17)        177.4561         estimate D2E/DX2                !
 ! D99   D(14,15,16,18)        -56.9105         estimate D2E/DX2                !
 ! D100  D(14,15,16,37)         61.0059         estimate D2E/DX2                !
 ! D101  D(19,15,16,17)        -63.9291         estimate D2E/DX2                !
 ! D102  D(19,15,16,18)         61.7044         estimate D2E/DX2                !
 ! D103  D(19,15,16,37)        179.6208         estimate D2E/DX2                !
 ! D104  D(36,15,16,17)         58.6077         estimate D2E/DX2                !
 ! D105  D(36,15,16,18)       -175.7589         estimate D2E/DX2                !
 ! D106  D(36,15,16,37)        -57.8425         estimate D2E/DX2                !
 ! D107  D(14,15,19,20)         -0.453          estimate D2E/DX2                !
 ! D108  D(14,15,19,44)       -117.8734         estimate D2E/DX2                !
 ! D109  D(14,15,19,45)        118.3491         estimate D2E/DX2                !
 ! D110  D(16,15,19,20)       -122.516          estimate D2E/DX2                !
 ! D111  D(16,15,19,44)        120.0636         estimate D2E/DX2                !
 ! D112  D(16,15,19,45)         -3.7139         estimate D2E/DX2                !
 ! D113  D(36,15,19,20)        114.9306         estimate D2E/DX2                !
 ! D114  D(36,15,19,44)         -2.4898         estimate D2E/DX2                !
 ! D115  D(36,15,19,45)       -126.2673         estimate D2E/DX2                !
 ! D116  D(15,16,17,38)       -172.1792         estimate D2E/DX2                !
 ! D117  D(15,16,17,39)         67.6962         estimate D2E/DX2                !
 ! D118  D(15,16,17,40)        -53.1347         estimate D2E/DX2                !
 ! D119  D(18,16,17,38)         60.6005         estimate D2E/DX2                !
 ! D120  D(18,16,17,39)        -59.524          estimate D2E/DX2                !
 ! D121  D(18,16,17,40)        179.6451         estimate D2E/DX2                !
 ! D122  D(37,16,17,38)        -55.6573         estimate D2E/DX2                !
 ! D123  D(37,16,17,39)       -175.7819         estimate D2E/DX2                !
 ! D124  D(37,16,17,40)         63.3872         estimate D2E/DX2                !
 ! D125  D(15,16,18,41)        -65.1395         estimate D2E/DX2                !
 ! D126  D(15,16,18,42)        174.9288         estimate D2E/DX2                !
 ! D127  D(15,16,18,43)         56.1757         estimate D2E/DX2                !
 ! D128  D(17,16,18,41)         61.0525         estimate D2E/DX2                !
 ! D129  D(17,16,18,42)        -58.8792         estimate D2E/DX2                !
 ! D130  D(17,16,18,43)       -177.6324         estimate D2E/DX2                !
 ! D131  D(37,16,18,41)        177.0854         estimate D2E/DX2                !
 ! D132  D(37,16,18,42)         57.1537         estimate D2E/DX2                !
 ! D133  D(37,16,18,43)        -61.5994         estimate D2E/DX2                !
 ! D134  D(15,19,20,13)          0.8764         estimate D2E/DX2                !
 ! D135  D(44,19,20,13)        119.0772         estimate D2E/DX2                !
 ! D136  D(45,19,20,13)       -120.9114         estimate D2E/DX2                !
 ! D137  D(8,21,46,14)         163.6185         estimate D2E/DX2                !
 ! D138  D(8,21,46,22)         -21.0107         estimate D2E/DX2                !
 ! D139  D(12,21,46,14)         23.444          estimate D2E/DX2                !
 ! D140  D(12,21,46,22)       -161.1852         estimate D2E/DX2                !
 ! D141  D(4,22,46,21)        -171.9046         estimate D2E/DX2                !
 ! D142  D(7,22,46,21)          14.2672         estimate D2E/DX2                !
 --------------------------------------------------------------------------------
 Trust Radius=3.00D-01 FncErr=1.00D-07 GrdErr=1.00D-06 EigMax=2.50D+02 EigMin=1.00D-04
 Number of steps in this run=    276 maximum allowed number of steps=    276.
 GradGradGradGradGradGradGradGradGradGradGradGradGradGradGradGradGradGrad

 Leave Link  103 at Fri Mar  8 00:48:25 2024, MaxMem= 13421772800 cpu:               1.0 elap:               0.0
 (Enter /public/software/apps/Gaussian/g16/l202.exe)
                          Input orientation:                          
 ---------------------------------------------------------------------
 Center     Atomic      Atomic             Coordinates (Angstroms)
 Number     Number       Type             X           Y           Z
 ---------------------------------------------------------------------
      1          6           0       -0.439582    3.596965   -3.861344
      2          6           0       -0.323370    2.941168   -2.473580
      3          6           0        1.096108    2.388203   -2.289601
      4          6           0       -1.385783    1.826957   -2.300881
      5          6           0       -2.840939    2.366293   -2.260336
      6          8           0       -3.354710    1.857760   -1.041292
      7          6           0       -2.356712    1.167131   -0.392992
      8          6           0       -2.481720    0.514478    0.894800
      9          6           0       -3.351395    0.897303    1.921460
     10          6           0       -3.058960    0.468069    3.234829
     11          6           0       -1.877382   -0.256705    3.498710
     12          6           0       -1.061047   -0.606671    2.416202
     13          6           0        0.338584   -0.990066    2.508672
     14          7           0        1.129489   -0.831650    1.492149
     15          6           0        2.472283   -1.260582    1.886180
     16          6           0        3.014014   -2.343187    0.916695
     17          6           0        4.448496   -2.759881    1.278996
     18          6           0        2.104582   -3.578067    0.809392
     19          6           0        2.321599   -1.709396    3.364196
     20          8           0        0.950112   -1.481895    3.642734
     21          7           0       -1.442387   -0.270179    1.179233
     22          7           0       -1.221593    1.135483   -1.019495
     23          1           0       -1.439210    4.058324   -4.000798
     24          1           0       -0.280428    2.844901   -4.664621
     25          1           0        0.320518    4.401351   -3.970517
     26          1           0       -0.489193    3.724020   -1.700993
     27          1           0        1.227410    1.982804   -1.264073
     28          1           0        1.300130    1.582104   -3.025356
     29          1           0        1.845066    3.196482   -2.427305
     30          1           0       -1.291079    1.080906   -3.122016
     31          1           0       -3.437192    1.977950   -3.115066
     32          1           0       -2.887828    3.476794   -2.236514
     33          1           0       -4.182713    1.564259    1.731130
     34          1           0       -3.697153    0.770574    4.054076
     35          1           0       -1.582341   -0.476454    4.518556
     36          1           0        3.144851   -0.374237    1.847141
     37          1           0        3.059100   -1.880037   -0.093132
     38          1           0        4.863156   -3.427264    0.492533
     39          1           0        4.476957   -3.301268    2.247142
     40          1           0        5.102153   -1.864752    1.348860
     41          1           0        2.048395   -4.129390    1.768642
     42          1           0        2.498272   -4.270833    0.036150
     43          1           0        1.078665   -3.280802    0.506134
     44          1           0        2.947684   -1.079117    4.032677
     45          1           0        2.561312   -2.779322    3.535155
     46         29           0        0.127241    0.275866    0.174577
 ---------------------------------------------------------------------
                    Distance matrix (angstroms):
                    1          2          3          4          5
     1  C    0.000000
     2  C    1.539306   0.000000
     3  C    2.507952   1.534450   0.000000
     4  C    2.542296   1.549197   2.544584   0.000000
     5  C    3.137562   2.591160   3.937217   1.552419   0.000000
     6  O    4.413105   3.523385   4.652894   2.337560   1.417263
     7  C    4.648542   3.407423   4.124331   2.240115   2.271440
     8  C    6.024364   4.679026   5.143161   3.624370   3.676022
     9  C    7.014817   5.715129   6.303658   4.749321   4.461605
    10  C    8.185768   6.795999   7.174317   5.940554   5.817871
    11  C    8.431396   6.950510   7.024367   6.182117   6.401185
    12  C    7.580525   6.086156   5.980566   5.317788   5.820355
    13  C    7.888187   6.380879   5.916922   5.834455   6.642134
    14  N    7.122816   5.663211   4.966911   5.270850   6.330267
    15  C    8.068999   6.669174   5.713549   6.476809   7.653636
    16  C    8.369133   7.110310   6.028661   6.863025   8.158015
    17  C    9.525014   8.327934   7.104658   8.239746   9.588555
    18  C    8.931385   7.692417   6.798320   7.146379   8.319665
    19  C    9.380299   7.918537   7.089257   7.638296   8.654386
    20  O    9.167184   7.654707   7.084601   7.192459   8.001678
    21  N    6.431783   4.990791   5.054084   4.063542   4.553852
    22  N    3.840122   2.486296   2.924759   1.465280   2.382616
    23  H    1.109755   2.196709   3.485016   2.805632   2.803038
    24  H    1.111838   2.193575   2.782830   2.800944   3.544837
    25  H    1.112074   2.188046   2.734919   3.510933   4.130495
    26  H    2.164653   1.112315   2.155005   2.182335   2.772543
    27  H    3.482843   2.187759   1.110539   2.815677   4.206075
    28  H    2.790186   2.187982   1.110295   2.792659   4.283534
    29  H    2.726989   2.183905   1.110502   3.511405   4.761905
    30  H    2.757210   2.194881   2.846156   1.113474   2.190155
    31  H    3.487665   3.321924   4.626068   2.212233   1.112156
    32  H    2.940820   2.630502   4.130326   2.232094   1.111746
    33  H    7.029843   5.871115   6.686637   4.914157   4.286656
    34  H    9.014107   7.661865   8.113835   6.844257   6.568959
    35  H    9.387298   7.883851   7.856930   7.200629   7.457792
    36  H    7.823388   6.456709   5.379689   6.525181   7.759610
    37  H    7.512506   6.352295   5.186105   6.194590   7.585417
    38  H    9.819117   8.732400   7.466631   8.628977  10.024803
    39  H   10.443734   9.181305   8.023856   9.019697  10.295155
    40  H    9.364155   8.194157   6.882908   8.309190   9.696430
    41  H    9.878428   8.579890   7.736615   7.989535   9.073706
    42  H    9.258709   8.140846   7.191519   7.598068   8.822271
    43  H    8.287558   7.039695   6.320922   6.327878   7.409881
    44  H    9.780331   8.318285   7.444585   8.205983   9.218515
    45  H   10.216193   8.783524   7.923252   8.417641   9.447189
    46  Cu   5.257342   3.784127   3.387159   3.289835   4.371359
                    6          7          8          9         10
     6  O    0.000000
     7  C    1.375958   0.000000
     8  C    2.512960   1.449135   0.000000
     9  C    3.114545   2.533553   1.398900   0.000000
    10  C    4.505987   3.760708   2.410621   1.412338   0.000000
    11  C    5.221597   4.171620   2.782139   2.447890   1.411048
    12  C    4.825824   3.566047   2.364308   2.784313   2.411819
    13  C    5.861124   4.509742   3.580831   4.186039   3.767860
    14  N    5.810275   4.438748   3.899964   4.822023   4.719037
    15  C    7.228278   5.865800   5.354981   6.210712   5.949936
    16  C    7.876694   6.548459   6.194338   7.213096   7.082226
    17  C    9.359293   8.032921   7.674433   8.638637   8.402788
    18  C    7.923201   6.623124   6.147388   7.143761   6.994007
    19  C    8.022058   6.654131   5.840839   6.407747   5.805903
    20  O    7.185046   5.851454   4.828469   5.208294   4.476763
    21  N    3.621579   2.318133   1.332967   2.357589   2.717314
    22  N    2.252187   1.296920   2.374467   3.638956   4.681947
    23  H    4.155755   4.713499   6.132907   6.980089   8.238193
    24  H    4.853264   5.037130   6.417454   7.523326   8.704647
    25  H    5.343923   5.516015   6.828736   7.776676   8.877420
    26  H    3.482717   3.425810   4.583608   5.413381   6.447267
    27  H    4.589236   3.777570   4.535897   5.682551   6.395898
    28  H    5.067547   4.524824   5.550661   6.824707   7.709258
    29  H    5.545348   5.090347   6.078701   7.155501   7.972043
    30  H    3.031747   2.930969   4.227680   5.451171   6.626496
    31  H    2.078891   3.038840   4.374209   5.151869   6.537887
    32  H    2.065867   3.002532   4.329592   4.915019   6.246383
    33  H    2.908274   2.829114   2.166764   1.082657   2.173836
    34  H    5.221304   4.661593   3.394685   2.164176   1.081649
    35  H    6.285042   5.236824   3.862957   3.429529   2.172667
    36  H    7.454472   6.136873   5.775385   6.619936   6.412677
    37  H    7.483789   6.221428   6.116404   7.270945   7.349802
    38  H    9.890269   8.603436   8.345439   9.392687   9.244119
    39  H    9.938027   8.581138   8.050586   8.889160   8.483718
    40  H    9.544027   8.237781   7.961284   8.911750   8.694981
    41  H    8.540213   7.220164   6.546071   7.378938   7.026479
    42  H    8.542712   7.302499   6.959655   8.030108   7.973178
    43  H    6.960902   5.691604   5.218386   6.251811   6.214479
    44  H    8.607588   7.264213   6.470258   6.931224   6.253808
    45  H    8.800325   7.429118   6.576683   7.147145   6.497938
    46  Cu   4.013067   2.699354   2.717045   3.941915   4.421986
                   11         12         13         14         15
    11  C    0.000000
    12  C    1.400251   0.000000
    13  C    2.535448   1.454135   0.000000
    14  N    3.660345   2.388082   1.297669   0.000000
    15  C    4.746326   3.632209   2.239050   1.463673   0.000000
    16  C    5.911511   4.676551   3.394592   2.483410   1.550938
    17  C    7.156099   6.023671   4.640660   3.844388   2.553818
    18  C    5.841225   4.629497   3.564274   2.993287   2.581746
    19  C    4.445205   3.681982   2.276336   2.386655   1.551989
    20  O    3.084892   2.512998   1.379115   2.253888   2.334837
    21  N    2.359952   1.337438   2.336130   2.650983   4.099428
    22  N    4.773094   3.855501   4.404551   3.963023   5.275300
    23  H    8.663376   7.942485   8.427336   7.789899   8.845736
    24  H    8.877511   7.915856   8.157590   7.308263   8.206424
    25  H    9.072905   8.232812   8.428973   7.607855   8.425466
    26  H    6.694039   6.002766   6.374096   5.793998   6.817947
    27  H    6.110584   5.048449   4.884831   3.940495   4.689707
    28  H    7.486070   6.322693   6.177871   5.124761   5.794652
    29  H    7.803767   6.809481   6.645340   5.665688   6.234178
    30  H    6.779894   5.794194   6.216862   5.550454   6.687861
    31  H    7.153232   6.551432   7.395406   7.069290   8.391808
    32  H    6.917573   6.454423   7.271820   6.971689   8.256520
    33  H    3.428527   3.863555   5.250836   5.832408   7.231372
    34  H    2.162244   3.395363   4.666401   5.694477   6.847431
    35  H    1.084170   2.169930   2.827257   4.079133   4.897370
    36  H    5.288130   4.250580   2.948220   2.096886   1.113319
    37  H    6.317071   4.989372   3.868157   2.708437   2.155401
    38  H    8.032708   6.837575   5.520553   4.655826   3.514689
    39  H    7.156355   6.161081   4.747229   4.227833   2.883299
    40  H    7.478073   6.380205   4.980143   4.107297   2.751354
    41  H    5.779494   4.743154   3.650541   3.434520   2.902336
    42  H    6.873783   5.635555   4.641234   3.977622   3.533397
    43  H    5.180626   3.921442   3.131350   2.640673   2.815668
    44  H    4.923692   4.348117   3.022900   3.133904   2.205988
    45  H    5.105578   4.369663   3.032429   3.165030   2.243572
    46  Cu   3.918164   2.686221   2.663691   1.991755   3.284734
                   16         17         18         19         20
    16  C    0.000000
    17  C    1.537086   0.000000
    18  C    1.537371   2.526636   0.000000
    19  C    2.621334   3.158365   3.172704   0.000000
    20  O    3.526018   4.411258   3.708715   1.417856   0.000000
    21  N    4.921971   6.396176   4.864144   4.583994   3.641585
    22  N    5.812946   7.253057   6.051927   6.313818   5.770905
    23  H    9.219126  10.441706   9.695920  10.082332   9.737888
    24  H    8.301849   9.439433   8.769698   9.590311   9.447092
    25  H    8.753774   9.791876   9.471089   9.754156   9.642124
    26  H    7.479021   8.677677   8.145562   7.942210   7.597932
    27  H    5.163516   6.271814   5.999331   6.020836   6.013135
    28  H    5.821089   6.876953   6.479182   7.259735   7.346702
    29  H    6.575463   7.482832   7.512528   7.605012   7.715797
    30  H    6.824179   8.189217   6.978002   7.931467   7.573158
    31  H    8.749022  10.195043   8.773936   9.420246   8.768513
    32  H    8.868294  10.250687   9.163665   9.241355   8.595577
    33  H    8.229479   9.664387   8.174546   7.462560   6.267310
    34  H    8.036071   9.301440   7.943474   6.546110   5.180723
    35  H    6.130626   7.216632   6.080403   4.253639   2.862044
    36  H    2.181654   2.777333   3.524714   2.182166   3.044329
    37  H    1.111886   2.141794   2.146849   3.539229   4.308485
    38  H    2.185054   1.111696   2.780804   4.202027   5.387034
    39  H    2.197319   1.109602   2.787814   2.903004   4.206713
    40  H    2.185404   1.110587   3.494554   3.437615   4.758979
    41  H    2.201989   2.806384   1.107824   2.911495   3.424569
    42  H    2.181093   2.762429   1.110324   4.203340   4.814813
    43  H    2.189351   3.496346   1.110332   3.490375   3.618128
    44  H    3.363275   3.558112   4.164749   1.111801   2.074748
    45  H    2.692858   2.941444   2.876870   1.109699   2.071438
    46  Cu   3.967825   5.395252   4.377861   4.350878   3.974287
                   21         22         23         24         25
    21  N    0.000000
    22  N    2.618977   0.000000
    23  H    6.750457   4.180733   0.000000
    24  H    6.723429   4.134591   1.804392   0.000000
    25  H    7.172932   4.663961   1.793105   1.807056   0.000000
    26  H    5.015766   2.775135   2.510656   3.098310   2.503028
    27  H    4.263038   2.602957   4.348369   3.818444   3.741211
    28  H    5.350787   3.253004   3.819311   2.603845   3.130674
    29  H    5.986001   3.953991   3.742342   3.105949   2.481423
    30  H    4.510994   2.104377   3.107928   2.552004   3.787156
    31  H    5.241597   3.163866   3.017351   3.621862   4.552478
    32  H    5.272232   3.120771   2.355710   3.618498   3.762321
    33  H    3.343522   4.064237   6.826578   7.600888   7.799805
    34  H    3.798929   5.657091   8.988248   9.591273   9.680822
    35  H    3.348614   5.779143   9.652155   9.851757   9.973877
    36  H    4.636775   5.437158   8.652144   8.031091   8.039169
    37  H    4.947114   5.317503   8.412418   7.374008   7.873359
    38  H    7.085098   7.754293  10.767723   9.612115  10.091659
    39  H    6.735471   7.926484  11.322605  10.400989  10.736182
    40  H    6.738133   7.389200  10.319453   9.344248   9.509146
    41  H    5.237029   6.795985  10.606059   9.769904  10.425788
    42  H    5.730677   6.646806  10.058607   8.969509   9.798100
    43  H    3.984045   5.207908   8.973010   8.130687   8.923602
    44  H    5.298042   6.914605  10.496421  10.072816  10.049311
    45  H    5.279751   7.097951  10.933808  10.341359  10.626304
    46  Cu   1.941966   1.996022   5.847608   5.493994   5.851392
                   26         27         28         29         30
    26  H    0.000000
    27  H    2.483839   0.000000
    28  H    3.089242   1.807752   0.000000
    29  H    2.500918   1.790984   1.805779   0.000000
    30  H    3.106184   3.257017   2.641005   3.846257   0.000000
    31  H    3.706624   5.018437   4.754678   5.464438   2.326056
    32  H    2.470092   4.484733   4.663809   4.745025   3.012308
    33  H    5.485082   6.198052   7.258515   7.502723   5.669939
    34  H    7.220434   7.348709   8.703435   8.866201   7.575077
    35  H    7.584309   6.883418   8.334081   8.572197   7.803111
    36  H    6.526197   4.348779   5.565204   5.719297   6.818170
    37  H    6.825032   4.432576   4.866039   5.717804   6.071687
    38  H    9.197829   6.750789   7.082688   7.842725   8.441752
    39  H    9.465996   7.128086   7.857403   8.426035   9.016737
    40  H    8.473436   6.053490   6.743142   7.105218   8.339008
    41  H    8.952864   6.872430   7.494230   8.444863   7.887826
    42  H    8.709781   6.512576   6.713064   7.890252   7.278345
    43  H    7.509802   5.555295   6.014011   7.151758   6.148468
    44  H    8.231477   6.355333   7.720904   7.824825   8.591999
    45  H    8.889110   6.891279   7.978278   8.471964   8.605824
    46  Cu   3.973351   2.488719   3.649863   4.272085   3.677941
                   31         32         33         34         35
    31  H    0.000000
    32  H    1.822138   0.000000
    33  H    4.920626   4.590938   0.000000
    34  H    7.274746   6.895662   2.502355   0.000000
    35  H    8.230234   7.934950   4.323909   2.498650   0.000000
    36  H    8.572023   8.240139   7.580529   7.279710   5.430769
    37  H    8.137442   8.285872   8.224048   8.358949   6.691837
    38  H   10.541674  10.732729  10.405632  10.177687   8.152335
    39  H   10.920493  10.967468   9.946331   9.309188   7.060736
    40  H   10.373688  10.258012   9.905200   9.575538   7.527071
    41  H    9.552061   9.912699   8.440720   7.889498   5.838511
    42  H    9.176447   9.705710   9.030881   8.941074   7.151271
    43  H    7.820520   8.301824   7.256537   7.197915   5.571791
    44  H   10.059947   9.701148   7.945257   6.897512   4.595694
    45  H   10.140963  10.106645   8.222109   7.213836   4.841502
    46  Cu   5.140430   5.014972   4.760096   5.470031   4.728510
                   36         37         38         39         40
    36  H    0.000000
    37  H    2.457528   0.000000
    38  H    3.756129   2.447761   0.000000
    39  H    3.240682   3.083358   1.801021   0.000000
    40  H    2.510169   2.500728   1.797737   1.805923   0.000000
    41  H    3.912742   3.089873   3.169277   2.610108   3.824950
    42  H    4.345252   2.459095   2.551974   3.121496   3.780559
    43  H    3.809927   2.498677   3.787348   3.818366   4.347855
    44  H    2.304842   4.204306   4.659984   3.234929   3.530132
    45  H    2.995721   3.771071   3.869866   2.366665   3.474507
    46  Cu   3.510851   3.649025   6.020229   6.000953   5.541745
                   41         42         43         44         45
    41  H    0.000000
    42  H    1.795529   0.000000
    43  H    1.803997   1.793413   0.000000
    44  H    3.903683   5.134321   4.558196   0.000000
    45  H    2.281740   3.804158   3.409500   1.813149   0.000000
    46  Cu   5.063414   5.129661   3.696623   4.967476   5.152898
                   46
    46  Cu   0.000000
 Symmetry turned off by external request.
 Stoichiometry    C17H23CuN3O2(2+,2)
 Framework group  C1[X(C17H23CuN3O2)]
 Deg. of freedom   132
 Full point group                 C1      NOp   1
 Rotational constants (GHZ):           0.3580668           0.1709819           0.1246424
 Leave Link  202 at Fri Mar  8 00:48:25 2024, MaxMem= 13421772800 cpu:               1.5 elap:               0.1
 (Enter /public/software/apps/Gaussian/g16/l301.exe)
 Standard basis: def2SVPP (5D, 7F)
 Ernie: Thresh=  0.10000D-02 Tol=  0.10000D-05 Strict=F.
   378 basis functions,   713 primitive gaussians,   402 cartesian basis functions
    95 alpha electrons       94 beta electrons
       nuclear repulsion energy      2529.1973225663 Hartrees.
 IExCor=  402 DFT=T Ex+Corr=B3LYP ExCW=0 ScaHFX=  0.200000
 ScaDFX=  0.800000  0.720000  1.000000  0.810000 ScalE2=  1.000000  1.000000
 IRadAn=      5 IRanWt=     -1 IRanGd=            0 ICorTp=0 IEmpDi=141
 NAtoms=   46 NActive=   46 NUniq=   46 SFac= 1.00D+00 NAtFMM=   60 NAOKFM=F Big=F
 Integral buffers will be    131072 words long.
 Raffenetti 2 integral format.
 Two-electron integral symmetry is turned off.
 R6Disp:  Grimme-D3(BJ) Dispersion energy=       -0.1008592234 Hartrees.
 Nuclear repulsion after empirical dispersion term =     2529.0964633429 Hartrees.
 Leave Link  301 at Fri Mar  8 00:48:25 2024, MaxMem= 13421772800 cpu:               1.8 elap:               0.1
 (Enter /public/software/apps/Gaussian/g16/l302.exe)
 NPDir=0 NMtPBC=     1 NCelOv=     1 NCel=       1 NClECP=     1 NCelD=      1
         NCelK=      1 NCelE2=     1 NClLst=     1 CellRange=     0.0.
 One-electron integrals computed using PRISM.
   1 Symmetry operations used in ECPInt.
 ECPInt:  NShTT=   17766 NPrTT=   74315 LenC2=   16186 LenP2D=   44642.
 LDataN:  DoStor=T MaxTD1= 4 Len=   56
 NBasis=   378 RedAO= T EigKep=  6.02D-04  NBF=   378
 NBsUse=   378 1.00D-06 EigRej= -1.00D+00 NBFU=   378
 Precomputing XC quadrature grid using
 IXCGrd= 4 IRadAn=           5 IRanWt=          -1 IRanGd=           0 AccXCQ= 0.00D+00.
 Generated NRdTot=       0 NPtTot=           0 NUsed=           0 NTot=          32
 NSgBfM=   395   395   395   395   395 MxSgAt=    46 MxSgA2=    46.
 Leave Link  302 at Fri Mar  8 00:48:26 2024, MaxMem= 13421772800 cpu:              11.6 elap:               0.4
 (Enter /public/software/apps/Gaussian/g16/l303.exe)
 DipDrv:  MaxL=1.
 Leave Link  303 at Fri Mar  8 00:48:26 2024, MaxMem= 13421772800 cpu:               3.4 elap:               0.1
 (Enter /public/software/apps/Gaussian/g16/l401.exe)
 ExpMin= 3.30D-02 ExpMax= 7.64D+04 ExpMxC= 1.15D+04 IAcc=3 IRadAn=         5 AccDes= 0.00D+00
 Harris functional with IExCor=  402 and IRadAn=       5 diagonalized for initial guess.
 HarFok:  IExCor=  402 AccDes= 0.00D+00 IRadAn=         5 IDoV= 1 UseB2=F ITyADJ=14
 ICtDFT=  3500011 ScaDFX=  1.000000  1.000000  1.000000  1.000000
 FoFCou: FMM=F IPFlag=           0 FMFlag=      100000 FMFlg1=           0
         NFxFlg=           0 DoJE=T BraDBF=F KetDBF=T FulRan=T
         wScrn=  0.000000 ICntrl=       500 IOpCl=  0 I1Cent=   200000004 NGrid=           0
         NMat0=    1 NMatS0=      1 NMatT0=    0 NMatD0=    1 NMtDS0=    0 NMtDT0=    0
 Symmetry not used in FoFCou.
 Harris En= -2615.81035818600    
 JPrj=0 DoOrth=F DoCkMO=F.
 Initial guess <Sx>= 0.0000 <Sy>= 0.0000 <Sz>= 0.5000 <S**2>= 0.7500 S= 0.5000
 Leave Link  401 at Fri Mar  8 00:48:27 2024, MaxMem= 13421772800 cpu:              26.3 elap:               0.8
 (Enter /public/software/apps/Gaussian/g16/l502.exe)
 Two-electron integral symmetry not used.
 UHF open shell SCF:
 Using DIIS extrapolation, IDIIS=  1040.
 NGot= 13421772800 LenX= 13421432068 LenY= 13421270023
 Requested convergence on RMS density matrix=1.00D-08 within 128 cycles.
 Requested convergence on MAX density matrix=1.00D-06.
 Requested convergence on             energy=1.00D-06.
 No special actions if energy rises.
 Fock matrices will be formed incrementally for  20 cycles.

 Cycle   1  Pass 1  IDiag  1:
 FoFJK:  IHMeth= 1 ICntrl=       0 DoSepK=F KAlg= 0 I1Cent=           0 FoldK=F
 IRaf= 850000000 NMat=       1 IRICut=       1 DoRegI=T DoRafI=F ISym2E= 0 IDoP0=0 IntGTp=1.
 FoFCou: FMM=F IPFlag=           0 FMFlag=      100000 FMFlg1=           0
         NFxFlg=           0 DoJE=F BraDBF=F KetDBF=F FulRan=T
         wScrn=  0.000000 ICntrl=         0 IOpCl=  1 I1Cent=           0 NGrid=           0
         NMat0=    1 NMatS0=      1 NMatT0=    0 NMatD0=    1 NMtDS0=    0 NMtDT0=    0
 Symmetry not used in FoFCou.
 E= -2605.76755539946    
 DIIS: error= 2.59D-01 at cycle   1 NSaved=   1.
 NSaved= 1 IEnMin= 1 EnMin= -2605.76755539946     IErMin= 1 ErrMin= 2.59D-01
 ErrMax= 2.59D-01  0.00D+00 EMaxC= 1.00D-01 BMatC= 4.69D+01 BMatP= 4.69D+01
 IDIUse=3 WtCom= 0.00D+00 WtEn= 1.00D+00
 Coeff-Com:  0.100D+01
 Coeff-En:   0.100D+01
 Coeff:      0.100D+01
 Gap=     0.437 Goal=   None    Shift=    0.000
 Gap=    -0.006 Goal=   None    Shift=    0.000
 GapD=   -0.006 DampG=0.250 DampE=0.125 DampFc=0.1250 IDamp=-1.
 Damping current iteration by 1.25D-01
 RMSDP=4.49D-02 MaxDP=5.84D+00              OVMax= 9.51D-01

 Cycle   2  Pass 1  IDiag  1:
 RMSU=  5.61D-03    CP:  9.94D-01
 E= -2608.64813090398     Delta-E=       -2.880575504517 Rises=F Damp=T
 DIIS: error= 1.69D-01 at cycle   2 NSaved=   2.
 NSaved= 2 IEnMin= 2 EnMin= -2608.64813090398     IErMin= 2 ErrMin= 1.69D-01
 ErrMax= 1.69D-01  0.00D+00 EMaxC= 1.00D-01 BMatC= 1.78D+01 BMatP= 4.69D+01
 IDIUse=3 WtCom= 0.00D+00 WtEn= 1.00D+00
 Coeff-Com: -0.127D+01 0.227D+01
 Coeff-En:   0.000D+00 0.100D+01
 Coeff:      0.000D+00 0.100D+01
 Gap=     0.108 Goal=   None    Shift=    0.000
 Gap=     0.002 Goal=   None    Shift=    0.000
 RMSDP=1.59D-02 MaxDP=2.79D+00 DE=-2.88D+00 OVMax= 7.79D-01

 Cycle   3  Pass 1  IDiag  1:
 RMSU=  1.32D-02    CP:  9.47D-01  2.56D+00
 E= -2604.54056481579     Delta-E=        4.107566088192 Rises=F Damp=F
 DIIS: error= 1.45D-01 at cycle   3 NSaved=   3.
 NSaved= 3 IEnMin= 2 EnMin= -2608.64813090398     IErMin= 3 ErrMin= 1.45D-01
 ErrMax= 1.45D-01  0.00D+00 EMaxC= 1.00D-01 BMatC= 2.86D+01 BMatP= 1.78D+01
 IDIUse=2 WtCom= 0.00D+00 WtEn= 1.00D+00
 EnCoef did   100 forward-backward iterations
 Coeff-En:   0.511D+00 0.123D-01 0.477D+00
 Coeff:      0.511D+00 0.123D-01 0.477D+00
 Gap=    -0.184 Goal=   None    Shift=    0.000
 Gap=    -0.187 Goal=   None    Shift=    0.000
 RMSDP=1.86D-02 MaxDP=3.31D+00 DE= 4.11D+00 OVMax= 8.80D-01

 Cycle   4  Pass 1  IDiag  1:
 RMSU=  9.15D-03    CP:  9.51D-01  3.87D-01  1.99D-01
 E= -2611.51601920696     Delta-E=       -6.975454391171 Rises=F Damp=F
 DIIS: error= 1.02D-01 at cycle   4 NSaved=   4.
 NSaved= 4 IEnMin= 4 EnMin= -2611.51601920696     IErMin= 4 ErrMin= 1.02D-01
 ErrMax= 1.02D-01  0.00D+00 EMaxC= 1.00D-01 BMatC= 1.33D+01 BMatP= 1.78D+01
 IDIUse=3 WtCom= 0.00D+00 WtEn= 1.00D+00
 EnCoef did   100 forward-backward iterations
 Coeff-Com: -0.609D+00 0.126D+01 0.144D+00 0.200D+00
 Coeff-En:   0.350D+00 0.761D-02 0.165D+00 0.478D+00
 Coeff:      0.350D+00 0.761D-02 0.165D+00 0.478D+00
 Gap=     0.226 Goal=   None    Shift=    0.000
 Gap=     0.707 Goal=   None    Shift=    0.000
 RMSDP=1.03D-02 MaxDP=4.68D-01 DE=-6.98D+00 OVMax= 6.76D-01

 Cycle   5  Pass 1  IDiag  1:
 RMSU=  6.39D-03    CP:  9.50D-01  2.51D-01  2.21D-01  1.22D-01
 E= -2608.87191686577     Delta-E=        2.644102341185 Rises=F Damp=F
 DIIS: error= 7.36D-02 at cycle   5 NSaved=   5.
 NSaved= 5 IEnMin= 4 EnMin= -2611.51601920696     IErMin= 5 ErrMin= 7.36D-02
 ErrMax= 7.36D-02  0.00D+00 EMaxC= 1.00D-01 BMatC= 1.54D+01 BMatP= 1.33D+01
 IDIUse=2 WtCom= 0.00D+00 WtEn= 1.00D+00
 EnCoef did   100 forward-backward iterations
 Coeff-En:   0.215D+00 0.567D-02 0.000D+00 0.503D+00 0.276D+00
 Coeff:      0.215D+00 0.567D-02 0.000D+00 0.503D+00 0.276D+00
 Gap=    -0.006 Goal=   None    Shift=    0.000
 Gap=     0.023 Goal=   None    Shift=    0.000
 RMSDP=5.98D-03 MaxDP=2.21D-01 DE= 2.64D+00 OVMax= 8.57D-01

 Cycle   6  Pass 1  IDiag  1:
 RMSU=  4.32D-03    CP:  9.40D-01  1.97D-01  1.66D-01  2.64D-01  4.00D-01
 E= -2615.09980180619     Delta-E=       -6.227884940417 Rises=F Damp=F
 DIIS: error= 1.63D-02 at cycle   6 NSaved=   6.
 NSaved= 6 IEnMin= 6 EnMin= -2615.09980180619     IErMin= 6 ErrMin= 1.63D-02
 ErrMax= 1.63D-02  0.00D+00 EMaxC= 1.00D-01 BMatC= 9.94D-01 BMatP= 1.33D+01
 IDIUse=3 WtCom= 8.37D-01 WtEn= 1.63D-01
 Coeff-Com: -0.246D+00 0.483D+00-0.619D-01 0.967D-01 0.126D+00 0.602D+00
 Coeff-En:   0.317D-01 0.000D+00 0.000D+00 0.000D+00 0.000D+00 0.968D+00
 Coeff:     -0.200D+00 0.404D+00-0.518D-01 0.809D-01 0.105D+00 0.662D+00
 Gap=     0.249 Goal=   None    Shift=    0.000
 Gap=     0.067 Goal=   None    Shift=    0.000
 RMSDP=3.58D-03 MaxDP=1.96D-01 DE=-6.23D+00 OVMax= 6.40D-01

 Cycle   7  Pass 1  IDiag  1:
 RMSU=  3.21D-03    CP:  9.43D-01  1.18D-01  1.46D-01  2.93D-01  4.36D-01
                    CP:  6.64D-01
 E= -2615.00630656759     Delta-E=        0.093495238593 Rises=F Damp=F
 DIIS: error= 4.65D-02 at cycle   7 NSaved=   7.
 NSaved= 7 IEnMin= 6 EnMin= -2615.09980180619     IErMin= 6 ErrMin= 1.63D-02
 ErrMax= 4.65D-02  0.00D+00 EMaxC= 1.00D-01 BMatC= 1.97D+00 BMatP= 9.94D-01
 IDIUse=2 WtCom= 0.00D+00 WtEn= 1.00D+00
 EnCoef did     2 forward-backward iterations
 Coeff-En:   0.343D-01 0.000D+00 0.000D+00 0.000D+00 0.000D+00 0.525D+00
 Coeff-En:   0.441D+00
 Coeff:      0.343D-01 0.000D+00 0.000D+00 0.000D+00 0.000D+00 0.525D+00
 Coeff:      0.441D+00
 Gap=     0.186 Goal=   None    Shift=    0.000
 Gap=    -0.001 Goal=   None    Shift=    0.000
 RMSDP=4.15D-03 MaxDP=4.66D-01 DE= 9.35D-02 OVMax= 8.59D-01

 Cycle   8  Pass 1  IDiag  1:
 RMSU=  3.00D-03    CP:  9.59D-01  8.44D-02  5.66D-02  2.06D-01  1.69D-01
                    CP:  6.09D-01  4.53D-01
 E= -2613.89740331024     Delta-E=        1.108903257359 Rises=F Damp=F
 DIIS: error= 1.25D-01 at cycle   8 NSaved=   8.
 NSaved= 8 IEnMin= 6 EnMin= -2615.09980180619     IErMin= 6 ErrMin= 1.63D-02
 ErrMax= 1.25D-01  0.00D+00 EMaxC= 1.00D-01 BMatC= 9.91D+00 BMatP= 9.94D-01
 IDIUse=2 WtCom= 0.00D+00 WtEn= 1.00D+00
 EnCoef did     3 forward-backward iterations
 Coeff-En:   0.000D+00 0.000D+00 0.000D+00 0.000D+00 0.000D+00 0.428D+00
 Coeff-En:   0.396D+00 0.176D+00
 Coeff:      0.000D+00 0.000D+00 0.000D+00 0.000D+00 0.000D+00 0.428D+00
 Coeff:      0.396D+00 0.176D+00
 Gap=     0.001 Goal=   None    Shift=    0.000
 Gap=     0.099 Goal=   None    Shift=    0.000
 RMSDP=2.69D-03 MaxDP=3.63D-01 DE= 1.11D+00 OVMax= 6.90D-01

 Cycle   9  Pass 1  IDiag  1:
 RMSU=  1.64D-03    CP:  9.46D-01  1.24D-01  1.13D-01  2.65D-01  3.11D-01
                    CP:  7.51D-01  4.69D-01  4.88D-01
 E= -2615.38780059079     Delta-E=       -1.490397280557 Rises=F Damp=F
 DIIS: error= 2.47D-02 at cycle   9 NSaved=   9.
 NSaved= 9 IEnMin= 9 EnMin= -2615.38780059079     IErMin= 6 ErrMin= 1.63D-02
 ErrMax= 2.47D-02  0.00D+00 EMaxC= 1.00D-01 BMatC= 4.90D-01 BMatP= 9.94D-01
 IDIUse=3 WtCom= 8.37D-01 WtEn= 1.63D-01
 EnCoef did     1 forward-backward iterations
 Coeff-Com: -0.167D-01 0.324D-01-0.261D-02-0.145D-01 0.620D-02 0.245D+00
 Coeff-Com:  0.230D+00-0.269D-01 0.548D+00
 Coeff-En:   0.000D+00 0.000D+00 0.000D+00 0.000D+00 0.000D+00 0.106D+00
 Coeff-En:   0.150D+00 0.000D+00 0.744D+00
 Coeff:     -0.140D-01 0.271D-01-0.218D-02-0.121D-01 0.519D-02 0.222D+00
 Coeff:      0.217D+00-0.225D-01 0.580D+00
 Gap=     0.176 Goal=   None    Shift=    0.000
 Gap=     0.040 Goal=   None    Shift=    0.000
 RMSDP=7.83D-04 MaxDP=4.59D-02 DE=-1.49D+00 OVMax= 7.52D-02

 Cycle  10  Pass 1  IDiag  1:
 RMSU=  6.15D-04    CP:  9.44D-01  1.34D-01  1.31D-01  2.59D-01  3.54D-01
                    CP:  7.57D-01  4.51D-01  3.88D-01  1.04D+00
 E= -2615.46506351886     Delta-E=       -0.077262928064 Rises=F Damp=F
 DIIS: error= 6.35D-03 at cycle  10 NSaved=  10.
 NSaved=10 IEnMin=10 EnMin= -2615.46506351886     IErMin=10 ErrMin= 6.35D-03
 ErrMax= 6.35D-03  0.00D+00 EMaxC= 1.00D-01 BMatC= 5.54D-02 BMatP= 4.90D-01
 IDIUse=3 WtCom= 9.37D-01 WtEn= 6.35D-02
 Coeff-Com: -0.389D-01 0.667D-01 0.105D-02-0.121D-02 0.114D-01 0.116D+00
 Coeff-Com:  0.100D+00-0.347D-01 0.279D+00 0.501D+00
 Coeff-En:   0.000D+00 0.000D+00 0.000D+00 0.000D+00 0.000D+00 0.000D+00
 Coeff-En:   0.000D+00 0.000D+00 0.000D+00 0.100D+01
 Coeff:     -0.364D-01 0.625D-01 0.985D-03-0.114D-02 0.106D-01 0.109D+00
 Coeff:      0.937D-01-0.325D-01 0.261D+00 0.532D+00
 Gap=     0.142 Goal=   None    Shift=    0.000
 Gap=     0.047 Goal=   None    Shift=    0.000
 RMSDP=3.92D-04 MaxDP=1.98D-02 DE=-7.73D-02 OVMax= 4.01D-02

 Cycle  11  Pass 1  IDiag  1:
 RMSU=  3.46D-04    CP:  9.44D-01  1.46D-01  1.35D-01  2.62D-01  3.60D-01
                    CP:  7.60D-01  4.26D-01  3.65D-01  1.08D+00  8.57D-01
 E= -2615.47479951445     Delta-E=       -0.009735995591 Rises=F Damp=F
 DIIS: error= 1.94D-03 at cycle  11 NSaved=  11.
 NSaved=11 IEnMin=11 EnMin= -2615.47479951445     IErMin=11 ErrMin= 1.94D-03
 ErrMax= 1.94D-03  0.00D+00 EMaxC= 1.00D-01 BMatC= 1.28D-02 BMatP= 5.54D-02
 IDIUse=3 WtCom= 9.81D-01 WtEn= 1.94D-02
 Coeff-Com: -0.371D-01 0.585D-01 0.293D-02-0.232D-02 0.452D-02 0.327D-02
 Coeff-Com:  0.463D-02-0.128D-02-0.709D-01 0.353D+00 0.685D+00
 Coeff-En:   0.000D+00 0.000D+00 0.000D+00 0.000D+00 0.000D+00 0.000D+00
 Coeff-En:   0.000D+00 0.000D+00 0.000D+00 0.856D-01 0.914D+00
 Coeff:     -0.364D-01 0.573D-01 0.287D-02-0.228D-02 0.444D-02 0.321D-02
 Coeff:      0.454D-02-0.126D-02-0.696D-01 0.348D+00 0.689D+00
 Gap=     0.134 Goal=   None    Shift=    0.000
 Gap=     0.053 Goal=   None    Shift=    0.000
 RMSDP=2.82D-04 MaxDP=2.04D-02 DE=-9.74D-03 OVMax= 1.86D-02

 Cycle  12  Pass 1  IDiag  1:
 RMSU=  1.98D-04    CP:  9.43D-01  1.55D-01  1.41D-01  2.62D-01  3.69D-01
                    CP:  7.56D-01  4.12D-01  3.53D-01  1.10D+00  1.10D+00
                    CP:  1.06D+00
 E= -2615.47683835955     Delta-E=       -0.002038845105 Rises=F Damp=F
 DIIS: error= 3.90D-03 at cycle  12 NSaved=  12.
 NSaved=12 IEnMin=12 EnMin= -2615.47683835955     IErMin=11 ErrMin= 1.94D-03
 ErrMax= 3.90D-03  0.00D+00 EMaxC= 1.00D-01 BMatC= 9.32D-03 BMatP= 1.28D-02
 IDIUse=3 WtCom= 9.81D-01 WtEn= 1.94D-02
 Coeff-Com: -0.175D-01 0.280D-01 0.105D-02-0.570D-02 0.150D-02 0.113D-01
 Coeff-Com:  0.471D-02 0.720D-03 0.347D-01 0.134D+00 0.228D+00 0.578D+00
 Coeff-En:   0.000D+00 0.000D+00 0.000D+00 0.000D+00 0.000D+00 0.000D+00
 Coeff-En:   0.000D+00 0.000D+00 0.000D+00 0.000D+00 0.247D+00 0.753D+00
 Coeff:     -0.172D-01 0.274D-01 0.103D-02-0.559D-02 0.147D-02 0.110D-01
 Coeff:      0.462D-02 0.706D-03 0.340D-01 0.132D+00 0.229D+00 0.582D+00
 Gap=     0.139 Goal=   None    Shift=    0.000
 Gap=     0.061 Goal=   None    Shift=    0.000
 RMSDP=1.07D-04 MaxDP=6.44D-03 DE=-2.04D-03 OVMax= 1.42D-02

 Cycle  13  Pass 1  IDiag  1:
 RMSU=  8.93D-05    CP:  9.43D-01  1.55D-01  1.40D-01  2.62D-01  3.67D-01
                    CP:  7.58D-01  4.14D-01  3.59D-01  1.09D+00  1.04D+00
                    CP:  1.09D+00  8.54D-01
 E= -2615.47797034408     Delta-E=       -0.001131984531 Rises=F Damp=F
 DIIS: error= 1.38D-03 at cycle  13 NSaved=  13.
 NSaved=13 IEnMin=13 EnMin= -2615.47797034408     IErMin=13 ErrMin= 1.38D-03
 ErrMax= 1.38D-03  0.00D+00 EMaxC= 1.00D-01 BMatC= 1.99D-03 BMatP= 9.32D-03
 IDIUse=3 WtCom= 9.86D-01 WtEn= 1.38D-02
 Coeff-Com: -0.136D-02 0.277D-02-0.845D-04-0.300D-02 0.157D-02 0.908D-02
 Coeff-Com: -0.342D-02-0.204D-02 0.834D-01 0.835D-03-0.127D+00 0.356D+00
 Coeff-Com:  0.684D+00
 Coeff-En:   0.000D+00 0.000D+00 0.000D+00 0.000D+00 0.000D+00 0.000D+00
 Coeff-En:   0.000D+00 0.000D+00 0.000D+00 0.000D+00 0.000D+00 0.000D+00
 Coeff-En:   0.100D+01
 Coeff:     -0.135D-02 0.273D-02-0.834D-04-0.296D-02 0.155D-02 0.895D-02
 Coeff:     -0.337D-02-0.201D-02 0.822D-01 0.824D-03-0.126D+00 0.351D+00
 Coeff:      0.688D+00
 Gap=     0.138 Goal=   None    Shift=    0.000
 Gap=     0.064 Goal=   None    Shift=    0.000
 RMSDP=6.73D-05 MaxDP=6.10D-03 DE=-1.13D-03 OVMax= 6.24D-03

 Cycle  14  Pass 1  IDiag  1:
 RMSU=  4.98D-05    CP:  9.43D-01  1.54D-01  1.39D-01  2.61D-01  3.66D-01
                    CP:  7.58D-01  4.10D-01  3.66D-01  1.10D+00  1.02D+00
                    CP:  1.05D+00  9.88D-01  8.24D-01
 E= -2615.47835202709     Delta-E=       -0.000381683006 Rises=F Damp=F
 DIIS: error= 2.68D-04 at cycle  14 NSaved=  14.
 NSaved=14 IEnMin=14 EnMin= -2615.47835202709     IErMin=14 ErrMin= 2.68D-04
 ErrMax= 2.68D-04  0.00D+00 EMaxC= 1.00D-01 BMatC= 2.30D-04 BMatP= 1.99D-03
 IDIUse=3 WtCom= 9.97D-01 WtEn= 2.68D-03
 Coeff-Com:  0.395D-03-0.396D-03 0.908D-04-0.122D-02 0.640D-03 0.468D-02
 Coeff-Com: -0.207D-02-0.956D-03 0.317D-01-0.876D-02-0.770D-01 0.115D+00
 Coeff-Com:  0.359D+00 0.578D+00
 Coeff-En:   0.000D+00 0.000D+00 0.000D+00 0.000D+00 0.000D+00 0.000D+00
 Coeff-En:   0.000D+00 0.000D+00 0.000D+00 0.000D+00 0.000D+00 0.000D+00
 Coeff-En:   0.281D-01 0.972D+00
 Coeff:      0.394D-03-0.395D-03 0.906D-04-0.122D-02 0.638D-03 0.466D-02
 Coeff:     -0.207D-02-0.954D-03 0.316D-01-0.874D-02-0.768D-01 0.115D+00
 Coeff:      0.358D+00 0.579D+00
 Gap=     0.137 Goal=   None    Shift=    0.000
 Gap=     0.065 Goal=   None    Shift=    0.000
 RMSDP=2.83D-05 MaxDP=1.60D-03 DE=-3.82D-04 OVMax= 4.47D-03

 Cycle  15  Pass 1  IDiag  1:
 RMSU=  2.55D-05    CP:  9.43D-01  1.54D-01  1.39D-01  2.61D-01  3.66D-01
                    CP:  7.58D-01  4.10D-01  3.66D-01  1.10D+00  1.03D+00
                    CP:  1.05D+00  9.89D-01  9.40D-01  9.46D-01
 E= -2615.47838517516     Delta-E=       -0.000033148069 Rises=F Damp=F
 DIIS: error= 3.46D-04 at cycle  15 NSaved=  15.
 NSaved=15 IEnMin=15 EnMin= -2615.47838517516     IErMin=14 ErrMin= 2.68D-04
 ErrMax= 3.46D-04  0.00D+00 EMaxC= 1.00D-01 BMatC= 1.38D-04 BMatP= 2.30D-04
 IDIUse=3 WtCom= 9.97D-01 WtEn= 2.68D-03
 Coeff-Com:  0.112D-03-0.265D-03 0.149D-03 0.828D-04 0.933D-04 0.998D-03
 Coeff-Com: -0.877D-03 0.250D-03-0.794D-02-0.645D-02-0.475D-02-0.131D-02
 Coeff-Com:  0.520D-01 0.387D+00 0.581D+00
 Coeff-En:   0.000D+00 0.000D+00 0.000D+00 0.000D+00 0.000D+00 0.000D+00
 Coeff-En:   0.000D+00 0.000D+00 0.000D+00 0.000D+00 0.000D+00 0.000D+00
 Coeff-En:   0.000D+00 0.201D+00 0.799D+00
 Coeff:      0.111D-03-0.264D-03 0.148D-03 0.825D-04 0.930D-04 0.995D-03
 Coeff:     -0.875D-03 0.249D-03-0.792D-02-0.643D-02-0.473D-02-0.131D-02
 Coeff:      0.519D-01 0.387D+00 0.581D+00
 Gap=     0.137 Goal=   None    Shift=    0.000
 Gap=     0.065 Goal=   None    Shift=    0.000
 RMSDP=1.76D-05 MaxDP=8.88D-04 DE=-3.31D-05 OVMax= 2.54D-03

 Cycle  16  Pass 1  IDiag  1:
 RMSU=  1.14D-05    CP:  9.43D-01  1.55D-01  1.40D-01  2.61D-01  3.67D-01
                    CP:  7.58D-01  4.09D-01  3.65D-01  1.10D+00  1.04D+00
                    CP:  1.06D+00  9.93D-01  9.67D-01  1.11D+00  8.32D-01
 E= -2615.47840873618     Delta-E=       -0.000023561024 Rises=F Damp=F
 DIIS: error= 1.97D-04 at cycle  16 NSaved=  16.
 NSaved=16 IEnMin=16 EnMin= -2615.47840873618     IErMin=16 ErrMin= 1.97D-04
 ErrMax= 1.97D-04  0.00D+00 EMaxC= 1.00D-01 BMatC= 3.16D-05 BMatP= 1.38D-04
 IDIUse=3 WtCom= 9.98D-01 WtEn= 1.97D-03
 Coeff-Com: -0.444D-04 0.339D-04 0.423D-04 0.225D-03-0.194D-04 0.230D-03
 Coeff-Com: -0.273D-03 0.222D-03-0.784D-02-0.680D-02 0.142D-02 0.240D-02
 Coeff-Com:  0.543D-02 0.155D+00 0.336D+00 0.514D+00
 Coeff-En:   0.000D+00 0.000D+00 0.000D+00 0.000D+00 0.000D+00 0.000D+00
 Coeff-En:   0.000D+00 0.000D+00 0.000D+00 0.000D+00 0.000D+00 0.000D+00
 Coeff-En:   0.000D+00 0.000D+00 0.000D+00 0.100D+01
 Coeff:     -0.443D-04 0.338D-04 0.423D-04 0.225D-03-0.194D-04 0.230D-03
 Coeff:     -0.273D-03 0.221D-03-0.783D-02-0.679D-02 0.142D-02 0.239D-02
 Coeff:      0.542D-02 0.155D+00 0.336D+00 0.515D+00
 Gap=     0.137 Goal=   None    Shift=    0.000
 Gap=     0.065 Goal=   None    Shift=    0.000
 RMSDP=7.49D-06 MaxDP=3.81D-04 DE=-2.36D-05 OVMax= 9.89D-04

 Cycle  17  Pass 1  IDiag  1:
 RMSU=  5.10D-06    CP:  9.43D-01  1.55D-01  1.40D-01  2.61D-01  3.67D-01
                    CP:  7.58D-01  4.09D-01  3.65D-01  1.10D+00  1.04D+00
                    CP:  1.07D+00  1.00D+00  9.76D-01  1.12D+00  9.21D-01
                    CP:  8.76D-01
 E= -2615.47841449597     Delta-E=       -0.000005759791 Rises=F Damp=F
 DIIS: error= 7.82D-05 at cycle  17 NSaved=  17.
 NSaved=17 IEnMin=17 EnMin= -2615.47841449597     IErMin=17 ErrMin= 7.82D-05
 ErrMax= 7.82D-05  0.00D+00 EMaxC= 1.00D-01 BMatC= 4.76D-06 BMatP= 3.16D-05
 IDIUse=1 WtCom= 1.00D+00 WtEn= 0.00D+00
 Coeff-Com:  0.569D-04-0.951D-04-0.388D-05 0.124D-03-0.492D-04 0.101D-03
 Coeff-Com:  0.104D-04-0.110D-04-0.814D-03-0.487D-02-0.315D-02 0.121D-01
 Coeff-Com:  0.181D-02-0.648D-02 0.341D-01 0.262D+00 0.705D+00
 Coeff:      0.569D-04-0.951D-04-0.388D-05 0.124D-03-0.492D-04 0.101D-03
 Coeff:      0.104D-04-0.110D-04-0.814D-03-0.487D-02-0.315D-02 0.121D-01
 Coeff:      0.181D-02-0.648D-02 0.341D-01 0.262D+00 0.705D+00
 Gap=     0.137 Goal=   None    Shift=    0.000
 Gap=     0.064 Goal=   None    Shift=    0.000
 RMSDP=4.67D-06 MaxDP=2.39D-04 DE=-5.76D-06 OVMax= 1.01D-03

 Cycle  18  Pass 1  IDiag  1:
 RMSU=  2.96D-06    CP:  9.43D-01  1.55D-01  1.40D-01  2.61D-01  3.67D-01
                    CP:  7.58D-01  4.08D-01  3.65D-01  1.10D+00  1.04D+00
                    CP:  1.08D+00  1.01D+00  9.91D-01  1.15D+00  9.56D-01
                    CP:  1.04D+00  1.14D+00
 E= -2615.47841576765     Delta-E=       -0.000001271675 Rises=F Damp=F
 DIIS: error= 3.47D-05 at cycle  18 NSaved=  18.
 NSaved=18 IEnMin=18 EnMin= -2615.47841576765     IErMin=18 ErrMin= 3.47D-05
 ErrMax= 3.47D-05  0.00D+00 EMaxC= 1.00D-01 BMatC= 1.03D-06 BMatP= 4.76D-06
 IDIUse=1 WtCom= 1.00D+00 WtEn= 0.00D+00
 Coeff-Com:  0.134D-04-0.244D-04-0.257D-05 0.342D-04-0.198D-04-0.516D-04
 Coeff-Com: -0.478D-04-0.592D-04 0.150D-02-0.878D-03-0.204D-02 0.853D-02
 Coeff-Com:  0.842D-03-0.477D-01-0.838D-01-0.213D-01 0.354D+00 0.791D+00
 Coeff:      0.134D-04-0.244D-04-0.257D-05 0.342D-04-0.198D-04-0.516D-04
 Coeff:     -0.478D-04-0.592D-04 0.150D-02-0.878D-03-0.204D-02 0.853D-02
 Coeff:      0.842D-03-0.477D-01-0.838D-01-0.213D-01 0.354D+00 0.791D+00
 Gap=     0.137 Goal=   None    Shift=    0.000
 Gap=     0.064 Goal=   None    Shift=    0.000
 RMSDP=3.40D-06 MaxDP=2.14D-04 DE=-1.27D-06 OVMax= 7.89D-04

 Cycle  19  Pass 1  IDiag  1:
 RMSU=  1.36D-06    CP:  9.43D-01  1.55D-01  1.40D-01  2.61D-01  3.67D-01
                    CP:  7.58D-01  4.08D-01  3.65D-01  1.10D+00  1.04D+00
                    CP:  1.08D+00  1.01D+00  9.97D-01  1.16D+00  1.00D+00
                    CP:  1.17D+00  1.49D+00  1.19D+00
 E= -2615.47841619418     Delta-E=       -0.000000426532 Rises=F Damp=F
 DIIS: error= 6.36D-06 at cycle  19 NSaved=  19.
 NSaved=19 IEnMin=19 EnMin= -2615.47841619418     IErMin=19 ErrMin= 6.36D-06
 ErrMax= 6.36D-06  0.00D+00 EMaxC= 1.00D-01 BMatC= 1.60D-07 BMatP= 1.03D-06
 IDIUse=1 WtCom= 1.00D+00 WtEn= 0.00D+00
 Coeff-Com: -0.952D-05 0.139D-04-0.128D-05-0.967D-05 0.269D-05-0.470D-04
 Coeff-Com: -0.467D-04-0.275D-04 0.943D-03 0.943D-03-0.130D-03 0.160D-02
 Coeff-Com: -0.905D-04-0.233D-01-0.564D-01-0.890D-01 0.114D-01 0.505D+00
 Coeff-Com:  0.649D+00
 Coeff:     -0.952D-05 0.139D-04-0.128D-05-0.967D-05 0.269D-05-0.470D-04
 Coeff:     -0.467D-04-0.275D-04 0.943D-03 0.943D-03-0.130D-03 0.160D-02
 Coeff:     -0.905D-04-0.233D-01-0.564D-01-0.890D-01 0.114D-01 0.505D+00
 Coeff:      0.649D+00
 Gap=     0.137 Goal=   None    Shift=    0.000
 Gap=     0.064 Goal=   None    Shift=    0.000
 RMSDP=1.72D-06 MaxDP=1.22D-04 DE=-4.27D-07 OVMax= 4.26D-04

 Cycle  20  Pass 1  IDiag  1:
 RMSU=  8.24D-07    CP:  9.43D-01  1.55D-01  1.40D-01  2.61D-01  3.67D-01
                    CP:  7.58D-01  4.08D-01  3.65D-01  1.10D+00  1.04D+00
                    CP:  1.08D+00  1.01D+00  1.00D+00  1.17D+00  1.02D+00
                    CP:  1.23D+00  1.63D+00  1.45D+00  9.94D-01
 E= -2615.47841630072     Delta-E=       -0.000000106541 Rises=F Damp=F
 DIIS: error= 9.06D-06 at cycle  20 NSaved=  20.
 NSaved=20 IEnMin=20 EnMin= -2615.47841630072     IErMin=19 ErrMin= 6.36D-06
[...]
 ,0.00209351,-0.00184627,0.28430031,-0.00001123,0.00000416,0.00000832,0
 .00001531,-0.00000279,-0.00001623,0.00000285,-0.00000334,0.00005033,-0
 .00003305,0.00001481,0.00003918,-0.00000287,-0.00000140,0.00000021,-0.
 00003752,0.00002684,-0.00002677,0.00003734,0.00000820,-0.00001406,-0.0
 0001457,0.00000736,0.00004263,-0.00002562,0.00002373,-0.00000721,-0.00
 000259,-0.00000382,-0.00000593,0.00000059,0.00004431,0.00000550,-0.000
 10519,0.00007234,-0.00002777,0.00033483,-0.00108733,-0.00080082,0.0000
 2053,-0.00118206,-0.00101528,0.00041891,0.00122969,-0.00005045,-0.0234
 4739,0.01072200,-0.00550408,-0.00188157,-0.00389996,-0.00033336,0.0827
 8773,-0.07993114,0.01921538,0.00010256,-0.00019377,0.00004911,-0.00006
 848,0.00015792,0.00042707,-0.00006395,0.00008506,0.00000883,-0.0000122
 8,-0.00002571,-0.00002110,0.00000039,0.00000120,-0.00000387,0.00000143
 ,-0.00000023,-0.00000151,0.00000023,-0.00000147,-0.00000014,-0.0000019
 9,-0.00000106,-0.00000185,0.00002176,0.00000967,-0.00005499,0.00000390
 ,0.00000282,-0.00000188,-0.00000584,0.00000045,-0.00000756,0.00000320,
 0.00000366,-0.00001120,-0.00000326,0.00000846,0.00000036,0.00000043,-0
 .00000095,-0.00000209,0.00000020,-0.00000236,0.00000308,-0.00000111,0.
 00000386,0.00000044,0.00001102,0.00001076,0.00000779,-0.00004542,0.000
 24194,0.00037999,0.00081579,0.00118157,0.00018885,-0.00008275,-0.00004
 696,0.00023131,-0.00009674,-0.00007807,-0.00024622,-0.00133570,0.00052
 931,-0.00019603,0.01424833,-0.00553507,0.00056267,0.01705531,-0.006260
 90,0.00619632,-0.08880099,0.08402778,0.00000028,0.00000740,0.00001188,
 -0.00001208,-0.00000717,-0.00003215,0.00002896,0.00000218,0.00009146,-
 0.00002828,0.00001039,0.00006762,-0.00001601,-0.00001417,0.00002518,-0
 .00000048,0.00004382,-0.00007847,0.00000124,-0.00005049,0.00013165,-0.
 00004728,0.00000666,0.00000919,0.00000479,0.00001303,-0.00004903,0.000
 04271,-0.00002965,0.00001504,-0.00006406,0.00004264,-0.00003179,0.0000
 8713,-0.00002089,-0.00009065,0.00030361,-0.00067029,-0.00081678,0.0001
 4904,0.00014001,0.00007231,-0.00074940,0.00045515,0.00018988,-0.000327
 12,0.00018711,-0.00223114,-0.00011343,-0.00051514,0.00054498,-0.045653
 11,0.01862859,-0.05834495,-0.00054551,0.00015077,-0.00029347,0.0002224
 8,-0.00005089,0.00002517,0.00002025,0.00000690,0.00010485,0.00005190,-
 0.00002278,-0.00010527,0.00000147,-0.00000242,-0.00000155,-0.00000143,
 -0.00000089,-0.00000342,0.00000034,0.00000091,-0.00000325,0.00000722,-
 0.00000992,0.00000285,-0.00000505,0.00002935,-0.00005684,-0.00000512,0
 .00000662,-0.00002183,-0.00000275,0.00000049,-0.00001805,-0.00000456,0
 .00001008,-0.00002021,-0.00000065,0.00000762,-0.00000045,0.00000226,-0
 .00000121,-0.00000435,0.00000824,-0.00000283,0.00000179,0.00000195,0.0
 0000143,-0.00000723,0.00000993,-0.00000916,-0.00001531,0.00005423,0.00
 000247,0.00005696,0.00031637,-0.00049698,0.00030676,-0.00026065,0.0002
 1470,0.00011111,0.00040677,-0.00012378,0.00023759,-0.00009737,0.000117
 82,0.00051450,-0.02533589,0.00813551,-0.00292802,0.02141147,-0.0066610
 0,0.00660487,0.05008935,-0.01931286,0.05539579,0.00000174,0.00000363,0
 .00000326,-0.00000653,-0.00000403,-0.00000973,0.00000991,-0.00000136,0
 .00002033,0.00001045,-0.00000352,0.00000831,-0.00000773,-0.00000608,0.
 00002364,0.00000009,0.00003010,-0.00005287,-0.00004503,-0.00006875,0.0
 0011209,-0.00021268,0.00001253,-0.00013962,0.00005854,0.00002019,-0.00
 008933,0.00005300,-0.00005812,0.00005012,-0.00005556,0.00000930,-0.000
 11073,-0.00001062,0.00107545,-0.00045430,-0.00247510,-0.00455988,0.005
 81551,0.00117482,0.00066623,-0.00043706,0.00489588,0.00192607,0.002596
 30,0.00052534,0.00010924,0.00099406,-0.00004706,-0.00001453,-0.0001817
 4,-0.00011260,0.00019283,-0.00002027,-0.11589975,-0.07383050,-0.093369
 48,-0.03354745,-0.01003997,-0.02077617,-0.00009108,0.00015999,0.000184
 78,0.00003850,-0.00001694,0.00001117,0.00000031,-0.00000143,-0.0000001
 4,-0.00000045,-0.00000016,-0.00000027,0.00000053,0.00000012,-0.0000016
 7,0.00000124,-0.00000158,0.00000088,-0.00000691,0.00000627,-0.00001736
 ,-0.00000246,0.00000195,-0.00000471,-0.00000062,0.00000169,-0.00000628
 ,-0.00000102,0.00000351,-0.00000437,0.00000265,0.00000132,-0.00000181,
 0.00000304,-0.00000035,-0.00000432,0.00000553,0.00000521,0.00000064,-0
 .00000430,0.00000967,-0.00000653,0.00000956,-0.00001141,-0.00003496,0.
 00097408,0.00027420,0.00092454,-0.00012432,0.00002509,0.00026943,0.000
 00413,-0.00001677,0.00000313,0.00010427,0.00004404,-0.00001486,-0.0000
 2428,-0.00004260,0.00006615,-0.00002595,-0.00017507,0.00011260,0.00000
 493,-0.00006399,0.00009016,0.00003776,-0.00002425,0.00004865,0.1377132
 6,0.00000590,-0.00000357,-0.00000976,-0.00000535,0.00000640,0.00001916
 ,-0.00004541,-0.00000386,-0.00006193,0.00007024,0.00000389,-0.00006641
 ,0.00000214,-0.00000479,0.00000431,0.00005998,-0.00003651,0.00002669,-
 0.00009857,0.00001939,0.00009855,0.00000641,0.00007511,0.00004676,0.00
 000015,0.00000766,-0.00000733,0.00001266,0.00000416,0.00000528,-0.0000
 1508,0.00002322,-0.00000443,0.00002373,-0.00038193,0.00012651,0.001341
 47,-0.00041601,0.00014838,0.00037818,-0.00152265,0.00060473,0.00569099
 ,0.00887502,0.01011897,0.00024231,-0.00130564,0.00116034,-0.00009158,0
 .00024893,-0.00002362,0.00002458,-0.00046560,0.00012158,-0.08220733,-0
 .13891785,-0.10434904,0.00768180,0.00770788,0.00635870,0.00006196,-0.0
 0003478,-0.00009185,0.00004535,-0.00011739,0.00004947,0.00000013,0.000
 00124,0.00000291,0.00000021,0.00000018,-0.00000058,-0.00000127,0.00000
 016,0.00000196,0.00000253,-0.00000078,-0.00000240,0.00000253,-0.000015
 74,0.00006442,0.00000023,-0.00000152,0.00000032,0.00000809,-0.00000462
 ,0.00002714,-0.00000233,-0.00000100,0.00000259,0.00000340,-0.00000476,
 -0.00000161,0.00000663,-0.00000092,0.00000315,-0.00000381,-0.00001356,
 -0.00000648,0.00000043,-0.00000018,-0.00000034,0.00000836,0.00001027,-
 0.00000645,0.00044729,0.00130801,-0.00014633,-0.00006885,0.00030618,0.
 00036238,-0.00001450,-0.00002838,0.00005124,-0.00021110,-0.00009059,0.
 00006487,0.00002939,0.00006217,-0.00008661,0.00010536,0.00037495,-0.00
 023975,0.00003559,0.00016600,-0.00016451,-0.00001724,0.00006311,-0.000
 07167,0.08202715,0.13574149,-0.00000556,-0.00000130,0.00000199,0.00001
 186,-0.00000100,-0.00000146,0.00001693,0.00000986,0.00001110,-0.000060
 25,0.00000126,0.00003271,0.00000763,0.00001284,-0.00003375,-0.00003982
 ,-0.00001223,0.00004771,0.00011381,0.00006689,-0.00021652,0.00023727,-
 0.00008089,0.00008175,-0.00006341,-0.00004426,0.00012038,-0.00008862,0
 .00006337,-0.00006834,0.00014853,-0.00004401,0.00009507,-0.00029156,-0
 .00056144,0.00003554,0.00128609,0.00264138,-0.00348789,-0.00151003,0.0
 0016255,-0.00075897,-0.01054501,-0.01439767,-0.01474309,-0.00070944,0.
 00294175,-0.00248543,-0.00019192,0.00006418,0.00008412,0.00020119,0.00
 046869,0.00013977,-0.10219896,-0.10336228,-0.17833630,0.01097530,0.005
 01592,0.01184454,-0.00010240,0.00005324,-0.00008511,-0.00007718,0.0001
 0281,-0.00001447,-0.00000030,0.00000071,-0.00000154,0.00000057,0.00000
 019,0.00000121,0.00000013,-0.00000032,0.00000046,-0.00000457,0.0000042
 6,0.00000071,0.00000552,-0.00000410,-0.00001789,0.00000429,-0.00000213
 ,0.00001002,-0.00000397,0.00000176,-0.00001233,0.00000332,-0.00000346,
 0.00000415,-0.00000560,0.00000218,0.00000298,-0.00000889,0.00000128,0.
 00000199,-0.00000527,0.00000782,0.00000557,0.00000090,-0.00000738,0.00
 000671,-0.00001249,-0.00000845,0.00002247,-0.00021304,-0.00015513,0.00
 126580,0.00029850,-0.00065603,-0.00086605,0.00007900,0.00001087,0.0000
 5225,0.00003717,-0.00011431,0.00004023,0.00009418,0.00001616,-0.000058
 63,0.00000183,-0.00002498,0.00011769,-0.00000090,-0.00004174,0.0000239
 8,-0.00002781,-0.00002082,-0.00000603,0.10024533,0.10571856,0.18270430
 ,-0.00000063,0.00000389,0.00000461,-0.00000270,-0.00000524,-0.00001118
 ,0.00001334,0.00000107,0.00002856,-0.00000187,-0.00000574,0.00001805,-
 0.00001246,-0.00001380,0.00001691,-0.00001623,0.00003115,-0.00006082,-
 0.00000312,-0.00001080,0.00009445,-0.00008142,0.00015549,-0.00008954,0
 .00003860,0.00000996,-0.00005262,0.00004086,-0.00001291,0.00005068,-0.
 00000515,0.00007757,-0.00005752,-0.00024230,-0.00028803,-0.00128798,-0
 .00316813,0.00064200,0.00603675,-0.00001604,-0.00035327,-0.00049025,0.
 00331927,-0.00260645,-0.00126366,0.00061271,0.00001516,0.00038471,0.00
 025923,-0.00064018,0.00055383,-0.00015793,0.00072798,-0.00017434,-0.05
 065336,0.03177949,-0.00597398,-0.02076717,0.03626275,-0.00446198,-0.00
 035804,-0.00008163,0.00000287,0.00000949,0.00000200,-0.00000045,0.0000
 0009,-0.00000134,-0.00000080,-0.00000018,-0.00000014,-0.00000018,0.000
 00070,-0.00000015,-0.00000187,0.,-0.00000109,0.00000106,-0.00000756,0.
 00000684,-0.00002685,-0.00000107,0.00000150,-0.00000218,-0.00000249,0.
 00000211,-0.00001045,0.,0.00000379,-0.00000548,0.00000293,0.00000361,-
 0.00000258,0.00000179,-0.00000017,-0.00000268,0.00000099,-0.00000673,-
 0.00000317,-0.00000802,0.00000067,-0.00000967,0.00002115,0.00002084,-0
 .00001158,-0.00003594,-0.00031626,0.00045633,-0.00023992,0.00000449,-0
 .00000189,0.00007949,0.00017253,-0.00021425,-0.00068183,0.00048993,0.0
 0049900,-0.00005619,-0.00000906,-0.00008298,0.00012799,-0.00060712,-0.
 00028587,0.00007191,-0.00006168,0.00020455,-0.00002192,-0.00004823,0.0
 0000960,0.00697577,-0.01564528,0.00251087,0.06488147,0.00000124,0.0000
 0115,0.00000222,-0.00000134,-0.00000326,-0.00000251,0.00000915,0.00000
 480,0.00000729,-0.00001266,-0.00000518,0.00001695,-0.00000527,-0.00000
 577,0.00000636,-0.00001929,0.00002133,-0.00002457,0.00002394,-0.000009
 07,0.00001931,-0.00003962,0.00005737,-0.00001361,0.00001485,0.00000192
 ,-0.00003262,0.00002686,-0.00000711,0.00002120,-0.00004049,0.00001163,
 -0.00000484,0.00001169,-0.00019534,-0.00016686,-0.00111544,-0.00014790
 ,-0.00026839,0.00007541,-0.00029857,-0.00066197,-0.00153697,-0.0024960
 0,0.00270356,0.00074037,-0.00097115,-0.00109366,0.00016057,-0.00033677
 ,-0.00028375,0.00002304,0.00008805,-0.00065725,0.04554253,-0.32710444,
 0.02968037,0.00294136,0.00434549,0.00016964,0.00007233,-0.00001327,0.0
 0008095,-0.00001255,0.00000219,-0.00003045,-0.00000015,-0.00000085,0.0
 0000009,-0.00000025,-0.00000013,-0.00000001,0.00000037,0.00000017,-0.0
 0000098,0.00000020,-0.00000015,0.00000027,-0.00000474,0.00000061,-0.00
 000645,-0.00000090,-0.00000021,0.00000097,-0.00000148,0.00000188,-0.00
 000499,0.00000044,0.00000093,-0.00000181,0.00000026,0.00000192,-0.0000
 0033,0.00000062,0.00000013,-0.00000099,0.00000118,-0.00000307,-0.00000
 157,0.00000086,-0.00000006,-0.00000088,-0.00000701,-0.00000235,0.00000
 509,0.00066164,-0.00004909,0.00079041,-0.00007517,0.00007037,0.0001170
 4,-0.00012585,0.00005760,-0.00014785,0.00023813,0.00038289,-0.00055874
 ,0.00000223,0.00002975,0.00007255,-0.00033587,-0.00006109,-0.00097029,
 0.00018112,0.00007524,0.00000821,-0.00004423,0.00001491,0.00005348,0.0
 0235649,-0.01194553,0.00253951,-0.04965349,0.33851564,-0.00000813,0.00
 000381,0.00000970,0.00001564,-0.00001517,-0.00001585,0.00003562,0.0000
 1180,0.00007980,-0.00010778,-0.00001002,0.00009168,-0.00001138,-0.0000
 0721,-0.00001846,-0.00008021,0.00007212,-0.00000468,0.00019690,-0.0000
 2054,-0.00020481,0.00016955,-0.00004983,0.00007490,-0.00004997,-0.0000
 0397,0.00009591,-0.00006720,0.00003683,-0.00005599,0.00008677,-0.00006
 585,0.00006133,-0.00009565,0.00023859,0.00030395,0.00029180,0.00078313
 ,-0.00446989,-0.00211564,0.00146582,-0.00256445,-0.00395871,0.02598758
 ,0.00011177,-0.00018237,0.00040061,0.00117822,0.00007062,0.00005833,-0
 .00046095,-0.00011724,0.00034066,-0.00080039,-0.00764026,0.03167548,-0
 .05495513,0.00596888,-0.00933287,0.00402942,-0.00010845,0.00002924,0.0
 0000622,-0.00012589,-0.00004374,-0.00016245,0.00000019,-0.00000131,-0.
 00000318,-0.00000151,-0.00000083,-0.00000160,0.00000034,0.00000038,-0.
 00000073,0.00000468,-0.00000371,0.00000121,0.00000365,0.00001938,-0.00
 004593,-0.00000866,0.00000215,-0.00001155,-0.00000833,0.00000628,-0.00
 001644,0.00000106,0.00000210,-0.00001041,-0.00000958,0.00001297,0.0000
 0554,-0.00000101,0.00000011,-0.00000122,-0.00000695,-0.00001396,-0.000
 00084,0.00000292,-0.00000017,0.00000602,-0.00000670,-0.00000199,0.0000
 2714,0.00001257,0.00133430,-0.00306495,-0.00012467,-0.00005648,0.00055
 934,-0.00002924,-0.00016234,0.00018815,0.00086877,-0.00036242,-0.00014
 034,-0.00012793,-0.00004005,0.00015811,-0.00064975,-0.00119103,-0.0005
 4023,0.00006395,-0.00024254,0.00040750,0.00011728,-0.00007180,0.000193
 45,0.00403979,-0.01979268,0.00459190,0.00360806,-0.03136079,0.05477441
 ,-0.00277310,0.00034124,0.00019253,0.00296348,0.00052357,-0.00220364,-
 0.00079326,-0.00254938,0.00981532,0.00473635,0.00253102,-0.00755950,0.
 00027187,-0.00064168,-0.00053774,0.00531005,-0.00347665,0.00419039,-0.
 02427145,0.00826885,-0.00195893,-0.01736288,0.00203102,0.00765686,0.00
 011955,0.00210644,-0.00408770,0.00060260,-0.00073054,0.00114987,-0.000
 27558,0.00113481,-0.00146866,0.00239334,-0.00300994,0.00617103,0.01423
 781,0.00024225,-0.00884541,-0.04326019,0.01655772,-0.02370533,-0.00273
 570,0.00181253,-0.00373647,0.00038794,0.00091343,-0.00196750,-0.000245
 24,-0.00041813,0.00057615,0.00046412,-0.00011530,0.00023635,-0.0018419
 4,0.00008932,0.00022852,-0.00055032,-0.00292735,0.00799297,-0.04526002
 ,-0.00269644,0.02842762,-0.05801115,0.02012221,-0.02461300,0.00002584,
 0.00033087,-0.00069581,0.00018296,-0.00004111,0.00005408,-0.00000430,-
 0.00032736,0.00042107,-0.00038584,0.00013081,0.00016099,-0.00428899,-0
 .00154992,-0.00447377,0.00000166,0.00033366,-0.00057616,-0.00040795,0.
 00070068,-0.00137391,-0.00011776,-0.00004675,0.00064179,-0.00003188,-0
 .00008481,0.00001141,0.00033232,-0.00014845,0.00018151,-0.00003418,-0.
 00002341,0.00027091,-0.00016974,-0.00001119,-0.00001216,0.00036328,0.0
 0002329,-0.00019879,-0.00039400,0.00005564,-0.00064573,-0.00023017,-0.
 00057395,0.00133387,0.00003501,-0.00002618,-0.00004988,0.00023017,-0.0
 0008000,0.00007315,-0.00007954,0.00003151,-0.00004446,-0.00014474,-0.0
 0013604,0.00008124,0.00002002,-0.00004306,-0.00003442,-0.00000723,0.00
 026993,-0.00001004,0.00009618,0.00010254,-0.00011321,0.00008387,-0.000
 05409,0.00008416,0.17081872,-0.00139091,0.00015065,0.00023807,0.002050
 41,-0.00046735,-0.00040454,0.00377264,-0.00370511,0.01209606,0.0022055
 7,-0.00144046,0.00193681,-0.00030333,-0.00093458,0.00087322,-0.0032884
 5,0.00463621,0.00082048,0.01259051,-0.00343435,-0.00513002,0.00306351,
 0.00077486,-0.00420494,0.00130597,0.00040508,0.00237790,-0.00081768,0.
 00037592,-0.00075635,0.00247500,0.00077445,0.00102166,-0.00407377,-0.0
 0090565,0.00536888,-0.00504895,-0.00518652,0.01328899,0.01452096,-0.02
 489913,0.01816507,0.00287929,-0.00138450,-0.00042460,0.00004652,-0.000
 31213,0.00099575,0.00015859,0.00004757,-0.00036879,0.00158393,-0.00051
 924,0.00020253,0.00036446,-0.00068317,-0.00021978,-0.00030009,0.005293
 86,-0.00362006,-0.00311329,-0.01039714,0.00443013,0.01799860,-0.025248
 24,0.01828094,-0.00014672,0.00019390,-0.00040641,0.00007902,-0.0000416
 0,-0.00006003,0.00004050,-0.00015852,0.00011638,-0.00002415,-0.0005862
 5,0.00014264,-0.00497219,0.00092859,-0.00664874,-0.00005200,0.00085912
 ,-0.00251977,-0.00037203,0.00037413,-0.00293608,-0.00003998,0.00014527
 ,-0.00061533,-0.00016018,0.00020139,0.00003706,0.00060081,-0.00014785,
 -0.00003488,0.00020865,0.00031630,-0.00022433,-0.00002667,-0.00025066,
 -0.00000778,-0.00013333,0.00015950,0.00015278,-0.00067306,0.00011998,-
 0.00016560,0.00043379,0.00038459,-0.00075893,-0.00001877,0.00007582,0.
 00000517,-0.00018939,0.00003035,-0.00000557,-0.00018256,-0.00004342,-0
 .00007044,-0.00041484,0.00018497,-0.00018553,-0.00036727,0.00012797,-0
 .00007897,-0.00126052,-0.00023754,-0.00020095,-0.00002099,0.00031273,-
 0.00036411,-0.00004602,-0.00002962,0.00036967,-0.03894161,0.06413982,0
 .00113299,-0.00038355,-0.00039503,-0.00270376,0.00076961,0.00086616,-0
 .00494781,-0.00138929,-0.00861857,-0.00305466,0.00194827,-0.00499441,0
 .00006757,0.00018892,-0.00105829,0.00857279,-0.00270550,-0.00021451,-0
 .01195060,-0.00139928,0.01413966,0.00424693,-0.00273776,0.00367552,-0.
 00171194,0.00159371,-0.00071883,0.00121706,-0.00072492,0.00075437,-0.0
 0427091,0.00205404,0.00007445,0.00916287,0.00463083,-0.01644791,0.0008
 6706,0.00965388,-0.02492663,-0.01763720,0.01850565,-0.05388076,-0.0077
 7619,0.00108143,0.00385832,0.00038165,0.00003356,0.00209375,-0.0001183
 2,-0.00050805,-0.00096530,0.00036748,-0.00041588,-0.00080048,-0.000192
 92,-0.00085949,0.00010067,0.00345723,-0.00281622,0.00646462,0.02773837
 ,0.00277323,-0.03919007,-0.02914973,0.01908247,-0.04582802,0.00020216,
 -0.00012628,0.00042445,-0.00006599,0.00005828,-0.00006832,-0.00005728,
 0.00015966,-0.00010773,0.00045161,-0.00019427,-0.00003378,0.00496469,0
 .00228426,0.00457393,0.00048409,0.00039358,-0.00144130,0.00136807,-0.0
 0150737,0.00294457,-0.00060299,0.00037471,-0.00056478,0.00000462,0.000
 01348,0.00001096,0.00013420,-0.00008953,0.00005581,-0.00023327,-0.0000
 0945,0.00046582,-0.00001484,-0.00003470,-0.00020123,0.00025548,-0.0000
 2303,-0.00006025,0.00035964,0.00004376,-0.00015601,-0.00009733,0.00047
 183,-0.00065789,0.00026045,-0.00016814,0.00001398,-0.00014598,0.000173
 91,-0.00002723,-0.00008691,0.00004436,0.00012251,-0.00014966,0.0002696
 0,-0.00008053,0.00013119,-0.00028670,-0.00001019,-0.00004390,0.0003384
 8,0.00044537,0.00011768,-0.00005519,-0.00015330,0.00010590,0.00000072,
 0.00059481,0.01896041,-0.05050766,0.15992162\\-0.00000015,0.00000257,-
 0.00000476,-0.00000055,0.00000126,-0.00000048,0.00000489,0.00000492,0.
 00000299,0.00000022,-0.00001336,0.00002046,0.00001245,0.00001509,-0.00
 003355,-0.00000846,-0.00001032,0.00002987,-0.00000094,-0.00000311,0.00
 001170,0.00000973,0.00000467,-0.00001741,-0.00000583,-0.00000227,0.000
 00312,0.00000509,-0.00000107,-0.00000216,-0.00000795,-0.00000091,0.000
 00405,0.00001689,0.00000028,-0.00001389,-0.00000652,-0.00000214,0.0000
 1298,0.00000663,-0.00001043,0.00000221,-0.00002200,0.00001254,-0.00000
 884,0.00000546,0.00000186,0.00000064,0.00000101,-0.00000190,-0.0000010
 2,-0.00000104,-0.00000452,-0.00000059,0.00002479,-0.00000227,-0.000006
 58,-0.00001933,0.00000971,0.00000066,-0.00001598,0.00000358,0.00001916
 ,-0.00000413,0.00000638,-0.00002372,0.00000002,-0.00000075,0.00000076,
 -0.00000036,-0.00000111,0.00000068,-0.00000055,-0.00000057,0.00000060,
 -0.00000030,0.00000011,0.00000089,-0.00000465,-0.00000392,-0.00000199,
 -0.00000063,-0.00000240,0.00000213,-0.00000310,0.00000030,-0.00000364,
 -0.00000067,0.00000091,-0.00000227,-0.00000056,-0.00000277,0.00000176,
 -0.00000120,-0.00000199,0.00000165,-0.00000009,-0.00000051,0.00000206,
 -0.00000005,0.00000113,0.00000018,-0.00000046,0.00000024,0.00000021,0.
 00000286,0.00000065,0.00000110,-0.00000021,0.00000016,0.00000016,-0.00
 000012,0.00000093,-0.00000014,-0.00000034,0.00000103,0.00000008,0.0000
 0041,0.00000058,-0.00000005,0.00000076,0.00000156,0.00000110,0.0000009
 5,0.00000103,0.00000018,0.00000017,0.00000031,0.00000061,-0.00000055,-
 0.00000126,0.00000071,-0.00000185,-0.00000029,-0.00000030,0.00001626,-
 0.00000397,-0.00000130\\\@
 The archive entry for this job was punched.


 I MET A TRAVELLER FROM AN ANTIQUE LAND
 WHO SAID... TWO VAST AND TRUNKLESS LEGS OF STONE
 STAND IN THE DESERT..... NEAR THEM,  ON THE SAND,
 HALF SUNK,  A SHATTERED VISAGE LIES,  WHOSE FROWN,
 AND WRINKLED LIP,  AND SNEER OF COLD COMMAND
 TELL THAT ITS SCULPTOR WELL THOSE PASSIONS READ
 WHICH YET SURVIVE,  STAMPED ON THESE LIFELESS THINGS
 THE HAND THAT MOCKED THEM,  AND THE HEART THAT FED-
 AND ON THE PEDESTAL THESE WORDS APPEAR 
 MY NAME IS OZYMANDIAS, KING OF KINGS--   
 LOOK ON MY WORKS YE MIGHTY AND DESPAIR. 
 NOTHING BESIDE REMAINS,  ROUND THE DECAY 
 OF THAT COLOSSAL WRECK,  BOUNDLESS AND BARE
 THE LONE AND LEVEL SANDS STRETCH FAR AWAY.
                                    SHELLEY
 Job cpu time:       0 days  4 hours 33 minutes 22.6 seconds.
 Elapsed time:       0 days  0 hours  8 minutes 35.1 seconds.
 File lengths (MBytes):  RWF=   1698 Int=      0 D2E=      0 Chk=     19 Scr=      2
 Normal termination of Gaussian 16 at Fri Mar  8 01:10:52 2024.
