 Entering Gaussian System, Link 0=g16
 Initial command:
 /public/software/apps/Gaussian/g16/l1.exe "/public/home/LJQ_HG/tmp/Gau-49420.inp" -scrdir="/public/home/LJQ_HG/tmp/"
 Entering Link 1 = /public/software/apps/Gaussian/g16/l1.exe PID=     49422.
  
 Copyright (c) 1988-2019, Gaussian, Inc.  All Rights Reserved.
  
 This is part of the Gaussian(R) 16 program.  It is based on
 the Gaussian(R) 09 system (copyright 2009, Gaussian, Inc.),
 the Gaussian(R) 03 system (copyright 2003, Gaussian, Inc.),
 the Gaussian(R) 98 system (copyright 1998, Gaussian, Inc.),
 the Gaussian(R) 94 system (copyright 1995, Gaussian, Inc.),
 the Gaussian 92(TM) system (copyright 1992, Gaussian, Inc.),
 the Gaussian 90(TM) system (copyright 1990, Gaussian, Inc.),
 the Gaussian 88(TM) system (copyright 1988, Gaussian, Inc.),
 the Gaussian 86(TM) system (copyright 1986, Carnegie Mellon
 University), and the Gaussian 82(TM) system (copyright 1983,
 Carnegie Mellon University). Gaussian is a federally registered
 trademark of Gaussian, Inc.
  
 This software contains proprietary and confidential information,
 including trade secrets, belonging to Gaussian, Inc.
  
 This software is provided under written license and may be
 used, copied, transmitted, or stored only in accord with that
 written license.
  
 The following legend is applicable only to US Government
 contracts under FAR:
  
                    RESTRICTED RIGHTS LEGEND
  
 Use, reproduction and disclosure by the US Government is
 subject to restrictions as set forth in subparagraphs (a)
 and (c) of the Commercial Computer Software - Restricted
 Rights clause in FAR 52.227-19.
  
 Gaussian, Inc.
 340 Quinnipiac St., Bldg. 40, Wallingford CT 06492
  
  
 ---------------------------------------------------------------
 Warning -- This program may not be used in any manner that
 competes with the business of Gaussian, Inc. or will provide
 assistance to any competitor of Gaussian, Inc.  The licensee
 of this program is prohibited from giving any competitor of
 Gaussian, Inc. access to this program.  By using this program,
 the user acknowledges that Gaussian, Inc. is engaged in the
 business of creating and licensing software in the field of
 computational chemistry and represents and warrants to the
 licensee that it is not a competitor of Gaussian, Inc. and that
 it will not use this program in any manner prohibited above.
 ---------------------------------------------------------------
  

 Cite this work as:
 Gaussian 16, Revision C.01,
 M. J. Frisch, G. W. Trucks, H. B. Schlegel, G. E. Scuseria, 
 M. A. Robb, J. R. Cheeseman, G. Scalmani, V. Barone, 
 G. A. Petersson, H. Nakatsuji, X. Li, M. Caricato, A. V. Marenich, 
 J. Bloino, B. G. Janesko, R. Gomperts, B. Mennucci, H. P. Hratchian, 
 J. V. Ortiz, A. F. Izmaylov, J. L. Sonnenberg, D. Williams-Young, 
 F. Ding, F. Lipparini, F. Egidi, J. Goings, B. Peng, A. Petrone, 
 T. Henderson, D. Ranasinghe, V. G. Zakrzewski, J. Gao, N. Rega, 
 G. Zheng, W. Liang, M. Hada, M. Ehara, K. Toyota, R. Fukuda, 
 J. Hasegawa, M. Ishida, T. Nakajima, Y. Honda, O. Kitao, H. Nakai, 
 T. Vreven, K. Throssell, J. A. Montgomery, Jr., J. E. Peralta, 
 F. Ogliaro, M. J. Bearpark, J. J. Heyd, E. N. Brothers, K. N. Kudin, 
 V. N. Staroverov, T. A. Keith, R. Kobayashi, J. Normand, 
 K. Raghavachari, A. P. Rendell, J. C. Burant, S. S. Iyengar, 
 J. Tomasi, M. Cossi, J. M. Millam, M. Klene, C. Adamo, R. Cammi, 
 J. W. Ochterski, R. L. Martin, K. Morokuma, O. Farkas, 
 J. B. Foresman, and D. J. Fox, Gaussian, Inc., Wallingford CT, 2019.
 
 ******************************************
 Gaussian 16:  ES64L-G16RevC.01  3-Jul-2019
                 8-Mar-2024 
 ******************************************
 %nprocshared=32
 Will use up to   32 processors via shared memory.
 %mem=100GB
 ------------------------------------------
 #p opt freq b3lyp/def2svpp em=gd3bj nosymm
 ------------------------------------------
 1/18=20,19=15,26=3,38=1/1,3;
 2/9=110,12=2,15=1,17=6,18=5,40=1/2;
 3/5=43,7=202,11=2,25=1,30=1,71=1,74=-5,124=41/1,2,3;
 4//1;
 5/5=2,38=5/2;
 6/7=2,8=2,9=2,10=2,28=1/1;
 7/30=1/1,2,3,16;
 1/18=20,19=15,26=3/3(2);
 2/9=110,15=1/2;
 99//99;
 2/9=110,15=1/2;
 3/5=43,7=202,11=2,25=1,30=1,71=1,74=-5,124=41/1,2,3;
 4/5=5,16=3,69=1/1;
 5/5=2,38=5/2;
 7/30=1/1,2,3,16;
 1/18=20,19=15,26=3/3(-5);
 2/9=110,15=1/2;
 6/7=2,8=2,9=2,10=2,19=2,28=1/1;
 99/9=1/99;
 Leave Link    1 at Fri Mar  8 00:05:24 2024, MaxMem= 13421772800 cpu:               2.8 elap:               0.1
 (Enter /public/software/apps/Gaussian/g16/l101.exe)
 ------------------
 $$$$Title####2????
 ------------------
 Symbolic Z-matrix:
 Charge =  2 Multiplicity = 2
 C                    -3.54573  -1.56594   0.88729 
 C                    -2.47209  -1.04677   1.61422 
 C                    -1.16032  -1.30884   1.20937 
 C                    -0.91032  -2.09284   0.06639 
 C                     0.5046   -2.32448  -0.41745 
 C                     1.38756  -3.0598    0.61422 
 O                     2.42522  -2.1315    0.8807 
 C                     2.21223  -0.98599   0.139 
 C                     3.04834   0.26549   0.22392 
 C                     2.15315   1.47638   0.29395 
 N                     1.09404   1.48512   1.02482 
 C                     0.3753    2.73311   0.82032 
 C                    -1.01862   2.43563   0.31216 
 C                    -1.2118    1.64109  -0.83456 
 C                    -2.50264   1.31802  -1.26195 
 C                    -3.61185   1.78619  -0.55402 
 C                    -3.43183   2.57988   0.58163 
 C                    -2.14211   2.90393   1.01488 
 C                     1.24052   3.50948  -0.19619 
 O                     2.325     2.63094  -0.44438 
 C                     4.14218   0.32395  -0.84833 
 C                     5.20692   0.31609   0.24246 
 C                     4.12514   0.25793   1.3148 
 N                     1.16747  -1.0441   -0.61005 
 C                    -1.9983   -2.6128   -0.6556 
 C                    -3.30909  -2.3497   -0.24488 
 H                    -4.561    -1.35759   1.19889 
 H                    -2.6561   -0.43428   2.48736 
 H                    -0.34001  -0.89108   1.77895 
 H                     0.51362  -2.88052  -1.38108 
 H                     1.81794  -3.98675   0.17858 
 H                     0.84699  -3.30201   1.55466 
 H                     0.34157   3.28853   1.78376 
 H                    -0.36307   1.26235  -1.38961 
 H                    -2.64261   0.69782  -2.13781 
 H                    -4.6107    1.53063  -0.88307 
 H                    -4.29242   2.93916   1.13086 
 H                    -2.02177   3.51001   1.90407 
 H                     0.70553   3.72651  -1.14592 
 H                     1.61939   4.45538   0.24649 
 H                     4.19672  -0.58781  -1.48441 
 H                     4.1638    1.26274  -1.4426 
 H                     5.83425  -0.60182   0.21933 
 H                     5.79005   1.26238   0.27598 
 H                     4.12598   1.171     1.95133 
 H                     4.18052  -0.67904   1.90976 
 H                    -1.83434  -3.21209  -1.54242 
 H                    -4.14226  -2.74853  -0.80888 
 Cu                   -0.13072   0.23365   0.1304 
 
 ITRead=  0  0  0  0  0  0  0  0  0  0  0  0  0  0  0  0  0  0  0  0
 ITRead=  0  0  0  0  0  0  0  0  0  0  0  0  0  0  0  0  0  0  0  0
 ITRead=  0  0  0  0  0  0  0  0  0
 MicOpt= -1 -1 -1 -1 -1 -1 -1 -1 -1 -1 -1 -1 -1 -1 -1 -1 -1 -1 -1 -1
 MicOpt= -1 -1 -1 -1 -1 -1 -1 -1 -1 -1 -1 -1 -1 -1 -1 -1 -1 -1 -1 -1
 MicOpt= -1 -1 -1 -1 -1 -1 -1 -1 -1
 NAtoms=     49 NQM=       49 NQMF=       0 NMMI=      0 NMMIF=      0
                NMic=       0 NMicF=      0.
                    Isotopes and Nuclear Properties:
 (Nuclear quadrupole moments (NQMom) in fm**2, nuclear magnetic moments (NMagM)
  in nuclear magnetons)

  Atom         1           2           3           4           5           6           7           8           9          10
 IAtWgt=          12          12          12          12          12          12          16          12          12          12
 AtmWgt=  12.0000000  12.0000000  12.0000000  12.0000000  12.0000000  12.0000000  15.9949146  12.0000000  12.0000000  12.0000000
 NucSpn=           0           0           0           0           0           0           0           0           0           0
 AtZEff=  -0.0000000  -0.0000000  -0.0000000  -0.0000000  -0.0000000  -0.0000000  -0.0000000  -0.0000000  -0.0000000  -0.0000000
 NQMom=    0.0000000   0.0000000   0.0000000   0.0000000   0.0000000   0.0000000   0.0000000   0.0000000   0.0000000   0.0000000
 NMagM=    0.0000000   0.0000000   0.0000000   0.0000000   0.0000000   0.0000000   0.0000000   0.0000000   0.0000000   0.0000000
 AtZNuc=   6.0000000   6.0000000   6.0000000   6.0000000   6.0000000   6.0000000   8.0000000   6.0000000   6.0000000   6.0000000

  Atom        11          12          13          14          15          16          17          18          19          20
 IAtWgt=          14          12          12          12          12          12          12          12          12          16
 AtmWgt=  14.0030740  12.0000000  12.0000000  12.0000000  12.0000000  12.0000000  12.0000000  12.0000000  12.0000000  15.9949146
 NucSpn=           2           0           0           0           0           0           0           0           0           0
 AtZEff=  -0.0000000  -0.0000000  -0.0000000  -0.0000000  -0.0000000  -0.0000000  -0.0000000  -0.0000000  -0.0000000  -0.0000000
 NQMom=    2.0440000   0.0000000   0.0000000   0.0000000   0.0000000   0.0000000   0.0000000   0.0000000   0.0000000   0.0000000
 NMagM=    0.4037610   0.0000000   0.0000000   0.0000000   0.0000000   0.0000000   0.0000000   0.0000000   0.0000000   0.0000000
 AtZNuc=   7.0000000   6.0000000   6.0000000   6.0000000   6.0000000   6.0000000   6.0000000   6.0000000   6.0000000   8.0000000

  Atom        21          22          23          24          25          26          27          28          29          30
 IAtWgt=          12          12          12          14          12          12           1           1           1           1
 AtmWgt=  12.0000000  12.0000000  12.0000000  14.0030740  12.0000000  12.0000000   1.0078250   1.0078250   1.0078250   1.0078250
 NucSpn=           0           0           0           2           0           0           1           1           1           1
 AtZEff=  -0.0000000  -0.0000000  -0.0000000  -0.0000000  -0.0000000  -0.0000000  -0.0000000  -0.0000000  -0.0000000  -0.0000000
 NQMom=    0.0000000   0.0000000   0.0000000   2.0440000   0.0000000   0.0000000   0.0000000   0.0000000   0.0000000   0.0000000
 NMagM=    0.0000000   0.0000000   0.0000000   0.4037610   0.0000000   0.0000000   2.7928460   2.7928460   2.7928460   2.7928460
 AtZNuc=   6.0000000   6.0000000   6.0000000   7.0000000   6.0000000   6.0000000   1.0000000   1.0000000   1.0000000   1.0000000

  Atom        31          32          33          34          35          36          37          38          39          40
 IAtWgt=           1           1           1           1           1           1           1           1           1           1
 AtmWgt=   1.0078250   1.0078250   1.0078250   1.0078250   1.0078250   1.0078250   1.0078250   1.0078250   1.0078250   1.0078250
 NucSpn=           1           1           1           1           1           1           1           1           1           1
 AtZEff=  -0.0000000  -0.0000000  -0.0000000  -0.0000000  -0.0000000  -0.0000000  -0.0000000  -0.0000000  -0.0000000  -0.0000000
 NQMom=    0.0000000   0.0000000   0.0000000   0.0000000   0.0000000   0.0000000   0.0000000   0.0000000   0.0000000   0.0000000
 NMagM=    2.7928460   2.7928460   2.7928460   2.7928460   2.7928460   2.7928460   2.7928460   2.7928460   2.7928460   2.7928460
 AtZNuc=   1.0000000   1.0000000   1.0000000   1.0000000   1.0000000   1.0000000   1.0000000   1.0000000   1.0000000   1.0000000

  Atom        41          42          43          44          45          46          47          48          49
 IAtWgt=           1           1           1           1           1           1           1           1          63
 AtmWgt=   1.0078250   1.0078250   1.0078250   1.0078250   1.0078250   1.0078250   1.0078250   1.0078250  62.9295992
 NucSpn=           1           1           1           1           1           1           1           1           3
 AtZEff=  -0.0000000  -0.0000000  -0.0000000  -0.0000000  -0.0000000  -0.0000000  -0.0000000  -0.0000000  -0.0000000
 NQMom=    0.0000000   0.0000000   0.0000000   0.0000000   0.0000000   0.0000000   0.0000000   0.0000000 -22.0000000
 NMagM=    2.7928460   2.7928460   2.7928460   2.7928460   2.7928460   2.7928460   2.7928460   2.7928460   2.2233000
 AtZNuc=   1.0000000   1.0000000   1.0000000   1.0000000   1.0000000   1.0000000   1.0000000   1.0000000  29.0000000
 Leave Link  101 at Fri Mar  8 00:05:24 2024, MaxMem= 13421772800 cpu:              10.6 elap:               0.3
 (Enter /public/software/apps/Gaussian/g16/l103.exe)

 GradGradGradGradGradGradGradGradGradGradGradGradGradGradGradGradGradGrad
 Berny optimization.
 Initialization pass.
                           ----------------------------
                           !    Initial Parameters    !
                           ! (Angstroms and Degrees)  !
 --------------------------                            --------------------------
 ! Name  Definition              Value          Derivative Info.                !
 --------------------------------------------------------------------------------
 ! R1    R(1,2)                  1.3967         estimate D2E/DX2                !
 ! R2    R(1,26)                 1.3972         estimate D2E/DX2                !
 ! R3    R(1,27)                 1.0823         estimate D2E/DX2                !
 ! R4    R(2,3)                  1.3976         estimate D2E/DX2                !
 ! R5    R(2,28)                 1.0823         estimate D2E/DX2                !
 ! R6    R(3,4)                  1.4084         estimate D2E/DX2                !
 ! R7    R(3,29)                 1.0825         estimate D2E/DX2                !
 ! R8    R(3,49)                 2.1456         estimate D2E/DX2                !
 ! R9    R(4,5)                  1.5132         estimate D2E/DX2                !
 ! R10   R(4,25)                 1.4055         estimate D2E/DX2                !
 ! R11   R(5,6)                  1.5442         estimate D2E/DX2                !
 ! R12   R(5,24)                 1.4546         estimate D2E/DX2                !
 ! R13   R(5,30)                 1.1126         estimate D2E/DX2                !
 ! R14   R(6,7)                  1.4176         estimate D2E/DX2                !
 ! R15   R(6,31)                 1.111          estimate D2E/DX2                !
 ! R16   R(6,32)                 1.1114         estimate D2E/DX2                !
 ! R17   R(7,8)                  1.3812         estimate D2E/DX2                !
 ! R18   R(8,9)                  1.5075         estimate D2E/DX2                !
 ! R19   R(8,24)                 1.2868         estimate D2E/DX2                !
 ! R20   R(9,10)                 1.5075         estimate D2E/DX2                !
 ! R21   R(9,21)                 1.5328         estimate D2E/DX2                !
 ! R22   R(9,23)                 1.5328         estimate D2E/DX2                !
 ! R23   R(10,11)                1.2868         estimate D2E/DX2                !
 ! R24   R(10,20)                1.3812         estimate D2E/DX2                !
 ! R25   R(11,12)                1.4546         estimate D2E/DX2                !
 ! R26   R(11,49)                1.9663         estimate D2E/DX2                !
 ! R27   R(12,13)                1.5132         estimate D2E/DX2                !
 ! R28   R(12,19)                1.5442         estimate D2E/DX2                !
 ! R29   R(12,33)                1.1126         estimate D2E/DX2                !
 ! R30   R(13,14)                1.4084         estimate D2E/DX2                !
 ! R31   R(13,18)                1.4055         estimate D2E/DX2                !
 ! R32   R(14,15)                1.3976         estimate D2E/DX2                !
 ! R33   R(14,34)                1.0825         estimate D2E/DX2                !
 ! R34   R(14,49)                2.0201         estimate D2E/DX2                !
 ! R35   R(15,16)                1.3967         estimate D2E/DX2                !
 ! R36   R(15,35)                1.0823         estimate D2E/DX2                !
 ! R37   R(16,17)                1.3972         estimate D2E/DX2                !
 ! R38   R(16,36)                1.0823         estimate D2E/DX2                !
 ! R39   R(17,18)                1.3986         estimate D2E/DX2                !
 ! R40   R(17,37)                1.0823         estimate D2E/DX2                !
 ! R41   R(18,38)                1.0828         estimate D2E/DX2                !
 ! R42   R(19,20)                1.4176         estimate D2E/DX2                !
 ! R43   R(19,39)                1.1114         estimate D2E/DX2                !
 ! R44   R(19,40)                1.111          estimate D2E/DX2                !
 ! R45   R(21,22)                1.5243         estimate D2E/DX2                !
 ! R46   R(21,41)                1.113          estimate D2E/DX2                !
 ! R47   R(21,42)                1.1113         estimate D2E/DX2                !
 ! R48   R(22,23)                1.5243         estimate D2E/DX2                !
 ! R49   R(22,43)                1.112          estimate D2E/DX2                !
 ! R50   R(22,44)                1.112          estimate D2E/DX2                !
 ! R51   R(23,45)                1.113          estimate D2E/DX2                !
 ! R52   R(23,46)                1.1113         estimate D2E/DX2                !
 ! R53   R(24,49)                1.9663         estimate D2E/DX2                !
 ! R54   R(25,26)                1.3986         estimate D2E/DX2                !
 ! R55   R(25,47)                1.0828         estimate D2E/DX2                !
 ! R56   R(26,48)                1.0823         estimate D2E/DX2                !
 ! A1    A(2,1,26)             120.0055         estimate D2E/DX2                !
 ! A2    A(2,1,27)             119.981          estimate D2E/DX2                !
 ! A3    A(26,1,27)            120.013          estimate D2E/DX2                !
 ! A4    A(1,2,3)              120.0679         estimate D2E/DX2                !
 ! A5    A(1,2,28)             119.9711         estimate D2E/DX2                !
 ! A6    A(3,2,28)             119.9592         estimate D2E/DX2                !
 ! A7    A(2,3,4)              120.4028         estimate D2E/DX2                !
 ! A8    A(2,3,29)             119.1077         estimate D2E/DX2                !
 ! A9    A(2,3,49)             117.4688         estimate D2E/DX2                !
 ! A10   A(4,3,29)             120.4853         estimate D2E/DX2                !
 ! A11   A(4,3,49)              84.6582         estimate D2E/DX2                !
 ! A12   A(29,3,49)             67.8848         estimate D2E/DX2                !
 ! A13   A(3,4,5)              120.7094         estimate D2E/DX2                !
 ! A14   A(3,4,25)             119.04           estimate D2E/DX2                !
 ! A15   A(5,4,25)             120.1956         estimate D2E/DX2                !
 ! A16   A(4,5,6)              113.1989         estimate D2E/DX2                !
 ! A17   A(4,5,24)             109.4939         estimate D2E/DX2                !
 ! A18   A(4,5,30)             111.1626         estimate D2E/DX2                !
 ! A19   A(6,5,24)             104.3024         estimate D2E/DX2                !
 ! A20   A(6,5,30)             109.6344         estimate D2E/DX2                !
 ! A21   A(24,5,30)            108.7562         estimate D2E/DX2                !
 ! A22   A(5,6,7)              103.4327         estimate D2E/DX2                !
 ! A23   A(5,6,31)             110.9061         estimate D2E/DX2                !
 ! A24   A(5,6,32)             113.0142         estimate D2E/DX2                !
 ! A25   A(7,6,31)             109.6659         estimate D2E/DX2                !
 ! A26   A(7,6,32)             109.856          estimate D2E/DX2                !
 ! A27   A(31,6,32)            109.7789         estimate D2E/DX2                !
 ! A28   A(6,7,8)              109.2251         estimate D2E/DX2                !
 ! A29   A(7,8,9)              124.9413         estimate D2E/DX2                !
 ! A30   A(7,8,24)             113.599          estimate D2E/DX2                !
 ! A31   A(9,8,24)             121.3709         estimate D2E/DX2                !
 ! A32   A(8,9,10)             109.8828         estimate D2E/DX2                !
 ! A33   A(8,9,21)             112.833          estimate D2E/DX2                !
 ! A34   A(8,9,23)             115.1902         estimate D2E/DX2                !
 ! A35   A(10,9,21)            115.1899         estimate D2E/DX2                !
 ! A36   A(10,9,23)            112.8339         estimate D2E/DX2                !
 ! A37   A(21,9,23)             89.8119         estimate D2E/DX2                !
 ! A38   A(9,10,11)            121.3712         estimate D2E/DX2                !
 ! A39   A(9,10,20)            124.9411         estimate D2E/DX2                !
 ! A40   A(11,10,20)           113.5988         estimate D2E/DX2                !
 ! A41   A(10,11,12)           109.4296         estimate D2E/DX2                !
 ! A42   A(10,11,49)           104.4762         estimate D2E/DX2                !
 ! A43   A(12,11,49)           100.0403         estimate D2E/DX2                !
 ! A44   A(11,12,13)           109.4942         estimate D2E/DX2                !
 ! A45   A(11,12,19)           104.3024         estimate D2E/DX2                !
 ! A46   A(11,12,33)           108.7566         estimate D2E/DX2                !
 ! A47   A(13,12,19)           113.1981         estimate D2E/DX2                !
 ! A48   A(13,12,33)           111.1624         estimate D2E/DX2                !
 ! A49   A(19,12,33)           109.6346         estimate D2E/DX2                !
 ! A50   A(12,13,14)           120.7091         estimate D2E/DX2                !
 ! A51   A(12,13,18)           120.1958         estimate D2E/DX2                !
 ! A52   A(14,13,18)           119.0402         estimate D2E/DX2                !
 ! A53   A(13,14,15)           120.4027         estimate D2E/DX2                !
 ! A54   A(13,14,34)           120.485          estimate D2E/DX2                !
 ! A55   A(13,14,49)            86.0273         estimate D2E/DX2                !
 ! A56   A(15,14,34)           119.108          estimate D2E/DX2                !
 ! A57   A(15,14,49)           118.6396         estimate D2E/DX2                !
 ! A58   A(34,14,49)            65.2653         estimate D2E/DX2                !
 ! A59   A(14,15,16)           120.0679         estimate D2E/DX2                !
 ! A60   A(14,15,35)           119.9591         estimate D2E/DX2                !
 ! A61   A(16,15,35)           119.9712         estimate D2E/DX2                !
 ! A62   A(15,16,17)           120.0055         estimate D2E/DX2                !
 ! A63   A(15,16,36)           119.9813         estimate D2E/DX2                !
 ! A64   A(17,16,36)           120.0127         estimate D2E/DX2                !
 ! A65   A(16,17,18)           120.1478         estimate D2E/DX2                !
 ! A66   A(16,17,37)           119.9076         estimate D2E/DX2                !
 ! A67   A(18,17,37)           119.9434         estimate D2E/DX2                !
 ! A68   A(13,18,17)           120.335          estimate D2E/DX2                !
 ! A69   A(13,18,38)           120.5473         estimate D2E/DX2                !
 ! A70   A(17,18,38)           119.1141         estimate D2E/DX2                !
 ! A71   A(12,19,20)           103.4328         estimate D2E/DX2                !
 ! A72   A(12,19,39)           113.0142         estimate D2E/DX2                !
 ! A73   A(12,19,40)           110.9059         estimate D2E/DX2                !
 ! A74   A(20,19,39)           109.8562         estimate D2E/DX2                !
 ! A75   A(20,19,40)           109.6663         estimate D2E/DX2                !
 ! A76   A(39,19,40)           109.7785         estimate D2E/DX2                !
 ! A77   A(10,20,19)           109.2253         estimate D2E/DX2                !
 ! A78   A(9,21,22)             89.8678         estimate D2E/DX2                !
 ! A79   A(9,21,41)            113.7961         estimate D2E/DX2                !
 ! A80   A(9,21,42)            114.8456         estimate D2E/DX2                !
 ! A81   A(22,21,41)           111.7459         estimate D2E/DX2                !
 ! A82   A(22,21,42)           111.9275         estimate D2E/DX2                !
 ! A83   A(41,21,42)           112.6715         estimate D2E/DX2                !
 ! A84   A(21,22,23)            90.4526         estimate D2E/DX2                !
 ! A85   A(21,22,43)           112.5454         estimate D2E/DX2                !
 ! A86   A(21,22,44)           112.5489         estimate D2E/DX2                !
 ! A87   A(23,22,43)           112.5497         estimate D2E/DX2                !
 ! A88   A(23,22,44)           112.5447         estimate D2E/DX2                !
 ! A89   A(43,22,44)           114.029          estimate D2E/DX2                !
 ! A90   A(9,23,22)             89.8678         estimate D2E/DX2                !
 ! A91   A(9,23,45)            113.7956         estimate D2E/DX2                !
 ! A92   A(9,23,46)            114.8458         estimate D2E/DX2                !
 ! A93   A(22,23,45)           111.7453         estimate D2E/DX2                !
 ! A94   A(22,23,46)           111.9282         estimate D2E/DX2                !
 ! A95   A(45,23,46)           112.6718         estimate D2E/DX2                !
 ! A96   A(5,24,8)             109.4297         estimate D2E/DX2                !
 ! A97   A(5,24,49)            102.7834         estimate D2E/DX2                !
 ! A98   A(8,24,49)            106.7076         estimate D2E/DX2                !
 ! A99   A(4,25,26)            120.3351         estimate D2E/DX2                !
 ! A100  A(4,25,47)            120.5477         estimate D2E/DX2                !
 ! A101  A(26,25,47)           119.1135         estimate D2E/DX2                !
 ! A102  A(1,26,25)            120.1478         estimate D2E/DX2                !
 ! A103  A(1,26,48)            119.9084         estimate D2E/DX2                !
 ! A104  A(25,26,48)           119.9425         estimate D2E/DX2                !
 ! A105  A(3,49,11)            121.8516         estimate D2E/DX2                !
 ! A106  A(3,49,14)            118.966          estimate D2E/DX2                !
 ! A107  A(3,49,24)             92.2366         estimate D2E/DX2                !
 ! A108  A(11,49,14)            96.1531         estimate D2E/DX2                !
 ! A109  A(11,49,24)           100.0001         estimate D2E/DX2                !
 ! A110  A(14,49,24)           128.7705         estimate D2E/DX2                !
 ! D1    D(26,1,2,3)             0.0869         estimate D2E/DX2                !
 ! D2    D(26,1,2,28)          179.5948         estimate D2E/DX2                !
 ! D3    D(27,1,2,3)          -179.6623         estimate D2E/DX2                !
 ! D4    D(27,1,2,28)           -0.1544         estimate D2E/DX2                !
 ! D5    D(2,1,26,25)           -0.2056         estimate D2E/DX2                !
 ! D6    D(2,1,26,48)         -179.8009         estimate D2E/DX2                !
 ! D7    D(27,1,26,25)         179.5435         estimate D2E/DX2                !
 ! D8    D(27,1,26,48)          -0.0518         estimate D2E/DX2                !
 ! D9    D(1,2,3,4)              0.1867         estimate D2E/DX2                !
 ! D10   D(1,2,3,29)           179.4397         estimate D2E/DX2                !
 ! D11   D(1,2,3,49)           100.7539         estimate D2E/DX2                !
 ! D12   D(28,2,3,4)          -179.3212         estimate D2E/DX2                !
 ! D13   D(28,2,3,29)           -0.0681         estimate D2E/DX2                !
 ! D14   D(28,2,3,49)          -78.754          estimate D2E/DX2                !
 ! D15   D(2,3,4,5)            176.9699         estimate D2E/DX2                !
 ! D16   D(2,3,4,25)            -0.3374         estimate D2E/DX2                !
 ! D17   D(29,3,4,5)            -2.2728         estimate D2E/DX2                !
 ! D18   D(29,3,4,25)         -179.5801         estimate D2E/DX2                !
 ! D19   D(49,3,4,5)            58.1357         estimate D2E/DX2                !
 ! D20   D(49,3,4,25)         -119.1716         estimate D2E/DX2                !
 ! D21   D(2,3,49,11)           96.8655         estimate D2E/DX2                !
 ! D22   D(2,3,49,14)          -22.352          estimate D2E/DX2                !
 ! D23   D(2,3,49,24)         -159.9049         estimate D2E/DX2                !
 ! D24   D(4,3,49,11)         -141.5162         estimate D2E/DX2                !
 ! D25   D(4,3,49,14)           99.2663         estimate D2E/DX2                !
 ! D26   D(4,3,49,24)          -38.2866         estimate D2E/DX2                !
 ! D27   D(29,3,49,11)         -15.5017         estimate D2E/DX2                !
 ! D28   D(29,3,49,14)        -134.7193         estimate D2E/DX2                !
 ! D29   D(29,3,49,24)          87.7279         estimate D2E/DX2                !
 ! D30   D(3,4,5,6)             61.5247         estimate D2E/DX2                !
 ! D31   D(3,4,5,24)           -54.3772         estimate D2E/DX2                !
 ! D32   D(3,4,5,30)          -174.5628         estimate D2E/DX2                !
 ! D33   D(25,4,5,6)          -121.1991         estimate D2E/DX2                !
 ! D34   D(25,4,5,24)          122.8991         estimate D2E/DX2                !
 ! D35   D(25,4,5,30)            2.7134         estimate D2E/DX2                !
 ! D36   D(3,4,25,26)            0.2185         estimate D2E/DX2                !
 ! D37   D(3,4,25,47)          179.5145         estimate D2E/DX2                !
 ! D38   D(5,4,25,26)         -177.1029         estimate D2E/DX2                !
 ! D39   D(5,4,25,47)            2.193          estimate D2E/DX2                !
 ! D40   D(4,5,6,7)           -118.9398         estimate D2E/DX2                !
 ! D41   D(4,5,6,31)           123.5688         estimate D2E/DX2                !
 ! D42   D(4,5,6,32)            -0.1983         estimate D2E/DX2                !
 ! D43   D(24,5,6,7)             0.0031         estimate D2E/DX2                !
 ! D44   D(24,5,6,31)         -117.4884         estimate D2E/DX2                !
 ! D45   D(24,5,6,32)          118.7446         estimate D2E/DX2                !
 ! D46   D(30,5,6,7)           116.3154         estimate D2E/DX2                !
 ! D47   D(30,5,6,31)           -1.176          estimate D2E/DX2                !
 ! D48   D(30,5,6,32)         -124.943          estimate D2E/DX2                !
 ! D49   D(4,5,24,8)           120.7934         estimate D2E/DX2                !
 ! D50   D(4,5,24,49)            7.6752         estimate D2E/DX2                !
 ! D51   D(6,5,24,8)            -0.639          estimate D2E/DX2                !
 ! D52   D(6,5,24,49)         -113.7572         estimate D2E/DX2                !
 ! D53   D(30,5,24,8)         -117.5615         estimate D2E/DX2                !
 ! D54   D(30,5,24,49)         129.3203         estimate D2E/DX2                !
 ! D55   D(5,6,7,8)              0.5896         estimate D2E/DX2                !
 ! D56   D(31,6,7,8)           118.9461         estimate D2E/DX2                !
 ! D57   D(32,6,7,8)          -120.3152         estimate D2E/DX2                !
 ! D58   D(6,7,8,9)            175.507          estimate D2E/DX2                !
 ! D59   D(6,7,8,24)            -1.0932         estimate D2E/DX2                !
 ! D60   D(7,8,9,10)          -134.262          estimate D2E/DX2                !
 ! D61   D(7,8,9,21)            95.6958         estimate D2E/DX2                !
 ! D62   D(7,8,9,23)            -5.4965         estimate D2E/DX2                !
 ! D63   D(24,8,9,10)           42.0888         estimate D2E/DX2                !
 ! D64   D(24,8,9,21)          -87.9534         estimate D2E/DX2                !
 ! D65   D(24,8,9,23)          170.8542         estimate D2E/DX2                !
 ! D66   D(7,8,24,5)             1.0853         estimate D2E/DX2                !
 ! D67   D(7,8,24,49)          111.6245         estimate D2E/DX2                !
 ! D68   D(9,8,24,5)          -175.6508         estimate D2E/DX2                !
 ! D69   D(9,8,24,49)          -65.1116         estimate D2E/DX2                !
 ! D70   D(8,9,10,11)           42.0835         estimate D2E/DX2                !
 ! D71   D(8,9,10,20)         -134.2671         estimate D2E/DX2                !
 ! D72   D(21,9,10,11)         170.8475         estimate D2E/DX2                !
 ! D73   D(21,9,10,20)          -5.5031         estimate D2E/DX2                !
 ! D74   D(23,9,10,11)         -87.9599         estimate D2E/DX2                !
 ! D75   D(23,9,10,20)          95.6895         estimate D2E/DX2                !
 ! D76   D(8,9,21,22)         -117.4146         estimate D2E/DX2                !
 ! D77   D(8,9,21,41)           -3.5926         estimate D2E/DX2                !
 ! D78   D(8,9,21,42)          128.352          estimate D2E/DX2                !
 ! D79   D(10,9,21,22)         115.2969         estimate D2E/DX2                !
 ! D80   D(10,9,21,41)        -130.8811         estimate D2E/DX2                !
 ! D81   D(10,9,21,42)           1.0634         estimate D2E/DX2                !
 ! D82   D(23,9,21,22)           0.0005         estimate D2E/DX2                !
 ! D83   D(23,9,21,41)         113.8225         estimate D2E/DX2                !
 ! D84   D(23,9,21,42)        -114.233          estimate D2E/DX2                !
 ! D85   D(8,9,23,22)          115.295          estimate D2E/DX2                !
 ! D86   D(8,9,23,45)         -130.8837         estimate D2E/DX2                !
 ! D87   D(8,9,23,46)            1.0609         estimate D2E/DX2                !
 ! D88   D(10,9,23,22)        -117.4153         estimate D2E/DX2                !
 ! D89   D(10,9,23,45)          -3.5941         estimate D2E/DX2                !
 ! D90   D(10,9,23,46)         128.3505         estimate D2E/DX2                !
 ! D91   D(21,9,23,22)          -0.0005         estimate D2E/DX2                !
 ! D92   D(21,9,23,45)         113.8208         estimate D2E/DX2                !
 ! D93   D(21,9,23,46)        -114.2347         estimate D2E/DX2                !
 ! D94   D(9,10,11,12)        -175.6495         estimate D2E/DX2                !
 ! D95   D(9,10,11,49)         -69.27           estimate D2E/DX2                !
 ! D96   D(20,10,11,12)          1.0863         estimate D2E/DX2                !
 ! D97   D(20,10,11,49)        107.4658         estimate D2E/DX2                !
 ! D98   D(9,10,20,19)         175.5064         estimate D2E/DX2                !
 ! D99   D(11,10,20,19)         -1.0936         estimate D2E/DX2                !
 ! D100  D(10,11,12,13)        120.7915         estimate D2E/DX2                !
 ! D101  D(10,11,12,19)         -0.6403         estimate D2E/DX2                !
 ! D102  D(10,11,12,33)       -117.5632         estimate D2E/DX2                !
 ! D103  D(49,11,12,13)         11.4227         estimate D2E/DX2                !
 ! D104  D(49,11,12,19)       -110.0091         estimate D2E/DX2                !
 ! D105  D(49,11,12,33)        133.068          estimate D2E/DX2                !
 ! D106  D(10,11,49,3)         131.3874         estimate D2E/DX2                !
 ! D107  D(10,11,49,14)        -98.789          estimate D2E/DX2                !
 ! D108  D(10,11,49,24)         32.4009         estimate D2E/DX2                !
 ! D109  D(12,11,49,3)        -115.371          estimate D2E/DX2                !
 ! D110  D(12,11,49,14)         14.4527         estimate D2E/DX2                !
 ! D111  D(12,11,49,24)        145.6426         estimate D2E/DX2                !
 ! D112  D(11,12,13,14)        -54.3663         estimate D2E/DX2                !
 ! D113  D(11,12,13,18)        122.9126         estimate D2E/DX2                !
 ! D114  D(19,12,13,14)         61.5354         estimate D2E/DX2                !
 ! D115  D(19,12,13,18)       -121.1857         estimate D2E/DX2                !
 ! D116  D(33,12,13,14)       -174.5525         estimate D2E/DX2                !
 ! D117  D(33,12,13,18)          2.7264         estimate D2E/DX2                !
 ! D118  D(11,12,19,20)          0.0041         estimate D2E/DX2                !
 ! D119  D(11,12,19,39)        118.7458         estimate D2E/DX2                !
 ! D120  D(11,12,19,40)       -117.4878         estimate D2E/DX2                !
 ! D121  D(13,12,19,20)       -118.9389         estimate D2E/DX2                !
 ! D122  D(13,12,19,39)         -0.1971         estimate D2E/DX2                !
 ! D123  D(13,12,19,40)        123.5693         estimate D2E/DX2                !
 ! D124  D(33,12,19,20)        116.317          estimate D2E/DX2                !
 ! D125  D(33,12,19,39)       -124.9412         estimate D2E/DX2                !
 ! D126  D(33,12,19,40)         -1.1748         estimate D2E/DX2                !
 ! D127  D(12,13,14,15)        176.97           estimate D2E/DX2                !
 ! D128  D(12,13,14,34)         -2.272          estimate D2E/DX2                !
 ! D129  D(12,13,14,49)         55.8853         estimate D2E/DX2                !
 ! D130  D(18,13,14,15)         -0.3399         estimate D2E/DX2                !
 ! D131  D(18,13,14,34)       -179.582          estimate D2E/DX2                !
 ! D132  D(18,13,14,49)       -121.4246         estimate D2E/DX2                !
 ! D133  D(12,13,18,17)       -177.1037         estimate D2E/DX2                !
 ! D134  D(12,13,18,38)          2.192          estimate D2E/DX2                !
 ! D135  D(14,13,18,17)          0.2204         estimate D2E/DX2                !
 ! D136  D(14,13,18,38)        179.5161         estimate D2E/DX2                !
 ! D137  D(13,14,15,16)          0.188          estimate D2E/DX2                !
 ! D138  D(13,14,15,35)       -179.3203         estimate D2E/DX2                !
 ! D139  D(34,14,15,16)        179.4404         estimate D2E/DX2                !
 ! D140  D(34,14,15,35)         -0.0679         estimate D2E/DX2                !
 ! D141  D(49,14,15,16)        103.4212         estimate D2E/DX2                !
 ! D142  D(49,14,15,35)        -76.0871         estimate D2E/DX2                !
 ! D143  D(13,14,49,3)          96.2812         estimate D2E/DX2                !
 ! D144  D(13,14,49,11)        -35.5043         estimate D2E/DX2                !
 ! D145  D(13,14,49,24)       -143.5999         estimate D2E/DX2                !
 ! D146  D(15,14,49,3)         -26.4083         estimate D2E/DX2                !
 ! D147  D(15,14,49,11)       -158.1938         estimate D2E/DX2                !
 ! D148  D(15,14,49,24)         93.7106         estimate D2E/DX2                !
 ! D149  D(34,14,49,3)        -137.4271         estimate D2E/DX2                !
 ! D150  D(34,14,49,11)         90.7873         estimate D2E/DX2                !
 ! D151  D(34,14,49,24)        -17.3082         estimate D2E/DX2                !
 ! D152  D(14,15,16,17)          0.0876         estimate D2E/DX2                !
 ! D153  D(14,15,16,36)       -179.6627         estimate D2E/DX2                !
 ! D154  D(35,15,16,17)        179.5958         estimate D2E/DX2                !
 ! D155  D(35,15,16,36)         -0.1544         estimate D2E/DX2                !
 ! D156  D(15,16,17,18)         -0.207          estimate D2E/DX2                !
 ! D157  D(15,16,17,37)       -179.8031         estimate D2E/DX2                !
 ! D158  D(36,16,17,18)        179.5432         estimate D2E/DX2                !
 ! D159  D(36,16,17,37)         -0.053          estimate D2E/DX2                !
 ! D160  D(16,17,18,13)          0.051          estimate D2E/DX2                !
 ! D161  D(16,17,18,38)       -179.2547         estimate D2E/DX2                !
 ! D162  D(37,17,18,13)        179.647          estimate D2E/DX2                !
 ! D163  D(37,17,18,38)          0.3413         estimate D2E/DX2                !
 ! D164  D(12,19,20,10)          0.5892         estimate D2E/DX2                !
 ! D165  D(39,19,20,10)       -120.3157         estimate D2E/DX2                !
 ! D166  D(40,19,20,10)        118.9455         estimate D2E/DX2                !
 ! D167  D(9,21,22,23)          -0.0005         estimate D2E/DX2                !
 ! D168  D(9,21,22,43)         114.74           estimate D2E/DX2                !
 ! D169  D(9,21,22,44)        -114.7362         estimate D2E/DX2                !
 ! D170  D(41,21,22,23)       -115.6889         estimate D2E/DX2                !
 ! D171  D(41,21,22,43)         -0.9484         estimate D2E/DX2                !
 ! D172  D(41,21,22,44)        129.5753         estimate D2E/DX2                !
 ! D173  D(42,21,22,23)        116.8725         estimate D2E/DX2                !
 ! D174  D(42,21,22,43)       -128.387          estimate D2E/DX2                !
 ! D175  D(42,21,22,44)          2.1368         estimate D2E/DX2                !
 ! D176  D(21,22,23,9)           0.0005         estimate D2E/DX2                !
 ! D177  D(21,22,23,45)       -115.6873         estimate D2E/DX2                !
 ! D178  D(21,22,23,46)        116.8738         estimate D2E/DX2                !
 ! D179  D(43,22,23,9)        -114.7362         estimate D2E/DX2                !
 ! D180  D(43,22,23,45)        129.5761         estimate D2E/DX2                !
 ! D181  D(43,22,23,46)          2.1371         estimate D2E/DX2                !
 ! D182  D(44,22,23,9)         114.74           estimate D2E/DX2                !
 ! D183  D(44,22,23,45)         -0.9477         estimate D2E/DX2                !
 ! D184  D(44,22,23,46)       -128.3867         estimate D2E/DX2                !
 ! D185  D(5,24,49,3)           18.013          estimate D2E/DX2                !
 ! D186  D(5,24,49,11)         140.9119         estimate D2E/DX2                !
 ! D187  D(5,24,49,14)        -112.755          estimate D2E/DX2                !
 ! D188  D(8,24,49,3)          -97.0897         estimate D2E/DX2                !
 ! D189  D(8,24,49,11)          25.8092         estimate D2E/DX2                !
 ! D190  D(8,24,49,14)         132.1423         estimate D2E/DX2                !
 ! D191  D(4,25,26,1)            0.051          estimate D2E/DX2                !
 ! D192  D(4,25,26,48)         179.6461         estimate D2E/DX2                !
 ! D193  D(47,25,26,1)        -179.255          estimate D2E/DX2                !
 ! D194  D(47,25,26,48)          0.3401         estimate D2E/DX2                !
 --------------------------------------------------------------------------------
 Trust Radius=3.00D-01 FncErr=1.00D-07 GrdErr=1.00D-06 EigMax=2.50D+02 EigMin=1.00D-04
 Number of steps in this run=    294 maximum allowed number of steps=    294.
 GradGradGradGradGradGradGradGradGradGradGradGradGradGradGradGradGradGrad

 Leave Link  103 at Fri Mar  8 00:05:24 2024, MaxMem= 13421772800 cpu:               0.5 elap:               0.0
 (Enter /public/software/apps/Gaussian/g16/l202.exe)
                          Input orientation:                          
 ---------------------------------------------------------------------
 Center     Atomic      Atomic             Coordinates (Angstroms)
 Number     Number       Type             X           Y           Z
 ---------------------------------------------------------------------
      1          6           0       -3.545731   -1.565942    0.887286
      2          6           0       -2.472089   -1.046768    1.614224
      3          6           0       -1.160320   -1.308835    1.209366
      4          6           0       -0.910315   -2.092844    0.066388
      5          6           0        0.504602   -2.324478   -0.417447
      6          6           0        1.387562   -3.059805    0.614216
      7          8           0        2.425223   -2.131495    0.880704
      8          6           0        2.212230   -0.985994    0.138995
      9          6           0        3.048341    0.265490    0.223917
     10          6           0        2.153151    1.476378    0.293948
     11          7           0        1.094037    1.485120    1.024819
     12          6           0        0.375302    2.733106    0.820319
     13          6           0       -1.018621    2.435627    0.312163
     14          6           0       -1.211796    1.641094   -0.834557
     15          6           0       -2.502644    1.318021   -1.261950
     16          6           0       -3.611854    1.786187   -0.554022
     17          6           0       -3.431826    2.579876    0.581634
     18          6           0       -2.142108    2.903925    1.014881
     19          6           0        1.240522    3.509476   -0.196190
     20          8           0        2.324999    2.630939   -0.444380
     21          6           0        4.142178    0.323949   -0.848325
     22          6           0        5.206915    0.316091    0.242457
     23          6           0        4.125145    0.257928    1.314803
     24          7           0        1.167472   -1.044100   -0.610050
     25          6           0       -1.998303   -2.612798   -0.655602
     26          6           0       -3.309090   -2.349695   -0.244881
     27          1           0       -4.560995   -1.357592    1.198894
     28          1           0       -2.656097   -0.434276    2.487359
     29          1           0       -0.340007   -0.891082    1.778954
     30          1           0        0.513616   -2.880523   -1.381078
     31          1           0        1.817941   -3.986750    0.178579
     32          1           0        0.846993   -3.302005    1.554657
     33          1           0        0.341569    3.288533    1.783758
     34          1           0       -0.363071    1.262352   -1.389608
     35          1           0       -2.642612    0.697818   -2.137808
     36          1           0       -4.610700    1.530634   -0.883068
     37          1           0       -4.292419    2.939158    1.130856
     38          1           0       -2.021771    3.510009    1.904070
     39          1           0        0.705525    3.726510   -1.145915
     40          1           0        1.619386    4.455375    0.246494
     41          1           0        4.196721   -0.587809   -1.484406
     42          1           0        4.163800    1.262735   -1.442595
     43          1           0        5.834248   -0.601816    0.219327
     44          1           0        5.790053    1.262377    0.275983
     45          1           0        4.125980    1.171000    1.951334
     46          1           0        4.180517   -0.679041    1.909756
     47          1           0       -1.834343   -3.212089   -1.542418
     48          1           0       -4.142262   -2.748534   -0.808883
     49         29           0       -0.130721    0.233646    0.130400
 ---------------------------------------------------------------------
                    Distance matrix (angstroms):
                    1          2          3          4          5
     1  C    0.000000
     2  C    1.396670   0.000000
     3  C    2.420749   1.397615   0.000000
     4  C    2.810145   2.434997   1.408393   0.000000
     5  C    4.322372   3.823731   2.539688   1.513189   0.000000
     6  C    5.161741   4.466457   3.148301   2.552522   1.544232
     7  O    5.997682   5.069354   3.693360   3.433718   2.326204
     8  C    5.835272   4.911501   3.553029   3.313710   2.239902
     9  C    6.875754   5.842099   4.600265   4.610587   3.686447
    10  C    6.487297   5.431596   4.424307   4.709135   4.203606
    11  N    5.554758   4.413061   3.594769   4.211632   4.115896
    12  C    5.819003   4.798476   4.341288   5.050843   5.208449
    13  C    4.767558   3.991868   3.853057   4.536429   5.050855
    14  C    4.324012   3.848307   3.589199   3.852906   4.341171
    15  C    3.744928   3.723646   3.848325   3.991741   4.798386
    16  C    3.649453   3.745129   4.324201   4.767610   5.819057
    17  C    4.158630   3.891000   4.547072   5.334586   6.367599
    18  C    4.686806   4.009498   4.330021   5.233035   6.032647
    19  C    7.059887   6.149832   5.563789   6.006749   5.884348
    20  O    7.338434   6.385564   5.513995   5.748240   5.279273
    21  C    8.104812   7.189683   5.917479   5.674969   4.520153
    22  C    8.975894   7.918727   6.642061   6.576813   5.433215
    23  C    7.896304   6.731670   5.513801   5.695659   4.772614
    24  N    4.972788   4.265420   2.966307   2.423764   1.454600
    25  C    2.423003   2.798041   2.425003   1.405468   2.530688
    26  C    1.397165   2.419599   2.795610   2.432485   3.817678
    27  H    1.082252   2.152357   3.401041   3.892381   5.404415
    28  H    2.152290   1.082299   2.153014   3.414631   4.690499
    29  H    3.395169   2.144096   1.082526   2.168494   2.755389
    30  H    4.832380   4.609656   3.461599   2.177883   1.112588
    31  H    5.927188   5.395269   4.135673   3.323078   2.200740
    32  H    4.770254   4.013222   2.849782   2.600989   2.227551
    33  H    6.283366   5.171097   4.870461   5.785827   6.031399
    34  H    4.828335   4.336242   3.741828   3.698208   3.816190
    35  H    3.884769   4.141304   4.174616   3.955645   4.690295
    36  H    3.722512   4.177694   4.934165   5.265350   6.422227
    37  H    4.573051   4.408498   5.278414   6.155710   7.287971
    38  H    5.396442   4.588138   4.944286   6.000364   6.768548
    39  H    7.086405   6.363944   5.863738   6.159992   6.097991
    40  H    7.958976   6.991740   6.471476   7.022179   6.902896
    41  H    8.156423   7.367848   6.039385   5.545440   4.217365
    42  H    8.536195   7.662439   6.480133   6.267662   5.225778
    43  H    9.453027   8.434391   7.099580   6.909102   5.637213
    44  H    9.773942   8.682513   7.469272   7.496424   6.425136
    45  H    8.214512   6.968978   5.886006   6.290466   5.562721
    46  H    7.843911   6.669312   5.423258   5.595839   4.651418
    47  H    3.397368   3.880686   3.413063   2.166747   2.743005
    48  H    2.152060   3.399549   3.877891   3.411966   4.682562
    49  Cu   3.933661   3.053391   2.145574   2.454469   2.692168
                    6          7          8          9         10
     6  C    0.000000
     7  O    1.417574   0.000000
     8  C    2.281798   1.381185   0.000000
     9  C    3.737393   2.562261   1.507483   0.000000
    10  C    4.611470   3.665386   2.467950   1.507488   0.000000
    11  N    4.572865   3.856518   2.853322   2.438903   1.286845
    12  C    5.884298   5.279220   4.203595   3.686457   2.239906
    13  C    6.006723   5.748209   4.709127   4.610582   3.313703
    14  C    5.563637   5.513842   4.424178   4.600154   3.552960
    15  C    6.149720   6.385452   5.431498   5.842008   4.911448
    16  C    7.059928   7.338458   6.487312   6.875748   5.835265
    17  C    7.418461   7.522731   6.690794   6.890349   5.700214
    18  C    6.941554   6.799557   5.904143   5.876030   4.583327
    19  C    6.620712   5.863768   4.611487   3.737398   2.281801
    20  O    5.863786   4.944357   3.665412   2.562263   1.381185
    21  C    4.601818   3.459289   2.532874   1.532840   2.566926
    22  C    5.111001   3.759767   3.267150   2.159247   3.267169
    23  C    4.358043   2.964375   2.566926   1.532839   2.532889
    24  N    2.368614   2.233095   1.286843   2.438892   2.853346
    25  C    3.643671   4.707385   4.583281   5.875943   5.904030
    26  C    4.827095   5.847811   5.700177   6.890275   6.690684
    27  H    6.214878   7.036150   6.865715   7.841363   7.343710
    28  H    5.172354   5.593005   5.433214   6.176848   5.620544
    29  H    3.007402   3.161008   3.035192   3.903422   3.745123
    30  H    2.185663   3.054659   2.963976   4.347210   4.947360
    31  H    1.110960   2.074546   3.026808   4.426905   5.474618
    32  H    1.111443   2.077286   3.038401   4.398161   5.111593
    33  H    6.539367   5.876549   4.947343   4.347241   2.963995
    34  H    5.075536   4.944401   3.744845   3.903195   3.035052
    35  H    6.159194   6.542123   5.620369   6.176698   5.433133
    36  H    7.700204   8.125656   7.343732   7.841359   6.865711
    37  H    8.277479   8.420262   7.661662   7.864973   6.662245
    38  H    7.513304   7.256004   6.423107   6.249468   4.915091
    39  H    7.043955   6.432789   5.111638   4.398168   3.038408
    40  H    7.527742   6.666217   5.474625   4.426913   3.026810
    41  H    4.290263   3.333904   2.594646   2.228287   3.405817
    42  H    5.533744   4.465553   3.371474   2.239645   2.665321
    43  H    5.096142   3.794574   3.643221   2.917793   4.227876
    44  H    6.178801   4.817275   4.227855   2.917787   3.643237
    45  H    5.214070   3.865915   3.405824   2.228278   2.594656
    46  H    3.891922   2.499926   2.665327   2.239646   3.371480
    47  H    3.880069   5.018277   4.915018   6.249328   6.422933
    48  H    5.718484   6.809354   6.662176   7.864845   7.661484
    49  Cu   3.658699   3.562260   2.641404   3.180597   2.605226
                   11         12         13         14         15
    11  N    0.000000
    12  C    1.454603   0.000000
    13  C    2.423771   1.513188   0.000000
    14  C    2.966222   2.539682   1.408391   0.000000
    15  C    4.265366   3.823726   2.434995   1.397616   0.000000
    16  C    4.972805   4.322370   2.810143   2.420750   1.396670
    17  C    4.677429   3.817679   2.432484   2.795611   2.419599
    18  C    3.533517   2.530689   1.405467   2.425004   2.798042
    19  C    2.368615   1.544230   2.552509   3.148369   4.466499
    20  O    2.233095   2.326203   3.433700   3.693366   5.069350
    21  C    3.761403   4.772606   5.695592   5.513628   6.731488
    22  C    4.346779   5.433265   6.576822   6.641946   7.918611
    23  C    3.282942   4.520215   5.675032   5.917418   7.189648
    24  N    3.012498   4.115917   4.211648   3.594661   4.412974
    25  C    5.401788   6.032498   5.232871   4.329690   4.009159
    26  C    5.975406   6.367438   5.334403   4.546730   3.890620
    27  H    6.331722   6.422161   5.265284   4.933982   4.177495
    28  H    4.459440   4.690492   3.955900   4.174721   4.141426
    29  H    2.876028   3.816463   3.698511   3.741974   4.336385
    30  H    5.018373   6.031427   5.785868   4.870395   5.171053
    31  H    5.584042   6.902862   7.022169   6.471351   6.991650
    32  H    4.822689   6.097894   6.159929   5.863547   6.363803
    33  H    2.096305   1.112588   2.177879   3.461585   4.609642
    34  H    2.828824   2.755375   2.168489   1.082525   2.144101
    35  H    4.958286   4.690492   3.414628   2.153014   1.082298
    36  H    6.015491   5.404413   3.892380   3.401044   2.152361
    37  H    5.580267   4.682575   3.411972   3.877893   3.399544
    38  H    3.818575   2.743001   2.166743   3.413060   3.880687
    39  H    3.144337   2.227549   2.600971   2.849916   4.013307
    40  H    3.115156   2.200734   3.323067   4.135751   5.395324
    41  H    4.496654   5.562686   6.290359   5.885777   6.968728
    42  H    3.944747   4.651396   5.595743   5.423089   6.669120
    43  H    5.241538   6.425184   7.496432   7.469140   8.682380
    44  H    4.760560   5.637275   6.909115   7.099480   8.434285
    45  H    3.185872   4.217458   5.545546   6.039373   7.367867
    46  H    3.872088   5.225828   6.267735   6.480071   7.662416
    47  H    6.101630   6.768338   6.000131   4.943887   4.587721
    48  H    6.978905   7.287734   6.155437   5.277985   4.408003
    49  Cu   1.966267   2.641846   2.381202   2.020093   2.956438
                   16         17         18         19         20
    16  C    0.000000
    17  C    1.397164   0.000000
    18  C    2.423004   1.398600   0.000000
    19  C    5.161717   4.827008   3.643566   0.000000
    20  O    5.997654   5.847764   4.707336   1.417574   0.000000
    21  C    7.896187   8.031160   7.044151   4.358035   2.964374
    22  C    8.975870   8.936868   7.829538   5.111007   3.759748
    23  C    8.104890   7.939571   6.809531   4.601816   3.459253
    24  N    5.554784   5.975521   5.401909   4.572928   3.856582
    25  C    4.686676   5.527170   5.765885   6.941418   6.799436
    26  C    4.158456   4.999886   5.527148   7.418303   7.522598
    27  H    3.722490   4.142425   4.903611   7.700143   8.125616
    28  H    3.885090   3.649473   3.684557   6.159404   6.542320
    29  H    4.828616   4.800049   4.270065   5.075842   4.944705
    30  H    6.283447   7.016745   6.800980   6.539453   5.876625
    31  H    7.959031   8.416833   7.991420   7.527767   6.666258
    32  H    7.086434   7.338364   6.909389   7.043905   6.432766
    33  H    4.832371   4.023159   2.628259   2.185664   3.054672
    34  H    3.395173   3.878005   3.411935   3.007544   3.161045
    35  H    2.152291   3.400054   3.880317   5.172430   5.593015
    36  H    1.082253   2.153138   3.403246   6.214854   7.036124
    37  H    2.152051   1.082289   2.153724   5.718370   6.809302
    38  H    3.397373   2.145283   1.082809   3.879903   5.018206
    39  H    4.770215   4.627836   3.668065   1.111442   2.077287
    40  H    5.927163   5.398570   4.140803   1.110960   2.074551
    41  H    8.214336   8.514545   7.656330   5.214054   3.865920
    42  H    7.843746   7.970314   6.963991   3.891905   2.499921
    43  H    9.773918   9.803803   8.749022   6.178810   4.817265
    44  H    9.452996   9.320530   8.133869   5.096139   3.794533
    45  H    8.156552   7.809061   6.570304   4.290244   3.333827
    46  H    8.536310   8.386430   7.322160   5.533738   4.465520
    47  H    5.396224   6.372630   6.636273   7.513093   7.255811
    48  H    4.572743   5.552496   6.267138   8.277225   8.420039
    49  Cu   3.872609   4.075009   3.458088   3.566235   3.479647
                   21         22         23         24         25
    21  C    0.000000
    22  C    1.524314   0.000000
    23  C    2.164202   1.524315   0.000000
    24  N    3.282866   4.346721   3.761405   0.000000
    25  C    6.809342   7.829436   7.044159   3.533415   0.000000
    26  C    7.939390   8.936792   8.031199   4.677343   1.398598
    27  H    9.097467   9.956307   8.835857   6.015471   3.403247
    28  H    7.610403   8.211552   6.916594   4.958378   3.880316
    29  H    5.335623   5.881023   4.633923   2.829001   3.411937
    30  H    4.870208   5.906036   5.491884   2.096297   2.628256
    31  H    5.003872   5.477560   4.963012   3.115162   4.140932
    32  H    5.457115   5.815618   4.845300   3.144328   3.668237
    33  H    5.491926   5.906150   4.870311   5.018380   6.800822
    34  H    4.633666   5.880798   5.335428   2.875760   4.269606
    35  H    6.916352   8.211361   7.610293   4.459267   3.684053
    36  H    8.835733   9.956279   9.097549   6.331751   4.903508
    37  H    9.049801   9.894801   8.836188   6.979076   6.267265
    38  H    7.464645   8.075641   6.979100   6.101801   6.636357
    39  H    4.845262   5.815587   5.457105   4.822786   6.909263
    40  H    4.963042   5.477596   5.003866   5.584095   7.991278
    41  H    1.113048   2.195355   2.925058   3.185757   6.570070
    42  H    1.111280   2.196275   2.935026   3.872028   7.321928
    43  H    2.204546   1.112041   2.204600   4.760492   8.133782
    44  H    2.204588   1.112039   2.204537   5.241483   8.748904
    45  H    2.925038   2.195347   1.113047   4.496679   7.656375
    46  H    2.935042   2.196285   1.111281   3.944760   6.964072
    47  H    6.978835   8.075466   7.464598   3.818426   1.082809
    48  H    8.835930   9.894663   9.049800   5.580135   2.153713
    49  Cu   4.384487   5.339449   4.417669   1.966267   3.493981
                   26         27         28         29         30
    26  C    0.000000
    27  H    2.153142   0.000000
    28  H    3.400054   2.478163   0.000000
    29  H    3.878004   4.286122   2.464707   0.000000
    30  H    4.023158   5.892983   5.567406   3.830450   0.000000
    31  H    5.398677   6.974549   6.161782   4.098914   2.314634
    32  H    4.627986   5.757920   4.622277   2.696633   2.984515
    33  H    7.016573   6.779652   4.831186   4.234826   6.935635
    34  H    4.799616   5.584534   4.813251   3.831135   4.234627
    35  H    3.648931   4.363311   4.761721   4.813275   4.831039
    36  H    4.142273   3.560742   4.363613   5.584791   6.779744
    37  H    5.552617   4.305673   3.987193   5.541871   7.954651
    38  H    6.372700   5.535203   4.037323   4.713129   7.619664
    39  H    7.338206   7.686511   6.466322   5.565083   6.614001
    40  H    8.416668   8.537843   6.870947   5.896801   7.595204
    41  H    7.808832   9.191858   7.922096   5.596731   4.339640
    42  H    8.386194   9.485021   8.052042   5.941514   5.522157
    43  H    9.320472  10.468611   8.789653   6.374758   6.005242
    44  H    9.803712  10.717285   8.894170   6.668879   6.910156
    45  H    8.514630   9.078738   6.990050   4.922087   6.369378
    46  H    7.970430   8.796578   6.865335   4.527384   5.396506
    47  H    2.145275   4.288191   4.962925   4.318753   2.376737
    48  H    1.082288   2.478150   4.292981   4.960259   4.692763
    49  Cu   4.112969   4.827116   3.518366   2.006625   3.521049
                   31         32         33         34         35
    31  H    0.000000
    32  H    1.818023   0.000000
    33  H    7.595131   6.613859   0.000000
    34  H    5.896533   5.564738   3.830428   0.000000
    35  H    6.870761   6.466083   5.567389   2.464713   0.000000
    36  H    8.537918   7.686567   5.892974   4.286130   2.478170
    37  H    9.285017   8.096004   4.692780   4.960261   4.292975
    38  H    8.597796   7.399691   2.376742   4.318745   4.962927
    39  H    7.904817   7.530812   2.984505   2.696916   4.622429
    40  H    8.444733   7.904734   2.314631   4.099068   6.161879
    41  H    4.469554   5.274793   6.369389   4.921766   6.989724
    42  H    5.973973   6.389177   5.396542   4.527181   6.865107
    43  H    5.252634   5.826392   6.910266   6.668625   8.893947
    44  H    6.583350   6.848535   6.005387   6.374569   8.789480
    45  H    5.922169   5.560295   4.339792   5.596590   7.922047
    46  H    4.418108   4.256573   5.522231   5.941296   8.051932
    47  H    4.111096   4.097502   7.619457   4.712602   4.036726
    48  H    6.167032   5.548452   7.954414   5.541366   3.986519
    49  Cu   4.648801   3.935132   3.505565   1.850040   3.416112
                   36         37         38         39         40
    36  H    0.000000
    37  H    2.478131   0.000000
    38  H    4.288195   2.465679   0.000000
    39  H    5.757882   5.548248   4.097246   0.000000
    40  H    6.974524   6.166883   4.110876   1.818018   0.000000
    41  H    9.078550   9.557436   8.181902   5.560249   5.922193
    42  H    8.796402   8.996704   7.383204   4.256509   4.418146
    43  H   10.717255  10.766558   9.025658   6.848510   6.583387
    44  H   10.468573  10.256639   8.290182   5.826334   5.252673
    45  H    9.191994   8.641123   6.577845   5.274760   4.469520
    46  H    9.485148   9.246010   7.484420   6.389176   5.973948
    47  H    5.535009   7.143275   7.556455   7.399480   8.597584
    48  H    4.305371   6.011237   7.143246   8.095729   9.284757
    49  Cu   4.772788   5.063639   4.178101   3.811612   4.571580
                   41         42         43         44         45
    41  H    0.000000
    42  H    1.851309   0.000000
    43  H    2.363133   3.004818   0.000000
    44  H    3.010127   2.366054   1.865577   0.000000
    45  H    3.860404   3.395379   3.010134   2.363110   0.000000
    46  H    3.395427   3.874149   2.366081   3.004817   1.851312
    47  H    6.577533   7.484099   8.290028   9.025455   8.181884
    48  H    8.640816   9.245677  10.256528  10.766393   9.557477
    49  Cu   4.691390   4.687883   6.023849   6.011243   4.723763
                   46         47         48         49
    46  H    0.000000
    47  H    7.383250   0.000000
    48  H    8.996802   2.465653   0.000000
    49  Cu   4.752460   4.192104   5.086070   0.000000
 Symmetry turned off by external request.
 Stoichiometry    C22H22CuN2O2(2+,2)
 Framework group  C1[X(C22H22CuN2O2)]
 Deg. of freedom   141
 Full point group                 C1      NOp   1
 Rotational constants (GHZ):           0.3079870           0.1962319           0.1344271
 Leave Link  202 at Fri Mar  8 00:05:24 2024, MaxMem= 13421772800 cpu:               0.1 elap:               0.0
 (Enter /public/software/apps/Gaussian/g16/l301.exe)
 Standard basis: def2SVPP (5D, 7F)
 Ernie: Thresh=  0.10000D-02 Tol=  0.10000D-05 Strict=F.
   432 basis functions,   809 primitive gaussians,   460 cartesian basis functions
   106 alpha electrons      105 beta electrons
       nuclear repulsion energy      3287.6734408570 Hartrees.
 IExCor=  402 DFT=T Ex+Corr=B3LYP ExCW=0 ScaHFX=  0.200000
 ScaDFX=  0.800000  0.720000  1.000000  0.810000 ScalE2=  1.000000  1.000000
 IRadAn=      5 IRanWt=     -1 IRanGd=            0 ICorTp=0 IEmpDi=141
 NAtoms=   49 NActive=   49 NUniq=   49 SFac= 1.00D+00 NAtFMM=   60 NAOKFM=F Big=F
 Integral buffers will be    131072 words long.
 Raffenetti 2 integral format.
 Two-electron integral symmetry is turned off.
 R6Disp:  Grimme-D3(BJ) Dispersion energy=       -0.1316994769 Hartrees.
 Nuclear repulsion after empirical dispersion term =     3287.5417413802 Hartrees.
 Leave Link  301 at Fri Mar  8 00:05:24 2024, MaxMem= 13421772800 cpu:               0.9 elap:               0.0
 (Enter /public/software/apps/Gaussian/g16/l302.exe)
 NPDir=0 NMtPBC=     1 NCelOv=     1 NCel=       1 NClECP=     1 NCelD=      1
         NCelK=      1 NCelE2=     1 NClLst=     1 CellRange=     0.0.
 One-electron integrals computed using PRISM.
   1 Symmetry operations used in ECPInt.
 ECPInt:  NShTT=   22155 NPrTT=   92250 LenC2=   20870 LenP2D=   58334.
 LDataN:  DoStor=T MaxTD1= 4 Len=   56
 NBasis=   432 RedAO= T EigKep=  2.55D-04  NBF=   432
 NBsUse=   432 1.00D-06 EigRej= -1.00D+00 NBFU=   432
 Precomputing XC quadrature grid using
 IXCGrd= 4 IRadAn=           5 IRanWt=          -1 IRanGd=           0 AccXCQ= 0.00D+00.
 Generated NRdTot=       0 NPtTot=           0 NUsed=           0 NTot=          32
 NSgBfM=   454   454   454   454   454 MxSgAt=    49 MxSgA2=    49.
 Leave Link  302 at Fri Mar  8 00:05:25 2024, MaxMem= 13421772800 cpu:              17.2 elap:               0.6
 (Enter /public/software/apps/Gaussian/g16/l303.exe)
 DipDrv:  MaxL=1.
 Leave Link  303 at Fri Mar  8 00:05:25 2024, MaxMem= 13421772800 cpu:               1.8 elap:               0.1
 (Enter /public/software/apps/Gaussian/g16/l401.exe)
 ExpMin= 3.30D-02 ExpMax= 7.64D+04 ExpMxC= 1.15D+04 IAcc=3 IRadAn=         5 AccDes= 0.00D+00
 Harris functional with IExCor=  402 and IRadAn=       5 diagonalized for initial guess.
 HarFok:  IExCor=  402 AccDes= 0.00D+00 IRadAn=         5 IDoV= 1 UseB2=F ITyADJ=14
 ICtDFT=  3500011 ScaDFX=  1.000000  1.000000  1.000000  1.000000
 FoFCou: FMM=F IPFlag=           0 FMFlag=      100000 FMFlg1=           0
         NFxFlg=           0 DoJE=T BraDBF=F KetDBF=T FulRan=T
         wScrn=  0.000000 ICntrl=       500 IOpCl=  0 I1Cent=   200000004 NGrid=           0
         NMat0=    1 NMatS0=      1 NMatT0=    0 NMatD0=    1 NMtDS0=    0 NMtDT0=    0
 Symmetry not used in FoFCou.
 Harris En= -2750.79245509276    
 JPrj=0 DoOrth=F DoCkMO=F.
 Initial guess <Sx>= 0.0000 <Sy>= 0.0000 <Sz>= 0.5000 <S**2>= 0.7500 S= 0.5000
 Leave Link  401 at Fri Mar  8 00:05:26 2024, MaxMem= 13421772800 cpu:              31.3 elap:               1.0
 (Enter /public/software/apps/Gaussian/g16/l502.exe)
 Two-electron integral symmetry not used.
 UHF open shell SCF:
 Using DIIS extrapolation, IDIIS=  1040.
 NGot= 13421772800 LenX= 13421329768 LenY= 13421117708
 Requested convergence on RMS density matrix=1.00D-08 within 128 cycles.
 Requested convergence on MAX density matrix=1.00D-06.
 Requested convergence on             energy=1.00D-06.
 No special actions if energy rises.
 Fock matrices will be formed incrementally for  20 cycles.

 Cycle   1  Pass 1  IDiag  1:
 FoFJK:  IHMeth= 1 ICntrl=       0 DoSepK=F KAlg= 0 I1Cent=           0 FoldK=F
 IRaf= 890000000 NMat=       1 IRICut=       1 DoRegI=T DoRafI=F ISym2E= 0 IDoP0=0 IntGTp=1.
 FoFCou: FMM=F IPFlag=           0 FMFlag=      100000 FMFlg1=           0
         NFxFlg=           0 DoJE=F BraDBF=F KetDBF=F FulRan=T
         wScrn=  0.000000 ICntrl=         0 IOpCl=  1 I1Cent=           0 NGrid=           0
         NMat0=    1 NMatS0=      1 NMatT0=    0 NMatD0=    1 NMtDS0=    0 NMtDT0=    0
 Symmetry not used in FoFCou.
 E= -2739.74899332868    
 DIIS: error= 2.16D-01 at cycle   1 NSaved=   1.
 NSaved= 1 IEnMin= 1 EnMin= -2739.74899332868     IErMin= 1 ErrMin= 2.16D-01
 ErrMax= 2.16D-01  0.00D+00 EMaxC= 1.00D-01 BMatC= 8.56D+01 BMatP= 8.56D+01
 IDIUse=3 WtCom= 0.00D+00 WtEn= 1.00D+00
 Coeff-Com:  0.100D+01
 Coeff-En:   0.100D+01
 Coeff:      0.100D+01
 Gap=     2.001 Goal=   None    Shift=    0.000
 Gap=    -2.114 Goal=   None    Shift=    0.000
 GapD=   -2.114 DampG=0.250 DampE=0.125 DampFc=0.1250 IDamp=-1.
 Damping current iteration by 1.25D-01
 RMSDP=1.20D-01 MaxDP=1.35D+01              OVMax= 9.86D-01

 Cycle   2  Pass 1  IDiag  1:
 RMSU=  1.49D-02    CP:  1.08D+00
 E= -2742.81480822379     Delta-E=       -3.065814895114 Rises=F Damp=T
 DIIS: error= 1.19D-01 at cycle   2 NSaved=   2.
 NSaved= 2 IEnMin= 2 EnMin= -2742.81480822379     IErMin= 2 ErrMin= 1.19D-01
 ErrMax= 1.19D-01  0.00D+00 EMaxC= 1.00D-01 BMatC= 2.91D+01 BMatP= 8.56D+01
 IDIUse=3 WtCom= 0.00D+00 WtEn= 1.00D+00
 Coeff-Com: -0.115D+01 0.215D+01
 Coeff-En:   0.000D+00 0.100D+01
 Coeff:      0.000D+00 0.100D+01
 Gap=     0.062 Goal=   None    Shift=    0.000
 Gap=     0.225 Goal=   None    Shift=    0.000
 RMSDP=3.47D-02 MaxDP=6.06D+00 DE=-3.07D+00 OVMax= 8.13D-01

 Cycle   3  Pass 1  IDiag  1:
 RMSU=  2.58D-02    CP:  1.18D+00  2.55D+00
 E= -2739.30555661326     Delta-E=        3.509251610530 Rises=F Damp=F
 DIIS: error= 8.78D-02 at cycle   3 NSaved=   3.
 NSaved= 3 IEnMin= 2 EnMin= -2742.81480822379     IErMin= 3 ErrMin= 8.78D-02
 ErrMax= 8.78D-02  0.00D+00 EMaxC= 1.00D-01 BMatC= 3.69D+01 BMatP= 2.91D+01
 IDIUse=2 WtCom= 0.00D+00 WtEn= 1.00D+00
 EnCoef did   100 forward-backward iterations
 Coeff-En:   0.486D+00 0.276D-01 0.486D+00
 Coeff:      0.486D+00 0.276D-01 0.486D+00
 Gap=    -0.150 Goal=   None    Shift=    0.000
 Gap=     0.593 Goal=   None    Shift=    0.000
 RMSDP=5.71D-02 MaxDP=7.26D+00 DE= 3.51D+00 OVMax= 9.81D-01

 Cycle   4  Pass 1  IDiag  1:
 RMSU=  3.84D-02    CP:  9.41D-01  3.39D-01 -8.79D-03
 E= -2717.23080690332     Delta-E=       22.074749709938 Rises=F Damp=F
 DIIS: error= 8.60D-02 at cycle   4 NSaved=   4.
 NSaved= 4 IEnMin= 2 EnMin= -2742.81480822379     IErMin= 4 ErrMin= 8.60D-02
 ErrMax= 8.60D-02  0.00D+00 EMaxC= 1.00D-01 BMatC= 5.66D+01 BMatP= 2.91D+01
 IDIUse=2 WtCom= 0.00D+00 WtEn= 1.00D+00
 EnCoef did   100 forward-backward iterations
 Coeff-En:   0.467D+00 0.112D-01 0.435D+00 0.870D-01
 Coeff:      0.467D+00 0.112D-01 0.435D+00 0.870D-01
 Gap=    -0.010 Goal=   None    Shift=    0.000
 Gap=    -0.156 Goal=   None    Shift=    0.000
 RMSDP=3.81D-02 MaxDP=7.14D+00 DE= 2.21D+01 OVMax= 9.96D-01

 Cycle   5  Pass 1  IDiag  1:
 RMSU=  6.59D-03    CP:  8.94D-01  9.64D-02  1.17D-01  3.09D-02
 E= -2749.48148840096     Delta-E=      -32.250681497638 Rises=F Damp=F
 DIIS: error= 4.80D-02 at cycle   5 NSaved=   5.
 NSaved= 5 IEnMin= 5 EnMin= -2749.48148840096     IErMin= 5 ErrMin= 4.80D-02
 ErrMax= 4.80D-02  0.00D+00 EMaxC= 1.00D-01 BMatC= 5.26D+00 BMatP= 2.91D+01
 IDIUse=3 WtCom= 5.20D-01 WtEn= 4.80D-01
 EnCoef did   100 forward-backward iterations
 Coeff-Com: -0.376D+00 0.802D+00-0.376D-01-0.779D-01 0.690D+00
 Coeff-En:   0.170D+00 0.206D-02 0.000D+00 0.000D+00 0.828D+00
 Coeff:     -0.114D+00 0.418D+00-0.196D-01-0.406D-01 0.756D+00
 Gap=     0.381 Goal=   None    Shift=    0.000
 Gap=    -0.010 Goal=   None    Shift=    0.000
 RMSDP=4.76D-03 MaxDP=3.15D-01 DE=-3.23D+01 OVMax= 5.18D-01

 Cycle   6  Pass 1  IDiag  1:
 RMSU=  3.78D-03    CP:  8.92D-01 -7.24D-03  6.03D-02  1.99D-02  7.13D-01
 E= -2749.63835716735     Delta-E=       -0.156868766383 Rises=F Damp=F
 DIIS: error= 3.12D-02 at cycle   6 NSaved=   6.
 NSaved= 6 IEnMin= 6 EnMin= -2749.63835716735     IErMin= 6 ErrMin= 3.12D-02
 ErrMax= 3.12D-02  0.00D+00 EMaxC= 1.00D-01 BMatC= 2.93D+00 BMatP= 5.26D+00
 IDIUse=3 WtCom= 6.88D-01 WtEn= 3.12D-01
 EnCoef did    13 forward-backward iterations
 Coeff-Com: -0.331D+00 0.617D+00-0.547D-01-0.302D-01 0.342D+00 0.456D+00
 Coeff-En:   0.651D-01 0.000D+00 0.000D+00 0.000D+00 0.523D+00 0.412D+00
 Coeff:     -0.207D+00 0.424D+00-0.376D-01-0.208D-01 0.399D+00 0.442D+00
 Gap=     0.224 Goal=   None    Shift=    0.000
 Gap=     0.067 Goal=   None    Shift=    0.000
 RMSDP=2.85D-03 MaxDP=1.47D-01 DE=-1.57D-01 OVMax= 4.78D-01

 Cycle   7  Pass 1  IDiag  1:
 RMSU=  1.81D-03    CP:  8.89D-01  9.96D-03  5.89D-02  2.23D-02  8.24D-01
                    CP:  4.56D-01
 E= -2750.39571590170     Delta-E=       -0.757358734359 Rises=F Damp=F
 DIIS: error= 1.32D-02 at cycle   7 NSaved=   7.
 NSaved= 7 IEnMin= 7 EnMin= -2750.39571590170     IErMin= 7 ErrMin= 1.32D-02
 ErrMax= 1.32D-02  0.00D+00 EMaxC= 1.00D-01 BMatC= 5.30D-01 BMatP= 2.93D+00
 IDIUse=3 WtCom= 8.68D-01 WtEn= 1.32D-01
 Coeff-Com: -0.157D+00 0.298D+00-0.307D-01 0.112D-01-0.216D-01 0.240D+00
 Coeff-Com:  0.660D+00
 Coeff-En:   0.000D+00 0.000D+00 0.000D+00 0.000D+00 0.000D+00 0.238D-01
 Coeff-En:   0.976D+00
 Coeff:     -0.136D+00 0.259D+00-0.267D-01 0.973D-02-0.187D-01 0.212D+00
 Coeff:      0.702D+00
 Gap=     0.214 Goal=   None    Shift=    0.000
 Gap=     0.065 Goal=   None    Shift=    0.000
 RMSDP=1.08D-03 MaxDP=6.24D-02 DE=-7.57D-01 OVMax= 2.18D-01

 Cycle   8  Pass 1  IDiag  1:
 RMSU=  7.96D-04    CP:  8.86D-01 -2.65D-03  5.46D-02  2.36D-02  8.16D-01
                    CP:  5.70D-01  7.03D-01
 E= -2750.43455446083     Delta-E=       -0.038838559130 Rises=F Damp=F
 DIIS: error= 1.15D-02 at cycle   8 NSaved=   8.
 NSaved= 8 IEnMin= 8 EnMin= -2750.43455446083     IErMin= 8 ErrMin= 1.15D-02
 ErrMax= 1.15D-02  0.00D+00 EMaxC= 1.00D-01 BMatC= 3.30D-01 BMatP= 5.30D-01
 IDIUse=3 WtCom= 8.85D-01 WtEn= 1.15D-01
 Coeff-Com: -0.121D+00 0.231D+00-0.136D-01 0.992D-02-0.120D+00 0.395D-01
 Coeff-Com:  0.422D+00 0.553D+00
 Coeff-En:   0.000D+00 0.000D+00 0.000D+00 0.000D+00 0.000D+00 0.000D+00
 Coeff-En:   0.310D+00 0.690D+00
 Coeff:     -0.107D+00 0.204D+00-0.120D-01 0.878D-02-0.106D+00 0.350D-01
 Coeff:      0.409D+00 0.569D+00
 Gap=     0.205 Goal=   None    Shift=    0.000
 Gap=     0.061 Goal=   None    Shift=    0.000
 RMSDP=6.09D-04 MaxDP=2.83D-02 DE=-3.88D-02 OVMax= 8.90D-02

 Cycle   9  Pass 1  IDiag  1:
 RMSU=  4.32D-04    CP:  8.85D-01 -4.69D-05  5.27D-02  2.44D-02  8.25D-01
                    CP:  5.05D-01  8.39D-01  7.08D-01
 E= -2750.48053574587     Delta-E=       -0.045981285033 Rises=F Damp=F
 DIIS: error= 9.53D-03 at cycle   9 NSaved=   9.
 NSaved= 9 IEnMin= 9 EnMin= -2750.48053574587     IErMin= 9 ErrMin= 9.53D-03
 ErrMax= 9.53D-03  0.00D+00 EMaxC= 1.00D-01 BMatC= 1.56D-01 BMatP= 3.30D-01
 IDIUse=3 WtCom= 9.05D-01 WtEn= 9.53D-02
 Coeff-Com: -0.719D-01 0.141D+00-0.362D-02 0.144D-02-0.128D+00-0.669D-01
 Coeff-Com: -0.290D-01 0.285D+00 0.872D+00
 Coeff-En:   0.000D+00 0.000D+00 0.000D+00 0.000D+00 0.000D+00 0.000D+00
 Coeff-En:   0.000D+00 0.000D+00 0.100D+01
 Coeff:     -0.651D-01 0.128D+00-0.327D-02 0.131D-02-0.116D+00-0.605D-01
 Coeff:     -0.263D-01 0.258D+00 0.884D+00
 Gap=     0.195 Goal=   None    Shift=    0.000
 Gap=     0.060 Goal=   None    Shift=    0.000
 RMSDP=4.43D-04 MaxDP=4.42D-02 DE=-4.60D-02 OVMax= 6.71D-02

 Cycle  10  Pass 1  IDiag  1:
 RMSU=  3.97D-04    CP:  8.86D-01  1.89D-03  5.21D-02  2.39D-02  8.23D-01
                    CP:  4.76D-01  8.35D-01  8.77D-01  8.28D-01
 E= -2750.49572052742     Delta-E=       -0.015184781551 Rises=F Damp=F
 DIIS: error= 5.54D-03 at cycle  10 NSaved=  10.
 NSaved=10 IEnMin=10 EnMin= -2750.49572052742     IErMin=10 ErrMin= 5.54D-03
 ErrMax= 5.54D-03  0.00D+00 EMaxC= 1.00D-01 BMatC= 7.48D-02 BMatP= 1.56D-01
 IDIUse=3 WtCom= 9.45D-01 WtEn= 5.54D-02
 Coeff-Com: -0.177D-01 0.392D-01-0.764D-03-0.212D-02-0.670D-01-0.154D-01
 Coeff-Com: -0.218D+00-0.268D+00 0.613D+00 0.937D+00
 Coeff-En:   0.000D+00 0.000D+00 0.000D+00 0.000D+00 0.000D+00 0.000D+00
 Coeff-En:   0.000D+00 0.000D+00 0.000D+00 0.100D+01
 Coeff:     -0.167D-01 0.370D-01-0.722D-03-0.200D-02-0.633D-01-0.146D-01
 Coeff:     -0.206D+00-0.254D+00 0.579D+00 0.940D+00
 Gap=     0.196 Goal=   None    Shift=    0.000
 Gap=     0.067 Goal=   None    Shift=    0.000
 RMSDP=3.85D-04 MaxDP=5.97D-02 DE=-1.52D-02 OVMax= 5.09D-02

 Cycle  11  Pass 1  IDiag  1:
 RMSU=  3.12D-04    CP:  8.88D-01  2.03D-03  5.07D-02  2.41D-02  8.12D-01
                    CP:  4.72D-01  8.67D-01  8.70D-01  1.25D+00  7.95D-01
 E= -2750.50617120982     Delta-E=       -0.010450682403 Rises=F Damp=F
 DIIS: error= 1.59D-03 at cycle  11 NSaved=  11.
 NSaved=11 IEnMin=11 EnMin= -2750.50617120982     IErMin=11 ErrMin= 1.59D-03
 ErrMax= 1.59D-03  0.00D+00 EMaxC= 1.00D-01 BMatC= 1.34D-02 BMatP= 7.48D-02
 IDIUse=3 WtCom= 9.84D-01 WtEn= 1.59D-02
 Coeff-Com: -0.599D-03 0.230D-02 0.256D-03-0.109D-02-0.129D-01 0.281D-01
 Coeff-Com: -0.108D+00-0.261D+00 0.576D-01 0.636D+00 0.659D+00
 Coeff-En:   0.000D+00 0.000D+00 0.000D+00 0.000D+00 0.000D+00 0.000D+00
 Coeff-En:   0.000D+00 0.000D+00 0.000D+00 0.818D-02 0.992D+00
 Coeff:     -0.589D-03 0.227D-02 0.251D-03-0.108D-02-0.127D-01 0.276D-01
 Coeff:     -0.106D+00-0.257D+00 0.566D-01 0.626D+00 0.664D+00
 Gap=     0.199 Goal=   None    Shift=    0.000
 Gap=     0.075 Goal=   None    Shift=    0.000
 RMSDP=2.54D-04 MaxDP=3.59D-02 DE=-1.05D-02 OVMax= 3.85D-02

 Cycle  12  Pass 1  IDiag  1:
 RMSU=  1.81D-04    CP:  8.88D-01  1.89D-03  5.00D-02  2.40D-02  8.08D-01
                    CP:  4.81D-01  8.61D-01  8.62D-01  1.32D+00  1.13D+00
                    CP:  6.74D-01
 E= -2750.50919504412     Delta-E=       -0.003023834296 Rises=F Damp=F
 DIIS: error= 8.05D-04 at cycle  12 NSaved=  12.
 NSaved=12 IEnMin=12 EnMin= -2750.50919504412     IErMin=12 ErrMin= 8.05D-04
 ErrMax= 8.05D-04  0.00D+00 EMaxC= 1.00D-01 BMatC= 3.46D-03 BMatP= 1.34D-02
 IDIUse=3 WtCom= 9.92D-01 WtEn= 8.05D-03
 Coeff-Com: -0.252D-02 0.367D-02 0.992D-03-0.233D-03-0.243D-03 0.169D-01
 Coeff-Com: -0.267D-01-0.838D-01-0.205D-01 0.216D+00 0.374D+00 0.523D+00
 Coeff-En:   0.000D+00 0.000D+00 0.000D+00 0.000D+00 0.000D+00 0.000D+00
 Coeff-En:   0.000D+00 0.000D+00 0.000D+00 0.000D+00 0.141D+00 0.859D+00
 Coeff:     -0.250D-02 0.364D-02 0.984D-03-0.231D-03-0.241D-03 0.168D-01
 Coeff:     -0.265D-01-0.831D-01-0.204D-01 0.214D+00 0.372D+00 0.526D+00
 Gap=     0.195 Goal=   None    Shift=    0.000
 Gap=     0.073 Goal=   None    Shift=    0.000
 RMSDP=9.58D-05 MaxDP=4.24D-03 DE=-3.02D-03 OVMax= 1.05D-02

 Cycle  13  Pass 1  IDiag  1:
 RMSU=  6.61D-05    CP:  8.88D-01  2.71D-03  5.09D-02  2.39D-02  8.09D-01
                    CP:  4.81D-01  8.55D-01  8.53D-01  1.30D+00  1.13D+00
                    CP:  8.27D-01  7.80D-01
 E= -2750.50982567797     Delta-E=       -0.000630633854 Rises=F Damp=F
 DIIS: error= 5.76D-04 at cycle  13 NSaved=  13.
 NSaved=13 IEnMin=13 EnMin= -2750.50982567797     IErMin=13 ErrMin= 5.76D-04
 ErrMax= 5.76D-04  0.00D+00 EMaxC= 1.00D-01 BMatC= 9.68D-04 BMatP= 3.46D-03
 IDIUse=3 WtCom= 9.94D-01 WtEn= 5.76D-03
 Coeff-Com: -0.226D-02 0.323D-02 0.841D-03-0.402D-04 0.114D-02 0.685D-02
[...]
 30503,0.00100243,-0.00010881,-0.00001377,-0.00055141,0.00063215,-0.000
 02820,-0.00413721,0.00101040,0.04260106,-0.27831781,0.09905155,0.00059
 016,-0.00013594,0.00006408,-0.00002803,-0.00001576,0.00000531,-0.00001
 453,0.00002282,0.00002322,0.00000036,-0.00000095,-0.00000050,0.0000042
 1,0.00000060,-0.00000102,0.00000103,0.00001288,-0.00000179,0.00000629,
 -0.00001417,-0.00000140,0.00001930,0.00001584,-0.00001325,-0.00000643,
 0.00002725,-0.00000107,-0.00002996,0.00003408,0.00000440,0.00000279,-0
 .00000038,0.00000721,-0.00000004,-0.00000182,0.00000158,0.00000101,0.0
 0000073,0.00000063,0.00000102,-0.00000161,-0.00000088,-0.00000020,-0.0
 0000114,0.00000075,-0.00001716,-0.00000645,0.00000094,-0.00004166,0.00
 003423,-0.00001443,0.00006536,0.00011001,-0.00006945,0.00006051,0.0000
 5207,0.00024909,0.00036421,0.00133953,-0.00023465,-0.00044401,0.000879
 99,0.00096505,0.00303449,-0.01471666,0.00830545,-0.04116253,0.29149938
 ,0.00000061,-0.00005099,-0.00006926,0.00005119,-0.00000066,-0.00000292
 ,0.00002950,-0.00006533,0.00000338,-0.00004648,0.00001784,0.00014183,0
 .00021282,0.00000708,-0.00011861,-0.00027551,-0.00067042,0.00028882,0.
 00107406,-0.00011771,0.00011503,-0.00154180,0.00222999,0.00065993,-0.0
 0688832,0.01511277,-0.00784493,0.00016545,-0.00278683,-0.00341988,-0.0
 0056708,0.00030629,0.00044273,0.00005904,-0.00003371,0.00005583,0.0000
 3037,0.00000529,0.00001734,0.00002131,-0.00002427,-0.00000581,-0.00001
 001,0.00000070,0.00000673,0.00000397,-0.00001389,-0.00001785,0.0000142
 3,0.00000875,0.00001477,-0.00001627,-0.00000193,0.00000082,0.00000693,
 0.00012665,0.00009785,0.00017856,0.00059109,0.00030554,0.00124534,-0.0
 0085463,0.00040488,-0.00191420,0.01571944,-0.00630923,-0.01529247,0.09
 602309,-0.08991546,0.00081289,0.00000419,0.00018294,0.00005903,0.00000
 138,-0.00001502,-0.00004250,0.00004158,0.00004584,0.00000023,-0.000000
 55,-0.00000123,0.00000691,-0.00000067,0.00000085,-0.00000168,0.0000162
 5,0.00000761,-0.00001366,-0.00002139,0.00000564,0.00001958,0.00002115,
 0.00000971,0.00004732,0.00004467,-0.00000967,-0.00005213,0.00006589,-0
 .00001714,0.00000366,0.00001104,0.00000429,-0.00000153,-0.00000032,0.0
 0000082,-0.00000031,0.00000125,-0.00000062,-0.00000034,0.00000067,-0.0
 0000066,-0.00000006,-0.00000168,-0.00000146,0.00000338,-0.00001695,0.0
 0000985,-0.00004381,0.00003693,-0.00002715,-0.00013244,-0.00004430,-0.
 00072771,-0.00011605,-0.00008597,0.00003508,-0.00040740,-0.00001139,0.
 00192655,0.00073777,-0.00015175,-0.00271907,0.00418933,-0.02054000,0.0
 1202569,0.01837326,-0.10519421,0.09436920,-0.00537283,-0.00027647,0.00
 055589,-0.00066852,-0.00022571,-0.00025522,-0.00314552,-0.00149322,-0.
 00212014,0.00808997,-0.01332833,-0.01758579,0.00113248,-0.00079742,-0.
 00160797,-0.00015405,-0.00012455,0.00006190,0.00003535,0.00008998,-0.0
 0003357,-0.00000955,0.00005995,0.00000578,0.00002275,-0.00000658,-0.00
 002083,0.00000020,-0.00005089,0.00003092,0.00003612,0.00001499,0.00004
 736,-0.00000003,-0.00001034,0.00000198,-0.00000341,-0.00002206,-0.0000
 4215,-0.00001454,0.00003662,-0.00000912,0.00003718,0.00001337,0.000023
 02,-0.00000932,0.00001529,0.00002035,-0.00000664,-0.00001210,-0.000014
 16,-0.00001828,-0.00000478,-0.00000721,0.00001561,-0.00002162,0.000003
 42,-0.00000660,0.00005000,-0.00002268,-0.00000645,0.00000905,0.0000133
 9,0.00000374,0.00000032,-0.00000309,-0.00001005,0.00000827,-0.00000760
 ,0.00000804,0.00031037,0.00021179,-0.07633781,0.04009214,0.05707096,-0
 .00349078,0.01822849,0.02439718,-0.00010869,0.00086941,0.00096261,0.00
 006504,0.00008624,0.00000833,0.00032456,-0.00075544,-0.00080810,-0.000
 42201,0.00001568,0.00035831,-0.00003733,0.00001904,-0.00001554,0.00007
 285,-0.00001871,0.00004631,-0.00000155,0.00000629,-0.00000136,0.000003
 80,-0.00000674,0.00001079,0.00000076,0.00000979,0.00000423,0.00000128,
 -0.00000226,0.00000884,-0.00000010,-0.00000428,-0.00000077,0.00000079,
 0.00000032,-0.00000005,-0.00000470,0.00000008,0.00000106,-0.00000214,-
 0.00000003,0.00000011,-0.00000770,0.00000132,0.00000299,0.00000438,0.0
 0000061,-0.00000013,0.00000132,-0.00000066,0.00000101,0.00000032,0.000
 00199,0.00000216,0.00000505,0.00000438,0.00000175,-0.00000391,-0.00000
 346,-0.00000654,0.07861475,0.00033844,0.00523728,-0.00261640,-0.000364
 35,-0.00026553,0.00074603,-0.00288012,0.00375653,-0.00384938,0.0041410
 2,-0.00330503,-0.00883232,0.00227314,-0.00227500,0.00156202,0.00013472
 ,0.00029205,0.00003557,0.00027669,0.00003000,0.00009758,-0.00008492,-0
 .00016217,0.00000802,-0.00000186,0.00000403,-0.00004435,0.00004153,-0.
 00002558,-0.00003559,-0.00003775,-0.00001435,0.00002080,-0.00002253,0.
 00000969,-0.00000594,-0.00001379,0.00001108,0.00002256,0.00001044,-0.0
 0000334,-0.00000419,-0.00001216,-0.00001755,-0.00003907,0.00000960,0.0
 0000340,0.00001062,0.00000094,0.00000475,0.00000444,0.00001147,0.00000
 474,0.00001037,-0.00001162,0.00000144,-0.00000648,-0.00001624,-0.00002
 093,0.00002486,-0.00000249,0.00001051,0.00000692,-0.00000144,0.0000000
 4,-0.00000268,-0.00000631,-0.00000349,-0.00000096,-0.00040127,-0.00005
 907,0.00004115,0.03894792,-0.13971242,-0.13581324,0.00048267,0.0023516
 6,-0.00280074,-0.00006880,-0.00011485,0.00005950,0.00006055,-0.0006856
 1,0.00044989,0.00055862,-0.00001437,-0.00080128,-0.00072631,0.00025718
 ,0.00048940,0.00002911,0.00002269,0.00001413,0.00006165,-0.00004165,0.
 00005318,0.00000207,-0.00000143,0.00000097,-0.00001371,-0.00001973,-0.
 00001039,0.00001750,-0.00002457,0.00000579,0.00000333,-0.00000393,-0.0
 0000290,0.00000162,0.00000136,0.00000136,-0.00000033,0.00000065,0.0000
 0095,0.00000004,-0.00000333,0.00000101,-0.00000028,-0.00000138,0.00000
 214,-0.00000670,0.00000322,0.00000084,0.00000030,-0.00000343,-0.000000
 77,0.00000099,0.00000009,0.00000165,0.00000065,0.00000080,0.00000177,0
 .00000017,0.00000274,0.00000098,-0.00000227,-0.00000044,-0.00000352,-0
 .04295663,0.13677812,0.00078902,-0.00276864,0.00299051,0.00013646,0.00
 064847,0.00017726,-0.00221966,-0.00290211,0.00194994,0.00542639,-0.010
 34111,-0.00898498,0.00004976,0.00266543,-0.00098162,-0.00033764,-0.000
 22663,0.00010958,-0.00005959,0.00012804,-0.00007556,0.00006364,0.00020
 872,0.00001611,0.00002843,-0.00002884,0.00000006,0.00010859,-0.0000817
 5,-0.00002178,-0.00007697,-0.00000874,0.00002548,-0.00000599,0.0000014
 5,-0.00000403,-0.00000089,-0.00001616,-0.00002431,0.00000104,0.0000225
 2,-0.00000184,0.00001095,0.00000553,0.00001328,-0.00000072,0.00000558,
 0.00000562,-0.00000192,-0.00000419,-0.00000334,-0.00001296,-0.00000135
 ,0.00000053,0.00000589,-0.00000675,0.00000110,-0.00004242,0.00000731,0
 .00001484,-0.00000394,0.00001500,0.00001762,0.00001039,-0.00000103,-0.
 00000096,0.00000245,0.00002590,-0.00000911,0.00052965,0.00034335,0.000
 31031,0.05780272,-0.13484351,-0.22371553,-0.00055605,-0.00374374,0.000
 31990,-0.00012143,0.00000461,-0.00019652,0.00000484,0.00048898,-0.0003
 6671,0.00006403,-0.00063678,0.00012032,-0.00068901,-0.00010192,0.00033
 521,-0.00007123,0.00001084,-0.00002470,0.00003572,-0.00006005,0.000005
 53,0.00000024,0.00000051,-0.00000002,0.00000227,-0.00000043,0.00000653
 ,-0.00000026,0.00000659,-0.00000080,-0.00000162,0.00000319,0.00000155,
 -0.00000008,0.00000026,-0.00000031,0.00000007,0.00000096,-0.00000020,-
 0.00000068,0.00000119,0.00000027,-0.00000216,0.00000079,0.00000165,-0.
 00000582,-0.00000052,0.00000513,0.00000545,0.00000382,-0.00000193,0.00
 000158,0.00000109,0.00000084,0.00000231,0.00000171,0.00000057,0.000007
 46,0.00000175,0.00000338,-0.00000932,-0.00000415,-0.00000485,-0.060811
 28,0.14900211,0.22912223,0.01094511,0.00573711,0.00686289,-0.00000319,
 0.00131778,0.00207801,0.00015656,0.00085255,0.00056159,-0.00436658,0.0
 0077740,0.00205357,-0.00038310,-0.00042503,-0.00092079,-0.00003180,-0.
 00005729,0.00016021,-0.00010031,-0.00007772,0.00000082,-0.00005498,-0.
 00001390,-0.00004604,0.00000748,0.00000430,-0.00000647,-0.00006604,0.0
 0004472,0.00001940,0.00006065,0.00001579,-0.00002972,0.00001094,-0.000
 00571,-0.00000018,-0.00000397,0.00000114,0.00000089,-0.00001045,0.0000
 1454,0.00000188,-0.00000541,-0.00000009,-0.00001547,0.00002228,0.00000
 845,0.00001079,-0.00000571,-0.00000591,-0.00000669,0.00000298,0.000000
 43,-0.00000190,0.00000185,-0.00000151,0.00000196,0.00002794,0.00001221
 ,-0.00001688,0.00000087,-0.00000313,-0.00000550,-0.00000245,-0.0000010
 9,-0.00000087,-0.00000814,-0.00001521,-0.00000254,-0.00019558,-0.00001
 844,0.00008115,-0.01508306,-0.01414754,-0.01694528,-0.19872243,-0.0920
 4989,-0.10919333,0.00066831,-0.00008028,-0.00030614,0.00042374,0.00029
 194,0.00039044,-0.00000612,-0.00009151,-0.00001478,0.00003830,-0.00001
 478,0.00000354,-0.00002264,0.00000498,-0.00002193,-0.00000560,-0.00001
 145,-0.00000792,-0.00000009,0.00000052,0.00000011,-0.00000395,-0.00000
 659,-0.00000053,0.00000689,-0.00001257,0.00000373,0.00000486,0.0000036
 5,0.00000006,0.00000324,0.00000038,0.00000210,-0.00000017,-0.00000171,
 0.00000007,-0.00000035,-0.00000136,0.00000011,0.00000160,-0.00000070,-
 0.00000137,0.00000274,0.00000028,-0.00000254,-0.00000139,-0.00000219,0
 .00000056,-0.00000021,-0.00000040,-0.00000032,-0.00000132,-0.00000024,
 0.00000007,-0.00000370,-0.00000165,-0.00000111,0.00000634,0.00000186,0
 .00000411,0.00121304,0.00017791,-0.00020753,0.20560935,-0.01348374,-0.
 00213905,-0.01074188,0.00174945,0.00253471,-0.00544667,0.00074494,-0.0
 0017298,0.00047696,0.00098097,0.00469140,-0.00306147,0.00074777,-0.000
 15264,0.00020084,0.00001970,0.00017165,-0.00011883,0.00007697,-0.00001
 851,0.00006189,0.00002034,-0.00002360,0.00007267,-0.00000659,0.0000016
 9,-0.00002303,-0.00011091,0.00001877,0.00005733,0.00010583,-0.00002009
 ,0.00000552,-0.00001711,-0.00000284,0.00000608,-0.00000086,0.00001866,
 0.00001038,-0.00001195,-0.00000143,0.00001772,0.00001483,-0.00001870,-
 0.00005045,-0.00002237,0.00003165,0.00003520,-0.00001282,-0.00001826,-
 0.00002822,0.00002610,-0.00000360,-0.00000011,0.00000221,-0.00001481,0
 .00000312,0.00004226,0.00003637,-0.00003667,-0.00001063,0.00000291,0.0
 0000434,-0.00000180,0.00000186,-0.00000044,0.00000193,-0.00001619,0.00
 000702,-0.00006657,-0.00021439,-0.00009648,0.00439748,0.00804155,0.001
 76857,-0.09231458,-0.11135908,-0.07987542,0.00010315,-0.00186290,0.002
 46927,-0.00067836,-0.00061177,-0.00006588,-0.00008034,-0.00057331,0.00
 032550,-0.00007519,-0.00003080,0.00002489,0.00000758,-0.00000196,0.000
 00353,-0.00001124,0.00000694,0.00001846,0.00000196,0.00000406,-0.00000
 136,-0.00000328,-0.00000528,-0.00000045,-0.00002278,-0.00002593,0.0000
 1736,0.00000643,-0.00002039,-0.00000941,-0.00000035,0.00000099,-0.0000
 0105,0.00000425,0.00000146,0.00000038,-0.00000564,-0.00000183,0.000001
 79,-0.00000071,-0.00000150,-0.00000072,0.00000028,-0.00000054,0.000001
 61,0.00000135,0.00000033,0.00000235,0.00000100,-0.00000078,0.00000060,
 -0.00000206,-0.00000016,-0.00000012,-0.00000241,0.00000216,-0.00000347
 ,0.00000391,0.00000586,-0.00000107,0.00011124,-0.00220927,0.00216751,0
 .09775744,0.10391799,-0.01673011,-0.01090874,-0.00611645,0.00146718,-0
 .00576406,-0.00025960,0.00075902,0.00042054,-0.00054647,0.00232849,-0.
 00342574,0.00267747,-0.00007960,0.00043156,0.00028571,0.00001616,-0.00
 011974,0.00000977,0.00002139,0.00000174,-0.00002572,-0.00007593,0.0000
 4760,-0.00006325,0.00004203,-0.00000053,0.00002933,-0.00002109,-0.0000
 0098,0.00001731,0.00001901,0.00004137,-0.00001463,0.00001857,-0.000006
 13,0.00000200,0.00000635,-0.00001239,-0.00002250,-0.00000768,0.0000251
 7,-0.00000106,0.00001226,0.00000991,0.00001462,-0.00001172,0.00000253,
 0.00000362,-0.00000228,-0.00000243,-0.00000200,-0.00001161,-0.00000304
 ,-0.00000170,0.00000812,-0.00000393,0.00000471,0.00000644,0.00002210,-
 0.00001357,-0.00001164,0.00000072,0.00000178,0.00000145,-0.00000172,0.
 00000035,-0.00001787,0.00000719,-0.00001119,0.00015764,0.00013837,0.00
 003980,0.00705774,0.00195783,0.00907717,-0.10918592,-0.07978088,-0.140
 43316,-0.00016499,0.00246868,-0.00074878,-0.00070164,-0.00001713,-0.00
 056451,-0.00001572,0.00043948,-0.00023440,0.00002639,0.00001875,-0.000
 03354,0.00000574,-0.00000046,0.00001233,0.00001100,0.00000014,-0.00001
 142,-0.00000067,0.00000510,-0.00000160,0.00000316,-0.00000341,0.000009
 58,0.00000096,0.00000909,0.00000429,-0.00000154,-0.00000249,0.00000554
 ,-0.00000197,-0.00000106,-0.00000117,0.00000074,0.00000136,-0.00000028
 ,-0.00000111,0.00000071,0.00000007,0.00000017,0.00000041,-0.00000127,0
 .00000061,0.00000005,0.00000052,0.00000313,0.00000043,-0.00000097,0.00
 000082,0.00000043,-0.00000043,0.00000007,0.00000054,-0.00000015,0.0000
 0441,0.00000001,0.00000222,-0.00000015,-0.00000230,0.00000037,-0.00031
 574,0.00235756,-0.00102382,0.11534643,0.09182191,0.13792204,-0.0013138
 4,-0.00052663,-0.00078307,-0.00419888,-0.00046311,0.00065059,-0.000385
 64,0.00276715,0.00202397,0.00132039,-0.00519014,-0.00454755,0.00373877
 ,0.00498243,0.00229974,0.00122135,0.00047648,0.00043087,0.00138323,-0.
 00624443,0.00153042,-0.01657913,0.00981680,-0.00040744,-0.00022949,-0.
 00001017,-0.00012158,-0.01599895,-0.01019433,-0.00018419,-0.04413008,-
 0.03251727,-0.00876731,0.00399422,-0.00460683,-0.00217319,0.00110776,0
 .00514256,0.00458611,-0.00027453,-0.00272996,-0.00218249,-0.00410847,0
 .00037522,-0.00073908,-0.00130108,0.00048768,0.00072350,-0.00125829,-0
 .00043876,-0.00145073,0.00134151,-0.00020759,-0.00095129,0.00120138,-0
 .00037787,-0.00041178,0.00116273,0.00617577,-0.00141242,-0.00034163,0.
 00019877,0.00068835,0.00023820,-0.00003485,-0.00004873,-0.00021818,-0.
 00050558,-0.00047139,-0.04560683,0.03277881,0.00801052,0.00152402,0.00
 029801,0.00107853,-0.00138109,0.00048234,0.00149135,0.00001617,0.00018
 170,-0.00011969,-0.00006095,-0.00014291,0.00037773,0.00035316,-0.00066
 660,-0.00037273,-0.00043980,-0.00090320,-0.00022524,0.00014183,-0.0000
 5417,0.00022188,-0.00004431,-0.00017291,0.00003744,-0.00046566,0.00089
 366,0.00021458,0.00031195,0.00059121,0.00047629,-0.00004076,0.00014867
 ,-0.00036772,0.00001215,-0.00017775,0.00011723,-0.00012047,-0.00001415
 ,-0.00003469,0.00015568,-0.00004378,-0.00014355,-0.00004324,0.00016888
 ,-0.00003206,0.00014595,0.00005927,-0.00021426,0.00004842,-0.00000302,
 0.00004365,0.00009407,0.00013979,-0.00001376,0.00011448,0.00004044,-0.
 00000473,0.00001203,0.00003719,0.00003323,0.00002313,0.00007372,-0.000
 06876,0.00018461,-0.00000968,0.00001975,0.00015313,0.00004878,0.000149
 84,-0.00012634,0.00001287,0.00003350,0.11866734,0.00177950,0.00229437,
 0.00356142,-0.00431103,0.00031895,0.00080358,-0.00014219,-0.00222559,0
 .00298050,0.00096244,-0.00723814,-0.00277085,0.00753204,-0.01028814,-0
 .00377840,0.00017069,-0.00210053,0.00054200,-0.00604781,0.00358804,-0.
 00422626,0.01891557,0.00445766,0.00543608,0.00016094,-0.00015349,0.002
 93239,-0.01955932,0.00393375,0.00494216,-0.02203593,-0.04381867,-0.012
 60227,-0.00719963,-0.01045006,-0.00402524,-0.00074218,-0.00712205,-0.0
 0275661,0.00001830,-0.00207924,0.00279587,0.00423201,0.00039103,0.0009
 2682,-0.00195063,0.00225148,0.00353862,-0.00287505,-0.00208797,-0.0023
 7449,0.00376106,-0.00100478,-0.00149129,-0.00013859,-0.00210980,0.0005
 0105,0.00610023,0.00382025,-0.00403622,0.00092377,-0.00125030,-0.00112
 739,-0.00015256,-0.00016332,-0.00001782,-0.00090848,-0.00186502,-0.000
 66561,0.02226290,-0.04290229,-0.01180228,-0.00372011,-0.00110143,-0.00
 158672,0.00295817,-0.00205932,-0.00228317,0.00003334,0.00015097,0.0001
 1829,0.00019588,0.00028343,-0.00043214,-0.00096303,-0.00435711,0.00491
 459,-0.00019503,-0.00035976,0.00047436,0.00006941,-0.00006298,0.000103
 44,0.00026516,-0.00006907,0.00008903,0.00018412,-0.00032688,0.00047194
 ,0.00091031,-0.00436009,0.00494062,-0.00019126,0.00029118,-0.00044601,
 -0.00003991,0.00014785,0.00011925,-0.00002050,0.00003219,-0.00017481,-
 0.00006707,0.00020428,0.00000276,-0.00026772,-0.00007446,0.00008128,-0
 .00006644,-0.00006407,0.00009540,0.00059029,-0.00002612,-0.00031506,-0
 .00053867,0.00003873,0.00030218,-0.00001957,-0.00004949,-0.00011326,-0
 .00029567,-0.00007641,-0.00008484,-0.00042945,0.00005386,-0.00039816,0
 .00090464,0.00015346,0.00030019,0.00006707,0.00020441,0.00000519,0.000
 02248,0.00003160,-0.00017409,-0.00014247,0.12719908,-0.00005004,-0.000
 84676,-0.00074902,0.00479348,0.00032456,-0.00156179,-0.00027193,-0.002
 67730,0.00654852,-0.00016614,0.00607915,0.00151761,-0.00074655,-0.0036
 1610,0.00025183,-0.00076216,0.00015064,-0.00012951,-0.00269935,0.00313
 218,-0.00152810,0.00218990,0.00321966,0.00154414,0.00006303,0.00003747
 ,-0.00005506,-0.00273116,0.00297423,0.00153996,-0.01240174,-0.01612403
 ,-0.00557960,0.00083067,-0.00378194,0.00017875,0.00004059,0.00618480,0
 .00165962,0.00020979,-0.00291442,0.00656918,-0.00484517,0.00024823,-0.
 00170909,0.00004508,-0.00081601,-0.00072326,-0.00105503,-0.00127406,-0
 .00189116,0.00538649,-0.00166783,-0.00237321,0.00078497,0.00015008,-0.
 00012206,0.00271709,0.00330934,-0.00143354,0.00000486,-0.00023530,0.00
 000008,-0.00003367,0.00000601,-0.00000298,-0.00004680,-0.00011756,-0.0
 0001164,0.01172125,-0.01501941,-0.00500754,-0.00522532,-0.00176013,-0.
 00246037,0.00107656,-0.00124648,-0.00180638,-0.00015397,-0.00024327,-0
 .00000654,0.00038728,-0.00014300,-0.00010441,-0.00106572,0.00529863,-0
 .00651189,0.00012741,-0.00026502,0.00004708,-0.00003370,0.00007593,-0.
 00015610,-0.00016148,0.00022896,-0.00023841,-0.00013258,-0.00024481,0.
 00004430,0.00116625,0.00532491,-0.00639418,-0.00038144,-0.00014651,-0.
 00011780,0.00015831,-0.00024330,-0.00000110,-0.00017467,-0.00002345,0.
 00000719,0.00017248,-0.00016196,-0.00011220,0.00016195,0.00023721,-0.0
 0023065,0.00003789,0.00007848,-0.00015570,0.00011701,-0.00001758,-0.00
 002710,0.00003049,0.00007714,-0.00001653,-0.00000527,-0.00000846,-0.00
 003084,-0.00002173,-0.00000371,-0.00001957,-0.00009063,-0.00008116,-0.
 00007027,0.00001512,0.00002156,0.00004857,-0.00016338,-0.00016397,-0.0
 0011244,0.00017132,-0.00001960,0.00001305,0.00101036,0.01670398,0.0214
 8014\\-0.00000026,0.00000245,0.00000188,-0.00000282,-0.00000290,0.0000
 0169,0.00000261,0.00000828,-0.00000635,-0.00000239,0.00000427,-0.00000
 111,-0.00000032,0.00000865,-0.00000877,0.00000144,0.00000015,0.0000056
 9,0.00000349,-0.00000202,0.00000336,-0.00001287,0.00000413,-0.00000498
 ,0.00000864,0.00000156,-0.00001472,-0.00000448,-0.00000085,0.00000475,
 -0.00000325,0.00000914,-0.00001577,0.00000296,-0.00001163,0.00000499,0
 .00000337,-0.00000870,-0.00000114,-0.00001358,0.00001370,-0.00002785,0
 .00000183,0.00000388,-0.00000184,0.00000024,-0.00000057,-0.00000137,0.
 00000302,0.00000093,0.00000209,-0.00000485,0.00000164,0.00000016,-0.00
 000365,0.00000665,-0.00000422,0.00000255,-0.00000421,-0.00000236,-0.00
 000647,-0.00000603,0.00000730,0.00000028,0.00000481,-0.00000126,-0.000
 00020,-0.00000306,0.00000686,0.00000647,-0.00000417,-0.00000301,-0.000
 00173,-0.00000014,0.00000021,0.00000140,-0.00000154,-0.00000069,-0.000
 00029,0.00000049,0.00000069,0.00000017,0.00000038,0.00000098,-0.000002
 57,-0.00000514,0.00000534,-0.00000179,-0.00000115,0.00000144,-0.000000
 89,0.00000019,-0.00000068,0.00000096,-0.00000143,-0.00000008,-0.000001
 83,0.00000140,-0.00000112,-0.00000099,-0.00000232,-0.00000133,0.000000
 24,0.00000029,-0.00000095,-0.00000034,0.,-0.00000043,-0.00000023,0.000
 00065,-0.00000101,0.00000040,0.00000042,-0.00000050,0.00000163,0.00000
 017,-0.00000002,-0.00000002,-0.00000033,0.00000023,0.00000014,0.000001
 25,-0.00000186,0.00000026,-0.00000094,-0.00000004,0.00000033,0.0000004
 5,0.00000029,0.00000304,-0.00000135,0.00000006,0.00000004,-0.00000070,
 0.00000065,0.00000009,0.00000161,0.00000182,-0.00000020,-0.00000033,0.
 00000031,-0.00000015,-0.00000046,0.00000039,0.00002059,-0.00001761,0.0
 0005229\\\@
 The archive entry for this job was punched.


 ONLY THE DAY DAWNS TO WHICH YOU ARE AWAKE.

                                 -- THOREAU
 Job cpu time:       0 days  7 hours 45 minutes 13.4 seconds.
 Elapsed time:       0 days  0 hours 14 minutes 36.9 seconds.
 File lengths (MBytes):  RWF=   2291 Int=      0 D2E=      0 Chk=     25 Scr=      2
 Normal termination of Gaussian 16 at Fri Mar  8 00:54:12 2024.
