 Entering Gaussian System, Link 0=g16
 Initial command:
 /public/software/apps/Gaussian/g16/l1.exe "/public/home/LJQ_HG/tmp/Gau-124910.inp" -scrdir="/public/home/LJQ_HG/tmp/"
 Entering Link 1 = /public/software/apps/Gaussian/g16/l1.exe PID=    124911.
  
 Copyright (c) 1988-2019, Gaussian, Inc.  All Rights Reserved.
  
 This is part of the Gaussian(R) 16 program.  It is based on
 the Gaussian(R) 09 system (copyright 2009, Gaussian, Inc.),
 the Gaussian(R) 03 system (copyright 2003, Gaussian, Inc.),
 the Gaussian(R) 98 system (copyright 1998, Gaussian, Inc.),
 the Gaussian(R) 94 system (copyright 1995, Gaussian, Inc.),
 the Gaussian 92(TM) system (copyright 1992, Gaussian, Inc.),
 the Gaussian 90(TM) system (copyright 1990, Gaussian, Inc.),
 the Gaussian 88(TM) system (copyright 1988, Gaussian, Inc.),
 the Gaussian 86(TM) system (copyright 1986, Carnegie Mellon
 University), and the Gaussian 82(TM) system (copyright 1983,
 Carnegie Mellon University). Gaussian is a federally registered
 trademark of Gaussian, Inc.
  
 This software contains proprietary and confidential information,
 including trade secrets, belonging to Gaussian, Inc.
  
 This software is provided under written license and may be
 used, copied, transmitted, or stored only in accord with that
 written license.
  
 The following legend is applicable only to US Government
 contracts under FAR:
  
                    RESTRICTED RIGHTS LEGEND
  
 Use, reproduction and disclosure by the US Government is
 subject to restrictions as set forth in subparagraphs (a)
 and (c) of the Commercial Computer Software - Restricted
 Rights clause in FAR 52.227-19.
  
 Gaussian, Inc.
 340 Quinnipiac St., Bldg. 40, Wallingford CT 06492
  
  
 ---------------------------------------------------------------
 Warning -- This program may not be used in any manner that
 competes with the business of Gaussian, Inc. or will provide
 assistance to any competitor of Gaussian, Inc.  The licensee
 of this program is prohibited from giving any competitor of
 Gaussian, Inc. access to this program.  By using this program,
 the user acknowledges that Gaussian, Inc. is engaged in the
 business of creating and licensing software in the field of
 computational chemistry and represents and warrants to the
 licensee that it is not a competitor of Gaussian, Inc. and that
 it will not use this program in any manner prohibited above.
 ---------------------------------------------------------------
  

 Cite this work as:
 Gaussian 16, Revision C.01,
 M. J. Frisch, G. W. Trucks, H. B. Schlegel, G. E. Scuseria, 
 M. A. Robb, J. R. Cheeseman, G. Scalmani, V. Barone, 
 G. A. Petersson, H. Nakatsuji, X. Li, M. Caricato, A. V. Marenich, 
 J. Bloino, B. G. Janesko, R. Gomperts, B. Mennucci, H. P. Hratchian, 
 J. V. Ortiz, A. F. Izmaylov, J. L. Sonnenberg, D. Williams-Young, 
 F. Ding, F. Lipparini, F. Egidi, J. Goings, B. Peng, A. Petrone, 
 T. Henderson, D. Ranasinghe, V. G. Zakrzewski, J. Gao, N. Rega, 
 G. Zheng, W. Liang, M. Hada, M. Ehara, K. Toyota, R. Fukuda, 
 J. Hasegawa, M. Ishida, T. Nakajima, Y. Honda, O. Kitao, H. Nakai, 
 T. Vreven, K. Throssell, J. A. Montgomery, Jr., J. E. Peralta, 
 F. Ogliaro, M. J. Bearpark, J. J. Heyd, E. N. Brothers, K. N. Kudin, 
 V. N. Staroverov, T. A. Keith, R. Kobayashi, J. Normand, 
 K. Raghavachari, A. P. Rendell, J. C. Burant, S. S. Iyengar, 
 J. Tomasi, M. Cossi, J. M. Millam, M. Klene, C. Adamo, R. Cammi, 
 J. W. Ochterski, R. L. Martin, K. Morokuma, O. Farkas, 
 J. B. Foresman, and D. J. Fox, Gaussian, Inc., Wallingford CT, 2019.
 
 ******************************************
 Gaussian 16:  ES64L-G16RevC.01  3-Jul-2019
                14-Mar-2024 
 ******************************************
 %nprocshared=32
 Will use up to   32 processors via shared memory.
 %mem=100GB
 -------------------------------------------
 #p opt freq ub3lyp nosymm def2svpp em=gd3bj
 -------------------------------------------
 1/18=20,19=15,26=3,38=1/1,3;
 2/9=110,12=2,15=1,17=6,18=5,40=1/2;
 3/5=43,7=202,11=2,25=1,30=1,71=1,74=-5,116=2,124=41/1,2,3;
 4//1;
 5/5=2,38=5/2;
 6/7=2,8=2,9=2,10=2,28=1/1;
 7/30=1/1,2,3,16;
 1/18=20,19=15,26=3/3(2);
 2/9=110,15=1/2;
 99//99;
 2/9=110,15=1/2;
 3/5=43,7=202,11=2,25=1,30=1,71=1,74=-5,116=2,124=41/1,2,3;
 4/5=5,16=3,69=1/1;
 5/5=2,38=5/2;
 7/30=1/1,2,3,16;
 1/18=20,19=15,26=3/3(-5);
 2/9=110,15=1/2;
 6/7=2,8=2,9=2,10=2,19=2,28=1/1;
 99/9=1/99;
 Leave Link    1 at Thu Mar 14 18:55:02 2024, MaxMem= 13421772800 cpu:               1.3 elap:               0.0
 (Enter /public/software/apps/Gaussian/g16/l101.exe)
 ------------------
 $$$$Title####2????
 ------------------
 Symbolic Z-matrix:
 Charge =  2 Multiplicity = 2
 C                     0.34502   4.81271   3.65364 
 C                    -0.89847   4.13088   3.83186 
 C                    -1.21022   3.01259   3.05789 
 C                    -0.30425   2.56649   2.09069 
 C                    -0.6288    1.37231   1.22101 
 C                    -1.77186   0.33424   1.46399 
 O                    -1.04783  -0.93053   1.61997 
 C                     0.2071   -0.72013   1.31852 
 C                     1.17669  -1.82858   1.2594 
 C                     0.85061  -3.141     1.58386 
 C                     1.8552   -4.1173    1.48877 
 C                     3.12947  -3.74014   1.07081 
 C                     3.37725  -2.39381   0.75675 
 N                     2.42352  -1.46529   0.85299 
 N                     0.55032   0.51137   1.06799 
 C                     0.94209   3.25935   1.91514 
 C                     1.26091   4.36731   2.69527 
 H                     0.56915   5.68948   4.26834 
 H                    -1.60653   4.49402   4.58249 
 H                    -2.1614    2.49429   3.20723 
 H                    -0.92381   1.73752   0.22325 
 H                    -2.45738   0.21228   0.61175 
 H                    -2.34206   0.50674   2.38623 
 H                    -0.16459  -3.39165   1.90031 
 H                     1.63586  -5.15892   1.73963 
 H                     3.9404   -4.46861   0.98885 
 H                     4.36912  -2.06648   0.43185 
 H                     1.63428   2.93093   1.13431 
 H                     2.20716   4.89431   2.54931 
 Cu                    2.41443   0.53394   0.47445 
 
 ITRead=  0  0  0  0  0  0  0  0  0  0  0  0  0  0  0  0  0  0  0  0
 ITRead=  0  0  0  0  0  0  0  0  0  0
 MicOpt= -1 -1 -1 -1 -1 -1 -1 -1 -1 -1 -1 -1 -1 -1 -1 -1 -1 -1 -1 -1
 MicOpt= -1 -1 -1 -1 -1 -1 -1 -1 -1 -1
 NAtoms=     30 NQM=       30 NQMF=       0 NMMI=      0 NMMIF=      0
                NMic=       0 NMicF=      0.
                    Isotopes and Nuclear Properties:
 (Nuclear quadrupole moments (NQMom) in fm**2, nuclear magnetic moments (NMagM)
  in nuclear magnetons)

  Atom         1           2           3           4           5           6           7           8           9          10
 IAtWgt=          12          12          12          12          12          12          16          12          12          12
 AtmWgt=  12.0000000  12.0000000  12.0000000  12.0000000  12.0000000  12.0000000  15.9949146  12.0000000  12.0000000  12.0000000
 NucSpn=           0           0           0           0           0           0           0           0           0           0
 AtZEff=  -0.0000000  -0.0000000  -0.0000000  -0.0000000  -0.0000000  -0.0000000  -0.0000000  -0.0000000  -0.0000000  -0.0000000
 NQMom=    0.0000000   0.0000000   0.0000000   0.0000000   0.0000000   0.0000000   0.0000000   0.0000000   0.0000000   0.0000000
 NMagM=    0.0000000   0.0000000   0.0000000   0.0000000   0.0000000   0.0000000   0.0000000   0.0000000   0.0000000   0.0000000
 AtZNuc=   6.0000000   6.0000000   6.0000000   6.0000000   6.0000000   6.0000000   8.0000000   6.0000000   6.0000000   6.0000000

  Atom        11          12          13          14          15          16          17          18          19          20
 IAtWgt=          12          12          12          14          14          12          12           1           1           1
 AtmWgt=  12.0000000  12.0000000  12.0000000  14.0030740  14.0030740  12.0000000  12.0000000   1.0078250   1.0078250   1.0078250
 NucSpn=           0           0           0           2           2           0           0           1           1           1
 AtZEff=  -0.0000000  -0.0000000  -0.0000000  -0.0000000  -0.0000000  -0.0000000  -0.0000000  -0.0000000  -0.0000000  -0.0000000
 NQMom=    0.0000000   0.0000000   0.0000000   2.0440000   2.0440000   0.0000000   0.0000000   0.0000000   0.0000000   0.0000000
 NMagM=    0.0000000   0.0000000   0.0000000   0.4037610   0.4037610   0.0000000   0.0000000   2.7928460   2.7928460   2.7928460
 AtZNuc=   6.0000000   6.0000000   6.0000000   7.0000000   7.0000000   6.0000000   6.0000000   1.0000000   1.0000000   1.0000000

  Atom        21          22          23          24          25          26          27          28          29          30
 IAtWgt=           1           1           1           1           1           1           1           1           1          63
 AtmWgt=   1.0078250   1.0078250   1.0078250   1.0078250   1.0078250   1.0078250   1.0078250   1.0078250   1.0078250  62.9295992
 NucSpn=           1           1           1           1           1           1           1           1           1           3
 AtZEff=  -0.0000000  -0.0000000  -0.0000000  -0.0000000  -0.0000000  -0.0000000  -0.0000000  -0.0000000  -0.0000000  -0.0000000
 NQMom=    0.0000000   0.0000000   0.0000000   0.0000000   0.0000000   0.0000000   0.0000000   0.0000000   0.0000000 -22.0000000
 NMagM=    2.7928460   2.7928460   2.7928460   2.7928460   2.7928460   2.7928460   2.7928460   2.7928460   2.7928460   2.2233000
 AtZNuc=   1.0000000   1.0000000   1.0000000   1.0000000   1.0000000   1.0000000   1.0000000   1.0000000   1.0000000  29.0000000
 Leave Link  101 at Thu Mar 14 18:55:02 2024, MaxMem= 13421772800 cpu:               5.4 elap:               0.2
 (Enter /public/software/apps/Gaussian/g16/l103.exe)

 GradGradGradGradGradGradGradGradGradGradGradGradGradGradGradGradGradGrad
 Berny optimization.
 Initialization pass.
                           ----------------------------
                           !    Initial Parameters    !
                           ! (Angstroms and Degrees)  !
 --------------------------                            --------------------------
 ! Name  Definition              Value          Derivative Info.                !
 --------------------------------------------------------------------------------
 ! R1    R(1,2)                  1.4293         estimate D2E/DX2                !
 ! R2    R(1,17)                 1.3985         estimate D2E/DX2                !
 ! R3    R(1,18)                 1.094          estimate D2E/DX2                !
 ! R4    R(2,3)                  1.3953         estimate D2E/DX2                !
 ! R5    R(2,19)                 1.0939         estimate D2E/DX2                !
 ! R6    R(3,4)                  1.3983         estimate D2E/DX2                !
 ! R7    R(3,20)                 1.0935         estimate D2E/DX2                !
 ! R8    R(4,5)                  1.5125         estimate D2E/DX2                !
 ! R9    R(4,16)                 1.4367         estimate D2E/DX2                !
 ! R10   R(5,6)                  1.5631         estimate D2E/DX2                !
 ! R11   R(5,15)                 1.468          estimate D2E/DX2                !
 ! R12   R(5,21)                 1.1027         estimate D2E/DX2                !
 ! R13   R(6,7)                  1.4657         estimate D2E/DX2                !
 ! R14   R(6,22)                 1.1005         estimate D2E/DX2                !
 ! R15   R(6,23)                 1.0979         estimate D2E/DX2                !
 ! R16   R(7,8)                  1.3077         estimate D2E/DX2                !
 ! R17   R(8,9)                  1.4739         estimate D2E/DX2                !
 ! R18   R(8,15)                 1.3028         estimate D2E/DX2                !
 ! R19   R(9,10)                 1.3907         estimate D2E/DX2                !
 ! R20   R(9,14)                 1.3608         estimate D2E/DX2                !
 ! R21   R(10,11)                1.4041         estimate D2E/DX2                !
 ! R22   R(10,24)                1.0925         estimate D2E/DX2                !
 ! R23   R(11,12)                1.3931         estimate D2E/DX2                !
 ! R24   R(11,25)                1.0936         estimate D2E/DX2                !
 ! R25   R(12,13)                1.4045         estimate D2E/DX2                !
 ! R26   R(12,26)                1.0932         estimate D2E/DX2                !
 ! R27   R(13,14)                1.3345         estimate D2E/DX2                !
 ! R28   R(13,27)                1.0938         estimate D2E/DX2                !
 ! R29   R(14,30)                2.0348         estimate D2E/DX2                !
 ! R30   R(15,30)                1.9565         estimate D2E/DX2                !
 ! R31   R(16,17)                1.3921         estimate D2E/DX2                !
 ! R32   R(16,28)                1.0939         estimate D2E/DX2                !
 ! R33   R(17,29)                1.0929         estimate D2E/DX2                !
 ! A1    A(2,1,17)             120.2187         estimate D2E/DX2                !
 ! A2    A(2,1,18)             119.3734         estimate D2E/DX2                !
 ! A3    A(17,1,18)            120.4064         estimate D2E/DX2                !
 ! A4    A(1,2,3)              120.5012         estimate D2E/DX2                !
 ! A5    A(1,2,19)             119.3616         estimate D2E/DX2                !
 ! A6    A(3,2,19)             120.1372         estimate D2E/DX2                !
 ! A7    A(2,3,4)              119.6448         estimate D2E/DX2                !
 ! A8    A(2,3,20)             119.9003         estimate D2E/DX2                !
 ! A9    A(4,3,20)             120.4541         estimate D2E/DX2                !
 ! A10   A(3,4,5)              120.702          estimate D2E/DX2                !
 ! A11   A(3,4,16)             119.5184         estimate D2E/DX2                !
 ! A12   A(5,4,16)             119.7772         estimate D2E/DX2                !
 ! A13   A(4,5,6)              126.2898         estimate D2E/DX2                !
 ! A14   A(4,5,15)             110.5256         estimate D2E/DX2                !
 ! A15   A(4,5,21)             108.4321         estimate D2E/DX2                !
 ! A16   A(6,5,15)             102.3632         estimate D2E/DX2                !
 ! A17   A(6,5,21)              99.4954         estimate D2E/DX2                !
 ! A18   A(15,5,21)            108.3497         estimate D2E/DX2                !
 ! A19   A(5,6,7)              103.2017         estimate D2E/DX2                !
 ! A20   A(5,6,22)             114.1262         estimate D2E/DX2                !
 ! A21   A(5,6,23)             113.9559         estimate D2E/DX2                !
 ! A22   A(7,6,22)             107.1266         estimate D2E/DX2                !
 ! A23   A(7,6,23)             107.6223         estimate D2E/DX2                !
 ! A24   A(22,6,23)            110.145          estimate D2E/DX2                !
 ! A25   A(6,7,8)              108.1008         estimate D2E/DX2                !
 ! A26   A(7,8,9)              121.3029         estimate D2E/DX2                !
 ! A27   A(7,8,15)             116.6965         estimate D2E/DX2                !
 ! A28   A(9,8,15)             121.9995         estimate D2E/DX2                !
 ! A29   A(8,9,10)             123.1023         estimate D2E/DX2                !
 ! A30   A(8,9,14)             114.4539         estimate D2E/DX2                !
 ! A31   A(10,9,14)            122.443          estimate D2E/DX2                !
 ! A32   A(9,10,11)            118.2053         estimate D2E/DX2                !
 ! A33   A(9,10,24)            120.13           estimate D2E/DX2                !
 ! A34   A(11,10,24)           121.6645         estimate D2E/DX2                !
 ! A35   A(10,11,12)           119.1124         estimate D2E/DX2                !
 ! A36   A(10,11,25)           120.2144         estimate D2E/DX2                !
 ! A37   A(12,11,25)           120.6732         estimate D2E/DX2                !
 ! A38   A(11,12,13)           119.208          estimate D2E/DX2                !
 ! A39   A(11,12,26)           121.374          estimate D2E/DX2                !
 ! A40   A(13,12,26)           119.4167         estimate D2E/DX2                !
 ! A41   A(12,13,14)           121.6505         estimate D2E/DX2                !
 ! A42   A(12,13,27)           120.8794         estimate D2E/DX2                !
 ! A43   A(14,13,27)           117.4674         estimate D2E/DX2                !
 ! A44   A(9,14,13)            119.3796         estimate D2E/DX2                !
 ! A45   A(9,14,30)            108.2871         estimate D2E/DX2                !
 ! A46   A(13,14,30)           132.3283         estimate D2E/DX2                !
 ! A47   A(5,15,8)             108.8286         estimate D2E/DX2                !
 ! A48   A(5,15,30)            142.2022         estimate D2E/DX2                !
 ! A49   A(8,15,30)            108.679          estimate D2E/DX2                !
 ! A50   A(4,16,17)            120.9328         estimate D2E/DX2                !
 ! A51   A(4,16,28)            119.4284         estimate D2E/DX2                !
 ! A52   A(17,16,28)           119.6064         estimate D2E/DX2                !
 ! A53   A(1,17,16)            119.1791         estimate D2E/DX2                !
 ! A54   A(1,17,29)            120.3313         estimate D2E/DX2                !
 ! A55   A(16,17,29)           120.4806         estimate D2E/DX2                !
 ! A56   A(14,30,15)            86.3584         estimate D2E/DX2                !
 ! D1    D(17,1,2,3)             0.2682         estimate D2E/DX2                !
 ! D2    D(17,1,2,19)         -179.7257         estimate D2E/DX2                !
 ! D3    D(18,1,2,3)           179.8086         estimate D2E/DX2                !
 ! D4    D(18,1,2,19)           -0.1853         estimate D2E/DX2                !
 ! D5    D(2,1,17,16)            0.3644         estimate D2E/DX2                !
 ! D6    D(2,1,17,29)          179.2759         estimate D2E/DX2                !
 ! D7    D(18,1,17,16)        -179.1713         estimate D2E/DX2                !
 ! D8    D(18,1,17,29)          -0.2597         estimate D2E/DX2                !
 ! D9    D(1,2,3,4)             -0.7306         estimate D2E/DX2                !
 ! D10   D(1,2,3,20)           179.577          estimate D2E/DX2                !
 ! D11   D(19,2,3,4)           179.2633         estimate D2E/DX2                !
 ! D12   D(19,2,3,20)           -0.4292         estimate D2E/DX2                !
 ! D13   D(2,3,4,5)           -178.8671         estimate D2E/DX2                !
 ! D14   D(2,3,4,16)             0.5605         estimate D2E/DX2                !
 ! D15   D(20,3,4,5)             0.8236         estimate D2E/DX2                !
 ! D16   D(20,3,4,16)         -179.7488         estimate D2E/DX2                !
 ! D17   D(3,4,5,6)            -14.2765         estimate D2E/DX2                !
 ! D18   D(3,4,5,15)          -138.2325         estimate D2E/DX2                !
 ! D19   D(3,4,5,21)           103.1402         estimate D2E/DX2                !
 ! D20   D(16,4,5,6)           166.2973         estimate D2E/DX2                !
 ! D21   D(16,4,5,15)           42.3414         estimate D2E/DX2                !
 ! D22   D(16,4,5,21)          -76.2859         estimate D2E/DX2                !
 ! D23   D(3,4,16,17)            0.0731         estimate D2E/DX2                !
 ! D24   D(3,4,16,28)         -177.8481         estimate D2E/DX2                !
 ! D25   D(5,4,16,17)          179.506          estimate D2E/DX2                !
 ! D26   D(5,4,16,28)            1.5848         estimate D2E/DX2                !
 ! D27   D(4,5,6,7)           -118.8754         estimate D2E/DX2                !
 ! D28   D(4,5,6,22)           125.2444         estimate D2E/DX2                !
 ! D29   D(4,5,6,23)            -2.4843         estimate D2E/DX2                !
 ! D30   D(15,5,6,7)             8.4456         estimate D2E/DX2                !
 ! D31   D(15,5,6,22)         -107.4346         estimate D2E/DX2                !
 ! D32   D(15,5,6,23)          124.8367         estimate D2E/DX2                !
 ! D33   D(21,5,6,7)           119.7565         estimate D2E/DX2                !
 ! D34   D(21,5,6,22)            3.8763         estimate D2E/DX2                !
 ! D35   D(21,5,6,23)         -123.8524         estimate D2E/DX2                !
 ! D36   D(4,5,15,8)           130.7962         estimate D2E/DX2                !
 ! D37   D(4,5,15,30)          -56.5748         estimate D2E/DX2                !
 ! D38   D(6,5,15,8)            -6.0114         estimate D2E/DX2                !
 ! D39   D(6,5,15,30)          166.6176         estimate D2E/DX2                !
 ! D40   D(21,5,15,8)         -110.5264         estimate D2E/DX2                !
 ! D41   D(21,5,15,30)          62.1027         estimate D2E/DX2                !
 ! D42   D(5,6,7,8)             -8.4083         estimate D2E/DX2                !
 ! D43   D(22,6,7,8)           112.3629         estimate D2E/DX2                !
 ! D44   D(23,6,7,8)          -129.2124         estimate D2E/DX2                !
 ! D45   D(6,7,8,9)           -174.3998         estimate D2E/DX2                !
 ! D46   D(6,7,8,15)             5.2401         estimate D2E/DX2                !
 ! D47   D(7,8,9,10)            -3.5348         estimate D2E/DX2                !
 ! D48   D(7,8,9,14)           176.1529         estimate D2E/DX2                !
 ! D49   D(15,8,9,10)          176.8446         estimate D2E/DX2                !
 ! D50   D(15,8,9,14)           -3.4677         estimate D2E/DX2                !
 ! D51   D(7,8,15,5)             0.8517         estimate D2E/DX2                !
 ! D52   D(7,8,15,30)         -174.3873         estimate D2E/DX2                !
 ! D53   D(9,8,15,5)          -179.5111         estimate D2E/DX2                !
 ! D54   D(9,8,15,30)            5.2499         estimate D2E/DX2                !
 ! D55   D(8,9,10,11)          179.88           estimate D2E/DX2                !
 ! D56   D(8,9,10,24)            0.0298         estimate D2E/DX2                !
 ! D57   D(14,9,10,11)           0.2169         estimate D2E/DX2                !
 ! D58   D(14,9,10,24)        -179.6334         estimate D2E/DX2                !
 ! D59   D(8,9,14,13)         -179.6161         estimate D2E/DX2                !
 ! D60   D(8,9,14,30)           -0.3307         estimate D2E/DX2                !
 ! D61   D(10,9,14,13)           0.0739         estimate D2E/DX2                !
 ! D62   D(10,9,14,30)         179.3593         estimate D2E/DX2                !
 ! D63   D(9,10,11,12)          -0.2785         estimate D2E/DX2                !
 ! D64   D(9,10,11,25)         179.7701         estimate D2E/DX2                !
 ! D65   D(24,10,11,12)        179.5694         estimate D2E/DX2                !
 ! D66   D(24,10,11,25)         -0.382          estimate D2E/DX2                !
 ! D67   D(10,11,12,13)          0.0665         estimate D2E/DX2                !
 ! D68   D(10,11,12,26)        179.6636         estimate D2E/DX2                !
 ! D69   D(25,11,12,13)       -179.9823         estimate D2E/DX2                !
 ! D70   D(25,11,12,26)         -0.3852         estimate D2E/DX2                !
 ! D71   D(11,12,13,14)          0.2319         estimate D2E/DX2                !
 ! D72   D(11,12,13,27)        179.6173         estimate D2E/DX2                !
 ! D73   D(26,12,13,14)       -179.3732         estimate D2E/DX2                !
 ! D74   D(26,12,13,27)          0.0122         estimate D2E/DX2                !
 ! D75   D(12,13,14,9)          -0.3016         estimate D2E/DX2                !
 ! D76   D(12,13,14,30)       -179.3838         estimate D2E/DX2                !
 ! D77   D(27,13,14,9)        -179.7071         estimate D2E/DX2                !
 ! D78   D(27,13,14,30)          1.2108         estimate D2E/DX2                !
 ! D79   D(9,14,30,15)           2.3727         estimate D2E/DX2                !
 ! D80   D(13,14,30,15)       -178.4697         estimate D2E/DX2                !
 ! D81   D(5,15,30,14)        -176.6856         estimate D2E/DX2                !
 ! D82   D(8,15,30,14)          -4.05           estimate D2E/DX2                !
 ! D83   D(4,16,17,1)           -0.5329         estimate D2E/DX2                !
 ! D84   D(4,16,17,29)        -179.4427         estimate D2E/DX2                !
 ! D85   D(28,16,17,1)         177.3847         estimate D2E/DX2                !
 ! D86   D(28,16,17,29)         -1.5252         estimate D2E/DX2                !
 --------------------------------------------------------------------------------
 Trust Radius=3.00D-01 FncErr=1.00D-07 GrdErr=1.00D-06 EigMax=2.50D+02 EigMin=1.00D-04
 Number of steps in this run=    180 maximum allowed number of steps=    180.
 GradGradGradGradGradGradGradGradGradGradGradGradGradGradGradGradGradGrad

 Leave Link  103 at Thu Mar 14 18:55:02 2024, MaxMem= 13421772800 cpu:               0.7 elap:               0.0
 (Enter /public/software/apps/Gaussian/g16/l202.exe)
                          Input orientation:                          
 ---------------------------------------------------------------------
 Center     Atomic      Atomic             Coordinates (Angstroms)
 Number     Number       Type             X           Y           Z
 ---------------------------------------------------------------------
      1          6           0        0.345020    4.812706    3.653644
      2          6           0       -0.898469    4.130879    3.831858
      3          6           0       -1.210218    3.012586    3.057889
      4          6           0       -0.304250    2.566487    2.090685
      5          6           0       -0.628795    1.372305    1.221010
      6          6           0       -1.771855    0.334244    1.463993
      7          8           0       -1.047830   -0.930529    1.619969
      8          6           0        0.207099   -0.720128    1.318515
      9          6           0        1.176686   -1.828584    1.259398
     10          6           0        0.850606   -3.141004    1.583863
     11          6           0        1.855200   -4.117304    1.488770
     12          6           0        3.129472   -3.740138    1.070813
     13          6           0        3.377249   -2.393806    0.756750
     14          7           0        2.423520   -1.465291    0.852991
     15          7           0        0.550322    0.511373    1.067993
     16          6           0        0.942087    3.259347    1.915142
     17          6           0        1.260914    4.367312    2.695274
     18          1           0        0.569152    5.689485    4.268338
     19          1           0       -1.606532    4.494020    4.582490
     20          1           0       -2.161397    2.494294    3.207232
     21          1           0       -0.923806    1.737518    0.223246
     22          1           0       -2.457377    0.212275    0.611750
     23          1           0       -2.342057    0.506741    2.386230
     24          1           0       -0.164593   -3.391650    1.900314
     25          1           0        1.635861   -5.158921    1.739627
     26          1           0        3.940400   -4.468614    0.988850
     27          1           0        4.369117   -2.066482    0.431851
     28          1           0        1.634278    2.930934    1.134308
     29          1           0        2.207162    4.894314    2.549306
     30         29           0        2.414434    0.533935    0.474453
 ---------------------------------------------------------------------
                    Distance matrix (angstroms):
                    1          2          3          4          5
     1  C    0.000000
     2  C    1.429306   0.000000
     3  C    2.452370   1.395275   0.000000
     4  C    2.812452   2.414974   1.398309   0.000000
     5  C    4.324625   3.807752   2.530356   1.512526   0.000000
     6  C    5.415935   4.558950   3.166932   2.743997   1.563073
     7  O    6.249849   5.525632   4.200255   3.606052   2.374406
     8  C    6.007004   5.574176   4.355154   3.414610   2.255327
     9  C    7.108503   6.814618   5.689360   4.711779   3.675177
    10  C    8.234143   7.809803   6.654805   5.845170   4.763428
    11  C    9.311949   9.005847   7.917971   7.049723   6.031396
    12  C    9.358169   9.262860   8.269260   7.252869   6.346984
    13  C    8.337878   8.385080   7.454473   6.319599   5.517927
    14  N    7.181717   7.157260   6.173898   5.022733   4.183780
    15  N    5.022868   4.778992   3.649008   2.449426   1.467970
    16  C    2.406616   2.796608   2.449322   1.436741   2.551552
    17  C    1.398467   2.451665   2.841349   2.461348   3.835951
    18  H    1.093995   2.184875   3.434695   3.906164   5.418425
    19  H    2.184690   1.093926   2.162433   3.408873   4.690482
    20  H    3.443319   2.159526   1.093468   2.168153   2.748237
    21  H    4.778528   4.330231   3.121384   2.135034   1.102699
    22  H    6.186316   5.306104   3.921830   3.516464   2.249573
    23  H    5.231449   4.160308   2.830450   2.912483   2.245486
    24  H    8.405077   7.801146   6.591476   5.962814   4.834481
    25  H   10.235383   9.853966   8.752800   7.973030   6.932138
    26  H   10.303920  10.268818   9.315479   8.289979   7.419419
    27  H    8.596309   8.815599   7.988867   6.786493   6.117773
    28  H    3.398573   3.889916   3.434820   2.192115   2.749244
    29  H    2.166516   3.445681   3.934214   3.454895   4.712915
    30  Cu   5.718182   5.931736   5.094699   3.759617   3.243679
                    6          7          8          9         10
     6  C    0.000000
     7  O    1.465671   0.000000
     8  C    2.247025   1.307666   0.000000
     9  C    3.662455   2.425899   1.473862   0.000000
    10  C    4.355344   2.914029   2.518958   1.390702   0.000000
    11  C    5.742162   4.312810   3.779686   2.398173   1.404070
    12  C    6.385780   5.064122   4.209760   2.739156   2.411517
    13  C    5.869900   4.740005   3.628585   2.326931   2.761584
    14  N    4.605738   3.595066   2.384219   1.360788   2.411690
    15  N    2.362350   2.222127   1.302750   2.429890   3.700831
    16  C    4.015625   4.647791   4.090525   5.135375   6.409571
    17  C    5.194168   5.878240   5.374759   6.360657   7.601210
    18  H    6.482536   7.311161   7.065103   8.120602   9.233805
    19  H    5.201547   6.205998   6.413278   7.665805   8.562878
    20  H    2.802935   3.935588   4.416960   5.798632   6.592729
    21  H    2.056166   3.014082   2.918661   4.266469   5.366544
    22  H    1.100516   2.075892   2.910039   4.217934   4.809598
    23  H    1.097910   2.080366   3.023809   4.370932   4.913546
    24  H    4.081171   2.629794   2.759289   2.157076   1.092517
    25  H    6.470190   5.009572   4.682049   3.395969   2.170916
    26  H    7.478172   6.148072   5.300695   3.831588   3.415174
    27  H    6.673855   5.660859   4.463321   3.306516   3.855081
    28  H    4.295723   4.726571   3.924414   4.783101   6.138784
    29  H    6.148554   6.737019   6.085807   6.922651   8.206013
    30  Cu   4.306284   3.929903   2.675340   2.780226   4.145060
                   11         12         13         14         15
    11  C    0.000000
    12  C    1.393094   0.000000
    13  C    2.413075   1.404507   0.000000
    14  N    2.785745   2.391808   1.334542   0.000000
    15  N    4.827464   4.972662   4.065520   2.731721   0.000000
    16  C    7.445169   7.381757   6.263388   5.064090   2.902155
    17  C    8.590549   8.477094   7.345030   6.226148   4.245144
    18  H   10.273900  10.280914   9.249662   8.142118   6.087315
    19  H    9.783128  10.127338   9.322902   8.103325   5.732817
    20  H    7.924607   8.451374   7.782993   6.499402   3.982680
    21  H    6.603284   6.866742   5.987615   4.675377   2.095252
    22  H    6.173552   6.858950   6.391834   5.166777   3.056775
    23  H    6.309056   7.050102   6.616558   5.380563   3.178620
    24  H    2.185293   3.414730   3.853320   3.392060   4.054313
    25  H    1.093620   2.165902   3.412380   3.879360   5.812205
    26  H    2.172878   1.093160   2.162369   3.367392   6.024879
    27  H    3.412144   2.178558   1.093848   2.079456   4.651151
    28  H    7.060603   6.836874   5.615457   4.475359   2.652100
    29  H    9.080631   8.808539   7.595989   6.585504   4.914222
    30  Cu   4.793288   4.374314   3.094894   2.034767   1.956454
                   16         17         18         19         20
    16  C    0.000000
    17  C    1.392064   0.000000
    18  H    3.403261   2.168227   0.000000
    19  H    3.890324   3.435096   2.502284   0.000000
    20  H    3.447669   3.934783   4.334869   2.489601   0.000000
    21  H    2.942793   4.218974   5.848909   5.202637   3.317909
    22  H    4.747613   5.952402   7.247782   5.901191   3.468680
    23  H    4.310959   5.289699   6.235247   4.611177   2.158020
    24  H    6.742457   7.928778   9.413444   8.453227   6.351346
    25  H    8.448631   9.581386  11.190181  10.572334   8.668606
    26  H    8.340820   9.389628  11.194075  11.136046   9.520254
    27  H    6.504548   7.495179   9.450576   9.796753   8.435107
    28  H    1.093931   2.153879   4.308856   4.983577   4.346817
    29  H    2.162335   1.092896   2.504085   4.340314   5.027650
    30  Cu   3.416323   4.577929   6.661706   6.980430   5.678849
                   21         22         23         24         25
    21  H    0.000000
    22  H    2.197531   0.000000
    23  H    2.864393   1.802440   0.000000
    24  H    5.449525   4.461562   4.491650   0.000000
    25  H    7.510804   6.846638   6.952816   2.527984   0.000000
    26  H    7.922293   7.936276   8.134869   4.340690   2.520137
    27  H    6.521423   7.199036   7.448552   4.946411   4.329451
    28  H    2.966154   4.940225   4.822371   6.617989   8.112470
    29  H    5.017856   6.887201   6.322403   8.643125  10.101955
    30  Cu   3.557465   4.884348   5.126386   4.908633   5.883490
                   26         27         28         29         30
    26  H    0.000000
    27  H    2.502855   0.000000
    28  H    7.751946   5.739944   0.000000
    29  H    9.649018   7.590148   2.487021   0.000000
    30  Cu   5.255347   3.253424   2.605697   4.833309   0.000000
 Symmetry turned off by external request.
 Stoichiometry    C14H12CuN2O(2+,2)
 Framework group  C1[X(C14H12CuN2O)]
 Deg. of freedom    84
 Full point group                 C1      NOp   1
 Rotational constants (GHZ):           0.7602541           0.2229497           0.1882963
 Leave Link  202 at Thu Mar 14 18:55:03 2024, MaxMem= 13421772800 cpu:               1.3 elap:               0.1
 (Enter /public/software/apps/Gaussian/g16/l301.exe)
 Standard basis: def2SVPP (5D, 7F)
 Ernie: Thresh=  0.10000D-02 Tol=  0.10000D-05 Strict=F.
   286 basis functions,   544 primitive gaussians,   305 cartesian basis functions
    73 alpha electrons       72 beta electrons
       nuclear repulsion energy      1582.6659234374 Hartrees.
 IExCor=  402 DFT=T Ex+Corr=B3LYP ExCW=0 ScaHFX=  0.200000
 ScaDFX=  0.800000  0.720000  1.000000  0.810000 ScalE2=  1.000000  1.000000
 IRadAn=      5 IRanWt=     -1 IRanGd=            0 ICorTp=0 IEmpDi=141
 NAtoms=   30 NActive=   30 NUniq=   30 SFac= 1.00D+00 NAtFMM=   60 NAOKFM=F Big=F
 Integral buffers will be    131072 words long.
 Raffenetti 2 integral format.
 Two-electron integral symmetry is turned off.
 R6Disp:  Grimme-D3(BJ) Dispersion energy=       -0.0693370880 Hartrees.
 Nuclear repulsion after empirical dispersion term =     1582.5965863494 Hartrees.
 Leave Link  301 at Thu Mar 14 18:55:03 2024, MaxMem= 13421772800 cpu:               1.5 elap:               0.1
 (Enter /public/software/apps/Gaussian/g16/l302.exe)
 NPDir=0 NMtPBC=     1 NCelOv=     1 NCel=       1 NClECP=     1 NCelD=      1
         NCelK=      1 NCelE2=     1 NClLst=     1 CellRange=     0.0.
 One-electron integrals computed using PRISM.
   1 Symmetry operations used in ECPInt.
 ECPInt:  NShTT=    9316 NPrTT=   39637 LenC2=    8645 LenP2D=   25165.
 LDataN:  DoStor=T MaxTD1= 4 Len=   56
 NBasis=   286 RedAO= T EigKep=  3.21D-04  NBF=   286
 NBsUse=   286 1.00D-06 EigRej= -1.00D+00 NBFU=   286
 Precomputing XC quadrature grid using
 IXCGrd= 4 IRadAn=           5 IRanWt=          -1 IRanGd=           0 AccXCQ= 0.00D+00.
 Generated NRdTot=       0 NPtTot=           0 NUsed=           0 NTot=          32
 NSgBfM=   301   301   301   301   301 MxSgAt=    30 MxSgA2=    30.
 Leave Link  302 at Thu Mar 14 18:55:03 2024, MaxMem= 13421772800 cpu:               7.9 elap:               0.3
 (Enter /public/software/apps/Gaussian/g16/l303.exe)
 DipDrv:  MaxL=1.
 Leave Link  303 at Thu Mar 14 18:55:03 2024, MaxMem= 13421772800 cpu:               2.3 elap:               0.1
 (Enter /public/software/apps/Gaussian/g16/l401.exe)
 ExpMin= 3.30D-02 ExpMax= 7.64D+04 ExpMxC= 1.15D+04 IAcc=3 IRadAn=         5 AccDes= 0.00D+00
 Harris functional with IExCor=  402 and IRadAn=       5 diagonalized for initial guess.
 HarFok:  IExCor=  402 AccDes= 0.00D+00 IRadAn=         5 IDoV= 1 UseB2=F ITyADJ=14
 ICtDFT=  3500011 ScaDFX=  1.000000  1.000000  1.000000  1.000000
 FoFCou: FMM=F IPFlag=           0 FMFlag=      100000 FMFlg1=           0
         NFxFlg=           0 DoJE=T BraDBF=F KetDBF=T FulRan=T
         wScrn=  0.000000 ICntrl=       500 IOpCl=  0 I1Cent=   200000004 NGrid=           0
         NMat0=    1 NMatS0=      1 NMatT0=    0 NMatD0=    1 NMtDS0=    0 NMtDT0=    0
 Symmetry not used in FoFCou.
 Harris En= -2364.97828537392    
 JPrj=0 DoOrth=F DoCkMO=F.
 Initial guess <Sx>= 0.0000 <Sy>= 0.0000 <Sz>= 0.5000 <S**2>= 0.7500 S= 0.5000
 Leave Link  401 at Thu Mar 14 18:55:04 2024, MaxMem= 13421772800 cpu:              17.6 elap:               0.6
 (Enter /public/software/apps/Gaussian/g16/l502.exe)
 Two-electron integral symmetry not used.
 UHF open shell SCF:
 Using DIIS extrapolation, IDIIS=  1040.
 NGot= 13421772800 LenX= 13421573679 LenY= 13421480213
 Requested convergence on RMS density matrix=1.00D-08 within 128 cycles.
 Requested convergence on MAX density matrix=1.00D-06.
 Requested convergence on             energy=1.00D-06.
 No special actions if energy rises.
 Fock matrices will be formed incrementally for  20 cycles.

 Cycle   1  Pass 1  IDiag  1:
 FoFJK:  IHMeth= 1 ICntrl=       0 DoSepK=F KAlg= 0 I1Cent=           0 FoldK=F
 IRaf= 880000000 NMat=       1 IRICut=       1 DoRegI=T DoRafI=F ISym2E= 0 IDoP0=0 IntGTp=1.
 FoFCou: FMM=F IPFlag=           0 FMFlag=      100000 FMFlg1=           0
         NFxFlg=           0 DoJE=F BraDBF=F KetDBF=F FulRan=T
         wScrn=  0.000000 ICntrl=         0 IOpCl=  1 I1Cent=           0 NGrid=           0
         NMat0=    1 NMatS0=      1 NMatT0=    0 NMatD0=    1 NMtDS0=    0 NMtDT0=    0
 Symmetry not used in FoFCou.
 E= -2354.30736975045    
 DIIS: error= 3.80D-01 at cycle   1 NSaved=   1.
 NSaved= 1 IEnMin= 1 EnMin= -2354.30736975045     IErMin= 1 ErrMin= 3.80D-01
 ErrMax= 3.80D-01  0.00D+00 EMaxC= 1.00D-01 BMatC= 6.30D+01 BMatP= 6.30D+01
 IDIUse=3 WtCom= 0.00D+00 WtEn= 1.00D+00
 Coeff-Com:  0.100D+01
 Coeff-En:   0.100D+01
 Coeff:      0.100D+01
 Gap=    -0.237 Goal=   None    Shift=    0.000
 Gap=     1.779 Goal=   None    Shift=    0.000
 GapD=   -0.237 DampG=0.250 DampE=0.125 DampFc=0.1250 IDamp=-1.
 Damping current iteration by 1.25D-01
 RMSDP=7.31D-02 MaxDP=7.43D+00              OVMax= 9.61D-01

 Cycle   2  Pass 1  IDiag  1:
 RMSU=  9.14D-03    CP:  9.90D-01
 E= -2357.45389421839     Delta-E=       -3.146524467942 Rises=F Damp=T
 DIIS: error= 2.01D-01 at cycle   2 NSaved=   2.
 NSaved= 2 IEnMin= 2 EnMin= -2357.45389421839     IErMin= 2 ErrMin= 2.01D-01
 ErrMax= 2.01D-01  0.00D+00 EMaxC= 1.00D-01 BMatC= 2.17D+01 BMatP= 6.30D+01
 IDIUse=3 WtCom= 0.00D+00 WtEn= 1.00D+00
 Coeff-Com: -0.118D+01 0.218D+01
 Coeff-En:   0.000D+00 0.100D+01
 Coeff:      0.000D+00 0.100D+01
 Gap=     0.215 Goal=   None    Shift=    0.000
 Gap=    -0.321 Goal=   None    Shift=    0.000
 RMSDP=1.75D-02 MaxDP=1.69D+00 DE=-3.15D+00 OVMax= 8.13D-01

 Cycle   3  Pass 1  IDiag  1:
 RMSU=  1.60D-02    CP:  9.17D-01  1.73D+00
 E= -2351.89920400212     Delta-E=        5.554690216272 Rises=F Damp=F
 DIIS: error= 1.68D-01 at cycle   3 NSaved=   3.
 NSaved= 3 IEnMin= 2 EnMin= -2357.45389421839     IErMin= 3 ErrMin= 1.68D-01
 ErrMax= 1.68D-01  0.00D+00 EMaxC= 1.00D-01 BMatC= 2.66D+01 BMatP= 2.17D+01
 IDIUse=2 WtCom= 0.00D+00 WtEn= 1.00D+00
 EnCoef did   100 forward-backward iterations
 Coeff-En:   0.519D+00 0.213D-01 0.460D+00
 Coeff:      0.519D+00 0.213D-01 0.460D+00
 Gap=    -0.009 Goal=   None    Shift=    0.000
 Gap=    -0.291 Goal=   None    Shift=    0.000
 RMSDP=2.04D-02 MaxDP=2.67D+00 DE= 5.55D+00 OVMax= 9.71D-01

 Cycle   4  Pass 1  IDiag  1:
 RMSU=  8.04D-03    CP:  9.37D-01  1.80D-01  2.37D-01
 E= -2362.31353948616     Delta-E=      -10.414335484047 Rises=F Damp=F
 DIIS: error= 1.13D-01 at cycle   4 NSaved=   4.
 NSaved= 4 IEnMin= 4 EnMin= -2362.31353948616     IErMin= 4 ErrMin= 1.13D-01
 ErrMax= 1.13D-01  0.00D+00 EMaxC= 1.00D-01 BMatC= 9.11D+00 BMatP= 2.17D+01
 IDIUse=3 WtCom= 0.00D+00 WtEn= 1.00D+00
 EnCoef did   100 forward-backward iterations
 Coeff-Com: -0.584D+00 0.119D+01 0.805D-01 0.308D+00
 Coeff-En:   0.253D+00 0.472D-02 0.122D-01 0.730D+00
 Coeff:      0.253D+00 0.472D-02 0.122D-01 0.730D+00
 Gap=     0.701 Goal=   None    Shift=    0.000
 Gap=     0.170 Goal=   None    Shift=    0.000
 RMSDP=1.33D-02 MaxDP=1.02D+00 DE=-1.04D+01 OVMax= 7.99D-01

 Cycle   5  Pass 1  IDiag  1:
 RMSU=  1.10D-02    CP:  9.15D-01  3.37D-01  3.08D-01  1.02D-01
 E= -2354.04285801393     Delta-E=        8.270681472234 Rises=F Damp=F
 DIIS: error= 1.11D-01 at cycle   5 NSaved=   5.
 NSaved= 5 IEnMin= 4 EnMin= -2362.31353948616     IErMin= 5 ErrMin= 1.11D-01
 ErrMax= 1.11D-01  0.00D+00 EMaxC= 1.00D-01 BMatC= 2.13D+01 BMatP= 9.11D+00
 IDIUse=2 WtCom= 0.00D+00 WtEn= 1.00D+00
 EnCoef did   100 forward-backward iterations
 Coeff-En:   0.205D+00 0.360D-02 0.000D+00 0.645D+00 0.146D+00
 Coeff:      0.205D+00 0.360D-02 0.000D+00 0.645D+00 0.146D+00
 Gap=     0.383 Goal=   None    Shift=    0.000
 Gap=    -0.019 Goal=   None    Shift=    0.000
 RMSDP=1.03D-02 MaxDP=8.73D-01 DE= 8.27D+00 OVMax= 9.76D-01

 Cycle   6  Pass 1  IDiag  1:
 RMSU=  4.91D-03    CP:  9.14D-01  1.06D-01  2.06D-01  4.84D-01  2.68D-01
 E= -2363.98404121416     Delta-E=       -9.941183200233 Rises=F Damp=F
 DIIS: error= 4.01D-02 at cycle   6 NSaved=   6.
 NSaved= 6 IEnMin= 6 EnMin= -2363.98404121416     IErMin= 6 ErrMin= 4.01D-02
 ErrMax= 4.01D-02  0.00D+00 EMaxC= 1.00D-01 BMatC= 2.24D+00 BMatP= 9.11D+00
 IDIUse=3 WtCom= 5.99D-01 WtEn= 4.01D-01
 EnCoef did     5 forward-backward iterations
 Coeff-Com: -0.266D+00 0.519D+00-0.534D-01 0.250D+00 0.359D-01 0.515D+00
 Coeff-En:   0.492D-01 0.000D+00 0.000D+00 0.257D+00 0.000D+00 0.693D+00
 Coeff:     -0.139D+00 0.310D+00-0.320D-01 0.253D+00 0.215D-01 0.587D+00
 Gap=     0.307 Goal=   None    Shift=    0.000
 Gap=    -0.111 Goal=   None    Shift=    0.000
 RMSDP=5.44D-03 MaxDP=3.18D-01 DE=-9.94D+00 OVMax= 9.33D-01

 Cycle   7  Pass 1  IDiag  1:
 RMSU=  4.14D-03    CP:  9.27D-01  6.95D-02  1.61D-01  6.62D-01  1.52D-01
                    CP:  4.21D-01
 E= -2363.81152155684     Delta-E=        0.172519657324 Rises=F Damp=F
 DIIS: error= 2.85D-02 at cycle   7 NSaved=   7.
 NSaved= 7 IEnMin= 6 EnMin= -2363.98404121416     IErMin= 7 ErrMin= 2.85D-02
 ErrMax= 2.85D-02  0.00D+00 EMaxC= 1.00D-01 BMatC= 1.99D+00 BMatP= 2.24D+00
 IDIUse=3 WtCom= 7.15D-01 WtEn= 2.85D-01
 EnCoef did     4 forward-backward iterations
 Coeff-Com: -0.154D+00 0.305D+00-0.350D-01 0.109D+00-0.207D-01 0.474D+00
 Coeff-Com:  0.322D+00
 Coeff-En:   0.594D-02 0.000D+00 0.000D+00 0.416D-01 0.000D+00 0.534D+00
 Coeff-En:   0.418D+00
 Coeff:     -0.109D+00 0.218D+00-0.251D-01 0.895D-01-0.148D-01 0.491D+00
 Coeff:      0.350D+00
 Gap=     0.009 Goal=   None    Shift=    0.000
 Gap=     0.099 Goal=   None    Shift=    0.000
 RMSDP=4.28D-03 MaxDP=1.80D-01 DE= 1.73D-01 OVMax= 7.53D-01

 Cycle   8  Pass 1  IDiag  1:
 RMSU=  2.24D-03    CP:  9.25D-01  6.10D-02  1.67D-01  6.56D-01  1.32D-01
                    CP:  6.48D-01  1.65D-01
 E= -2364.57281582795     Delta-E=       -0.761294271112 Rises=F Damp=F
 DIIS: error= 1.41D-02 at cycle   8 NSaved=   8.
 NSaved= 8 IEnMin= 8 EnMin= -2364.57281582795     IErMin= 8 ErrMin= 1.41D-02
 ErrMax= 1.41D-02  0.00D+00 EMaxC= 1.00D-01 BMatC= 2.61D-01 BMatP= 1.99D+00
 IDIUse=3 WtCom= 8.59D-01 WtEn= 1.41D-01
 Coeff-Com: -0.675D-01 0.126D+00-0.114D-02-0.376D-01-0.302D-02 0.155D+00
 Coeff-Com:  0.241D+00 0.586D+00
 Coeff-En:   0.000D+00 0.000D+00 0.000D+00 0.000D+00 0.000D+00 0.000D+00
 Coeff-En:   0.140D+00 0.860D+00
 Coeff:     -0.580D-01 0.108D+00-0.979D-03-0.323D-01-0.260D-02 0.134D+00
 Coeff:      0.227D+00 0.625D+00
 Gap=     0.162 Goal=   None    Shift=    0.000
 Gap=     0.027 Goal=   None    Shift=    0.000
 RMSDP=2.12D-03 MaxDP=6.50D-02 DE=-7.61D-01 OVMax= 6.99D-01

 Cycle   9  Pass 1  IDiag  1:
 RMSU=  1.78D-03    CP:  9.21D-01  6.90D-02  1.70D-01  6.43D-01  1.54D-01
                    CP:  6.40D-01  3.45D-01  6.26D-01
 E= -2364.66376192909     Delta-E=       -0.090946101140 Rises=F Damp=F
 DIIS: error= 6.52D-03 at cycle   9 NSaved=   9.
 NSaved= 9 IEnMin= 9 EnMin= -2364.66376192909     IErMin= 9 ErrMin= 6.52D-03
 ErrMax= 6.52D-03  0.00D+00 EMaxC= 1.00D-01 BMatC= 6.33D-02 BMatP= 2.61D-01
 IDIUse=3 WtCom= 9.35D-01 WtEn= 6.52D-02
 Coeff-Com: -0.456D-01 0.824D-01 0.201D-02-0.455D-01 0.639D-02 0.117D-01
 Coeff-Com:  0.703D-01 0.366D+00 0.552D+00
 Coeff-En:   0.000D+00 0.000D+00 0.000D+00 0.000D+00 0.000D+00 0.000D+00
 Coeff-En:   0.000D+00 0.111D-01 0.989D+00
 Coeff:     -0.426D-01 0.770D-01 0.188D-02-0.425D-01 0.597D-02 0.110D-01
 Coeff:      0.657D-01 0.343D+00 0.581D+00
 Gap=     0.165 Goal=   None    Shift=    0.000
 Gap=     0.017 Goal=   None    Shift=    0.000
 RMSDP=6.25D-04 MaxDP=2.19D-02 DE=-9.09D-02 OVMax= 7.12D-02

 Cycle  10  Pass 1  IDiag  1:
 RMSU=  5.97D-04    CP:  9.21D-01  7.02D-02  1.73D-01  6.45D-01  1.55D-01
                    CP:  6.22D-01  3.31D-01  6.62D-01  9.33D-01
 E= -2364.67423139520     Delta-E=       -0.010469466110 Rises=F Damp=F
 DIIS: error= 7.91D-03 at cycle  10 NSaved=  10.
 NSaved=10 IEnMin=10 EnMin= -2364.67423139520     IErMin= 9 ErrMin= 6.52D-03
 ErrMax= 7.91D-03  0.00D+00 EMaxC= 1.00D-01 BMatC= 3.65D-02 BMatP= 6.33D-02
 IDIUse=3 WtCom= 9.35D-01 WtEn= 6.52D-02
 Coeff-Com: -0.340D-01 0.633D-01-0.189D-02-0.358D-01 0.157D-02-0.123D-02
 Coeff-Com: -0.151D-02 0.144D+00 0.372D+00 0.494D+00
 Coeff-En:   0.000D+00 0.000D+00 0.000D+00 0.000D+00 0.000D+00 0.000D+00
 Coeff-En:   0.000D+00 0.000D+00 0.155D+00 0.845D+00
 Coeff:     -0.317D-01 0.592D-01-0.176D-02-0.335D-01 0.147D-02-0.115D-02
 Coeff:     -0.141D-02 0.135D+00 0.358D+00 0.517D+00
 Gap=     0.165 Goal=   None    Shift=    0.000
 Gap=     0.027 Goal=   None    Shift=    0.000
 RMSDP=6.99D-04 MaxDP=6.42D-02 DE=-1.05D-02 OVMax= 2.55D-01

 Cycle  11  Pass 1  IDiag  1:
 RMSU=  5.93D-04    CP:  9.20D-01  7.25D-02  1.75D-01  6.48D-01  1.61D-01
                    CP:  6.26D-01  3.62D-01  5.14D-01  9.56D-01  1.04D+00
 E= -2364.66643953154     Delta-E=        0.007791863666 Rises=F Damp=F
 DIIS: error= 1.23D-02 at cycle  11 NSaved=  11.
 NSaved=11 IEnMin=10 EnMin= -2364.67423139520     IErMin= 9 ErrMin= 6.52D-03
 ErrMax= 1.23D-02  0.00D+00 EMaxC= 1.00D-01 BMatC= 7.91D-02 BMatP= 3.65D-02
 IDIUse=2 WtCom= 0.00D+00 WtEn= 1.00D+00
 EnCoef did     3 forward-backward iterations
 Coeff-En:   0.000D+00 0.000D+00 0.000D+00 0.000D+00 0.000D+00 0.000D+00
 Coeff-En:   0.000D+00 0.000D+00 0.153D+00 0.842D+00 0.429D-02
 Coeff:      0.000D+00 0.000D+00 0.000D+00 0.000D+00 0.000D+00 0.000D+00
 Coeff:      0.000D+00 0.000D+00 0.153D+00 0.842D+00 0.429D-02
 Gap=     0.179 Goal=   None    Shift=    0.000
 Gap=     0.013 Goal=   None    Shift=    0.000
 RMSDP=1.95D-03 MaxDP=3.97D-01 DE= 7.79D-03 OVMax= 6.69D-01

 Cycle  12  Pass 1  IDiag  1:
 RMSU=  1.39D-03    CP:  9.24D-01  6.24D-02  1.51D-01  5.83D-01  1.39D-01
                    CP:  6.46D-01  2.47D-01  7.52D-01  8.60D-01  3.51D-01
                    CP: -3.68D-01
 E= -2364.54218357990     Delta-E=        0.124255951632 Rises=F Damp=F
 DIIS: error= 4.11D-02 at cycle  12 NSaved=  12.
 NSaved=12 IEnMin=10 EnMin= -2364.67423139520     IErMin= 9 ErrMin= 6.52D-03
 ErrMax= 4.11D-02  0.00D+00 EMaxC= 1.00D-01 BMatC= 7.83D-01 BMatP= 3.65D-02
 IDIUse=2 WtCom= 0.00D+00 WtEn= 1.00D+00
 EnCoef did     4 forward-backward iterations
 Coeff-En:   0.000D+00 0.000D+00 0.000D+00 0.000D+00 0.000D+00 0.000D+00
 Coeff-En:   0.000D+00 0.000D+00 0.000D+00 0.354D+00 0.480D+00 0.166D+00
 Coeff:      0.000D+00 0.000D+00 0.000D+00 0.000D+00 0.000D+00 0.000D+00
 Coeff:      0.000D+00 0.000D+00 0.000D+00 0.354D+00 0.480D+00 0.166D+00
 Gap=     0.193 Goal=   None    Shift=    0.000
 Gap=     0.021 Goal=   None    Shift=    0.000
 RMSDP=9.29D-04 MaxDP=1.72D-01 DE= 1.24D-01 OVMax= 2.75D-01

 Cycle  13  Pass 1  IDiag  1:
 RMSU=  3.23D-04    CP:  9.22D-01  6.71D-02  1.65D-01  6.12D-01  1.50D-01
                    CP:  6.36D-01  2.69D-01  6.66D-01  9.71D-01  1.03D+00
                    CP: -1.17D-01  5.64D-01
 E= -2364.66153724680     Delta-E=       -0.119353666894 Rises=F Damp=F
 DIIS: error= 1.41D-02 at cycle  13 NSaved=  13.
 NSaved=13 IEnMin=10 EnMin= -2364.67423139520     IErMin= 9 ErrMin= 6.52D-03
 ErrMax= 1.41D-02  0.00D+00 EMaxC= 1.00D-01 BMatC= 1.10D-01 BMatP= 3.65D-02
 IDIUse=2 WtCom= 0.00D+00 WtEn= 1.00D+00
 Coeff-En:   0.000D+00 0.000D+00 0.000D+00 0.000D+00 0.000D+00 0.000D+00
 Coeff-En:   0.000D+00 0.000D+00 0.000D+00 0.000D+00 0.536D+00 0.000D+00
 Coeff-En:   0.464D+00
 Coeff:      0.000D+00 0.000D+00 0.000D+00 0.000D+00 0.000D+00 0.000D+00
 Coeff:      0.000D+00 0.000D+00 0.000D+00 0.000D+00 0.536D+00 0.000D+00
 Coeff:      0.464D+00
 Gap=     0.184 Goal=   None    Shift=    0.000
 Gap=     0.023 Goal=   None    Shift=    0.000
 RMSDP=7.89D-04 MaxDP=1.40D-01 DE=-1.19D-01 OVMax= 2.80D-01

 Cycle  14  Pass 1  IDiag  1:
 RMSU=  1.33D-04    CP:  9.21D-01  7.20D-02  1.72D-01  6.35D-01  1.57D-01
                    CP:  6.25D-01  3.16D-01  5.51D-01  9.86D-01  1.36D+00
                    CP:  6.89D-01  2.65D-01  8.95D-01
 E= -2364.68366498640     Delta-E=       -0.022127739607 Rises=F Damp=F
 DIIS: error= 2.20D-03 at cycle  14 NSaved=  14.
 NSaved=14 IEnMin=14 EnMin= -2364.68366498640     IErMin=14 ErrMin= 2.20D-03
 ErrMax= 2.20D-03  0.00D+00 EMaxC= 1.00D-01 BMatC= 4.39D-03 BMatP= 3.65D-02
 IDIUse=3 WtCom= 9.78D-01 WtEn= 2.20D-02
 Coeff-Com:  0.155D-02-0.260D-02-0.474D-03-0.164D-02-0.219D-03 0.139D-02
 Coeff-Com:  0.398D-02 0.189D-01 0.427D-01-0.108D+00 0.222D+00-0.367D-01
 Coeff-Com:  0.316D+00 0.543D+00
 Coeff-En:   0.000D+00 0.000D+00 0.000D+00 0.000D+00 0.000D+00 0.000D+00
 Coeff-En:   0.000D+00 0.000D+00 0.000D+00 0.000D+00 0.000D+00 0.000D+00
 Coeff-En:   0.103D+00 0.897D+00
 Coeff:      0.152D-02-0.254D-02-0.463D-03-0.161D-02-0.214D-03 0.136D-02
 Coeff:      0.390D-02 0.185D-01 0.417D-01-0.105D+00 0.217D+00-0.359D-01
 Coeff:      0.311D+00 0.551D+00
 Gap=     0.184 Goal=   None    Shift=    0.000
 Gap=     0.027 Goal=   None    Shift=    0.000
 RMSDP=2.07D-04 MaxDP=2.77D-02 DE=-2.21D-02 OVMax= 5.33D-02

 Cycle  15  Pass 1  IDiag  1:
 RMSU=  9.45D-05    CP:  9.21D-01  7.05D-02  1.71D-01  6.31D-01  1.54D-01
                    CP:  6.25D-01  3.11D-01  5.54D-01  9.98D-01  1.26D+00
                    CP:  6.22D-01  3.64D-01  1.15D+00  9.20D-01
 E= -2364.68483286422     Delta-E=       -0.001167877820 Rises=F Damp=F
 DIIS: error= 1.37D-03 at cycle  15 NSaved=  15.
 NSaved=15 IEnMin=15 EnMin= -2364.68483286422     IErMin=15 ErrMin= 1.37D-03
 ErrMax= 1.37D-03  0.00D+00 EMaxC= 1.00D-01 BMatC= 1.14D-03 BMatP= 4.39D-03
 IDIUse=3 WtCom= 9.86D-01 WtEn= 1.37D-02
 Coeff-Com:  0.163D-02-0.261D-02-0.148D-03 0.476D-03 0.351D-03 0.295D-02
 Coeff-Com:  0.440D-03 0.921D-02 0.354D-01-0.594D-01 0.272D-01-0.254D-01
 Coeff-Com:  0.784D-01 0.361D+00 0.570D+00
 Coeff-En:   0.000D+00 0.000D+00 0.000D+00 0.000D+00 0.000D+00 0.000D+00
 Coeff-En:   0.000D+00 0.000D+00 0.000D+00 0.000D+00 0.000D+00 0.000D+00
 Coeff-En:   0.000D+00 0.135D+00 0.865D+00
 Coeff:      0.161D-02-0.257D-02-0.146D-03 0.469D-03 0.346D-03 0.291D-02
 Coeff:      0.434D-03 0.908D-02 0.349D-01-0.586D-01 0.269D-01-0.250D-01
 Coeff:      0.773D-01 0.358D+00 0.574D+00
 Gap=     0.184 Goal=   None    Shift=    0.000
 Gap=     0.029 Goal=   None    Shift=    0.000
 RMSDP=9.05D-05 MaxDP=5.71D-03 DE=-1.17D-03 OVMax= 2.59D-02

 Cycle  16  Pass 1  IDiag  1:
 RMSU=  4.64D-05    CP:  9.21D-01  7.05D-02  1.71D-01  6.31D-01  1.54D-01
                    CP:  6.25D-01  3.10D-01  5.39D-01  9.92D-01  1.30D+00
                    CP:  6.98D-01  3.80D-01  1.26D+00  1.11D+00  1.08D+00
 E= -2364.68515585923     Delta-E=       -0.000322995002 Rises=F Damp=F
 DIIS: error= 9.80D-04 at cycle  16 NSaved=  16.
 NSaved=16 IEnMin=16 EnMin= -2364.68515585923     IErMin=16 ErrMin= 9.80D-04
 ErrMax= 9.80D-04  0.00D+00 EMaxC= 1.00D-01 BMatC= 4.47D-04 BMatP= 1.14D-03
 IDIUse=3 WtCom= 9.90D-01 WtEn= 9.80D-03
 Coeff-Com:  0.988D-04-0.170D-03 0.283D-03 0.816D-03-0.646D-04 0.394D-02
 Coeff-Com: -0.105D-02 0.349D-02 0.448D-02 0.803D-02-0.436D-02-0.114D-01
 Coeff-Com: -0.237D-01 0.236D-01 0.163D+00 0.833D+00
 Coeff-En:   0.000D+00 0.000D+00 0.000D+00 0.000D+00 0.000D+00 0.000D+00
 Coeff-En:   0.000D+00 0.000D+00 0.000D+00 0.000D+00 0.000D+00 0.000D+00
 Coeff-En:   0.000D+00 0.000D+00 0.000D+00 0.100D+01
 Coeff:      0.979D-04-0.168D-03 0.280D-03 0.808D-03-0.640D-04 0.390D-02
 Coeff:     -0.104D-02 0.346D-02 0.444D-02 0.795D-02-0.432D-02-0.113D-01
 Coeff:     -0.235D-01 0.234D-01 0.161D+00 0.835D+00
 Gap=     0.183 Goal=   None    Shift=    0.000
 Gap=     0.029 Goal=   None    Shift=    0.000
 RMSDP=8.15D-05 MaxDP=5.26D-03 DE=-3.23D-04 OVMax= 2.42D-02

 Cycle  17  Pass 1  IDiag  1:
 RMSU=  2.58D-05    CP:  9.21D-01  7.07D-02  1.71D-01  6.31D-01  1.55D-01
                    CP:  6.25D-01  3.10D-01  5.25D-01  9.85D-01  1.33D+00
                    CP:  7.66D-01  3.91D-01  1.35D+00  1.24D+00  1.37D+00
                    CP:  1.46D+00
 E= -2364.68534033886     Delta-E=       -0.000184479637 Rises=F Damp=F
 DIIS: error= 4.35D-04 at cycle  17 NSaved=  17.
 NSaved=17 IEnMin=17 EnMin= -2364.68534033886     IErMin=17 ErrMin= 4.35D-04
 ErrMax= 4.35D-04  0.00D+00 EMaxC= 1.00D-01 BMatC= 1.12D-04 BMatP= 4.47D-04
 IDIUse=3 WtCom= 9.96D-01 WtEn= 4.35D-03
 Coeff-Com: -0.718D-03 0.119D-02 0.160D-03 0.102D-02-0.387D-04 0.127D-02
 Coeff-Com: -0.247D-02 0.298D-03-0.193D-01 0.123D-01 0.806D-02-0.799D-02
 Coeff-Com: -0.184D-01-0.137D+00-0.192D+00 0.371D+00 0.982D+00
 Coeff-En:   0.000D+00 0.000D+00 0.000D+00 0.000D+00 0.000D+00 0.000D+00
 Coeff-En:   0.000D+00 0.000D+00 0.000D+00 0.000D+00 0.000D+00 0.000D+00
 Coeff-En:   0.000D+00 0.000D+00 0.000D+00 0.000D+00 0.100D+01
 Coeff:     -0.715D-03 0.118D-02 0.159D-03 0.101D-02-0.385D-04 0.127D-02
 Coeff:     -0.246D-02 0.297D-03-0.192D-01 0.123D-01 0.803D-02-0.796D-02
 Coeff:     -0.183D-01-0.136D+00-0.191D+00 0.370D+00 0.982D+00
 Gap=     0.183 Goal=   None    Shift=    0.000
 Gap=     0.030 Goal=   None    Shift=    0.000
 RMSDP=9.72D-05 MaxDP=6.74D-03 DE=-1.84D-04 OVMax= 2.92D-02

 Cycle  18  Pass 1  IDiag  1:
 RMSU=  2.03D-05    CP:  9.21D-01  7.09D-02  1.71D-01  6.32D-01  1.55D-01
                    CP:  6.24D-01  3.07D-01  5.10D-01  9.74D-01  1.37D+00
                    CP:  8.39D-01  4.12D-01  1.47D+00  1.40D+00  1.66D+00
                    CP:  2.16D+00  1.61D+00
 E= -2364.68545940246     Delta-E=       -0.000119063599 Rises=F Damp=F
 DIIS: error= 9.25D-05 at cycle  18 NSaved=  18.
 NSaved=18 IEnMin=18 EnMin= -2364.68545940246     IErMin=18 ErrMin= 9.25D-05
 ErrMax= 9.25D-05  0.00D+00 EMaxC= 1.00D-01 BMatC= 1.86D-05 BMatP= 1.12D-04
 IDIUse=1 WtCom= 1.00D+00 WtEn= 0.00D+00
 Coeff-Com: -0.395D-03 0.627D-03-0.895D-05 0.242D-03-0.577D-06-0.222D-03
 Coeff-Com: -0.200D-03 0.234D-02-0.477D-02-0.358D-02-0.430D-02 0.256D-02
 Coeff-Com: -0.924D-02-0.298D-01-0.151D+00-0.167D+00 0.597D+00 0.768D+00
 Coeff:     -0.395D-03 0.627D-03-0.895D-05 0.242D-03-0.577D-06-0.222D-03
 Coeff:     -0.200D-03 0.234D-02-0.477D-02-0.358D-02-0.430D-02 0.256D-02
 Coeff:     -0.924D-02-0.298D-01-0.151D+00-0.167D+00 0.597D+00 0.768D+00
 Gap=     0.183 Goal=   None    Shift=    0.000
 Gap=     0.030 Goal=   None    Shift=    0.000
 RMSDP=5.32D-05 MaxDP=3.54D-03 DE=-1.19D-04 OVMax= 1.66D-02

 Cycle  19  Pass 1  IDiag  1:
 RMSU=  1.14D-05    CP:  9.21D-01  7.10D-02  1.72D-01  6.32D-01  1.55D-01
                    CP:  6.24D-01  3.06D-01  5.02D-01  9.67D-01  1.39D+00
                    CP:  8.76D-01  4.22D-01  1.53D+00  1.52D+00  1.83D+00
                    CP:  2.52D+00  2.21D+00  1.23D+00
 E= -2364.68549214455     Delta-E=       -0.000032742084 Rises=F Damp=F
 DIIS: error= 7.25D-05 at cycle  19 NSaved=  19.
 NSaved=19 IEnMin=19 EnMin= -2364.68549214455     IErMin=19 ErrMin= 7.25D-05
 ErrMax= 7.25D-05  0.00D+00 EMaxC= 1.00D-01 BMatC= 6.98D-06 BMatP= 1.86D-05
 IDIUse=1 WtCom= 1.00D+00 WtEn= 0.00D+00
 Coeff-Com: -0.101D-03 0.150D-03-0.335D-04-0.624D-04 0.798D-05-0.456D-03
 Coeff-Com:  0.403D-03-0.531D-04 0.397D-02-0.457D-03-0.109D-01 0.421D-02
 Coeff-Com: -0.631D-02 0.156D-01-0.325D-01-0.119D+00 0.677D-01 0.369D+00
 Coeff-Com:  0.709D+00
 Coeff:     -0.101D-03 0.150D-03-0.335D-04-0.624D-04 0.798D-05-0.456D-03
 Coeff:      0.403D-03-0.531D-04 0.397D-02-0.457D-03-0.109D-01 0.421D-02
 Coeff:     -0.631D-02 0.156D-01-0.325D-01-0.119D+00 0.677D-01 0.369D+00
 Coeff:      0.709D+00
 Gap=     0.183 Goal=   None    Shift=    0.000
 Gap=     0.030 Goal=   None    Shift=    0.000
 RMSDP=1.99D-05 MaxDP=1.38D-03 DE=-3.27D-05 OVMax= 5.79D-03

 Cycle  20  Pass 1  IDiag  1:
 RMSU=  6.45D-06    CP:  9.21D-01  7.10D-02  1.72D-01  6.32D-01  1.55D-01
                    CP:  6.24D-01  3.06D-01  4.99D-01  9.65D-01  1.40D+00
                    CP:  8.91D-01  4.24D-01  1.54D+00  1.56D+00  1.90D+00
                    CP:  2.67D+00  2.43D+00  1.44D+00  1.15D+00
 E= -2364.68549849658     Delta-E=       -0.000006352038 Rises=F Damp=F
 DIIS: error= 1.19D-04 at cycle  20 NSaved=  20.
 NSaved=20 IEnMin=20 EnMin= -2364.68549849658     IErMin=19 ErrMin= 7.25D-05
 ErrMax= 1.19D-04  0.00D+00 EMaxC= 1.00D-01 BMatC= 9.14D-06 BMatP= 6.98D-06
 IDIUse=1 WtCom= 1.00D+00 WtEn= 0.00D+00
 Coeff-Com: -0.779D-04 0.128D-03-0.129D-04-0.118D-03-0.151D-05-0.335D-03
 Coeff-Com:  0.338D-03-0.149D-02 0.371D-02 0.628D-02-0.903D-02 0.258D-02
 Coeff-Com: -0.141D-02-0.112D-02 0.798D-02 0.380D-02-0.106D+00-0.840D-02
 Coeff-Com:  0.354D+00 0.749D+00
 Coeff:     -0.779D-04 0.128D-03-0.129D-04-0.118D-03-0.151D-05-0.335D-03
 Coeff:      0.338D-03-0.149D-02 0.371D-02 0.628D-02-0.903D-02 0.258D-02
 Coeff:     -0.141D-02-0.112D-02 0.798D-02 0.380D-02-0.106D+00-0.840D-02
 Coeff:      0.354D+00 0.749D+00
 Gap=     0.183 Goal=   None    Shift=    0.000
 Gap=     0.030 Goal=   None    Shift=    0.000
 RMSDP=1.45D-05 MaxDP=8.15D-04 DE=-6.35D-06 OVMax= 4.41D-03

 Cycle  21  Pass 1  IDiag  1:
 Restarting incremental Fock formation.
 E= -2364.68550215639     Delta-E=       -0.000003659805 Rises=F Damp=F
 DIIS: error= 1.28D-04 at cycle  21 NSaved=  20.
 NSaved=20 IEnMin=20 EnMin= -2364.68550215639     IErMin=18 ErrMin= 7.25D-05
 ErrMax= 1.28D-04  0.00D+00 EMaxC= 1.00D-01 BMatC= 8.89D-06 BMatP= 6.98D-06
 IDIUse=1 WtCom= 1.00D+00 WtEn= 0.00D+00
 Coeff-Com: -0.217D-04 0.479D-04-0.160D-04-0.150D-04-0.138D-03 0.721D-05
 Coeff-Com: -0.102D-02 0.406D-03 0.716D-02-0.524D-02 0.106D-03 0.229D-02
 Coeff-Com: -0.247D-01 0.111D-01 0.782D-01-0.455D-01-0.182D+00-0.297D+00
 Coeff-Com:  0.362D+00 0.109D+01
 Coeff:     -0.217D-04 0.479D-04-0.160D-04-0.150D-04-0.138D-03 0.721D-05
 Coeff:     -0.102D-02 0.406D-03 0.716D-02-0.524D-02 0.106D-03 0.229D-02
 Coeff:     -0.247D-01 0.111D-01 0.782D-01-0.455D-01-0.182D+00-0.297D+00
 Coeff:      0.362D+00 0.109D+01
 Gap=     0.183 Goal=   None    Shift=    0.000
 Gap=     0.030 Goal=   None    Shift=    0.000
 RMSDP=1.60D-05 MaxDP=7.44D-04 DE=-3.66D-06 OVMax= 5.03D-03

 Cycle  22  Pass 1  IDiag  1:
 RMSU=  1.60D-05    CP:  1.00D+00
 E= -2364.68550459678     Delta-E=       -0.000002440388 Rises=F Damp=F
 DIIS: error= 1.13D-04 at cycle  22 NSaved=  20.
 NSaved=20 IEnMin=20 EnMin= -2364.68550459678     IErMin=17 ErrMin= 7.25D-05
 ErrMax= 1.13D-04  0.00D+00 EMaxC= 1.00D-01 BMatC= 7.70D-06 BMatP= 6.98D-06
 IDIUse=1 WtCom= 1.00D+00 WtEn= 0.00D+00
 Coeff-Com: -0.296D-04 0.569D-04 0.654D-04-0.615D-04-0.933D-04-0.119D-03
 Coeff-Com: -0.540D-03 0.487D-02-0.421D-02-0.358D-03 0.282D-02-0.252D-01
 Coeff-Com:  0.356D-02 0.584D-01 0.186D-01-0.124D+00-0.355D+00 0.261D-01
 Coeff-Com:  0.809D+00 0.587D+00
 Coeff:     -0.296D-04 0.569D-04 0.654D-04-0.615D-04-0.933D-04-0.119D-03
 Coeff:     -0.540D-03 0.487D-02-0.421D-02-0.358D-03 0.282D-02-0.252D-01
 Coeff:      0.356D-02 0.584D-01 0.186D-01-0.124D+00-0.355D+00 0.261D-01
 Coeff:      0.809D+00 0.587D+00
 Gap=     0.183 Goal=   None    Shift=    0.000
 Gap=     0.029 Goal=   None    Shift=    0.000
 RMSDP=7.22D-06 MaxDP=3.34D-04 DE=-2.44D-06 OVMax= 2.20D-03

 Cycle  23  Pass 1  IDiag  1:
 RMSU=  3.02D-06    CP:  1.00D+00  1.41D+00
 E= -2364.68550618094     Delta-E=       -0.000001584167 Rises=F Damp=F
 DIIS: error= 7.17D-05 at cycle  23 NSaved=  20.
 NSaved=20 IEnMin=20 EnMin= -2364.68550618094     IErMin=20 ErrMin= 7.17D-05
 ErrMax= 7.17D-05  0.00D+00 EMaxC= 1.00D-01 BMatC= 3.16D-06 BMatP= 6.98D-06
 IDIUse=1 WtCom= 1.00D+00 WtEn= 0.00D+00
 Coeff-Com:  0.147D-05 0.744D-04-0.826D-04-0.103D-03 0.251D-03-0.247D-03
 Coeff-Com: -0.792D-04-0.174D-02-0.769D-03 0.394D-02-0.622D-02 0.316D-02
 Coeff-Com: -0.161D-02 0.125D-01 0.168D-01-0.388D-01-0.107D+00-0.967D-01
 Coeff-Com:  0.316D-01 0.119D+01
 Coeff:      0.147D-05 0.744D-04-0.826D-04-0.103D-03 0.251D-03-0.247D-03
 Coeff:     -0.792D-04-0.174D-02-0.769D-03 0.394D-02-0.622D-02 0.316D-02
 Coeff:     -0.161D-02 0.125D-01 0.168D-01-0.388D-01-0.107D+00-0.967D-01
 Coeff:      0.316D-01 0.119D+01
 Gap=     0.183 Goal=   None    Shift=    0.000
 Gap=     0.029 Goal=   None    Shift=    0.000
 RMSDP=7.27D-06 MaxDP=3.48D-04 DE=-1.58D-06 OVMax= 2.11D-03

 Cycle  24  Pass 1  IDiag  1:
 RMSU=  2.40D-06    CP:  1.00D+00  1.77D+00  2.24D+00
 E= -2364.68550720198     Delta-E=       -0.000001021034 Rises=F Damp=F
 DIIS: error= 7.14D-06 at cycle  24 NSaved=  20.
 NSaved=20 IEnMin=20 EnMin= -2364.68550720198     IErMin=20 ErrMin= 7.14D-06
 ErrMax= 7.14D-06  0.00D+00 EMaxC= 1.00D-01 BMatC= 1.05D-07 BMatP= 3.16D-06
 IDIUse=1 WtCom= 1.00D+00 WtEn= 0.00D+00
 Coeff-Com:  0.211D-04-0.157D-04-0.292D-04 0.648D-04 0.417D-03-0.288D-03
 Coeff-Com: -0.474D-03-0.305D-03 0.132D-02 0.232D-02 0.327D-02-0.876D-02
 Coeff-Com: -0.145D-01 0.271D-01 0.716D-01-0.119D-01-0.228D+00-0.255D+00
 Coeff-Com:  0.669D+00 0.744D+00
 Coeff:      0.211D-04-0.157D-04-0.292D-04 0.648D-04 0.417D-03-0.288D-03
 Coeff:     -0.474D-03-0.305D-03 0.132D-02 0.232D-02 0.327D-02-0.876D-02
 Coeff:     -0.145D-01 0.271D-01 0.716D-01-0.119D-01-0.228D+00-0.255D+00
 Coeff:      0.669D+00 0.744D+00
 Gap=     0.183 Goal=   None    Shift=    0.000
 Gap=     0.029 Goal=   None    Shift=    0.000
 RMSDP=2.48D-06 MaxDP=9.90D-05 DE=-1.02D-06 OVMax= 7.62D-04

 Cycle  25  Pass 1  IDiag  1:
 RMSU=  1.16D-06    CP:  1.00D+00  1.88D+00  2.61D+00  1.17D+00
 E= -2364.68550728859     Delta-E=       -0.000000086611 Rises=F Damp=F
 DIIS: error= 3.53D-06 at cycle  25 NSaved=  20.
 NSaved=20 IEnMin=20 EnMin= -2364.68550728859     IErMin=20 ErrMin= 3.53D-06
 ErrMax= 3.53D-06  0.00D+00 EMaxC= 1.00D-01 BMatC= 2.04D-08 BMatP= 1.05D-07
 IDIUse=1 WtCom= 1.00D+00 WtEn= 0.00D+00
 Coeff-Com: -0.104D-04-0.548D-05-0.290D-04 0.379D-03-0.157D-03-0.715D-04
 Coeff-Com: -0.736D-04 0.223D-03 0.249D-02 0.958D-03-0.538D-02-0.115D-01
 Coeff-Com:  0.150D-01 0.438D-01 0.159D-01-0.101D+00-0.175D+00 0.182D+00
 Coeff-Com:  0.411D+00 0.622D+00
 Coeff:     -0.104D-04-0.548D-05-0.290D-04 0.379D-03-0.157D-03-0.715D-04
 Coeff:     -0.736D-04 0.223D-03 0.249D-02 0.958D-03-0.538D-02-0.115D-01
 Coeff:      0.150D-01 0.438D-01 0.159D-01-0.101D+00-0.175D+00 0.182D+00
 Coeff:      0.411D+00 0.622D+00
 Gap=     0.183 Goal=   None    Shift=    0.000
 Gap=     0.029 Goal=   None    Shift=    0.000
 RMSDP=9.76D-07 MaxDP=3.64D-05 DE=-8.66D-08 OVMax= 3.14D-04

 Cycle  26  Pass 1  IDiag  1:
 RMSU=  4.24D-07    CP:  1.00D+00  1.92D+00  2.78D+00  1.33D+00  1.24D+00
 E= -2364.68550730919     Delta-E=       -0.000000020604 Rises=F Damp=F
 DIIS: error= 2.12D-06 at cycle  26 NSaved=  20.
 NSaved=20 IEnMin=20 EnMin= -2364.68550730919     IErMin=20 ErrMin= 2.12D-06
 ErrMax= 2.12D-06  0.00D+00 EMaxC= 1.00D-01 BMatC= 5.42D-09 BMatP= 2.04D-08
 IDIUse=1 WtCom= 1.00D+00 WtEn= 0.00D+00
 Coeff-Com:  0.524D-06-0.449D-04 0.108D-03-0.862D-04 0.562D-04-0.309D-04
 Coeff-Com:  0.661D-05 0.632D-03-0.289D-03 0.600D-04 0.546D-03 0.431D-02
 Coeff-Com: -0.844D-02-0.214D-02 0.138D-01-0.876D-02-0.242D-01-0.792D-01
 Coeff-Com:  0.128D+00 0.976D+00
 Coeff:      0.524D-06-0.449D-04 0.108D-03-0.862D-04 0.562D-04-0.309D-04
 Coeff:      0.661D-05 0.632D-03-0.289D-03 0.600D-04 0.546D-03 0.431D-02
 Coeff:     -0.844D-02-0.214D-02 0.138D-01-0.876D-02-0.242D-01-0.792D-01
 Coeff:      0.128D+00 0.976D+00
 Gap=     0.183 Goal=   None    Shift=    0.000
 Gap=     0.029 Goal=   None    Shift=    0.000
 RMSDP=8.99D-07 MaxDP=3.66D-05 DE=-2.06D-08 OVMax= 3.35D-04

 Cycle  27  Pass 1  IDiag  1:
 RMSU=  3.24D-07    CP:  1.00D+00  1.92D+00  2.91D+00  1.46D+00  1.77D+00
                    CP:  1.47D+00
 E= -2364.68550732072     Delta-E=       -0.000000011529 Rises=F Damp=F
 DIIS: error= 2.37D-06 at cycle  27 NSaved=  20.
 NSaved=20 IEnMin=20 EnMin= -2364.68550732072     IErMin=19 ErrMin= 2.12D-06
 ErrMax= 2.37D-06  0.00D+00 EMaxC= 1.00D-01 BMatC= 6.05D-09 BMatP= 5.42D-09
 IDIUse=1 WtCom= 1.00D+00 WtEn= 0.00D+00
 Coeff-Com: -0.288D-04-0.347D-04-0.103D-03 0.528D-04 0.223D-04-0.188D-03
 Coeff-Com: -0.340D-03-0.108D-02 0.733D-03 0.736D-02 0.304D-03-0.297D-01
 Coeff-Com: -0.186D-01 0.491D-01 0.747D-01-0.746D-01-0.309D+00-0.279D+00
 Coeff-Com:  0.735D+00 0.845D+00
 Coeff:     -0.288D-04-0.347D-04-0.103D-03 0.528D-04 0.223D-04-0.188D-03
 Coeff:     -0.340D-03-0.108D-02 0.733D-03 0.736D-02 0.304D-03-0.297D-01
 Coeff:     -0.186D-01 0.491D-01 0.747D-01-0.746D-01-0.309D+00-0.279D+00
 Coeff:      0.735D+00 0.845D+00
 Gap=     0.183 Goal=   None    Shift=    0.000
 Gap=     0.029 Goal=   None    Shift=    0.000
 RMSDP=1.10D-06 MaxDP=4.33D-05 DE=-1.15D-08 OVMax= 3.89D-04

 Cycle  28  Pass 1  IDiag  1:
 RMSU=  2.16D-07    CP:  1.00D+00  1.97D+00  3.00D+00  1.59D+00  2.29D+00
                    CP:  2.17D+00  1.57D+00
 E= -2364.68550733048     Delta-E=       -0.000000009760 Rises=F Damp=F
 DIIS: error= 1.18D-06 at cycle  28 NSaved=  20.
 NSaved=20 IEnMin=20 EnMin= -2364.68550733048     IErMin=20 ErrMin= 1.18D-06
 ErrMax= 1.18D-06  0.00D+00 EMaxC= 1.00D-01 BMatC= 2.01D-09 BMatP= 5.42D-09
 IDIUse=1 WtCom= 1.00D+00 WtEn= 0.00D+00
 Coeff-Com:  0.446D-06 0.709D-05 0.914D-05-0.425D-04-0.858D-04-0.352D-03
 Coeff-Com: -0.115D-03 0.865D-03 0.300D-02-0.108D-02-0.131D-01-0.999D-02
 Coeff-Com:  0.157D-01 0.297D-01 0.856D-02-0.102D+00-0.173D+00-0.250D-01
 Coeff-Com:  0.239D+00 0.103D+01
 Coeff:      0.446D-06 0.709D-05 0.914D-05-0.425D-04-0.858D-04-0.352D-03
 Coeff:     -0.115D-03 0.865D-03 0.300D-02-0.108D-02-0.131D-01-0.999D-02
 Coeff:      0.157D-01 0.297D-01 0.856D-02-0.102D+00-0.173D+00-0.250D-01
 Coeff:      0.239D+00 0.103D+01
 Gap=     0.183 Goal=   None    Shift=    0.000
 Gap=     0.029 Goal=   None    Shift=    0.000
 RMSDP=6.77D-07 MaxDP=3.19D-05 DE=-9.76D-09 OVMax= 2.32D-04

 Cycle  29  Pass 1  IDiag  1:
 RMSU=  1.18D-07    CP:  1.00D+00  1.98D+00  3.00D+00  1.63D+00  2.72D+00
                    CP:  2.70D+00  2.26D+00  1.50D+00
 E= -2364.68550733249     Delta-E=       -0.000000002009 Rises=F Damp=F
 DIIS: error= 2.47D-06 at cycle  29 NSaved=  20.
 NSaved=20 IEnMin=20 EnMin= -2364.68550733249     IErMin=19 ErrMin= 1.18D-06
 ErrMax= 2.47D-06  0.00D+00 EMaxC= 1.00D-01 BMatC= 4.01D-09 BMatP= 2.01D-09
 IDIUse=1 WtCom= 1.00D+00 WtEn= 0.00D+00
 Coeff-Com:  0.189D-04 0.396D-04-0.560D-04 0.193D-04-0.870D-04 0.125D-03
 Coeff-Com:  0.633D-05-0.544D-03 0.227D-03 0.338D-02 0.260D-02-0.744D-02
 Coeff-Com: -0.179D-01 0.168D-01 0.321D-01 0.893D-02-0.108D+00-0.172D+00
 Coeff-Com:  0.471D+00 0.771D+00
 Coeff:      0.189D-04 0.396D-04-0.560D-04 0.193D-04-0.870D-04 0.125D-03
 Coeff:      0.633D-05-0.544D-03 0.227D-03 0.338D-02 0.260D-02-0.744D-02
 Coeff:     -0.179D-01 0.168D-01 0.321D-01 0.893D-02-0.108D+00-0.172D+00
 Coeff:      0.471D+00 0.771D+00
 Gap=     0.183 Goal=   None    Shift=    0.000
 Gap=     0.029 Goal=   None    Shift=    0.000
 RMSDP=2.22D-07 MaxDP=1.22D-05 DE=-2.01D-09 OVMax= 7.63D-05

 Cycle  30  Pass 1  IDiag  1:
 RMSU=  8.12D-08    CP:  1.00D+00  1.99D+00  3.00D+00  1.66D+00  2.80D+00
                    CP:  2.80D+00  2.40D+00  2.04D+00  1.06D+00
 E= -2364.68550733348     Delta-E=       -0.000000000991 Rises=F Damp=F
 DIIS: error= 1.34D-06 at cycle  30 NSaved=  20.
 NSaved=20 IEnMin=20 EnMin= -2364.68550733348     IErMin=18 ErrMin= 1.18D-06
 ErrMax= 1.34D-06  0.00D+00 EMaxC= 1.00D-01 BMatC= 1.20D-09 BMatP= 2.01D-09
 IDIUse=1 WtCom= 1.00D+00 WtEn= 0.00D+00
 Coeff-Com:  0.712D-05 0.358D-04-0.602D-04-0.681D-04 0.179D-04-0.495D-04
 Coeff-Com: -0.645D-03 0.540D-03 0.441D-02 0.368D-02-0.696D-02-0.179D-01
 Coeff-Com:  0.372D-02 0.366D-01 0.356D-01-0.353D-01-0.154D+00 0.916D-01
 Coeff-Com:  0.336D+00 0.703D+00
 Coeff:      0.712D-05 0.358D-04-0.602D-04-0.681D-04 0.179D-04-0.495D-04
 Coeff:     -0.645D-03 0.540D-03 0.441D-02 0.368D-02-0.696D-02-0.179D-01
 Coeff:      0.372D-02 0.366D-01 0.356D-01-0.353D-01-0.154D+00 0.916D-01
 Coeff:      0.336D+00 0.703D+00
 Gap=     0.183 Goal=   None    Shift=    0.000
 Gap=     0.029 Goal=   None    Shift=    0.000
 RMSDP=1.04D-07 MaxDP=9.74D-06 DE=-9.91D-10 OVMax= 3.12D-05

 Cycle  31  Pass 1  IDiag  1:
 RMSU=  2.70D-08    CP:  1.00D+00  1.99D+00  3.00D+00  1.68D+00  2.83D+00
                    CP:  2.82D+00  2.43D+00  2.33D+00  1.11D+00  1.49D+00
 E= -2364.68550733381     Delta-E=       -0.000000000331 Rises=F Damp=F
 DIIS: error= 4.35D-07 at cycle  31 NSaved=  20.
 NSaved=20 IEnMin=20 EnMin= -2364.68550733381     IErMin=20 ErrMin= 4.35D-07
 ErrMax= 4.35D-07  0.00D+00 EMaxC= 1.00D-01 BMatC= 1.28D-10 BMatP= 1.20D-09
 IDIUse=1 WtCom= 1.00D+00 WtEn= 0.00D+00
 Coeff-Com:  0.179D-04-0.125D-04-0.152D-04 0.159D-04 0.180D-03-0.320D-03
 Coeff-Com: -0.227D-03 0.696D-03 0.168D-02 0.629D-04-0.278D-02-0.604D-02
 Coeff-Com:  0.111D-01 0.185D-01 0.217D-01-0.201D-01-0.152D+00-0.250D+00
 Coeff-Com:  0.371D+00 0.101D+01
 Coeff:      0.179D-04-0.125D-04-0.152D-04 0.159D-04 0.180D-03-0.320D-03
 Coeff:     -0.227D-03 0.696D-03 0.168D-02 0.629D-04-0.278D-02-0.604D-02
 Coeff:      0.111D-01 0.185D-01 0.217D-01-0.201D-01-0.152D+00-0.250D+00
 Coeff:      0.371D+00 0.101D+01
 Gap=     0.183 Goal=   None    Shift=    0.000
 Gap=     0.029 Goal=   None    Shift=    0.000
 RMSDP=9.41D-08 MaxDP=6.76D-06 DE=-3.31D-10 OVMax= 3.05D-05

 Cycle  32  Pass 1  IDiag  1:
 RMSU=  1.63D-08    CP:  1.00D+00  1.99D+00  3.00D+00  1.70D+00  2.87D+00
                    CP:  2.87D+00  2.52D+00  2.55D+00  1.20D+00  1.93D+00
                    CP:  1.04D+00
 E= -2364.68550733387     Delta-E=       -0.000000000060 Rises=F Damp=F
 DIIS: error= 8.30D-08 at cycle  32 NSaved=  20.
 NSaved=20 IEnMin=20 EnMin= -2364.68550733387     IErMin=20 ErrMin= 8.30D-08
 ErrMax= 8.30D-08  0.00D+00 EMaxC= 1.00D-01 BMatC= 7.92D-12 BMatP= 1.28D-10
 IDIUse=1 WtCom= 1.00D+00 WtEn= 0.00D+00
 Coeff-Com:  0.482D-05-0.200D-05 0.192D-04 0.110D-03-0.109D-03-0.206D-03
 Coeff-Com: -0.237D-03 0.369D-03 0.952D-03 0.132D-02-0.167D-02 0.117D-02
 Coeff-Com:  0.234D-02 0.390D-02 0.146D-01-0.541D-01-0.156D+00 0.441D-01
 Coeff-Com:  0.471D+00 0.672D+00
 Coeff:      0.482D-05-0.200D-05 0.192D-04 0.110D-03-0.109D-03-0.206D-03
 Coeff:     -0.237D-03 0.369D-03 0.952D-03 0.132D-02-0.167D-02 0.117D-02
 Coeff:      0.234D-02 0.390D-02 0.146D-01-0.541D-01-0.156D+00 0.441D-01
 Coeff:      0.471D+00 0.672D+00
 Gap=     0.183 Goal=   None    Shift=    0.000
 Gap=     0.029 Goal=   None    Shift=    0.000
 RMSDP=2.39D-08 MaxDP=1.15D-06 DE=-6.00D-11 OVMax= 7.40D-06

 Cycle  33  Pass 1  IDiag  1:
 RMSU=  6.30D-09    CP:  1.00D+00  1.99D+00  3.00D+00  1.70D+00  2.87D+00
                    CP:  2.88D+00  2.53D+00  2.55D+00  1.20D+00  1.93D+00
                    CP:  1.09D+00  1.18D+00
 E= -2364.68550733388     Delta-E=       -0.000000000006 Rises=F Damp=F
 DIIS: error= 7.11D-08 at cycle  33 NSaved=  20.
 NSaved=20 IEnMin=20 EnMin= -2364.68550733388     IErMin=20 ErrMin= 7.11D-08
 ErrMax= 7.11D-08  0.00D+00 EMaxC= 1.00D-01 BMatC= 3.04D-12 BMatP= 7.92D-12
 IDIUse=1 WtCom= 1.00D+00 WtEn= 0.00D+00
 Coeff-Com: -0.360D-05 0.473D-05 0.124D-04-0.240D-04-0.626D-04-0.144D-03
 Coeff-Com:  0.135D-05 0.370D-03 0.855D-03 0.625D-03-0.265D-03-0.133D-02
 Coeff-Com: -0.639D-02 0.582D-02 0.658D-02-0.105D-01-0.406D-01 0.125D-01
 Coeff-Com:  0.237D+00 0.796D+00
 Coeff:     -0.360D-05 0.473D-05 0.124D-04-0.240D-04-0.626D-04-0.144D-03
 Coeff:      0.135D-05 0.370D-03 0.855D-03 0.625D-03-0.265D-03-0.133D-02
 Coeff:     -0.639D-02 0.582D-02 0.658D-02-0.105D-01-0.406D-01 0.125D-01
 Coeff:      0.237D+00 0.796D+00
 Gap=     0.183 Goal=   None    Shift=    0.000
 Gap=     0.029 Goal=   None    Shift=    0.000
 RMSDP=7.12D-09 MaxDP=2.56D-07 DE=-6.37D-12 OVMax= 1.86D-06

 SCF Done:  E(UB3LYP) =  -2364.68550733     A.U. after   33 cycles
            NFock= 33  Conv=0.71D-08     -V/T= 2.0046
 <Sx>= 0.0000 <Sy>= 0.0000 <Sz>= 0.5000 <S**2>= 0.7580 S= 0.5040
 <L.S>=  0.00000000000    
 KE= 2.353935077034D+03 PE=-8.727584764752D+03 EE= 2.426367594034D+03
 Annihilation of the first spin contaminant:
 S**2 before annihilation     0.7580,   after     0.7500
 Leave Link  502 at Thu Mar 14 18:55:43 2024, MaxMem= 13421772800 cpu:            1266.2 elap:              39.8
 (Enter /public/software/apps/Gaussian/g16/l601.exe)
 Copying SCF densities to generalized density rwf, IOpCl= 1 IROHF=0.

 **********************************************************************

            Population analysis using the SCF Density.

 **********************************************************************

 Alpha  occ. eigenvalues -- -323.35537 -39.16216 -34.38272 -34.38049 -34.37402
 Alpha  occ. eigenvalues --  -19.46832 -14.64870 -14.63667 -10.59047 -10.52248
 Alpha  occ. eigenvalues --  -10.52239 -10.52012 -10.50559 -10.50401 -10.49134
 Alpha  occ. eigenvalues --  -10.47856 -10.47741 -10.47225 -10.46790 -10.46355
 Alpha  occ. eigenvalues --  -10.46208 -10.46088  -4.62656  -3.12979  -3.12416
 Alpha  occ. eigenvalues --   -3.10877  -1.39078  -1.24083  -1.20570  -1.13618
 Alpha  occ. eigenvalues --   -1.08547  -1.06929  -1.04107  -1.02210  -1.00911
 Alpha  occ. eigenvalues --   -0.94292  -0.92594  -0.90226  -0.88548  -0.86611
 Alpha  occ. eigenvalues --   -0.85330  -0.82372  -0.80277  -0.78048  -0.77679
 Alpha  occ. eigenvalues --   -0.75715  -0.74789  -0.73627  -0.72854  -0.72446
 Alpha  occ. eigenvalues --   -0.70828  -0.70555  -0.70016  -0.69446  -0.69214
 Alpha  occ. eigenvalues --   -0.67084  -0.66486  -0.65478  -0.64317  -0.63881
 Alpha  occ. eigenvalues --   -0.63310  -0.62459  -0.61857  -0.60768  -0.60489
 Alpha  occ. eigenvalues --   -0.60164  -0.58629  -0.56370  -0.55466  -0.55007
 Alpha  occ. eigenvalues --   -0.54032  -0.53632  -0.53309
 Alpha virt. eigenvalues --   -0.34996  -0.34603  -0.30918  -0.29898  -0.28146
 Alpha virt. eigenvalues --   -0.23053  -0.19806  -0.19237  -0.18437  -0.17041
 Alpha virt. eigenvalues --   -0.16034  -0.15345  -0.14331  -0.14034  -0.13531
 Alpha virt. eigenvalues --   -0.12436  -0.12085  -0.11786  -0.10456  -0.09930
 Alpha virt. eigenvalues --   -0.09297  -0.08492  -0.06749  -0.06074  -0.05245
 Alpha virt. eigenvalues --   -0.04396  -0.02688  -0.02203  -0.01591   0.00896
 Alpha virt. eigenvalues --    0.02071   0.02624   0.02729   0.04208   0.04334
 Alpha virt. eigenvalues --    0.05432   0.06027   0.06906   0.08801   0.09783
 Alpha virt. eigenvalues --    0.11843   0.12834   0.14244   0.15194   0.16023
 Alpha virt. eigenvalues --    0.16576   0.17530   0.18284   0.19587   0.20150
 Alpha virt. eigenvalues --    0.20441   0.21170   0.21989   0.22646   0.23087
 Alpha virt. eigenvalues --    0.23908   0.24066   0.25104   0.26432   0.28107
 Alpha virt. eigenvalues --    0.28301   0.28463   0.29152   0.30604   0.31017
 Alpha virt. eigenvalues --    0.32336   0.32497   0.34469   0.35776   0.36741
 Alpha virt. eigenvalues --    0.37138   0.37973   0.39021   0.39482   0.41080
 Alpha virt. eigenvalues --    0.41282   0.41946   0.42860   0.43179   0.43681
 Alpha virt. eigenvalues --    0.43876   0.44600   0.45424   0.46811   0.47603
 Alpha virt. eigenvalues --    0.47945   0.48426   0.48902   0.48967   0.49181
 Alpha virt. eigenvalues --    0.50374   0.51227   0.52291   0.53679   0.54571
 Alpha virt. eigenvalues --    0.55589   0.57480   0.58512   0.59592   0.61824
 Alpha virt. eigenvalues --    0.63803   0.67125   0.68713   0.71912   0.73929
 Alpha virt. eigenvalues --    0.76542   0.79649   0.80246   0.81157   0.83977
 Alpha virt. eigenvalues --    0.85435   0.86881   0.86947   0.89661   0.91169
 Alpha virt. eigenvalues --    0.93459   0.95373   0.99196   1.00608   1.01081
 Alpha virt. eigenvalues --    1.02161   1.05099   1.05879   1.07193   1.10247
 Alpha virt. eigenvalues --    1.10577   1.14909   1.16814   1.18332   1.19519
 Alpha virt. eigenvalues --    1.20548   1.21079   1.21787   1.22560   1.22820
 Alpha virt. eigenvalues --    1.25645   1.30346   1.33389   1.36357   1.38661
 Alpha virt. eigenvalues --    1.40500   1.42851   1.44237   1.45413   1.47276
 Alpha virt. eigenvalues --    1.49563   1.52902   1.54909   1.55562   1.56019
 Alpha virt. eigenvalues --    1.56628   1.58075   1.58833   1.60728   1.62818
 Alpha virt. eigenvalues --    1.63589   1.67677   1.68207   1.71407   1.72935
 Alpha virt. eigenvalues --    1.74922   1.76373   1.77092   1.78545   1.79275
 Alpha virt. eigenvalues --    1.81851   1.84374   1.85523   1.87426   1.87752
 Alpha virt. eigenvalues --    1.89596   1.90831   1.93025   1.96579   1.98745
 Alpha virt. eigenvalues --    2.00820   2.01980   2.02515   2.04543   2.08771
 Alpha virt. eigenvalues --    2.12441   2.13529   2.16864   2.18740   2.20058
 Alpha virt. eigenvalues --    2.20887   2.22181   2.25690   2.30108   2.33372
 Alpha virt. eigenvalues --    2.33790   2.35430   2.39909   2.40139   2.42116
 Alpha virt. eigenvalues --    2.42642   2.47371   2.49081   2.50025   2.53780
 Alpha virt. eigenvalues --    2.55237   2.56336   2.57780   2.65140   2.71611
 Alpha virt. eigenvalues --    2.74759   2.84057   2.86400   2.96357   3.04785
 Alpha virt. eigenvalues --    3.07195   3.20241   3.33029
  Beta  occ. eigenvalues -- -323.35529 -39.15544 -34.37488 -34.37362 -34.37215
  Beta  occ. eigenvalues --  -19.46839 -14.64746 -14.63465 -10.59049 -10.52242
  Beta  occ. eigenvalues --  -10.52205 -10.52009 -10.50399 -10.50262 -10.48885
  Beta  occ. eigenvalues --  -10.47541 -10.47493 -10.47222 -10.46793 -10.46450
  Beta  occ. eigenvalues --  -10.46199 -10.46187  -4.61246  -3.10880  -3.10523
  Beta  occ. eigenvalues --   -3.10373  -1.39059  -1.23944  -1.20353  -1.13029
  Beta  occ. eigenvalues --   -1.08380  -1.06877  -1.03766  -1.01781  -1.00545
  Beta  occ. eigenvalues --   -0.94073  -0.92481  -0.90132  -0.88198  -0.86241
  Beta  occ. eigenvalues --   -0.85166  -0.82118  -0.80075  -0.77885  -0.77520
  Beta  occ. eigenvalues --   -0.75521  -0.74625  -0.73370  -0.72705  -0.72195
  Beta  occ. eigenvalues --   -0.70748  -0.70429  -0.69863  -0.69227  -0.68740
[...]
 0.00000626,0.00005095,0.00000150,-0.00000048,-0.00000255,-0.00000141,0
 .00000473,-0.00000295,0.00000952,-0.00000813,-0.00002047,0.00002736,0.
 00003003,0.00001290,0.00000281,0.00003526,-0.00001648,-0.00002259,0.00
 002063,-0.00000391,0.12294015,0.11659978,0.00013783,0.00005540,-0.0000
 9546,-0.00007881,-0.00004604,0.00004300,-0.00006343,0.00001699,-0.0000
 9130,-0.00019475,0.00005578,0.00009378,0.00032386,0.00004016,0.0002561
 6,0.00007037,0.00003933,0.00003534,0.00022376,-0.00010933,0.00004069,0
 .00073436,-0.00060726,-0.00380605,0.00379817,0.00110517,0.00265524,-0.
 00915807,-0.00122409,-0.04193492,-0.00481019,-0.00234325,0.00570440,-0
 .00137416,0.00181415,0.00629176,0.00002099,-0.00024923,-0.00060031,-0.
 00078565,0.00251255,0.00785116,-0.00039063,0.00054075,0.00007795,0.000
 08052,-0.00000667,-0.00006704,0.00002880,0.00001662,0.00005056,-0.0000
 0077,0.00000545,0.00000124,0.00000428,-0.00001486,0.00000969,0.0000057
 5,-0.00000282,0.00000741,-0.00000131,0.00000939,-0.00000766,-0.0000043
 2,-0.00000070,-0.00000532,-0.00000545,-0.00003729,0.00000547,0.0109131
 9,-0.00056296,0.02823789,0.00002440,0.00001011,-0.00002061,-0.00004013
 ,-0.00002667,-0.00000816,0.00001908,0.00001312,0.00004481,-0.00002456,
 -0.00004488,-0.00004000,-0.00002291,0.00005855,-0.00010054,0.00001409,
 0.00000606,0.00000620,-0.00005228,0.00000119,-0.00003633,0.00080892,0.
 00096770,0.00000221,-0.00423043,0.00233097,-0.00149547,0.00522063,0.02
 711587,-0.00387367,-0.05992546,-0.01202941,0.00032357,0.00369870,-0.02
 781297,0.00345444,-0.00463973,-0.00262724,-0.00105589,-0.00082443,0.00
 008807,0.00016164,-0.00034008,0.00042851,-0.00008577,0.00001849,-0.000
 00851,-0.00001078,0.00000815,-0.00000101,0.00000790,0.00000018,0.00000
 133,0.00000026,0.00000054,0.00000273,0.00000002,0.00000094,0.00000153,
 -0.00000359,-0.00002203,0.00002059,0.00001766,-0.00000085,0.00001641,-
 0.00000091,-0.00000275,0.00000608,-0.00000279,0.00110855,-0.00041125,0
 .00054029,0.05805163,-0.00006405,-0.00002911,0.00003957,0.00006810,0.0
 0003011,-0.00001394,0.00001303,0.00000811,-0.00000659,0.00004628,0.000
 05819,-0.00001892,0.00001539,0.00000057,0.00004905,0.00002786,-0.00002
 404,0.00000548,-0.00006001,0.00003839,0.00002305,-0.00027540,-0.000206
 08,-0.00005497,0.00160542,0.00063716,0.00109214,-0.00175815,-0.0080906
 4,0.00179273,-0.01171928,-0.34410596,0.04013200,0.00097608,-0.00664544
 ,0.00205434,-0.00167997,0.00036495,0.00101083,-0.00014545,0.00082441,-
 0.00049108,0.00007083,-0.00007296,-0.00005235,-0.00006289,0.00000955,0
 .00003126,-0.00002893,-0.00000301,-0.00001189,-0.00000157,-0.00000587,
 -0.00000255,0.00000299,-0.00000285,-0.00000485,0.00000252,-0.00000347,
 -0.00000150,0.00000748,-0.00000566,-0.00000435,0.00000228,0.00000269,0
 .00000146,0.00000600,0.00000454,0.00000104,-0.00023543,0.00076280,-0.0
 0061485,0.01259736,0.35624701,0.00000599,0.00000579,-0.00000336,-0.000
 00435,0.00000501,0.00000391,-0.00000892,0.00000332,-0.00000797,-0.0000
 0970,-0.00001186,0.00003607,0.00006666,-0.00002115,-0.00002346,0.00001
 451,-0.00001378,0.00003076,0.00005037,-0.00004638,0.00000026,0.0000755
 9,0.00026645,-0.00031421,-0.00153128,0.00096274,0.00727481,-0.00021302
 ,0.00516764,0.00567591,0.00061674,0.04003805,-0.05166886,-0.00068834,-
 0.00102895,0.00751541,-0.00104218,0.00083955,0.00840235,0.00031312,-0.
 00044917,-0.00238434,-0.00017090,-0.00001199,-0.00010039,0.00002733,-0
 .00004282,0.00000112,0.00001238,0.00000634,0.00002734,0.00000113,-0.00
 000188,0.00000127,0.00000074,-0.00000320,0.00000183,0.00000205,-0.0000
 0229,0.00000242,-0.00000775,0.00001108,0.00000431,-0.00000030,-0.00000
 238,0.00000059,-0.00000300,0.00000190,-0.00000009,0.00051236,-0.000692
 01,-0.00347434,0.00138578,-0.04419719,0.03427344,0.00014764,0.00006801
 ,-0.00010269,-0.00013733,-0.00006146,0.00002681,-0.00004103,-0.0000071
 2,-0.00001279,-0.00011728,-0.00010717,0.00006695,-0.00002451,-0.000014
 62,-0.00005605,-0.00000424,-0.00000385,0.00000266,0.00012529,0.0000242
 2,-0.00005305,-0.00021338,0.00014609,0.00010902,0.00004046,-0.00126184
 ,0.00021568,-0.00291710,-0.00261139,-0.00068767,-0.01547005,0.01332597
 ,-0.00404324,-0.27315019,0.12323628,-0.03976487,0.00629718,-0.00329875
 ,0.00064407,0.00185699,-0.00201781,-0.00009343,-0.00004072,0.00002145,
 0.00008828,0.00014147,-0.00007163,-0.00008158,0.00006438,0.00002494,0.
 00006734,0.00000508,0.00000867,0.00000336,-0.00000168,-0.00000047,0.00
 000988,0.00000020,0.00000229,0.00000166,-0.00000626,0.00001313,0.00000
 267,-0.00000239,-0.00000266,-0.00000423,-0.00000805,-0.00000791,0.0000
 0002,-0.00047139,0.00068715,-0.00009518,0.00109184,0.00033835,0.000478
 44,0.28225464,0.00011289,0.00005338,-0.00009782,-0.00015818,-0.0000893
 9,-0.00000634,0.00001696,0.00001504,0.00010354,-0.00011519,-0.00015556
 ,-0.00000739,-0.00002827,-0.00000590,-0.00001803,0.00003244,-0.0000634
 0,0.00000363,-0.00005574,0.00014413,-0.00007239,0.00046444,-0.00073775
 ,0.00023319,-0.00155934,-0.00035367,-0.00011221,-0.00358048,-0.0014785
 9,0.00084281,-0.01545763,0.01319827,-0.00253518,0.12241768,-0.12943378
 ,0.02397787,0.02623749,-0.00864447,0.00421772,0.00028305,-0.00601580,0
 .00166264,0.00001665,0.00057518,-0.00021192,0.00013077,-0.00001799,-0.
 00005369,0.00004494,0.00000723,0.00004106,0.00000513,0.00000062,0.0000
 0039,-0.00000238,0.00000337,0.00000144,0.00000515,-0.00000109,-0.00000
 524,0.00000558,0.00000126,0.00000271,-0.00000259,0.00002066,0.00000170
 ,-0.00000304,-0.00000289,-0.00000049,-0.00065604,0.00053470,-0.0002132
 4,0.00041372,0.00067324,-0.00060679,-0.12870246,0.13048956,-0.00013680
 ,-0.00005898,0.00009641,0.00006443,0.00002546,-0.00003524,0.00007563,-
 0.00003061,0.00011488,0.00013186,-0.00000484,-0.00012018,-0.00014867,0
 .00007094,-0.00003016,-0.00002242,0.00006785,0.00001319,0.00015577,-0.
 00011149,0.00012659,-0.00003994,-0.00017296,-0.00109095,0.00005500,-0.
 00002508,-0.00044493,-0.00048211,0.00065568,0.00760248,-0.00052059,0.0
 0048249,0.00600659,-0.03975467,0.02377884,-0.04910884,-0.00278207,0.00
 172135,0.00233774,-0.00065519,0.00124445,0.00694482,0.00022954,0.00016
 245,-0.00005018,-0.00006250,0.00007550,0.00005403,-0.00004999,-0.00003
 473,-0.00010587,0.00000217,-0.00001165,0.00000178,-0.00000641,0.000011
 90,-0.00001093,-0.00000096,-0.00000080,0.00000443,0.00001656,-0.000032
 45,-0.00001036,0.00000490,-0.00001602,0.00000685,0.00000616,0.00000122
 ,0.00000022,0.00008751,-0.00006128,-0.00049013,0.00051056,-0.00065848,
 -0.00407284,0.04296043,-0.02667235,0.03510117,0.00019584,0.00007822,-0
 .00010373,-0.00025601,-0.00013720,0.00001189,-0.00001000,0.00002040,0.
 00012278,-0.00008836,-0.00015827,-0.00001688,-0.00003438,-0.00003399,-
 0.00007729,-0.00002237,-0.00000650,0.00009762,-0.00002429,0.00029521,-
 0.00013766,-0.00049242,-0.00093508,0.00014463,0.00032589,0.00339288,-0
 .00139019,0.00027226,-0.00035111,0.00013024,0.00049749,0.00102203,-0.0
 0071911,0.00586710,0.00247913,-0.00061796,-0.26407834,-0.12925936,-0.0
 0794920,-0.02525054,-0.00854164,-0.00152401,-0.00017394,0.00038161,-0.
 00010847,0.00017155,-0.00006562,-0.00008936,0.00008178,-0.00003381,-0.
 00004056,0.00000709,0.00001494,0.00000595,-0.00000467,0.00000394,0.000
 01019,0.00000133,0.00000409,0.00000051,-0.00000722,0.00001401,0.000007
 99,-0.00000026,0.00000390,-0.00000665,-0.00001845,0.00000417,-0.000009
 10,0.00001474,-0.00008939,0.00010705,0.00017922,0.00020770,0.00008577,
 0.00051672,0.00000370,0.00038145,0.28303956,-0.00004692,-0.00001589,-0
 .00000729,0.00005440,0.00002872,-0.00000551,-0.00000595,-0.00003060,-0
 .00002517,0.00004988,0.00005043,0.00000849,-0.00003248,-0.00002496,0.0
 0003034,0.00000349,0.00005527,-0.00008649,0.00017447,-0.00035560,0.000
 06949,0.00028150,0.00112097,-0.00002773,0.00374499,-0.00050668,0.00185
 571,0.00085615,-0.00048904,0.00010160,0.00078634,-0.00539404,0.0015681
 3,-0.02543558,-0.00858023,-0.00056507,-0.13397954,-0.14060600,-0.00242
 570,0.02246980,0.01258411,0.00066088,0.00003299,-0.00023913,0.00009789
 ,-0.00007731,0.00004248,0.00007707,-0.00007180,0.00003192,-0.00001528,
 0.00000334,-0.00000686,-0.00000623,-0.00000048,-0.00000203,-0.00000420
 ,-0.00000087,-0.00000242,0.00000352,0.00000322,-0.00000761,-0.00000648
 ,0.00000160,-0.00001645,0.00000636,0.00001547,-0.00001283,0.00001003,-
 0.00005937,0.00009019,-0.00016869,-0.00118802,-0.00023129,-0.00017142,
 0.00005924,0.00083631,-0.00050835,0.13125360,0.14167988,-0.00017360,-0
 .00005555,0.00012111,0.00013908,0.00008835,-0.00002676,0.00004660,-0.0
 0003369,0.00003333,0.00016085,-0.00000705,-0.00008231,-0.00017204,-0.0
 0003496,0.00001233,-0.00009890,-0.00005514,-0.00018061,-0.00028137,0.0
 0000551,-0.00001717,-0.00044331,0.00073095,0.00099646,-0.00046940,0.00
 262833,0.00840461,0.00021038,-0.00059647,-0.00034461,-0.00110248,0.001
 52523,0.00589472,0.00335014,0.00265569,0.00826814,-0.00713378,-0.00134
 150,-0.04283517,-0.00640504,-0.00397724,-0.00254507,0.00001553,-0.0003
 2246,-0.00001444,-0.00006381,-0.00002031,0.00012843,-0.00004180,-0.000
 00816,-0.00004037,0.00000735,-0.00002326,-0.00000101,0.00000108,0.0000
 0448,-0.00001031,-0.00000042,-0.00000637,0.00000119,0.00001925,-0.0000
 1579,-0.00000919,-0.00002712,0.00003227,0.00001670,0.00001232,-0.00000
 608,0.00000728,0.00009440,-0.00019734,-0.00103264,0.00025011,-0.000086
 19,-0.00087537,0.00034727,-0.00051306,-0.00303264,0.01162051,-0.000342
 43,0.02781449,0.00124365,-0.00441182,-0.00235839,-0.00079230,-0.000085
 46,-0.00057652,-0.00383546,-0.00476642,-0.00011388,-0.00256448,-0.0040
 4741,0.02670905,0.00031722,0.00152602,0.00104270,-0.00018671,-0.000154
 14,-0.00016883,-0.00027024,0.00031194,0.00008322,0.00021958,0.00024152
 ,-0.00025703,0.00009971,-0.00016737,0.00004847,-0.00007464,0.00005320,
 -0.00001028,0.00001648,0.00001439,0.00001841,0.00003765,0.00001930,-0.
 00008529,-0.00006891,-0.00014459,-0.00007041,-0.00001506,0.00012314,0.
 00029606,0.00037839,-0.00033684,0.00048990,-0.05127762,-0.01955647,0.0
 2633759,0.00651177,0.00582919,-0.01440384,0.00049588,-0.00015382,-0.00
 063154,-0.00014899,0.00038471,0.00000926,-0.00022741,0.00042575,0.0011
 0914,-0.00045813,-0.00016200,-0.00061289,-0.00001147,-0.00000208,0.000
 01303,0.00008280,0.00010458,0.00000417,0.00001360,-0.00001526,-0.00002
 503,-0.00000409,0.00000584,0.00000113,-0.00001506,-0.00000727,0.000023
 80,-0.00001668,0.00002792,0.00002489,0.05157498,-0.00476721,0.00158922
 ,-0.00300256,-0.00182984,-0.00210340,-0.00024398,-0.00267906,0.0026628
 3,0.00285438,0.00538899,0.00073004,0.00739122,0.00062149,-0.00131692,0
 .00024707,-0.00014589,0.00013577,0.00018931,0.00048897,0.00018619,-0.0
 0042132,-0.00036429,-0.00085083,0.00075068,-0.00010567,0.00034522,-0.0
 0009965,-0.00000270,-0.00010471,0.00001549,0.00001486,-0.00003580,-0.0
 0002008,-0.00010516,-0.00011728,0.00013272,0.00005130,0.00032768,0.000
 08776,0.00015372,-0.00031970,-0.00046440,-0.00077229,0.00022577,-0.000
 82629,-0.02327217,-0.04251710,0.05586258,0.00316656,0.00405141,-0.0192
 8036,0.00045516,-0.00013441,-0.00065690,0.00023113,-0.00041688,-0.0000
 1011,-0.00030496,0.00079805,0.00033071,-0.00046907,-0.00018104,0.00010
 102,0.00003011,0.00001234,-0.00006000,0.00004736,0.00003577,-0.0000035
 1,-0.00001833,-0.00000687,0.00004326,-0.00000190,-0.00001224,-0.000003
 37,0.00003043,0.00000250,-0.00003568,0.00002703,-0.00002738,-0.0000445
 3,0.01941487,0.04478442,-0.00401864,-0.00143083,-0.00034007,-0.0002933
 1,-0.00015274,0.00039292,0.00074802,0.00190283,0.00193511,0.00203463,0
 .00107080,-0.00547546,-0.00002457,-0.00125881,0.00012112,0.00037897,-0
 .00005794,-0.00002553,-0.00030989,-0.00038193,0.00011773,-0.00026506,0
 .00058149,-0.00016037,-0.00006361,-0.00003196,0.00005949,0.00006545,0.
 00001248,0.00000382,-0.00005458,0.00001019,-0.00000838,0.00001909,0.00
 009201,-0.00003121,0.00009217,-0.00006158,0.00002376,-0.00017014,0.000
 33072,0.00005770,-0.00076933,-0.00177410,0.00063056,0.03318429,0.04461
 927,-0.30971139,0.00344970,0.00393037,-0.01462414,0.00049553,0.0000461
 6,-0.00053400,0.00007506,-0.00009232,-0.00004917,-0.00018948,-0.000022
 99,-0.00019140,-0.00006774,0.00006109,0.00041027,-0.00000290,0.0000131
 4,-0.00000350,-0.00000717,0.00002236,0.00000259,0.00000108,0.00001436,
 -0.00000325,0.00000174,0.00000304,0.00000563,-0.00000340,0.00000943,0.
 00000401,-0.00000628,0.00000239,0.00001517,-0.03426094,-0.04892918,0.3
 2864084,-0.00018085,-0.00423072,0.00154413,0.00241346,-0.00356957,0.00
 168591,0.00056974,0.00097299,0.00068536,0.00250263,-0.00391670,-0.0028
 7031,-0.00043938,-0.00068463,0.00055054,-0.00005783,0.00001006,-0.0002
 7673,0.00007334,-0.00002680,-0.00004174,-0.00003356,-0.00019100,0.0002
 2954,-0.00000559,0.00004106,-0.00004991,-0.00000926,-0.00002919,-0.000
 00858,0.00001020,-0.00000731,0.00000229,-0.00003769,-0.00005647,0.0000
 1715,-0.00000112,0.00011686,0.00001505,-0.00000150,-0.00007512,-0.0000
 0793,0.00003258,0.00045303,0.00005086,-0.00862920,-0.00508283,0.006357
 54,-0.24233703,-0.12133901,0.07231351,-0.00075707,0.00234310,-0.000521
 94,-0.00030684,0.00030349,-0.00019283,-0.00034717,0.00049531,-0.000105
 15,0.00000162,0.00006429,0.00002604,-0.00003998,-0.00005419,0.00004627
 ,-0.00001826,-0.00000797,0.00000440,-0.00000248,-0.00000339,0.00000578
 ,-0.00000065,-0.00000126,0.,0.00000748,0.00000089,-0.00000896,0.000006
 88,0.00001065,-0.00000945,-0.00034122,0.00164986,0.00051919,0.24769994
 ,0.00141070,0.00672987,-0.00345506,-0.00237357,0.00522848,-0.00187750,
 0.00039669,-0.00057348,-0.00009134,-0.00254152,0.00375480,-0.00279556,
 -0.00077497,0.00067342,-0.00002401,-0.00005176,-0.00000112,0.00000105,
 0.00011012,0.00000684,-0.00007438,-0.00001474,-0.00014383,0.00007866,-
 0.00004368,0.00000158,0.00001790,-0.00000243,0.00001132,0.00000564,0.0
 0000164,-0.00000754,-0.00000167,0.00003305,0.00002362,0.00000197,0.000
 01077,-0.00008568,0.00000084,0.00002601,0.00013023,0.00000376,-0.00005
 437,0.00014180,-0.00003221,-0.01115910,-0.00520739,0.00510049,-0.12170
 620,-0.11292485,0.04596485,0.00190193,-0.00248839,0.00056919,0.0004832
 3,-0.00054764,0.00002652,0.00041154,-0.00069534,0.00019169,-0.00000827
 ,-0.00009451,-0.00003036,-0.00000796,-0.00001739,-0.00000313,0.0000215
 5,-0.00000616,0.00000976,-0.00000267,-0.00000131,-0.00000248,0.0000014
 3,-0.00000394,0.00000027,0.00000159,-0.00000383,0.00000122,0.00000874,
 -0.00003109,0.00000094,0.00191977,-0.00172261,-0.00057332,0.13304350,0
 .10889865,0.02466775,0.01473866,-0.00325219,0.00144317,-0.00153059,-0.
 00547960,-0.00026011,-0.00014091,-0.00036955,-0.00138844,-0.00284490,-
 0.00303050,-0.00086836,-0.00044034,0.00049544,-0.00005085,-0.00005998,
 -0.00028852,0.00012229,-0.00007915,-0.00003808,-0.00010710,-0.00013518
 ,0.00015087,-0.00000622,0.00000248,-0.00000778,0.00000577,-0.00000822,
 0.00000280,-0.00000092,-0.00000080,-0.00000141,-0.00001157,-0.00000785
 ,0.00001478,0.00001314,0.00004836,0.00001760,-0.00006456,-0.00003904,-
 0.00008119,-0.00002220,0.00028604,-0.00003257,-0.01857347,-0.01055129,
 0.01042586,0.07458270,0.04197834,-0.08817343,-0.00049035,0.00042188,0.
 00113692,0.00111418,0.00058762,-0.00006222,-0.00005711,0.00013873,0.00
 005610,0.00000561,0.00000233,0.00001195,-0.00004820,-0.00007289,0.0000
 3307,0.00000999,-0.00000417,0.00001102,-0.00000174,0.00000284,0.000005
 79,0.00000094,-0.00000036,0.00000017,0.00000255,0.00000282,-0.00000295
 ,0.00000342,0.00000309,0.00000522,0.00002137,0.00060612,0.00095563,-0.
 08007511,-0.04279303,0.08704872,-0.00009017,0.00047794,-0.00262411,-0.
 00161926,-0.00118310,-0.00075135,-0.00054134,0.00139919,0.00513009,-0.
 00751501,0.00838929,0.00067513,-0.00984998,0.00042974,-0.00058048,-0.0
 0069858,0.00037306,-0.00166169,0.00465927,0.00184826,-0.00188999,-0.01
 378519,-0.01871900,0.00017283,0.00232146,-0.00779803,0.00161323,-0.002
 44326,-0.00081224,-0.00010404,0.00018576,-0.00012353,0.00006493,-0.001
 88152,-0.00064050,-0.00051281,0.00024171,0.00853486,-0.00124484,-0.016
 53958,0.00813128,-0.00159916,-0.06054589,-0.01870871,-0.02099053,-0.01
 152689,0.00660694,-0.00142668,0.00050149,0.00132524,0.00312293,-0.0000
 1775,0.00024846,-0.00008306,0.00000840,-0.00029488,0.00003213,0.000067
 64,-0.00020362,0.00001621,-0.00014320,0.00008440,0.00019798,-0.0001864
 3,-0.00013458,0.00024334,0.00020152,0.00019111,-0.00003486,0.00014564,
 -0.00047472,-0.00000723,-0.00011497,0.00003889,0.00002965,0.00007129,0
 .00013711,-0.00003450,-0.00069951,0.00106927,0.00012274,-0.00068321,0.
 00306670,-0.00055788,0.00022882,-0.00104104,0.00003342,0.12024874,-0.0
 0214128,-0.00082281,-0.00031598,0.00263645,0.00125321,0.00024019,-0.00
 050676,-0.00128199,-0.00162003,0.00936168,0.00057445,-0.00040093,0.003
 69717,0.00488849,0.00195179,0.00044499,0.00008536,-0.00139314,0.002725
 79,-0.00315403,0.00232786,-0.01947176,0.00009331,-0.00695622,-0.008854
 47,-0.01671918,0.00135038,-0.00028244,0.00366475,-0.00023991,0.0007730
 7,-0.00034943,0.00005469,0.00035791,0.00306627,-0.00034089,0.00952079,
 -0.00590153,0.00112548,0.00201471,-0.05823401,0.00272765,-0.01799640,-
 0.02421338,-0.00573925,0.00766072,-0.02006709,0.00110340,-0.00192207,-
 0.00468404,-0.00173873,-0.00033167,0.00017451,-0.00003436,-0.00004745,
 -0.00007084,-0.00016980,-0.00010295,0.00006157,0.00027175,0.00035178,-
 0.00068585,-0.00031961,-0.00000903,-0.00037199,0.00002826,0.00048212,0
 .00038573,0.00006820,-0.00017150,0.00039077,-0.00005125,0.00007051,-0.
 00021915,-0.00000149,0.00018133,0.00044867,0.00013638,0.00039668,0.000
 05985,0.00001584,0.00360881,-0.00602003,0.00204558,-0.00022894,-0.0010
 4448,-0.00011063,0.00778221,0.12869286,0.00038139,0.00058131,-0.003162
 54,0.00106556,-0.00029006,-0.00049336,0.00002380,0.00019303,-0.0031445
 5,0.00145641,-0.00037157,0.00040529,0.00063547,0.00324991,0.00166385,0
 .00090431,-0.00027020,-0.00110027,0.00292721,0.00180584,-0.00057266,0.
 00041098,-0.00239529,0.00006214,0.00162158,0.00038192,0.00157989,-0.00
 067889,0.00055965,0.00153317,0.00062035,-0.00002612,-0.00021327,-0.000
 66912,-0.00013254,0.00218789,-0.00072226,0.00114498,-0.00025825,-0.001
 60997,-0.00009665,-0.01475412,-0.02622928,-0.01215471,-0.01052621,0.00
 038203,-0.00292094,-0.00054754,-0.00043019,-0.00081532,-0.00024018,-0.
 00021029,0.00032198,-0.00018822,0.00010001,-0.00020769,0.00006420,0.00
 001857,0.00002148,-0.00005086,-0.00051687,-0.00002173,0.00000799,0.000
 00811,-0.00009595,0.00003300,0.00034285,0.00045922,-0.00004565,-0.0000
 0204,-0.00005464,0.00024091,0.00002637,-0.00001590,-0.00033241,-0.0000
 2890,0.00002522,0.00019098,0.00006645,-0.00012892,-0.00067153,-0.00265
 732,0.00548960,-0.00221849,0.00011510,-0.00022070,0.00044804,0.0226485
 9,0.00598479,0.03010279\\-0.00000519,-0.00000381,0.00000052,0.00000378
 ,0.00000468,0.00000604,-0.00000301,-0.00000519,-0.00000240,0.00000982,
 0.00001631,-0.00000490,0.00001352,-0.00000622,0.00000220,-0.00000145,-
 0.00001739,-0.00000624,-0.00002545,0.00000215,0.00000895,0.00002689,0.
 00000320,-0.00000783,-0.00000683,-0.00000468,0.00000479,0.00000144,0.0
 0000239,-0.00000386,-0.00000023,-0.00000769,0.00000154,-0.00000207,0.0
 0000523,-0.00000164,-0.00000054,-0.00001724,-0.00000518,0.00000828,0.0
 0002655,0.00000824,-0.00000952,0.00000754,0.00000057,0.00000498,-0.000
 01603,0.00000163,-0.00000290,-0.00000191,-0.00000011,0.00000152,-0.000
 00036,-0.00000141,0.00000019,0.00000007,-0.00000036,-0.00000062,0.0000
 0095,-0.00000241,-0.00000163,0.00000225,-0.00000066,0.00000199,0.00000
 139,0.00000173,0.00000168,0.00000052,0.00000010,-0.00000195,0.00000298
 ,0.00000082,0.00000089,0.00000077,0.00000022,0.00000118,0.00000098,-0.
 00000150,-0.00000056,0.00000094,0.00000533,-0.00000443,0.00000392,-0.0
 0000141,0.00000071,0.00000147,0.00000185,-0.00001050,-0.00000378,-0.00
 000462\\\@
 The archive entry for this job was punched.


 NO HUMAN INVESTIGATION CAN BECOME REAL SCIENCE
 WITHOUT GOING THROUGH MATHEMATICAL PEOPLE.
 -- LEONARDO DA VINCI, IN "PENSIERI" CA. 1492
 Job cpu time:       0 days  1 hours 28 minutes 36.3 seconds.
 Elapsed time:       0 days  0 hours  2 minutes 48.2 seconds.
 File lengths (MBytes):  RWF=    641 Int=      0 D2E=      0 Chk=     12 Scr=      2
 Normal termination of Gaussian 16 at Thu Mar 14 19:07:25 2024.
