 Entering Gaussian System, Link 0=g16
 Initial command:
 /public/software/apps/Gaussian/g16/l1.exe "/tmp/Gau-89404.inp" -scrdir="/tmp/"
 Entering Link 1 = /public/software/apps/Gaussian/g16/l1.exe PID=     89405.
  
 Copyright (c) 1988-2019, Gaussian, Inc.  All Rights Reserved.
  
 This is part of the Gaussian(R) 16 program.  It is based on
 the Gaussian(R) 09 system (copyright 2009, Gaussian, Inc.),
 the Gaussian(R) 03 system (copyright 2003, Gaussian, Inc.),
 the Gaussian(R) 98 system (copyright 1998, Gaussian, Inc.),
 the Gaussian(R) 94 system (copyright 1995, Gaussian, Inc.),
 the Gaussian 92(TM) system (copyright 1992, Gaussian, Inc.),
 the Gaussian 90(TM) system (copyright 1990, Gaussian, Inc.),
 the Gaussian 88(TM) system (copyright 1988, Gaussian, Inc.),
 the Gaussian 86(TM) system (copyright 1986, Carnegie Mellon
 University), and the Gaussian 82(TM) system (copyright 1983,
 Carnegie Mellon University). Gaussian is a federally registered
 trademark of Gaussian, Inc.
  
 This software contains proprietary and confidential information,
 including trade secrets, belonging to Gaussian, Inc.
  
 This software is provided under written license and may be
 used, copied, transmitted, or stored only in accord with that
 written license.
  
 The following legend is applicable only to US Government
 contracts under FAR:
  
                    RESTRICTED RIGHTS LEGEND
  
 Use, reproduction and disclosure by the US Government is
 subject to restrictions as set forth in subparagraphs (a)
 and (c) of the Commercial Computer Software - Restricted
 Rights clause in FAR 52.227-19.
  
 Gaussian, Inc.
 340 Quinnipiac St., Bldg. 40, Wallingford CT 06492
  
  
 ---------------------------------------------------------------
 Warning -- This program may not be used in any manner that
 competes with the business of Gaussian, Inc. or will provide
 assistance to any competitor of Gaussian, Inc.  The licensee
 of this program is prohibited from giving any competitor of
 Gaussian, Inc. access to this program.  By using this program,
 the user acknowledges that Gaussian, Inc. is engaged in the
 business of creating and licensing software in the field of
 computational chemistry and represents and warrants to the
 licensee that it is not a competitor of Gaussian, Inc. and that
 it will not use this program in any manner prohibited above.
 ---------------------------------------------------------------
  

 Cite this work as:
 Gaussian 16, Revision C.01,
 M. J. Frisch, G. W. Trucks, H. B. Schlegel, G. E. Scuseria, 
 M. A. Robb, J. R. Cheeseman, G. Scalmani, V. Barone, 
 G. A. Petersson, H. Nakatsuji, X. Li, M. Caricato, A. V. Marenich, 
 J. Bloino, B. G. Janesko, R. Gomperts, B. Mennucci, H. P. Hratchian, 
 J. V. Ortiz, A. F. Izmaylov, J. L. Sonnenberg, D. Williams-Young, 
 F. Ding, F. Lipparini, F. Egidi, J. Goings, B. Peng, A. Petrone, 
 T. Henderson, D. Ranasinghe, V. G. Zakrzewski, J. Gao, N. Rega, 
 G. Zheng, W. Liang, M. Hada, M. Ehara, K. Toyota, R. Fukuda, 
 J. Hasegawa, M. Ishida, T. Nakajima, Y. Honda, O. Kitao, H. Nakai, 
 T. Vreven, K. Throssell, J. A. Montgomery, Jr., J. E. Peralta, 
 F. Ogliaro, M. J. Bearpark, J. J. Heyd, E. N. Brothers, K. N. Kudin, 
 V. N. Staroverov, T. A. Keith, R. Kobayashi, J. Normand, 
 K. Raghavachari, A. P. Rendell, J. C. Burant, S. S. Iyengar, 
 J. Tomasi, M. Cossi, J. M. Millam, M. Klene, C. Adamo, R. Cammi, 
 J. W. Ochterski, R. L. Martin, K. Morokuma, O. Farkas, 
 J. B. Foresman, and D. J. Fox, Gaussian, Inc., Wallingford CT, 2019.
 
 ******************************************
 Gaussian 16:  ES64L-G16RevC.01  3-Jul-2019
                 1-Aug-2024 
 ******************************************
 %nprocshared=32
 Will use up to   32 processors via shared memory.
 %mem=100GB
 ------------------------------------------
 #p opt freq b3lyp/def2svpp em=gd3bj nosymm
 ------------------------------------------
 1/18=20,19=15,26=3,38=1/1,3;
 2/9=110,12=2,15=1,17=6,18=5,40=1/2;
 3/5=43,7=202,11=2,25=1,30=1,71=1,74=-5,124=41/1,2,3;
 4//1;
 5/5=2,38=5/2;
 6/7=2,8=2,9=2,10=2,28=1/1;
 7/30=1/1,2,3,16;
 1/18=20,19=15,26=3/3(2);
 2/9=110,15=1/2;
 99//99;
 2/9=110,15=1/2;
 3/5=43,7=202,11=2,25=1,30=1,71=1,74=-5,124=41/1,2,3;
 4/5=5,16=3,69=1/1;
 5/5=2,38=5/2;
 7/30=1/1,2,3,16;
 1/18=20,19=15,26=3/3(-5);
 2/9=110,15=1/2;
 6/7=2,8=2,9=2,10=2,19=2,28=1/1;
 99/9=1/99;
 Leave Link    1 at Thu Aug  1 10:47:04 2024, MaxMem= 13421772800 cpu:               0.7 elap:               0.0
 (Enter /public/software/apps/Gaussian/g16/l101.exe)
 ------------------
 $$$$Title####2????
 ------------------
 Symbolic Z-matrix:
 Charge =  2 Multiplicity = 2
 C                     4.97251   1.01821   2.80519 
 C                     4.54978  -0.29611   3.07392 
 C                     3.69483  -0.95855   2.17985 
 C                     3.2769   -0.28692   1.0278 
 C                     3.68897   0.99753   0.76524 
 C                     4.54156   1.67387   1.64155 
 C                     3.13727   1.51741  -0.50956 
 C                     2.2554    0.36345  -1.03037 
 O                     0.88025   0.70139  -0.96381 
 C                     0.23815  -0.14246  -0.07633 
 C                    -1.19534  -0.05231   0.27075 
 N                    -1.55131  -0.41825   1.53353 
 C                    -2.82247  -0.32036   1.9967 
 C                    -3.82832   0.18086   1.17719 
 C                    -3.5249    0.55165  -0.13729 
 C                    -4.53859   1.03297  -0.98067 
 C                    -4.25248   1.36492  -2.30475 
 C                    -2.95964   1.20582  -2.80185 
 C                    -1.93809   0.73143  -1.97472 
 C                    -2.1952    0.42266  -0.62089 
 N                     1.02679  -0.99606   0.48234 
 C                     2.37772  -0.80779  -0.02988 
 H                     5.63249   1.52512   3.49708 
 H                     4.88472  -0.79799   3.97234 
 H                     3.36531  -1.96978   2.38073 
 H                     4.86485   2.6846    1.42832 
 H                     3.96424   1.72825  -1.22095 
 H                     2.54381   2.4396   -0.32839 
 H                     2.53167   0.058    -2.06302 
 H                    -3.04925  -0.62225   3.01046 
 H                    -4.83768   0.26404   1.56265 
 H                    -5.55377   1.14357  -0.61796 
 H                    -5.03878   1.73132  -2.95212 
 H                    -2.74919   1.44186  -3.83715 
 H                    -0.9684    0.58364  -2.42204 
 H                     2.76901  -1.7363   -0.49854 
 Cu                   -0.14219  -1.73854   1.86888 
 
 ITRead=  0  0  0  0  0  0  0  0  0  0  0  0  0  0  0  0  0  0  0  0
 ITRead=  0  0  0  0  0  0  0  0  0  0  0  0  0  0  0  0  0
 MicOpt= -1 -1 -1 -1 -1 -1 -1 -1 -1 -1 -1 -1 -1 -1 -1 -1 -1 -1 -1 -1
 MicOpt= -1 -1 -1 -1 -1 -1 -1 -1 -1 -1 -1 -1 -1 -1 -1 -1 -1
 NAtoms=     37 NQM=       37 NQMF=       0 NMMI=      0 NMMIF=      0
                NMic=       0 NMicF=      0.
                    Isotopes and Nuclear Properties:
 (Nuclear quadrupole moments (NQMom) in fm**2, nuclear magnetic moments (NMagM)
  in nuclear magnetons)

  Atom         1           2           3           4           5           6           7           8           9          10
 IAtWgt=          12          12          12          12          12          12          12          12          16          12
 AtmWgt=  12.0000000  12.0000000  12.0000000  12.0000000  12.0000000  12.0000000  12.0000000  12.0000000  15.9949146  12.0000000
 NucSpn=           0           0           0           0           0           0           0           0           0           0
 AtZEff=  -0.0000000  -0.0000000  -0.0000000  -0.0000000  -0.0000000  -0.0000000  -0.0000000  -0.0000000  -0.0000000  -0.0000000
 NQMom=    0.0000000   0.0000000   0.0000000   0.0000000   0.0000000   0.0000000   0.0000000   0.0000000   0.0000000   0.0000000
 NMagM=    0.0000000   0.0000000   0.0000000   0.0000000   0.0000000   0.0000000   0.0000000   0.0000000   0.0000000   0.0000000
 AtZNuc=   6.0000000   6.0000000   6.0000000   6.0000000   6.0000000   6.0000000   6.0000000   6.0000000   8.0000000   6.0000000

  Atom        11          12          13          14          15          16          17          18          19          20
 IAtWgt=          12          14          12          12          12          12          12          12          12          12
 AtmWgt=  12.0000000  14.0030740  12.0000000  12.0000000  12.0000000  12.0000000  12.0000000  12.0000000  12.0000000  12.0000000
 NucSpn=           0           2           0           0           0           0           0           0           0           0
 AtZEff=  -0.0000000  -0.0000000  -0.0000000  -0.0000000  -0.0000000  -0.0000000  -0.0000000  -0.0000000  -0.0000000  -0.0000000
 NQMom=    0.0000000   2.0440000   0.0000000   0.0000000   0.0000000   0.0000000   0.0000000   0.0000000   0.0000000   0.0000000
 NMagM=    0.0000000   0.4037610   0.0000000   0.0000000   0.0000000   0.0000000   0.0000000   0.0000000   0.0000000   0.0000000
 AtZNuc=   6.0000000   7.0000000   6.0000000   6.0000000   6.0000000   6.0000000   6.0000000   6.0000000   6.0000000   6.0000000

  Atom        21          22          23          24          25          26          27          28          29          30
 IAtWgt=          14          12           1           1           1           1           1           1           1           1
 AtmWgt=  14.0030740  12.0000000   1.0078250   1.0078250   1.0078250   1.0078250   1.0078250   1.0078250   1.0078250   1.0078250
 NucSpn=           2           0           1           1           1           1           1           1           1           1
 AtZEff=  -0.0000000  -0.0000000  -0.0000000  -0.0000000  -0.0000000  -0.0000000  -0.0000000  -0.0000000  -0.0000000  -0.0000000
 NQMom=    2.0440000   0.0000000   0.0000000   0.0000000   0.0000000   0.0000000   0.0000000   0.0000000   0.0000000   0.0000000
 NMagM=    0.4037610   0.0000000   2.7928460   2.7928460   2.7928460   2.7928460   2.7928460   2.7928460   2.7928460   2.7928460
 AtZNuc=   7.0000000   6.0000000   1.0000000   1.0000000   1.0000000   1.0000000   1.0000000   1.0000000   1.0000000   1.0000000

  Atom        31          32          33          34          35          36          37
 IAtWgt=           1           1           1           1           1           1          63
 AtmWgt=   1.0078250   1.0078250   1.0078250   1.0078250   1.0078250   1.0078250  62.9295992
 NucSpn=           1           1           1           1           1           1           3
 AtZEff=  -0.0000000  -0.0000000  -0.0000000  -0.0000000  -0.0000000  -0.0000000  -0.0000000
 NQMom=    0.0000000   0.0000000   0.0000000   0.0000000   0.0000000   0.0000000 -22.0000000
 NMagM=    2.7928460   2.7928460   2.7928460   2.7928460   2.7928460   2.7928460   2.2233000
 AtZNuc=   1.0000000   1.0000000   1.0000000   1.0000000   1.0000000   1.0000000  29.0000000
 Leave Link  101 at Thu Aug  1 10:47:04 2024, MaxMem= 13421772800 cpu:               3.9 elap:               0.1
 (Enter /public/software/apps/Gaussian/g16/l103.exe)

 GradGradGradGradGradGradGradGradGradGradGradGradGradGradGradGradGradGrad
 Berny optimization.
 Initialization pass.
                           ----------------------------
                           !    Initial Parameters    !
                           ! (Angstroms and Degrees)  !
 --------------------------                            --------------------------
 ! Name  Definition              Value          Derivative Info.                !
 --------------------------------------------------------------------------------
 ! R1    R(1,2)                  1.4065         estimate D2E/DX2                !
 ! R2    R(1,6)                  1.4034         estimate D2E/DX2                !
 ! R3    R(1,23)                 1.0822         estimate D2E/DX2                !
 ! R4    R(2,3)                  1.4033         estimate D2E/DX2                !
 ! R5    R(2,24)                 1.0822         estimate D2E/DX2                !
 ! R6    R(3,4)                  1.3975         estimate D2E/DX2                !
 ! R7    R(3,25)                 1.0824         estimate D2E/DX2                !
 ! R8    R(4,5)                  1.3742         estimate D2E/DX2                !
 ! R9    R(4,22)                 1.4827         estimate D2E/DX2                !
 ! R10   R(5,6)                  1.3972         estimate D2E/DX2                !
 ! R11   R(5,7)                  1.4832         estimate D2E/DX2                !
 ! R12   R(6,26)                 1.0824         estimate D2E/DX2                !
 ! R13   R(7,8)                  1.5429         estimate D2E/DX2                !
 ! R14   R(7,27)                 1.111          estimate D2E/DX2                !
 ! R15   R(7,28)                 1.1115         estimate D2E/DX2                !
 ! R16   R(8,9)                  1.4176         estimate D2E/DX2                !
 ! R17   R(8,22)                 1.5452         estimate D2E/DX2                !
 ! R18   R(8,29)                 1.1118         estimate D2E/DX2                !
 ! R19   R(9,10)                 1.3827         estimate D2E/DX2                !
 ! R20   R(10,11)                1.4777         estimate D2E/DX2                !
 ! R21   R(10,21)                1.2895         estimate D2E/DX2                !
 ! R22   R(11,12)                1.3621         estimate D2E/DX2                !
 ! R23   R(11,20)                1.4214         estimate D2E/DX2                !
 ! R24   R(12,13)                1.3564         estimate D2E/DX2                !
 ! R25   R(12,37)                1.9599         estimate D2E/DX2                !
 ! R26   R(13,14)                1.3909         estimate D2E/DX2                !
 ! R27   R(13,30)                1.0818         estimate D2E/DX2                !
 ! R28   R(14,15)                1.3991         estimate D2E/DX2                !
 ! R29   R(14,31)                1.0836         estimate D2E/DX2                !
 ! R30   R(15,16)                1.4038         estimate D2E/DX2                !
 ! R31   R(15,20)                1.4208         estimate D2E/DX2                !
 ! R32   R(16,17)                1.3947         estimate D2E/DX2                !
 ! R33   R(16,32)                1.0837         estimate D2E/DX2                !
 ! R34   R(17,18)                1.3942         estimate D2E/DX2                !
 ! R35   R(17,33)                1.0824         estimate D2E/DX2                !
 ! R36   R(18,19)                1.3974         estimate D2E/DX2                !
 ! R37   R(18,34)                1.0825         estimate D2E/DX2                !
 ! R38   R(19,20)                1.4122         estimate D2E/DX2                !
 ! R39   R(19,35)                1.0781         estimate D2E/DX2                !
 ! R40   R(21,22)                1.457          estimate D2E/DX2                !
 ! R41   R(21,37)                1.9597         estimate D2E/DX2                !
 ! R42   R(22,36)                1.1113         estimate D2E/DX2                !
 ! A1    A(2,1,6)              120.1765         estimate D2E/DX2                !
 ! A2    A(2,1,23)             119.9218         estimate D2E/DX2                !
 ! A3    A(6,1,23)             119.9016         estimate D2E/DX2                !
 ! A4    A(1,2,3)              120.166          estimate D2E/DX2                !
 ! A5    A(1,2,24)             119.9289         estimate D2E/DX2                !
 ! A6    A(3,2,24)             119.9052         estimate D2E/DX2                !
 ! A7    A(2,3,4)              118.7224         estimate D2E/DX2                !
 ! A8    A(2,3,25)             120.5494         estimate D2E/DX2                !
 ! A9    A(4,3,25)             120.7281         estimate D2E/DX2                !
 ! A10   A(3,4,5)              121.1331         estimate D2E/DX2                !
 ! A11   A(3,4,22)             126.9113         estimate D2E/DX2                !
 ! A12   A(5,4,22)             111.9554         estimate D2E/DX2                !
 ! A13   A(4,5,6)              121.0354         estimate D2E/DX2                !
 ! A14   A(4,5,7)              112.3525         estimate D2E/DX2                !
 ! A15   A(6,5,7)              126.6103         estimate D2E/DX2                !
 ! A16   A(1,6,5)              118.7664         estimate D2E/DX2                !
 ! A17   A(1,6,26)             120.5221         estimate D2E/DX2                !
 ! A18   A(5,6,26)             120.7115         estimate D2E/DX2                !
 ! A19   A(5,7,8)              103.9205         estimate D2E/DX2                !
 ! A20   A(5,7,27)             109.8765         estimate D2E/DX2                !
 ! A21   A(5,7,28)             110.4463         estimate D2E/DX2                !
 ! A22   A(8,7,27)             110.5625         estimate D2E/DX2                !
 ! A23   A(8,7,28)             111.7383         estimate D2E/DX2                !
 ! A24   A(27,7,28)            110.1409         estimate D2E/DX2                !
 ! A25   A(7,8,9)              111.1187         estimate D2E/DX2                !
 ! A26   A(7,8,22)             107.6435         estimate D2E/DX2                !
 ! A27   A(7,8,29)             112.1472         estimate D2E/DX2                !
 ! A28   A(9,8,22)             103.1248         estimate D2E/DX2                !
 ! A29   A(9,8,29)             110.4975         estimate D2E/DX2                !
 ! A30   A(22,8,29)            111.9302         estimate D2E/DX2                !
 ! A31   A(8,9,10)             109.5791         estimate D2E/DX2                !
 ! A32   A(9,10,11)            124.3334         estimate D2E/DX2                !
 ! A33   A(9,10,21)            113.4568         estimate D2E/DX2                !
 ! A34   A(11,10,21)           122.1367         estimate D2E/DX2                !
 ! A35   A(10,11,12)           117.0591         estimate D2E/DX2                !
 ! A36   A(10,11,20)           123.7419         estimate D2E/DX2                !
 ! A37   A(12,11,20)           119.1768         estimate D2E/DX2                !
 ! A38   A(11,12,13)           122.8263         estimate D2E/DX2                !
 ! A39   A(11,12,37)            98.7265         estimate D2E/DX2                !
 ! A40   A(13,12,37)           131.6019         estimate D2E/DX2                !
 ! A41   A(12,13,14)           120.167          estimate D2E/DX2                !
 ! A42   A(12,13,30)           119.7556         estimate D2E/DX2                !
 ! A43   A(14,13,30)           120.0732         estimate D2E/DX2                !
 ! A44   A(13,14,15)           119.4879         estimate D2E/DX2                !
 ! A45   A(13,14,31)           119.4506         estimate D2E/DX2                !
 ! A46   A(15,14,31)           121.0552         estimate D2E/DX2                !
 ! A47   A(14,15,16)           119.9163         estimate D2E/DX2                !
 ! A48   A(14,15,20)           119.9144         estimate D2E/DX2                !
 ! A49   A(16,15,20)           120.1635         estimate D2E/DX2                !
 ! A50   A(15,16,17)           120.255          estimate D2E/DX2                !
 ! A51   A(15,16,32)           120.689          estimate D2E/DX2                !
 ! A52   A(17,16,32)           119.0537         estimate D2E/DX2                !
 ! A53   A(16,17,18)           120.1021         estimate D2E/DX2                !
 ! A54   A(16,17,33)           119.956          estimate D2E/DX2                !
 ! A55   A(18,17,33)           119.9343         estimate D2E/DX2                !
 ! A56   A(17,18,19)           120.3694         estimate D2E/DX2                !
 ! A57   A(17,18,34)           119.761          estimate D2E/DX2                !
 ! A58   A(19,18,34)           119.8667         estimate D2E/DX2                !
 ! A59   A(18,19,20)           120.5685         estimate D2E/DX2                !
 ! A60   A(18,19,35)           117.289          estimate D2E/DX2                !
 ! A61   A(20,19,35)           122.1115         estimate D2E/DX2                !
 ! A62   A(11,20,15)           118.3704         estimate D2E/DX2                !
 ! A63   A(11,20,19)           123.118          estimate D2E/DX2                !
 ! A64   A(15,20,19)           118.4799         estimate D2E/DX2                !
 ! A65   A(10,21,22)           109.2219         estimate D2E/DX2                !
 ! A66   A(10,21,37)           101.1002         estimate D2E/DX2                !
 ! A67   A(22,21,37)           148.2984         estimate D2E/DX2                !
 ! A68   A(4,22,8)             104.0991         estimate D2E/DX2                !
 ! A69   A(4,22,21)            110.9106         estimate D2E/DX2                !
 ! A70   A(4,22,36)            112.3844         estimate D2E/DX2                !
 ! A71   A(8,22,21)            104.6059         estimate D2E/DX2                !
 ! A72   A(8,22,36)            112.8383         estimate D2E/DX2                !
 ! A73   A(21,22,36)           111.5172         estimate D2E/DX2                !
 ! A74   A(12,37,21)            93.0142         estimate D2E/DX2                !
 ! D1    D(6,1,2,3)             -0.0035         estimate D2E/DX2                !
 ! D2    D(6,1,2,24)           179.987          estimate D2E/DX2                !
 ! D3    D(23,1,2,3)          -179.9546         estimate D2E/DX2                !
 ! D4    D(23,1,2,24)            0.0359         estimate D2E/DX2                !
 ! D5    D(2,1,6,5)              0.0947         estimate D2E/DX2                !
 ! D6    D(2,1,6,26)          -179.8877         estimate D2E/DX2                !
 ! D7    D(23,1,6,5)          -179.9542         estimate D2E/DX2                !
 ! D8    D(23,1,6,26)            0.0634         estimate D2E/DX2                !
 ! D9    D(1,2,3,4)             -0.0472         estimate D2E/DX2                !
 ! D10   D(1,2,3,25)          -179.9705         estimate D2E/DX2                !
 ! D11   D(24,2,3,4)           179.9624         estimate D2E/DX2                !
 ! D12   D(24,2,3,25)            0.039          estimate D2E/DX2                !
 ! D13   D(2,3,4,5)              0.0053         estimate D2E/DX2                !
 ! D14   D(2,3,4,22)          -179.7858         estimate D2E/DX2                !
 ! D15   D(25,3,4,5)           179.9285         estimate D2E/DX2                !
 ! D16   D(25,3,4,22)            0.1374         estimate D2E/DX2                !
 ! D17   D(3,4,5,6)              0.0888         estimate D2E/DX2                !
 ! D18   D(3,4,5,7)            179.6394         estimate D2E/DX2                !
 ! D19   D(22,4,5,6)           179.9087         estimate D2E/DX2                !
 ! D20   D(22,4,5,7)            -0.5407         estimate D2E/DX2                !
 ! D21   D(3,4,22,8)           179.2185         estimate D2E/DX2                !
 ! D22   D(3,4,22,21)           67.2377         estimate D2E/DX2                !
 ! D23   D(3,4,22,36)          -58.3533         estimate D2E/DX2                !
 ! D24   D(5,4,22,8)            -0.5887         estimate D2E/DX2                !
 ! D25   D(5,4,22,21)         -112.5695         estimate D2E/DX2                !
 ! D26   D(5,4,22,36)          121.8395         estimate D2E/DX2                !
 ! D27   D(4,5,6,1)             -0.1379         estimate D2E/DX2                !
 ! D28   D(4,5,6,26)           179.8446         estimate D2E/DX2                !
 ! D29   D(7,5,6,1)           -179.6201         estimate D2E/DX2                !
 ! D30   D(7,5,6,26)             0.3623         estimate D2E/DX2                !
 ! D31   D(4,5,7,8)              1.414          estimate D2E/DX2                !
 ! D32   D(4,5,7,27)          -116.9053         estimate D2E/DX2                !
 ! D33   D(4,5,7,28)           121.3898         estimate D2E/DX2                !
 ! D34   D(6,5,7,8)           -179.0657         estimate D2E/DX2                !
 ! D35   D(6,5,7,27)            62.615          estimate D2E/DX2                !
 ! D36   D(6,5,7,28)           -59.0899         estimate D2E/DX2                !
 ! D37   D(5,7,8,9)            110.5172         estimate D2E/DX2                !
 ! D38   D(5,7,8,22)            -1.7102         estimate D2E/DX2                !
 ! D39   D(5,7,8,29)          -125.2547         estimate D2E/DX2                !
 ! D40   D(27,7,8,9)          -131.637          estimate D2E/DX2                !
 ! D41   D(27,7,8,22)          116.1356         estimate D2E/DX2                !
 ! D42   D(27,7,8,29)           -7.4089         estimate D2E/DX2                !
 ! D43   D(28,7,8,9)            -8.579          estimate D2E/DX2                !
 ! D44   D(28,7,8,22)         -120.8065         estimate D2E/DX2                !
 ! D45   D(28,7,8,29)          115.649          estimate D2E/DX2                !
 ! D46   D(7,8,9,10)          -115.9403         estimate D2E/DX2                !
 ! D47   D(22,8,9,10)           -0.8726         estimate D2E/DX2                !
 ! D48   D(29,8,9,10)          118.9014         estimate D2E/DX2                !
 ! D49   D(7,8,22,4)             1.4296         estimate D2E/DX2                !
 ! D50   D(7,8,22,21)          117.9001         estimate D2E/DX2                !
 ! D51   D(7,8,22,36)         -120.6993         estimate D2E/DX2                !
 ! D52   D(9,8,22,4)          -116.1116         estimate D2E/DX2                !
 ! D53   D(9,8,22,21)            0.3589         estimate D2E/DX2                !
 ! D54   D(9,8,22,36)          121.7595         estimate D2E/DX2                !
 ! D55   D(29,8,22,4)          125.1062         estimate D2E/DX2                !
 ! D56   D(29,8,22,21)        -118.4233         estimate D2E/DX2                !
 ! D57   D(29,8,22,36)           2.9773         estimate D2E/DX2                !
 ! D58   D(8,9,10,11)          178.1233         estimate D2E/DX2                !
 ! D59   D(8,9,10,21)            1.1824         estimate D2E/DX2                !
 ! D60   D(9,10,11,12)        -148.0208         estimate D2E/DX2                !
 ! D61   D(9,10,11,20)          30.2499         estimate D2E/DX2                !
 ! D62   D(21,10,11,12)         28.6648         estimate D2E/DX2                !
 ! D63   D(21,10,11,20)       -153.0645         estimate D2E/DX2                !
 ! D64   D(9,10,21,22)          -0.9112         estimate D2E/DX2                !
 ! D65   D(9,10,21,37)         169.7029         estimate D2E/DX2                !
 ! D66   D(11,10,21,22)       -177.928          estimate D2E/DX2                !
 ! D67   D(11,10,21,37)         -7.3139         estimate D2E/DX2                !
 ! D68   D(10,11,12,13)        176.7234         estimate D2E/DX2                !
 ! D69   D(10,11,12,37)        -29.3289         estimate D2E/DX2                !
 ! D70   D(20,11,12,13)         -1.6296         estimate D2E/DX2                !
 ! D71   D(20,11,12,37)        152.318          estimate D2E/DX2                !
 ! D72   D(10,11,20,15)       -175.555          estimate D2E/DX2                !
 ! D73   D(10,11,20,19)          6.5283         estimate D2E/DX2                !
 ! D74   D(12,11,20,15)          2.6813         estimate D2E/DX2                !
 ! D75   D(12,11,20,19)       -175.2355         estimate D2E/DX2                !
 ! D76   D(11,12,13,14)         -0.5319         estimate D2E/DX2                !
 ! D77   D(11,12,13,30)       -179.7799         estimate D2E/DX2                !
 ! D78   D(37,12,13,14)       -145.0439         estimate D2E/DX2                !
 ! D79   D(37,12,13,30)         35.7081         estimate D2E/DX2                !
 ! D80   D(11,12,37,21)         20.9783         estimate D2E/DX2                !
 ! D81   D(13,12,37,21)        171.4044         estimate D2E/DX2                !
 ! D82   D(12,13,14,15)          1.5661         estimate D2E/DX2                !
 ! D83   D(12,13,14,31)       -179.34           estimate D2E/DX2                !
 ! D84   D(30,13,14,15)       -179.1883         estimate D2E/DX2                !
 ! D85   D(30,13,14,31)         -0.0944         estimate D2E/DX2                !
 ! D86   D(13,14,15,16)        178.7052         estimate D2E/DX2                !
 ! D87   D(13,14,15,20)         -0.4254         estimate D2E/DX2                !
 ! D88   D(31,14,15,16)         -0.3738         estimate D2E/DX2                !
 ! D89   D(31,14,15,20)       -179.5045         estimate D2E/DX2                !
 ! D90   D(14,15,16,17)       -177.9815         estimate D2E/DX2                !
 ! D91   D(14,15,16,32)          1.4497         estimate D2E/DX2                !
 ! D92   D(20,15,16,17)          1.1469         estimate D2E/DX2                !
 ! D93   D(20,15,16,32)       -179.4219         estimate D2E/DX2                !
 ! D94   D(14,15,20,11)         -1.6713         estimate D2E/DX2                !
 ! D95   D(14,15,20,19)        176.3437         estimate D2E/DX2                !
 ! D96   D(16,15,20,11)        179.2003         estimate D2E/DX2                !
 ! D97   D(16,15,20,19)         -2.7847         estimate D2E/DX2                !
 ! D98   D(15,16,17,18)          0.7209         estimate D2E/DX2                !
 ! D99   D(15,16,17,33)        179.7189         estimate D2E/DX2                !
 ! D100  D(32,16,17,18)       -178.7195         estimate D2E/DX2                !
 ! D101  D(32,16,17,33)          0.2785         estimate D2E/DX2                !
 ! D102  D(16,17,18,19)         -0.8979         estimate D2E/DX2                !
 ! D103  D(16,17,18,34)        178.4812         estimate D2E/DX2                !
 ! D104  D(33,17,18,19)       -179.8961         estimate D2E/DX2                !
 ! D105  D(33,17,18,34)         -0.517          estimate D2E/DX2                !
 ! D106  D(17,18,19,20)         -0.8084         estimate D2E/DX2                !
 ! D107  D(17,18,19,35)        177.2078         estimate D2E/DX2                !
 ! D108  D(34,18,19,20)        179.8132         estimate D2E/DX2                !
 ! D109  D(34,18,19,35)         -2.1707         estimate D2E/DX2                !
 ! D110  D(18,19,20,11)       -179.4643         estimate D2E/DX2                !
 ! D111  D(18,19,20,15)          2.6212         estimate D2E/DX2                !
 ! D112  D(35,19,20,11)          2.6173         estimate D2E/DX2                !
 ! D113  D(35,19,20,15)       -175.2973         estimate D2E/DX2                !
 ! D114  D(10,21,22,4)         111.9634         estimate D2E/DX2                !
 ! D115  D(10,21,22,8)           0.3064         estimate D2E/DX2                !
 ! D116  D(10,21,22,36)       -121.9616         estimate D2E/DX2                !
 ! D117  D(37,21,22,4)         -50.3064         estimate D2E/DX2                !
 ! D118  D(37,21,22,8)        -161.9634         estimate D2E/DX2                !
 ! D119  D(37,21,22,36)         75.7687         estimate D2E/DX2                !
 ! D120  D(10,21,37,12)         -8.194          estimate D2E/DX2                !
 ! D121  D(22,21,37,12)        154.766          estimate D2E/DX2                !
 --------------------------------------------------------------------------------
 Trust Radius=3.00D-01 FncErr=1.00D-07 GrdErr=1.00D-06 EigMax=2.50D+02 EigMin=1.00D-04
 Number of steps in this run=    222 maximum allowed number of steps=    222.
 GradGradGradGradGradGradGradGradGradGradGradGradGradGradGradGradGradGrad

 Leave Link  103 at Thu Aug  1 10:47:04 2024, MaxMem= 13421772800 cpu:               0.2 elap:               0.0
 (Enter /public/software/apps/Gaussian/g16/l202.exe)
                          Input orientation:                          
 ---------------------------------------------------------------------
 Center     Atomic      Atomic             Coordinates (Angstroms)
 Number     Number       Type             X           Y           Z
 ---------------------------------------------------------------------
      1          6           0        4.972512    1.018212    2.805193
      2          6           0        4.549777   -0.296108    3.073919
      3          6           0        3.694825   -0.958547    2.179850
      4          6           0        3.276903   -0.286921    1.027801
      5          6           0        3.688968    0.997526    0.765239
      6          6           0        4.541557    1.673871    1.641552
      7          6           0        3.137273    1.517411   -0.509563
      8          6           0        2.255395    0.363452   -1.030371
      9          8           0        0.880251    0.701391   -0.963805
     10          6           0        0.238152   -0.142461   -0.076332
     11          6           0       -1.195337   -0.052311    0.270754
     12          7           0       -1.551310   -0.418248    1.533526
     13          6           0       -2.822469   -0.320359    1.996698
     14          6           0       -3.828324    0.180863    1.177187
     15          6           0       -3.524898    0.551648   -0.137293
     16          6           0       -4.538585    1.032970   -0.980671
     17          6           0       -4.252479    1.364923   -2.304754
     18          6           0       -2.959640    1.205824   -2.801852
     19          6           0       -1.938085    0.731428   -1.974716
     20          6           0       -2.195199    0.422655   -0.620887
     21          7           0        1.026789   -0.996061    0.482335
     22          6           0        2.377717   -0.807787   -0.029876
     23          1           0        5.632491    1.525117    3.497079
     24          1           0        4.884723   -0.797986    3.972335
     25          1           0        3.365305   -1.969784    2.380733
     26          1           0        4.864850    2.684600    1.428322
     27          1           0        3.964240    1.728249   -1.220951
     28          1           0        2.543814    2.439599   -0.328394
     29          1           0        2.531667    0.057995   -2.063018
     30          1           0       -3.049254   -0.622252    3.010462
     31          1           0       -4.837680    0.264035    1.562645
     32          1           0       -5.553771    1.143565   -0.617955
     33          1           0       -5.038783    1.731318   -2.952116
     34          1           0       -2.749186    1.441855   -3.837154
     35          1           0       -0.968398    0.583639   -2.422037
     36          1           0        2.769011   -1.736300   -0.498538
     37         29           0       -0.142194   -1.738538    1.868881
 ---------------------------------------------------------------------
                    Distance matrix (angstroms):
                    1          2          3          4          5
     1  C    0.000000
     2  C    1.406540   0.000000
     3  C    2.435388   1.403256   0.000000
     4  C    2.781651   2.409749   1.397482   0.000000
     5  C    2.410254   2.782891   2.413997   1.374242   0.000000
     6  C    1.403450   2.435685   2.817152   2.412622   1.397238
     7  C    3.821637   4.257389   3.697861   2.374573   1.483161
     8  C    4.745839   4.748095   3.758345   2.387998   2.383568
     9  O    5.572461   5.546498   4.534290   3.269128   3.311522
    10  C    5.662554   5.342078   4.207724   3.236354   3.730408
    11  C    6.753648   6.397148   5.327250   4.541926   5.020270
    12  N    6.800059   6.293726   5.313341   4.856403   5.482262
    13  C    7.950293   7.450571   6.551027   6.175939   6.756636
    14  C    8.989231   8.603352   7.674722   7.122176   7.572735
    15  C    9.004548   8.731034   7.731380   6.951629   7.283765
    16  C   10.236892  10.040143   9.041243   8.176670   8.410831
    17  C   10.551409  10.448390   9.416466   8.397982   8.522113
    18  C    9.715616   9.652556   8.589747   7.469203   7.547948
    19  C    8.407504   8.284739   7.200424   6.103134   6.264335
    20  C    7.966730   7.724177   6.666651   5.758956   6.072499
    21  N    5.002169   4.429186   3.162496   2.421451   3.337907
    22  C    4.254979   3.822722   2.576896   1.482740   2.368701
    23  H    1.082234   2.160600   3.414415   3.863885   3.393904
    24  H    2.160672   1.082230   2.157461   3.393605   3.865121
    25  H    3.419269   2.164410   1.082376   2.161080   3.394040
    26  H    2.164304   3.419339   3.899522   3.392923   2.160693
    27  H    4.210772   4.784013   4.342454   3.096809   2.134170
    28  H    4.211684   4.804551   4.377615   3.132187   2.141725
    29  H    5.529848   5.530486   4.515332   3.198047   3.197046
    30  H    8.190359   7.606291   6.803353   6.638046   7.284802
    31  H    9.917287   9.524813   8.641718   8.150832   8.595207
    32  H   11.069611  10.852846   9.888535   9.095912   9.346806
    33  H   11.570702  11.504957  10.480857   9.437355   9.514768
    34  H   10.194355  10.200897   9.137371   7.935377   7.926492
    35  H    7.925099   7.837713   6.730628   5.539119   5.658718
    36  H    4.832949   4.243552   2.938672   2.165263   3.149168
    37  Cu   5.885284   5.054435   3.927824   3.808521   4.835481
                    6          7          8          9         10
     6  C    0.000000
     7  C    2.573672   0.000000
     8  C    3.752720   1.542910   0.000000
     9  O    4.597691   2.442616   1.417623   0.000000
    10  C    4.976895   3.368645   2.288101   1.382746   0.000000
    11  C    6.145791   4.673803   3.711245   2.529875   1.477662
    12  N    6.442954   5.468437   4.655709   3.660976   2.422783
    13  C    7.637536   6.721404   5.951088   4.849607   3.700879
    14  C    8.514671   7.290475   6.474433   5.198603   4.267561
    15  C    8.336148   6.742092   5.851905   4.484516   3.827016
    16  C    9.472897   7.705545   6.827070   5.428997   5.001668
    17  C    9.643850   7.606208   6.706670   5.346339   5.234868
    18  C    8.731029   6.521045   5.571743   4.286914   4.412732
    19  C    7.480064   5.340759   4.314217   2.994305   3.017209
    20  C    7.215820   5.444827   4.469784   3.107037   2.556774
    21  N    4.563542   3.428636   2.376137   2.234757   1.289453
    22  C    3.692493   2.492703   1.545236   2.322121   2.241106
    23  H    2.157602   4.720101   5.766459   6.569764   6.681989
    24  H    3.414731   5.338732   5.769694   6.530651   6.197745
    25  H    3.899510   4.535013   4.279196   4.949404   4.376684
    26  H    1.082386   2.846445   4.271084   5.052961   5.626952
    27  H    2.920646   1.111036   2.195255   3.260606   4.323591
    28  H    2.908265   1.111506   2.210508   2.488485   3.470828
    29  H    4.513818   2.215824   1.111751   2.085522   3.040940
    30  H    8.047764   7.432486   6.740864   5.743504   4.534924
    31  H    9.484933   8.334559   7.552836   6.266495   5.349351
    32  H   10.358680   8.699756   7.858864   6.458465   5.957650
    33  H   10.624876   8.535790   7.666107   6.328435   6.295016
    34  H    9.122773   6.762320   5.838391   4.687988   5.057472
    35  H    6.932602   4.624502   3.518246   2.357501   2.735931
    36  H    4.398997   3.274504   2.226119   3.118690   3.020567
    37  Cu   5.799460   5.197413   4.309577   3.875920   2.544794
                   11         12         13         14         15
    11  C    0.000000
    12  N    1.362065   0.000000
    13  C    2.387109   1.356450   0.000000
    14  C    2.794389   2.381324   1.390887   0.000000
    15  C    2.440927   2.761772   2.409921   1.399073   0.000000
    16  C    3.731113   4.165457   3.693410   2.426295   1.403752
    17  C    4.241216   5.020797   4.836072   3.702137   2.426660
    18  C    3.759864   4.839060   5.037274   4.199751   2.801310
    19  C    2.491597   3.712023   4.202442   3.716264   2.434424
    20  C    1.421387   2.400668   2.792363   2.441031   1.420775
    21  N    2.423484   2.843495   4.191259   5.043817   4.847391
    22  C    3.664401   4.246554   5.602368   6.399170   6.058091
    23  H    7.714706   7.696701   8.783124   9.833409   9.900206
    24  H    7.157155   6.893077   7.970701   9.202618   9.456864
    25  H    5.378491   5.224761   6.415344   7.604085   7.757124
    26  H    6.749556   7.127822   8.273313   9.050030   8.797074
    27  H    5.658340   6.528084   7.785209   8.298766   7.658061
    28  H    4.533194   5.329547   6.466871   6.926240   6.358470
    29  H    4.398775   5.461926   6.729875   7.138873   6.374487
    30  H    3.356760   2.113479   1.081799   2.147753   3.393028
    31  H    3.877592   3.356574   2.142660   1.083649   2.167004
    32  H    4.606069   4.804979   4.054565   2.669550   2.167424
    33  H    5.323561   6.074873   5.797602   4.573868   3.406860
    34  H    4.639169   5.808536   6.094637   5.281880   3.883706
    35  H    2.776159   4.121898   4.876475   4.614739   3.428815
    36  H    4.375350   4.952951   6.284564   7.071662   6.706601
    37  Cu   2.550781   1.959907   3.035036   4.213086   4.551085
                   16         17         18         19         20
    16  C    0.000000
    17  C    1.394720   0.000000
    18  C    2.416536   1.394221   0.000000
    19  C    2.800295   2.422119   1.397419   0.000000
    20  C    2.448139   2.820581   2.440150   1.412197   0.000000
    21  N    6.101700   6.419718   5.614784   4.220402   3.689317
    22  C    7.219947   7.338613   6.342386   4.977724   4.772299
    23  H   11.123994  11.462965  10.658480   9.374652   8.913237
    24  H   10.802009  11.294622  10.556462   9.179174   8.527189
    25  H    9.098739   9.544878   8.772035   7.375122   6.756678
    26  H    9.846610   9.939974   9.016862   7.853373   7.691550
    27  H    8.534587   8.295849   7.121256   6.033179   6.324819
    28  H    7.250134   7.158947   6.158588   5.071059   5.158668
    29  H    7.218761   6.913113   5.658431   4.521061   4.955399
    30  H    4.570231   5.800701   6.093676   5.283857   3.874008
    31  H    2.673794   4.063396   4.843845   4.597720   3.431571
    32  H    1.083696   2.141880   3.391577   3.883792   3.435073
    33  H    2.150461   1.082403   2.149781   3.401385   3.902973
    34  H    3.395384   2.148036   1.082521   2.152038   3.419071
    35  H    3.876296   3.377773   2.120476   1.078068   2.185200
    36  H    7.829576   7.885513   6.839502   5.515935   5.414743
    37  Cu   5.927011   6.629113   6.198630   4.909093   3.883881
                   21         22         23         24         25
    21  N    0.000000
    22  C    1.456988   0.000000
    23  H    6.054545   5.336235   0.000000
    24  H    5.206053   4.722591   2.486329   0.000000
    25  H    3.165550   2.852473   4.312852   2.492978   0.000000
    26  H    5.401191   4.528680   2.492675   4.312865   4.981868
    27  H    4.353351   3.219813   5.008406   5.848023   5.196758
    28  H    3.842188   3.265305   5.001045   5.870101   5.239931
    29  H    3.139190   2.215163   6.533164   6.534146   4.955175
    30  H    4.810955   6.223351   8.956600   7.994002   6.584753
    31  H    6.094826   7.466383  10.721793  10.072716   8.540971
    32  H    7.006597   8.189146  11.925248  11.567305   9.911357
    33  H    7.484999   8.366063  12.470394  12.362094  10.619140
    34  H    6.233731   6.770627  11.137792  11.148165   9.364208
    35  H    3.861554   4.342233   8.915944   8.778149   6.954678
    36  H    2.131995   1.111257   5.899264   5.034419   2.949624
    37  Cu   1.959669   3.289609   6.830041   5.529833   3.552185
                   26         27         28         29         30
    26  H    0.000000
    27  H    2.957085   0.000000
    28  H    2.921179   1.822165   0.000000
    29  H    4.953004   2.356075   2.946372   0.000000
    30  H    8.721897   8.521667   7.197590   7.572953   0.000000
    31  H   10.000813   9.346985   7.924365   8.215544   2.465795
    32  H   10.728919   9.554998   8.205756   8.284985   4.749329
    33  H   10.871013   9.167953   8.054896   7.803987   6.711919
    34  H    9.340407   7.210869   6.428277   5.740212   7.158242
    35  H    7.298362   5.204196   4.490385   3.557478   5.941059
    36  H    5.258297   3.735445   4.185427   2.392368   6.885230
    37  Cu   6.695426   6.199070   5.431343   5.083000   3.316670
                   31         32         33         34         35
    31  H    0.000000
    32  H    2.457921   0.000000
    33  H    4.751466   2.461498   0.000000
    34  H    5.908206   4.279943   2.471707   0.000000
    35  H    5.563379   4.959221   4.262181   2.431110   0.000000
    36  H    8.130902   8.807757   8.888536   7.190099   4.801061
    37  Cu   5.113870   6.616346   7.697954   7.033501   4.948444
                   36         37
    36  H    0.000000
    37  Cu   3.752305   0.000000
 Symmetry turned off by external request.
 Stoichiometry    C19H14CuN2O(2+,2)
 Framework group  C1[X(C19H14CuN2O)]
 Deg. of freedom   105
 Full point group                 C1      NOp   1
 Rotational constants (GHZ):           0.4776544           0.1523253           0.1270662
 Leave Link  202 at Thu Aug  1 10:47:04 2024, MaxMem= 13421772800 cpu:               0.1 elap:               0.0
 (Enter /public/software/apps/Gaussian/g16/l301.exe)
 Standard basis: def2SVPP (5D, 7F)
 Ernie: Thresh=  0.10000D-02 Tol=  0.10000D-05 Strict=F.
   360 basis functions,   677 primitive gaussians,   384 cartesian basis functions
    89 alpha electrons       88 beta electrons
       nuclear repulsion energy      2223.6980763663 Hartrees.
 IExCor=  402 DFT=T Ex+Corr=B3LYP ExCW=0 ScaHFX=  0.200000
 ScaDFX=  0.800000  0.720000  1.000000  0.810000 ScalE2=  1.000000  1.000000
 IRadAn=      5 IRanWt=     -1 IRanGd=            0 ICorTp=0 IEmpDi=141
 NAtoms=   37 NActive=   37 NUniq=   37 SFac= 1.00D+00 NAtFMM=   60 NAOKFM=F Big=F
 Integral buffers will be    131072 words long.
 Raffenetti 2 integral format.
 Two-electron integral symmetry is turned off.
 R6Disp:  Grimme-D3(BJ) Dispersion energy=       -0.0936297449 Hartrees.
 Nuclear repulsion after empirical dispersion term =     2223.6044466214 Hartrees.
 Leave Link  301 at Thu Aug  1 10:47:04 2024, MaxMem= 13421772800 cpu:               0.5 elap:               0.0
 (Enter /public/software/apps/Gaussian/g16/l302.exe)
 NPDir=0 NMtPBC=     1 NCelOv=     1 NCel=       1 NClECP=     1 NCelD=      1
         NCelK=      1 NCelE2=     1 NClLst=     1 CellRange=     0.0.
 One-electron integrals computed using PRISM.
   1 Symmetry operations used in ECPInt.
 ECPInt:  NShTT=   14535 NPrTT=   61094 LenC2=   13210 LenP2D=   37013.
 LDataN:  DoStor=T MaxTD1= 4 Len=   56
 NBasis=   360 RedAO= T EigKep=  2.70D-04  NBF=   360
 NBsUse=   360 1.00D-06 EigRej= -1.00D+00 NBFU=   360
 Precomputing XC quadrature grid using
 IXCGrd= 4 IRadAn=           5 IRanWt=          -1 IRanGd=           0 AccXCQ= 0.00D+00.
 Generated NRdTot=       0 NPtTot=           0 NUsed=           0 NTot=          32
 NSgBfM=   378   378   378   378   378 MxSgAt=    37 MxSgA2=    37.
 Leave Link  302 at Thu Aug  1 10:47:05 2024, MaxMem= 13421772800 cpu:               8.8 elap:               0.3
 (Enter /public/software/apps/Gaussian/g16/l303.exe)
 DipDrv:  MaxL=1.
 Leave Link  303 at Thu Aug  1 10:47:05 2024, MaxMem= 13421772800 cpu:               0.9 elap:               0.0
 (Enter /public/software/apps/Gaussian/g16/l401.exe)
 ExpMin= 3.30D-02 ExpMax= 7.64D+04 ExpMxC= 1.15D+04 IAcc=3 IRadAn=         5 AccDes= 0.00D+00
 Harris functional with IExCor=  402 and IRadAn=       5 diagonalized for initial guess.
 HarFok:  IExCor=  402 AccDes= 0.00D+00 IRadAn=         5 IDoV= 1 UseB2=F ITyADJ=14
 ICtDFT=  3500011 ScaDFX=  1.000000  1.000000  1.000000  1.000000
 FoFCou: FMM=F IPFlag=           0 FMFlag=      100000 FMFlg1=           0
         NFxFlg=           0 DoJE=T BraDBF=F KetDBF=T FulRan=T
         wScrn=  0.000000 ICntrl=       500 IOpCl=  0 I1Cent=   200000004 NGrid=           0
         NMat0=    1 NMatS0=      1 NMatT0=    0 NMatD0=    1 NMtDS0=    0 NMtDT0=    0
 Symmetry not used in FoFCou.
 Harris En= -2556.64792398839    
 JPrj=0 DoOrth=F DoCkMO=F.
 Initial guess <Sx>= 0.0000 <Sy>= 0.0000 <Sz>= 0.5000 <S**2>= 0.7500 S= 0.5000
 Leave Link  401 at Thu Aug  1 10:47:05 2024, MaxMem= 13421772800 cpu:              20.5 elap:               0.7
 (Enter /public/software/apps/Gaussian/g16/l502.exe)
 Two-electron integral symmetry not used.
 UHF open shell SCF:
 Using DIIS extrapolation, IDIIS=  1040.
 NGot= 13421772800 LenX= 13421461516 LenY= 13421313619
 Requested convergence on RMS density matrix=1.00D-08 within 128 cycles.
 Requested convergence on MAX density matrix=1.00D-06.
 Requested convergence on             energy=1.00D-06.
 No special actions if energy rises.
 Fock matrices will be formed incrementally for  20 cycles.

 Cycle   1  Pass 1  IDiag  1:
 FoFJK:  IHMeth= 1 ICntrl=       0 DoSepK=F KAlg= 0 I1Cent=           0 FoldK=F
 IRaf= 850000000 NMat=       1 IRICut=       1 DoRegI=T DoRafI=F ISym2E= 0 IDoP0=0 IntGTp=1.
 FoFCou: FMM=F IPFlag=           0 FMFlag=      100000 FMFlg1=           0
         NFxFlg=           0 DoJE=F BraDBF=F KetDBF=F FulRan=T
         wScrn=  0.000000 ICntrl=         0 IOpCl=  1 I1Cent=           0 NGrid=           0
         NMat0=    1 NMatS0=      1 NMatT0=    0 NMatD0=    1 NMtDS0=    0 NMtDT0=    0
 Symmetry not used in FoFCou.
 E= -2545.10762599144    
 DIIS: error= 2.56D-01 at cycle   1 NSaved=   1.
 NSaved= 1 IEnMin= 1 EnMin= -2545.10762599144     IErMin= 1 ErrMin= 2.56D-01
 ErrMax= 2.56D-01  0.00D+00 EMaxC= 1.00D-01 BMatC= 6.54D+01 BMatP= 6.54D+01
 IDIUse=3 WtCom= 0.00D+00 WtEn= 1.00D+00
 Coeff-Com:  0.100D+01
 Coeff-En:   0.100D+01
 Coeff:      0.100D+01
 Gap=     2.534 Goal=   None    Shift=    0.000
 Gap=     0.314 Goal=   None    Shift=    0.000
 GapD=    0.314 DampG=1.000 DampE=0.125 DampFc=0.1250 IDamp=-1.
 Damping current iteration by 1.25D-01
 RMSDP=5.83D-02 MaxDP=7.62D+00              OVMax= 9.83D-01

 Cycle   2  Pass 1  IDiag  1:
 RMSU=  7.29D-03    CP:  9.94D-01
 E= -2548.44421242896     Delta-E=       -3.336586437517 Rises=F Damp=T
 DIIS: error= 1.38D-01 at cycle   2 NSaved=   2.
 NSaved= 2 IEnMin= 2 EnMin= -2548.44421242896     IErMin= 2 ErrMin= 1.38D-01
 ErrMax= 1.38D-01  0.00D+00 EMaxC= 1.00D-01 BMatC= 2.24D+01 BMatP= 6.54D+01
 IDIUse=3 WtCom= 0.00D+00 WtEn= 1.00D+00
 Coeff-Com: -0.108D+01 0.208D+01
 Coeff-En:   0.000D+00 0.100D+01
 Coeff:      0.000D+00 0.100D+01
 Gap=    -0.353 Goal=   None    Shift=    0.000
 Gap=    -0.093 Goal=   None    Shift=    0.000
 RMSDP=1.51D-02 MaxDP=1.92D+00 DE=-3.34D+00 OVMax= 8.80D-01

 Cycle   3  Pass 1  IDiag  1:
 RMSU=  1.38D-02    CP:  9.07D-01  1.82D+00
 E= -2538.72320841086     Delta-E=        9.721004018093 Rises=F Damp=F
 DIIS: error= 1.18D-01 at cycle   3 NSaved=   3.
 NSaved= 3 IEnMin= 2 EnMin= -2548.44421242896     IErMin= 3 ErrMin= 1.18D-01
 ErrMax= 1.18D-01  0.00D+00 EMaxC= 1.00D-01 BMatC= 3.54D+01 BMatP= 2.24D+01
 IDIUse=2 WtCom= 0.00D+00 WtEn= 1.00D+00
 EnCoef did   100 forward-backward iterations
 Coeff-En:   0.569D+00 0.125D-01 0.418D+00
 Coeff:      0.569D+00 0.125D-01 0.418D+00
 Gap=     0.624 Goal=   None    Shift=    0.000
 Gap=     0.022 Goal=   None    Shift=    0.000
 RMSDP=1.05D-01 MaxDP=7.75D+00 DE= 9.72D+00 OVMax= 9.79D-01

 Cycle   4  Pass 1  IDiag  1:
 RMSU=  1.04D-01    CP:  1.02D+00  1.55D+00 -8.59D-02
 E= -2469.83355740150     Delta-E=       68.889651009365 Rises=F Damp=F
 DIIS: error= 1.52D-01 at cycle   4 NSaved=   4.
 NSaved= 4 IEnMin= 2 EnMin= -2548.44421242896     IErMin= 3 ErrMin= 1.18D-01
 ErrMax= 1.52D-01  0.00D+00 EMaxC= 1.00D-01 BMatC= 1.31D+02 BMatP= 2.24D+01
 IDIUse=2 WtCom= 0.00D+00 WtEn= 1.00D+00
 EnCoef did   100 forward-backward iterations
 Coeff-En:   0.532D+00 0.819D-02 0.393D+00 0.669D-01
 Coeff:      0.532D+00 0.819D-02 0.393D+00 0.669D-01
 Gap=     0.347 Goal=   None    Shift=    0.000
 Gap=    -0.239 Goal=   None    Shift=    0.000
 RMSDP=1.04D-01 MaxDP=7.77D+00 DE= 6.89D+01 OVMax= 9.76D-01

 Cycle   5  Pass 1  IDiag  1:
 RMSU=  8.03D-03    CP:  9.01D-01  1.98D-01  2.17D-01  7.01D-03
 E= -2550.74897037752     Delta-E=      -80.915412976018 Rises=F Damp=F
 DIIS: error= 8.00D-02 at cycle   5 NSaved=   5.
 NSaved= 5 IEnMin= 5 EnMin= -2550.74897037752     IErMin= 5 ErrMin= 8.00D-02
 ErrMax= 8.00D-02  0.00D+00 EMaxC= 1.00D-01 BMatC= 1.27D+01 BMatP= 2.24D+01
 IDIUse=3 WtCom= 2.00D-01 WtEn= 8.00D-01
 EnCoef did   100 forward-backward iterations
 Coeff-Com: -0.485D+00 0.107D+01 0.123D+00-0.470D-01 0.344D+00
 Coeff-En:   0.356D+00 0.819D-02 0.193D+00 0.000D+00 0.442D+00
 Coeff:      0.188D+00 0.220D+00 0.179D+00-0.940D-02 0.423D+00
 Gap=    -0.505 Goal=   None    Shift=    0.000
 Gap=     0.003 Goal=   None    Shift=    0.000
 RMSDP=8.65D-03 MaxDP=3.52D-01 DE=-8.09D+01 OVMax= 9.08D-01

 Cycle   6  Pass 1  IDiag  1:
 RMSU=  6.61D-03    CP:  9.05D-01  6.63D-02  2.45D-01 -1.71D-03  3.25D-01
 E= -2549.77020216116     Delta-E=        0.978768216361 Rises=F Damp=F
 DIIS: error= 6.40D-02 at cycle   6 NSaved=   6.
 NSaved= 6 IEnMin= 5 EnMin= -2550.74897037752     IErMin= 6 ErrMin= 6.40D-02
 ErrMax= 6.40D-02  0.00D+00 EMaxC= 1.00D-01 BMatC= 1.15D+01 BMatP= 1.27D+01
 IDIUse=3 WtCom= 3.60D-01 WtEn= 6.40D-01
 EnCoef did   100 forward-backward iterations
 Coeff-Com: -0.467D+00 0.931D+00-0.483D-01-0.129D-01 0.218D+00 0.379D+00
 Coeff-En:   0.172D+00 0.614D-02 0.000D+00 0.000D+00 0.461D+00 0.360D+00
 Coeff:     -0.579D-01 0.339D+00-0.174D-01-0.464D-02 0.374D+00 0.367D+00
 Gap=     0.312 Goal=   None    Shift=    0.000
 Gap=     0.005 Goal=   None    Shift=    0.000
 RMSDP=6.15D-03 MaxDP=2.57D-01 DE= 9.79D-01 OVMax= 9.46D-01

 Cycle   7  Pass 1  IDiag  1:
 RMSU=  3.83D-03    CP:  8.95D-01  8.30D-02  2.00D-01  1.03D-03  5.29D-01
                    CP:  3.23D-01
 E= -2556.10154287442     Delta-E=       -6.331340713262 Rises=F Damp=F
 DIIS: error= 1.30D-02 at cycle   7 NSaved=   7.
 NSaved= 7 IEnMin= 7 EnMin= -2556.10154287442     IErMin= 7 ErrMin= 1.30D-02
 ErrMax= 1.30D-02  0.00D+00 EMaxC= 1.00D-01 BMatC= 7.27D-01 BMatP= 1.15D+01
 IDIUse=3 WtCom= 8.70D-01 WtEn= 1.30D-01
 EnCoef did    11 forward-backward iterations
 Coeff-Com: -0.211D+00 0.419D+00-0.384D-01-0.666D-02 0.125D-02 0.142D+00
 Coeff-Com:  0.693D+00
 Coeff-En:   0.265D-01 0.000D+00 0.000D+00 0.000D+00 0.000D+00 0.712D-03
 Coeff-En:   0.973D+00
 Coeff:     -0.180D+00 0.365D+00-0.335D-01-0.580D-02 0.109D-02 0.124D+00
 Coeff:      0.729D+00
 Gap=     0.231 Goal=   None    Shift=    0.000
 Gap=     0.014 Goal=   None    Shift=    0.000
 RMSDP=3.10D-03 MaxDP=1.85D-01 DE=-6.33D+00 OVMax= 9.31D-01

 Cycle   8  Pass 1  IDiag  1:
 RMSU=  2.76D-03    CP:  9.03D-01  5.95D-02  1.79D-01  7.28D-04  5.27D-01
                    CP:  4.09D-01  6.78D-01
 E= -2556.03044204523     Delta-E=        0.071100829185 Rises=F Damp=F
 DIIS: error= 2.73D-02 at cycle   8 NSaved=   8.
 NSaved= 8 IEnMin= 7 EnMin= -2556.10154287442     IErMin= 7 ErrMin= 1.30D-02
 ErrMax= 2.73D-02  0.00D+00 EMaxC= 1.00D-01 BMatC= 1.31D+00 BMatP= 7.27D-01
 IDIUse=2 WtCom= 0.00D+00 WtEn= 1.00D+00
 EnCoef did     2 forward-backward iterations
 Coeff-En:   0.195D-01 0.000D+00 0.000D+00 0.000D+00 0.000D+00 0.000D+00
 Coeff-En:   0.554D+00 0.427D+00
 Coeff:      0.195D-01 0.000D+00 0.000D+00 0.000D+00 0.000D+00 0.000D+00
 Coeff:      0.554D+00 0.427D+00
 Gap=     0.112 Goal=   None    Shift=    0.000
 Gap=     0.018 Goal=   None    Shift=    0.000
 RMSDP=4.81D-03 MaxDP=4.88D-01 DE= 7.11D-02 OVMax= 9.82D-01

 Cycle   9  Pass 1  IDiag  1:
 RMSU=  3.70D-03    CP:  9.24D-01  8.53D-02  6.92D-02  6.58D-05  2.87D-01
                    CP:  1.83D-01  6.29D-01  6.52D-01
 E= -2553.17025270552     Delta-E=        2.860189339714 Rises=F Damp=F
 DIIS: error= 1.25D-01 at cycle   9 NSaved=   9.
 NSaved= 9 IEnMin= 7 EnMin= -2556.10154287442     IErMin= 7 ErrMin= 1.30D-02
 ErrMax= 1.25D-01  0.00D+00 EMaxC= 1.00D-01 BMatC= 1.82D+01 BMatP= 7.27D-01
 IDIUse=2 WtCom= 0.00D+00 WtEn= 1.00D+00
 EnCoef did     4 forward-backward iterations
 Coeff-En:   0.000D+00 0.000D+00 0.000D+00 0.000D+00 0.000D+00 0.000D+00
 Coeff-En:   0.524D+00 0.395D+00 0.819D-01
 Coeff:      0.000D+00 0.000D+00 0.000D+00 0.000D+00 0.000D+00 0.000D+00
 Coeff:      0.524D+00 0.395D+00 0.819D-01
 Gap=     0.003 Goal=   None    Shift=    0.000
 Gap=     0.043 Goal=   None    Shift=    0.000
 RMSDP=3.41D-03 MaxDP=3.95D-01 DE= 2.86D+00 OVMax= 8.71D-01

 Cycle  10  Pass 1  IDiag  1:
 RMSU=  1.81D-03    CP:  9.08D-01  7.79D-02  1.35D-01  2.71D-04  4.35D-01
                    CP:  2.92D-01  8.13D-01  6.34D-01  4.01D-01
 E= -2556.00972838439     Delta-E=       -2.839475678871 Rises=F Damp=F
 DIIS: error= 4.28D-02 at cycle  10 NSaved=  10.
 NSaved=10 IEnMin= 7 EnMin= -2556.10154287442     IErMin= 7 ErrMin= 1.30D-02
 ErrMax= 4.28D-02  0.00D+00 EMaxC= 1.00D-01 BMatC= 1.93D+00 BMatP= 7.27D-01
 IDIUse=2 WtCom= 0.00D+00 WtEn= 1.00D+00
 EnCoef did     3 forward-backward iterations
 Coeff-En:   0.000D+00 0.000D+00 0.000D+00 0.000D+00 0.000D+00 0.000D+00
 Coeff-En:   0.353D+00 0.314D+00 0.000D+00 0.333D+00
 Coeff:      0.000D+00 0.000D+00 0.000D+00 0.000D+00 0.000D+00 0.000D+00
 Coeff:      0.353D+00 0.314D+00 0.000D+00 0.333D+00
 Gap=     0.201 Goal=   None    Shift=    0.000
 Gap=    -0.031 Goal=   None    Shift=    0.000
 RMSDP=2.24D-03 MaxDP=2.55D-01 DE=-2.84D+00 OVMax= 8.49D-01

 Cycle  11  Pass 1  IDiag  1:
 RMSU=  1.08D-03    CP:  9.00D-01  8.11D-02  1.76D-01  4.11D-04  5.04D-01
                    CP:  3.67D-01  8.15D-01  6.87D-01  9.18D-02  3.07D-01
 E= -2556.26619220466     Delta-E=       -0.256463820268 Rises=F Damp=F
 DIIS: error= 9.89D-03 at cycle  11 NSaved=  11.
 NSaved=11 IEnMin=11 EnMin= -2556.26619220466     IErMin=11 ErrMin= 9.89D-03
 ErrMax= 9.89D-03  0.00D+00 EMaxC= 1.00D-01 BMatC= 1.86D-01 BMatP= 7.27D-01
 IDIUse=3 WtCom= 9.01D-01 WtEn= 9.89D-02
 EnCoef did     3 forward-backward iterations
 Coeff-Com:  0.607D-02-0.941D-02-0.636D-02 0.131D-02-0.159D-01-0.184D-01
 Coeff-Com:  0.267D+00 0.193D+00-0.499D-02 0.230D+00 0.359D+00
 Coeff-En:   0.000D+00 0.000D+00 0.000D+00 0.000D+00 0.000D+00 0.000D+00
 Coeff-En:   0.149D+00 0.000D+00 0.000D+00 0.207D+00 0.644D+00
 Coeff:      0.547D-02-0.848D-02-0.573D-02 0.118D-02-0.143D-01-0.166D-01
 Coeff:      0.255D+00 0.173D+00-0.450D-02 0.227D+00 0.387D+00
 Gap=     0.150 Goal=   None    Shift=    0.000
 Gap=     0.001 Goal=   None    Shift=    0.000
 RMSDP=1.44D-03 MaxDP=5.07D-02 DE=-2.56D-01 OVMax= 6.08D-01

 Cycle  12  Pass 1  IDiag  1:
 RMSU=  1.02D-03    CP:  9.02D-01  6.73D-02  1.65D-01  7.13D-04  5.09D-01
                    CP:  3.32D-01  8.62D-01  5.59D-01  1.28D-01  3.86D-01
                    CP:  2.03D-01
 E= -2556.31741609185     Delta-E=       -0.051223887194 Rises=F Damp=F
 DIIS: error= 3.54D-03 at cycle  12 NSaved=  12.
 NSaved=12 IEnMin=12 EnMin= -2556.31741609185     IErMin=12 ErrMin= 3.54D-03
 ErrMax= 3.54D-03  0.00D+00 EMaxC= 1.00D-01 BMatC= 3.46D-02 BMatP= 1.86D-01
 IDIUse=3 WtCom= 9.65D-01 WtEn= 3.54D-02
 EnCoef did     3 forward-backward iterations
 Coeff-Com:  0.143D-01-0.238D-01-0.308D-02 0.234D-03-0.992D-02-0.665D-02
 Coeff-Com:  0.750D-01 0.175D-01-0.120D-02 0.911D-01 0.312D+00 0.535D+00
 Coeff-En:   0.000D+00 0.000D+00 0.000D+00 0.000D+00 0.000D+00 0.000D+00
 Coeff-En:   0.000D+00 0.000D+00 0.000D+00 0.113D-01 0.193D+00 0.796D+00
 Coeff:      0.138D-01-0.229D-01-0.297D-02 0.226D-03-0.957D-02-0.641D-02
 Coeff:      0.723D-01 0.169D-01-0.115D-02 0.883D-01 0.308D+00 0.544D+00
 Gap=     0.136 Goal=   None    Shift=    0.000
 Gap=     0.014 Goal=   None    Shift=    0.000
 RMSDP=5.07D-04 MaxDP=2.10D-02 DE=-5.12D-02 OVMax= 1.73D-01

 Cycle  13  Pass 1  IDiag  1:
 RMSU=  3.61D-04    CP:  9.03D-01  6.63D-02  1.63D-01  6.28D-04  4.94D-01
                    CP:  3.35D-01  8.57D-01  5.97D-01  1.51D-01  4.98D-01
                    CP:  3.33D-01  8.27D-01
 E= -2556.32608495383     Delta-E=       -0.008668861974 Rises=F Damp=F
 DIIS: error= 3.28D-03 at cycle  13 NSaved=  13.
 NSaved=13 IEnMin=13 EnMin= -2556.32608495383     IErMin=13 ErrMin= 3.28D-03
 ErrMax= 3.28D-03  0.00D+00 EMaxC= 1.00D-01 BMatC= 1.42D-02 BMatP= 3.46D-02
 IDIUse=3 WtCom= 9.67D-01 WtEn= 3.28D-02
 EnCoef did     2 forward-backward iterations
 Coeff-Com:  0.563D-02-0.967D-02-0.103D-02-0.366D-04 0.328D-03 0.206D-02
 Coeff-Com:  0.835D-02-0.140D-01 0.751D-03-0.254D-03 0.158D+00 0.317D+00
 Coeff-Com:  0.532D+00
 Coeff-En:   0.000D+00 0.000D+00 0.000D+00 0.000D+00 0.000D+00 0.000D+00
 Coeff-En:   0.000D+00 0.000D+00 0.000D+00 0.000D+00 0.119D-01 0.184D+00
 Coeff-En:   0.804D+00
 Coeff:      0.545D-02-0.935D-02-0.993D-03-0.354D-04 0.318D-03 0.199D-02
 Coeff:      0.808D-02-0.136D-01 0.727D-03-0.245D-03 0.153D+00 0.313D+00
 Coeff:      0.541D+00
 Gap=     0.135 Goal=   None    Shift=    0.000
 Gap=     0.019 Goal=   None    Shift=    0.000
 RMSDP=2.37D-04 MaxDP=1.18D-02 DE=-8.67D-03 OVMax= 1.04D-01

 Cycle  14  Pass 1  IDiag  1:
 RMSU=  1.26D-04    CP:  9.02D-01  6.53D-02  1.63D-01  6.07D-04  4.97D-01
                    CP:  3.33D-01  8.63D-01  5.63D-01  1.49D-01  4.81D-01
                    CP:  2.56D-01  9.10D-01  6.64D-01
 E= -2556.32657307946     Delta-E=       -0.000488125630 Rises=F Damp=F
 DIIS: error= 1.77D-03 at cycle  14 NSaved=  14.
 NSaved=14 IEnMin=14 EnMin= -2556.32657307946     IErMin=14 ErrMin= 1.77D-03
 ErrMax= 1.77D-03  0.00D+00 EMaxC= 1.00D-01 BMatC= 6.52D-03 BMatP= 1.42D-02
 IDIUse=3 WtCom= 9.82D-01 WtEn= 1.77D-02
 EnCoef did     4 forward-backward iterations
 Coeff-Com:  0.167D-02-0.298D-02-0.726D-04-0.345D-04-0.177D-02 0.979D-03
 Coeff-Com:  0.134D-02 0.682D-02 0.208D-02-0.223D-01 0.101D+00 0.857D-01
 Coeff-Com:  0.316D+00 0.511D+00
 Coeff-En:   0.000D+00 0.000D+00 0.000D+00 0.000D+00 0.000D+00 0.000D+00
 Coeff-En:   0.000D+00 0.000D+00 0.000D+00 0.000D+00 0.329D-01 0.000D+00
 Coeff-En:   0.336D+00 0.631D+00
 Coeff:      0.164D-02-0.293D-02-0.713D-04-0.339D-04-0.174D-02 0.962D-03
 Coeff:      0.132D-02 0.670D-02 0.204D-02-0.219D-01 0.999D-01 0.841D-01
 Coeff:      0.317D+00 0.513D+00
 Gap=     0.134 Goal=   None    Shift=    0.000
 Gap=     0.019 Goal=   None    Shift=    0.000
 RMSDP=1.15D-04 MaxDP=5.69D-03 DE=-4.88D-04 OVMax= 4.10D-02

 Cycle  15  Pass 1  IDiag  1:
 RMSU=  6.53D-05    CP:  9.02D-01  6.64D-02  1.64D-01  6.12D-04  4.98D-01
                    CP:  3.37D-01  8.59D-01  5.78D-01  1.43D-01  4.64D-01
                    CP:  3.06D-01  8.86D-01  7.06D-01  7.87D-01
 E= -2556.32831631032     Delta-E=       -0.001743230869 Rises=F Damp=F
 DIIS: error= 7.81D-04 at cycle  15 NSaved=  15.
 NSaved=15 IEnMin=15 EnMin= -2556.32831631032     IErMin=15 ErrMin= 7.81D-04
 ErrMax= 7.81D-04  0.00D+00 EMaxC= 1.00D-01 BMatC= 1.11D-03 BMatP= 6.52D-03
 IDIUse=3 WtCom= 9.92D-01 WtEn= 7.81D-03
 Coeff-Com:  0.103D-03-0.198D-03 0.110D-03 0.249D-05-0.188D-02 0.367D-03
 Coeff-Com: -0.143D-02 0.904D-02 0.112D-02-0.135D-01 0.482D-01-0.341D-01
 Coeff-Com:  0.780D-01 0.130D+00 0.784D+00
 Coeff-En:   0.000D+00 0.000D+00 0.000D+00 0.000D+00 0.000D+00 0.000D+00
 Coeff-En:   0.000D+00 0.000D+00 0.000D+00 0.000D+00 0.000D+00 0.000D+00
 Coeff-En:   0.000D+00 0.000D+00 0.100D+01
 Coeff:      0.102D-03-0.196D-03 0.109D-03 0.247D-05-0.186D-02 0.364D-03
 Coeff:     -0.141D-02 0.897D-02 0.111D-02-0.134D-01 0.478D-01-0.339D-01
 Coeff:      0.774D-01 0.129D+00 0.786D+00
 Gap=     0.135 Goal=   None    Shift=    0.000
 Gap=     0.020 Goal=   None    Shift=    0.000
 RMSDP=9.53D-05 MaxDP=4.13D-03 DE=-1.74D-03 OVMax= 3.92D-02

 Cycle  16  Pass 1  IDiag  1:
 RMSU=  4.70D-05    CP:  9.02D-01  6.67D-02  1.65D-01  5.89D-04  4.98D-01
                    CP:  3.40D-01  8.57D-01  5.88D-01  1.37D-01  4.52D-01
                    CP:  3.52D-01  8.56D-01  7.44D-01  7.99D-01  1.47D+00
 E= -2556.32877404769     Delta-E=       -0.000457737364 Rises=F Damp=F
 DIIS: error= 1.89D-04 at cycle  16 NSaved=  16.
 NSaved=16 IEnMin=16 EnMin= -2556.32877404769     IErMin=16 ErrMin= 1.89D-04
 ErrMax= 1.89D-04  0.00D+00 EMaxC= 1.00D-01 BMatC= 1.17D-04 BMatP= 1.11D-03
 IDIUse=3 WtCom= 9.98D-01 WtEn= 1.89D-03
 Coeff-Com:  0.169D-04-0.540D-04-0.447D-04 0.217D-04-0.666D-04 0.429D-04
 Coeff-Com: -0.265D-02-0.582D-03 0.262D-05 0.120D-02 0.528D-03-0.401D-01
 Coeff-Com: -0.297D-01-0.166D+00 0.531D+00 0.706D+00
 Coeff-En:   0.000D+00 0.000D+00 0.000D+00 0.000D+00 0.000D+00 0.000D+00
 Coeff-En:   0.000D+00 0.000D+00 0.000D+00 0.000D+00 0.000D+00 0.000D+00
 Coeff-En:   0.000D+00 0.000D+00 0.000D+00 0.100D+01
 Coeff:      0.169D-04-0.539D-04-0.446D-04 0.217D-04-0.665D-04 0.428D-04
 Coeff:     -0.265D-02-0.581D-03 0.262D-05 0.120D-02 0.527D-03-0.400D-01
 Coeff:     -0.296D-01-0.165D+00 0.530D+00 0.707D+00
 Gap=     0.134 Goal=   None    Shift=    0.000
 Gap=     0.021 Goal=   None    Shift=    0.000
 RMSDP=6.86D-05 MaxDP=2.51D-03 DE=-4.58D-04 OVMax= 2.86D-02

 Cycle  17  Pass 1  IDiag  1:
 RMSU=  3.49D-05    CP:  9.02D-01  6.68D-02  1.65D-01  6.07D-04  4.98D-01
                    CP:  3.42D-01  8.54D-01  5.96D-01  1.36D-01  4.48D-01
                    CP:  3.79D-01  8.38D-01  7.87D-01  7.78D-01  1.97D+00
                    CP:  1.27D+00
 E= -2556.32873680149     Delta-E=        0.000037246197 Rises=F Damp=F
 DIIS: error= 3.50D-04 at cycle  17 NSaved=  17.
 NSaved=17 IEnMin=16 EnMin= -2556.32877404769     IErMin=16 ErrMin= 1.89D-04
 ErrMax= 3.50D-04  0.00D+00 EMaxC= 1.00D-01 BMatC= 2.88D-04 BMatP= 1.17D-04
 IDIUse=3 WtCom= 9.98D-01 WtEn= 1.89D-03
 EnCoef did     8 forward-backward iterations
 Coeff-Com: -0.487D-05-0.118D-04-0.481D-04 0.255D-05 0.337D-03-0.136D-03
 Coeff-Com: -0.132D-02-0.670D-03 0.386D-04 0.803D-04-0.887D-03-0.147D-01
 Coeff-Com:  0.257D-02-0.336D-01 0.277D+00 0.380D+00 0.391D+00
 Coeff-En:   0.000D+00 0.000D+00 0.000D+00 0.000D+00 0.000D+00 0.000D+00
 Coeff-En:   0.000D+00 0.000D+00 0.000D+00 0.000D+00 0.000D+00 0.000D+00
 Coeff-En:   0.000D+00 0.000D+00 0.957D-02 0.630D+00 0.361D+00
 Coeff:     -0.486D-05-0.118D-04-0.481D-04 0.254D-05 0.336D-03-0.136D-03
 Coeff:     -0.132D-02-0.669D-03 0.386D-04 0.802D-04-0.885D-03-0.146D-01
 Coeff:      0.257D-02-0.335D-01 0.277D+00 0.381D+00 0.391D+00
 Gap=     0.134 Goal=   None    Shift=    0.000
 Gap=     0.021 Goal=   None    Shift=    0.000
 RMSDP=1.84D-05 MaxDP=7.15D-04 DE= 3.72D-05 OVMax= 5.25D-03

 Cycle  18  Pass 1  IDiag  1:
 RMSU=  1.11D-05    CP:  9.02D-01  6.67D-02  1.65D-01  6.09D-04  4.98D-01
                    CP:  3.41D-01  8.54D-01  5.95D-01  1.37D-01  4.51D-01
                    CP:  3.73D-01  8.44D-01  7.90D-01  8.05D-01  1.94D+00
                    CP:  1.32D+00  1.12D+00
 E= -2556.32880203268     Delta-E=       -0.000065231190 Rises=F Damp=F
 DIIS: error= 2.56D-04 at cycle  18 NSaved=  18.
 NSaved=18 IEnMin=18 EnMin= -2556.32880203268     IErMin=16 ErrMin= 1.89D-04
 ErrMax= 2.56D-04  0.00D+00 EMaxC= 1.00D-01 BMatC= 1.19D-04 BMatP= 1.17D-04
 IDIUse=3 WtCom= 9.98D-01 WtEn= 1.89D-03
 EnCoef did     7 forward-backward iterations
 Coeff-Com: -0.111D-03 0.187D-03-0.337D-04 0.724D-05 0.442D-03-0.211D-03
 Coeff-Com: -0.546D-03-0.922D-04 0.493D-04-0.105D-02 0.211D-03-0.380D-02
 Coeff-Com:  0.150D-01 0.314D-01 0.150D+00 0.159D+00 0.134D+00 0.517D+00
 Coeff-En:   0.000D+00 0.000D+00 0.000D+00 0.000D+00 0.000D+00 0.000D+00
 Coeff-En:   0.000D+00 0.000D+00 0.000D+00 0.000D+00 0.000D+00 0.000D+00
 Coeff-En:   0.000D+00 0.000D+00 0.855D-01 0.275D-01 0.000D+00 0.887D+00
 Coeff:     -0.111D-03 0.186D-03-0.337D-04 0.723D-05 0.442D-03-0.210D-03
 Coeff:     -0.545D-03-0.920D-04 0.492D-04-0.105D-02 0.211D-03-0.379D-02
 Coeff:      0.150D-01 0.314D-01 0.150D+00 0.158D+00 0.133D+00 0.517D+00
 Gap=     0.134 Goal=   None    Shift=    0.000
 Gap=     0.021 Goal=   None    Shift=    0.000
 RMSDP=1.41D-05 MaxDP=4.30D-04 DE=-6.52D-05 OVMax= 4.82D-03

 Cycle  19  Pass 1  IDiag  1:
 RMSU=  5.47D-06    CP:  9.02D-01  6.66D-02  1.65D-01  6.16D-04  4.98D-01
                    CP:  3.40D-01  8.55D-01  5.93D-01  1.38D-01  4.51D-01
                    CP:  3.68D-01  8.48D-01  7.90D-01  8.32D-01  1.95D+00
                    CP:  1.35D+00  1.32D+00  1.34D+00
 E= -2556.32883505375     Delta-E=       -0.000033021067 Rises=F Damp=F
 DIIS: error= 1.78D-04 at cycle  19 NSaved=  19.
 NSaved=19 IEnMin=19 EnMin= -2556.32883505375     IErMin=19 ErrMin= 1.78D-04
 ErrMax= 1.78D-04  0.00D+00 EMaxC= 1.00D-01 BMatC= 5.67D-05 BMatP= 1.17D-04
 IDIUse=3 WtCom= 9.98D-01 WtEn= 1.78D-03
 Coeff-Com: -0.379D-04 0.617D-04-0.247D-04-0.610D-05 0.233D-03-0.236D-03
 Coeff-Com: -0.276D-03-0.263D-03 0.670D-04-0.122D-02 0.703D-02 0.805D-02
 Coeff-Com:  0.131D-01 0.792D-02-0.221D-01-0.399D-01-0.672D+00-0.591D+00
 Coeff-Com:  0.229D+01
 Coeff-En:   0.000D+00 0.000D+00 0.000D+00 0.000D+00 0.000D+00 0.000D+00
 Coeff-En:   0.000D+00 0.000D+00 0.000D+00 0.000D+00 0.000D+00 0.000D+00
 Coeff-En:   0.000D+00 0.000D+00 0.000D+00 0.000D+00 0.000D+00 0.000D+00
 Coeff-En:   0.100D+01
 Coeff:     -0.378D-04 0.616D-04-0.246D-04-0.609D-05 0.233D-03-0.235D-03
 Coeff:     -0.275D-03-0.262D-03 0.669D-04-0.122D-02 0.701D-02 0.803D-02
 Coeff:      0.131D-01 0.791D-02-0.221D-01-0.398D-01-0.671D+00-0.590D+00
 Coeff:      0.229D+01
 Gap=     0.134 Goal=   None    Shift=    0.000
 Gap=     0.021 Goal=   None    Shift=    0.000
 RMSDP=5.23D-05 MaxDP=1.72D-03 DE=-3.30D-05 OVMax= 1.96D-02

 Cycle  20  Pass 1  IDiag  1:
 RMSU=  1.49D-05    CP:  9.02D-01  6.65D-02  1.65D-01  6.31D-04  4.99D-01
                    CP:  3.39D-01  8.56D-01  5.86D-01  1.39D-01  4.51D-01
                    CP:  3.52D-01  8.65D-01  7.67D-01  9.36D-01  2.11D+00
                    CP:  1.45D+00  1.84D+00  3.00D+00  3.00D+00
 E= -2556.32887912343     Delta-E=       -0.000044069682 Rises=F Damp=F
 DIIS: error= 1.27D-04 at cycle  20 NSaved=  20.
 NSaved=20 IEnMin=20 EnMin= -2556.32887912343     IErMin=20 ErrMin= 1.27D-04
 ErrMax= 1.27D-04  0.00D+00 EMaxC= 1.00D-01 BMatC= 2.85D-05 BMatP= 5.67D-05
 IDIUse=3 WtCom= 9.99D-01 WtEn= 1.27D-03
 Coeff-Com:  0.396D-04-0.769D-04 0.849D-06 0.499D-05-0.162D-03 0.217D-04
 Coeff-Com: -0.145D-03-0.652D-04 0.243D-04 0.116D-03 0.306D-02 0.707D-02
 Coeff-Com:  0.111D-01-0.147D-01-0.158D+00-0.104D+00-0.637D+00-0.705D+00
 Coeff-Com:  0.198D+01 0.621D+00
 Coeff-En:   0.000D+00 0.000D+00 0.000D+00 0.000D+00 0.000D+00 0.000D+00
 Coeff-En:   0.000D+00 0.000D+00 0.000D+00 0.000D+00 0.000D+00 0.000D+00
 Coeff-En:   0.000D+00 0.000D+00 0.000D+00 0.000D+00 0.000D+00 0.000D+00
 Coeff-En:   0.000D+00 0.100D+01
 Coeff:      0.396D-04-0.768D-04 0.848D-06 0.499D-05-0.162D-03 0.217D-04
 Coeff:     -0.145D-03-0.651D-04 0.243D-04 0.115D-03 0.305D-02 0.706D-02
 Coeff:      0.111D-01-0.146D-01-0.157D+00-0.104D+00-0.636D+00-0.704D+00
 Coeff:      0.197D+01 0.621D+00
 Gap=     0.134 Goal=   None    Shift=    0.000
 Gap=     0.021 Goal=   None    Shift=    0.000
 RMSDP=3.82D-05 MaxDP=1.22D-03 DE=-4.41D-05 OVMax= 1.71D-02

 Cycle  21  Pass 1  IDiag  1:
 Restarting incremental Fock formation.
 E= -2556.32886720600     Delta-E=        0.000011917426 Rises=F Damp=F
 DIIS: error= 2.76D-04 at cycle  21 NSaved=  20.
 NSaved=20 IEnMin=19 EnMin= -2556.32887912343     IErMin=19 ErrMin= 1.27D-04
 ErrMax= 2.76D-04  0.00D+00 EMaxC= 1.00D-01 BMatC= 8.89D-05 BMatP= 2.85D-05
 IDIUse=3 WtCom= 9.99D-01 WtEn= 1.27D-03
 Rare condition: small coef for last iteration:  0.000D+00
 Coeff-Com:  0.409D-04-0.688D-04 0.167D-04-0.173D-03 0.260D-04 0.507D-04
 Coeff-Com:  0.610D-03 0.631D-05 0.304D-03-0.585D-03 0.246D-02 0.141D-01
 Coeff-Com:  0.150D-01-0.174D+00-0.113D+00-0.216D+00 0.535D-01 0.739D+00
 Coeff-Com: -0.356D-01 0.714D+00
 Coeff-En:   0.000D+00 0.000D+00 0.000D+00 0.000D+00 0.000D+00 0.000D+00
 Coeff-En:   0.000D+00 0.000D+00 0.000D+00 0.000D+00 0.000D+00 0.000D+00
 Coeff-En:   0.000D+00 0.000D+00 0.000D+00 0.000D+00 0.000D+00 0.124D-01
 Coeff-En:   0.000D+00 0.988D+00
 Coeff:      0.409D-04-0.688D-04 0.167D-04-0.173D-03 0.260D-04 0.507D-04
 Coeff:      0.610D-03 0.631D-05 0.304D-03-0.585D-03 0.246D-02 0.141D-01
 Coeff:      0.150D-01-0.174D+00-0.113D+00-0.216D+00 0.535D-01 0.739D+00
 Coeff:     -0.356D-01 0.714D+00
 Gap=     0.134 Goal=   None    Shift=    0.000
 Gap=     0.021 Goal=   None    Shift=    0.000
 RMSDP=1.29D-05 MaxDP=4.97D-04 DE= 1.19D-05 OVMax= 5.15D-03

 Cycle  22  Pass 1  IDiag  1:
 RMSU=  1.29D-05    CP:  1.00D+00
 E= -2556.32889247046     Delta-E=       -0.000025264452 Rises=F Damp=F
 DIIS: error= 1.92D-04 at cycle  22 NSaved=  20.
 NSaved=20 IEnMin=20 EnMin= -2556.32889247046     IErMin=18 ErrMin= 1.27D-04
 ErrMax= 1.92D-04  0.00D+00 EMaxC= 1.00D-01 BMatC= 4.50D-05 BMatP= 2.85D-05
 IDIUse=3 WtCom= 9.99D-01 WtEn= 1.27D-03
 Coeff-Com:  0.505D-04-0.887D-04-0.763D-04 0.208D-04 0.251D-03 0.638D-03
 Coeff-Com:  0.194D-04 0.462D-04-0.550D-03 0.162D-02 0.134D-01 0.299D-01
 Coeff-Com: -0.164D+00-0.113D+00 0.432D-01 0.392D+00-0.261D-01-0.546D+00
 Coeff-Com:  0.215D+00 0.115D+01
 Coeff-En:   0.000D+00 0.000D+00 0.000D+00 0.000D+00 0.000D+00 0.000D+00
 Coeff-En:   0.000D+00 0.000D+00 0.000D+00 0.000D+00 0.000D+00 0.000D+00
 Coeff-En:   0.000D+00 0.000D+00 0.000D+00 0.000D+00 0.000D+00 0.000D+00
 Coeff-En:   0.000D+00 0.100D+01
 Coeff:      0.505D-04-0.886D-04-0.762D-04 0.207D-04 0.251D-03 0.637D-03
 Coeff:      0.194D-04 0.461D-04-0.549D-03 0.162D-02 0.134D-01 0.299D-01
 Coeff:     -0.164D+00-0.113D+00 0.432D-01 0.391D+00-0.261D-01-0.545D+00
 Coeff:      0.214D+00 0.115D+01
 Gap=     0.134 Goal=   None    Shift=    0.000
 Gap=     0.021 Goal=   None    Shift=    0.000
 RMSDP=2.60D-05 MaxDP=1.10D-03 DE=-2.53D-05 OVMax= 1.25D-02

 Cycle  23  Pass 1  IDiag  1:
 RMSU=  1.01D-05    CP:  1.00D+00  2.86D+00
 E= -2556.32891601091     Delta-E=       -0.000023540453 Rises=F Damp=F
 DIIS: error= 9.78D-05 at cycle  23 NSaved=  20.
 NSaved=20 IEnMin=20 EnMin= -2556.32891601091     IErMin=20 ErrMin= 9.78D-05
 ErrMax= 9.78D-05  0.00D+00 EMaxC= 1.00D-01 BMatC= 1.23D-05 BMatP= 2.85D-05
 IDIUse=1 WtCom= 1.00D+00 WtEn= 0.00D+00
 Coeff-Com: -0.159D-05 0.326D-04-0.953D-05 0.856D-04 0.243D-03 0.181D-04
 Coeff-Com: -0.213D-03 0.870D-03-0.653D-03 0.506D-02 0.705D-02-0.496D-01
 Coeff-Com: -0.144D-01 0.647D-01 0.107D+00-0.834D-01-0.354D+00-0.359D+00
 Coeff-Com:  0.631D+00 0.104D+01
 Coeff:     -0.159D-05 0.326D-04-0.953D-05 0.856D-04 0.243D-03 0.181D-04
 Coeff:     -0.213D-03 0.870D-03-0.653D-03 0.506D-02 0.705D-02-0.496D-01
 Coeff:     -0.144D-01 0.647D-01 0.107D+00-0.834D-01-0.354D+00-0.359D+00
 Coeff:      0.631D+00 0.104D+01
 Gap=     0.134 Goal=   None    Shift=    0.000
 Gap=     0.021 Goal=   None    Shift=    0.000
 RMSDP=2.49D-05 MaxDP=1.05D-03 DE=-2.35D-05 OVMax= 1.22D-02

 Cycle  24  Pass 1  IDiag  1:
 RMSU=  2.13D-05    CP:  1.00D+00  3.00D+00  1.92D+00
 E= -2556.32892648648     Delta-E=       -0.000010475571 Rises=F Damp=F
 DIIS: error= 2.41D-05 at cycle  24 NSaved=  20.
 NSaved=20 IEnMin=20 EnMin= -2556.32892648648     IErMin=20 ErrMin= 2.41D-05
 ErrMax= 2.41D-05  0.00D+00 EMaxC= 1.00D-01 BMatC= 8.59D-07 BMatP= 1.23D-05
 IDIUse=1 WtCom= 1.00D+00 WtEn= 0.00D+00
 Coeff-Com:  0.155D-04-0.230D-04-0.103D-03-0.844D-04 0.134D-04-0.100D-03
 Coeff-Com:  0.139D-02 0.205D-03 0.279D-02-0.130D-01 0.302D-01 0.604D-01
 Coeff-Com: -0.399D-01-0.246D+00 0.136D+00 0.178D+00-0.110D+00-0.637D+00
 Coeff-Com:  0.702D+00 0.935D+00
 Coeff:      0.155D-04-0.230D-04-0.103D-03-0.844D-04 0.134D-04-0.100D-03
 Coeff:      0.139D-02 0.205D-03 0.279D-02-0.130D-01 0.302D-01 0.604D-01
 Coeff:     -0.399D-01-0.246D+00 0.136D+00 0.178D+00-0.110D+00-0.637D+00
 Coeff:      0.702D+00 0.935D+00
 Gap=     0.134 Goal=   None    Shift=    0.000
 Gap=     0.021 Goal=   None    Shift=    0.000
 RMSDP=1.54D-05 MaxDP=5.76D-04 DE=-1.05D-05 OVMax= 7.89D-03

 Cycle  25  Pass 1  IDiag  1:
 RMSU=  4.68D-06    CP:  1.00D+00  3.00D+00  2.90D+00  1.51D+00
 E= -2556.32892884873     Delta-E=       -0.000002362247 Rises=F Damp=F
 DIIS: error= 1.43D-05 at cycle  25 NSaved=  20.
 NSaved=20 IEnMin=20 EnMin= -2556.32892884873     IErMin=20 ErrMin= 1.43D-05
 ErrMax= 1.43D-05  0.00D+00 EMaxC= 1.00D-01 BMatC= 3.84D-07 BMatP= 8.59D-07
 IDIUse=1 WtCom= 1.00D+00 WtEn= 0.00D+00
 Coeff-Com: -0.350D-07-0.146D-03-0.161D-03 0.569D-05-0.334D-05 0.681D-03
 Coeff-Com:  0.465D-03 0.231D-02-0.130D-01 0.424D-01 0.618D-01-0.605D-01
 Coeff-Com: -0.253D+00 0.136D+00 0.320D+00 0.119D+00-0.919D+00 0.153D+00
 Coeff-Com:  0.717D+00 0.695D+00
 Coeff:     -0.350D-07-0.146D-03-0.161D-03 0.569D-05-0.334D-05 0.681D-03
 Coeff:      0.465D-03 0.231D-02-0.130D-01 0.424D-01 0.618D-01-0.605D-01
 Coeff:     -0.253D+00 0.136D+00 0.320D+00 0.119D+00-0.919D+00 0.153D+00
 Coeff:      0.717D+00 0.695D+00
 Gap=     0.134 Goal=   None    Shift=    0.000
 Gap=     0.021 Goal=   None    Shift=    0.000
 RMSDP=1.11D-05 MaxDP=4.14D-04 DE=-2.36D-06 OVMax= 5.80D-03

 Cycle  26  Pass 1  IDiag  1:
 RMSU=  6.39D-06    CP:  1.00D+00  3.00D+00  3.00D+00  1.87D+00  1.66D+00
 E= -2556.32892984026     Delta-E=       -0.000000991533 Rises=F Damp=F
 DIIS: error= 7.43D-06 at cycle  26 NSaved=  20.
 NSaved=20 IEnMin=20 EnMin= -2556.32892984026     IErMin=20 ErrMin= 7.43D-06
 ErrMax= 7.43D-06  0.00D+00 EMaxC= 1.00D-01 BMatC= 1.16D-07 BMatP= 3.84D-07
 IDIUse=1 WtCom= 1.00D+00 WtEn= 0.00D+00
 Coeff-Com: -0.303D-04-0.986D-05-0.120D-05-0.430D-05 0.124D-05-0.242D-04
 Coeff-Com:  0.116D-02-0.347D-03 0.725D-02 0.947D-02-0.162D-01-0.350D-01
 Coeff-Com:  0.302D-01 0.860D-01 0.112D+00-0.258D+00-0.153D+00-0.485D-01
 Coeff-Com:  0.354D+00 0.910D+00
 Coeff:     -0.303D-04-0.986D-05-0.120D-05-0.430D-05 0.124D-05-0.242D-04
 Coeff:      0.116D-02-0.347D-03 0.725D-02 0.947D-02-0.162D-01-0.350D-01
 Coeff:      0.302D-01 0.860D-01 0.112D+00-0.258D+00-0.153D+00-0.485D-01
 Coeff:      0.354D+00 0.910D+00
 Gap=     0.134 Goal=   None    Shift=    0.000
 Gap=     0.021 Goal=   None    Shift=    0.000
 RMSDP=5.79D-06 MaxDP=2.21D-04 DE=-9.92D-07 OVMax= 3.03D-03

 Cycle  27  Pass 1  IDiag  1:
 RMSU=  1.14D-06    CP:  1.00D+00  3.00D+00  3.00D+00  2.06D+00  2.08D+00
                    CP:  1.55D+00
 E= -2556.32893011613     Delta-E=       -0.000000275866 Rises=F Damp=F
 DIIS: error= 5.30D-06 at cycle  27 NSaved=  20.
 NSaved=20 IEnMin=20 EnMin= -2556.32893011613     IErMin=20 ErrMin= 5.30D-06
 ErrMax= 5.30D-06  0.00D+00 EMaxC= 1.00D-01 BMatC= 6.94D-08 BMatP= 1.16D-07
 IDIUse=1 WtCom= 1.00D+00 WtEn= 0.00D+00
 Coeff-Com:  0.198D-04 0.273D-04-0.830D-05-0.115D-03-0.168D-03-0.675D-04
 Coeff-Com:  0.244D-02-0.937D-02-0.108D-01 0.140D-01 0.489D-01-0.289D-01
 Coeff-Com: -0.419D-01 0.452D-01 0.974D-01-0.132D+00-0.247D+00-0.175D-01
 Coeff-Com:  0.475D+00 0.806D+00
 Coeff:      0.198D-04 0.273D-04-0.830D-05-0.115D-03-0.168D-03-0.675D-04
 Coeff:      0.244D-02-0.937D-02-0.108D-01 0.140D-01 0.489D-01-0.289D-01
 Coeff:     -0.419D-01 0.452D-01 0.974D-01-0.132D+00-0.247D+00-0.175D-01
 Coeff:      0.475D+00 0.806D+00
 Gap=     0.134 Goal=   None    Shift=    0.000
 Gap=     0.021 Goal=   None    Shift=    0.000
 RMSDP=4.06D-06 MaxDP=1.60D-04 DE=-2.76D-07 OVMax= 2.13D-03

 Cycle  28  Pass 1  IDiag  1:
 RMSU=  5.47D-07    CP:  1.00D+00  3.00D+00  3.00D+00  2.20D+00  2.30D+00
                    CP:  1.92D+00  1.44D+00
 E= -2556.32893020366     Delta-E=       -0.000000087530 Rises=F Damp=F
 DIIS: error= 4.70D-06 at cycle  28 NSaved=  20.
 NSaved=20 IEnMin=20 EnMin= -2556.32893020366     IErMin=20 ErrMin= 4.70D-06
 ErrMax= 4.70D-06  0.00D+00 EMaxC= 1.00D-01 BMatC= 2.80D-08 BMatP= 6.94D-08
 IDIUse=1 WtCom= 1.00D+00 WtEn= 0.00D+00
 Coeff-Com:  0.181D-04 0.555D-05 0.654D-04-0.340D-04-0.379D-03-0.680D-04
 Coeff-Com: -0.759D-02-0.570D-02 0.905D-02 0.198D-01-0.764D-02-0.332D-01
 Coeff-Com:  0.924D-02 0.962D-01-0.258D-01-0.898D-01-0.103D+00-0.755D-01
 Coeff-Com:  0.316D+00 0.899D+00
 Coeff:      0.181D-04 0.555D-05 0.654D-04-0.340D-04-0.379D-03-0.680D-04
 Coeff:     -0.759D-02-0.570D-02 0.905D-02 0.198D-01-0.764D-02-0.332D-01
 Coeff:      0.924D-02 0.962D-01-0.258D-01-0.898D-01-0.103D+00-0.755D-01
 Coeff:      0.316D+00 0.899D+00
 Gap=     0.134 Goal=   None    Shift=    0.000
 Gap=     0.021 Goal=   None    Shift=    0.000
 RMSDP=1.04D-06 MaxDP=3.36D-05 DE=-8.75D-08 OVMax= 4.83D-04

 Cycle  29  Pass 1  IDiag  1:
 RMSU=  3.57D-07    CP:  1.00D+00  3.00D+00  3.00D+00  2.22D+00  2.38D+00
                    CP:  2.03D+00  1.69D+00  1.38D+00
 E= -2556.32893021246     Delta-E=       -0.000000008807 Rises=F Damp=F
 DIIS: error= 3.61D-06 at cycle  29 NSaved=  20.
 NSaved=20 IEnMin=20 EnMin= -2556.32893021246     IErMin=20 ErrMin= 3.61D-06
 ErrMax= 3.61D-06  0.00D+00 EMaxC= 1.00D-01 BMatC= 1.86D-08 BMatP= 2.80D-08
[...]
 488,0.00004706,0.00001028,-0.00003009,-0.00008502,0.00007296,-0.000071
 22,-0.00015803,-0.00006735,0.00015084,-0.00006204,0.00016288,-0.000430
 20,-0.00006053,-0.00008201,0.00026470,0.00001991,-0.00020272,0.0000618
 1,0.00055923,-0.00028385,0.00019542,-0.00025254,-0.00070259,0.00273532
 ,0.01145307,-0.00592677,0.00752222,-0.19283212,0.09545396,-0.10830838,
 -0.01435543,0.01453039,-0.01682282,-0.00440535,-0.00037295,0.00241305,
 0.00020350,-0.00066684,0.00082180,0.00000795,0.00001060,-0.00002084,0.
 00001534,-0.00000042,0.00002839,-0.00000071,-0.00000004,-0.00000047,-0
 .00000214,0.00000133,0.00000051,0.00000115,-0.00000140,0.00000079,-0.0
 0000068,0.00000059,0.,-0.00000352,-0.00000246,-0.00000160,0.00000267,0
 .00000142,0.00000045,-0.00000017,-0.00000252,0.00000117,0.00005078,-0.
 00001518,0.00004198,0.00000343,0.00003390,0.00001244,0.00063505,-0.000
 36631,-0.00046308,0.19857410,0.00002536,0.00012561,-0.00009183,-0.0000
 4983,-0.00013145,0.00003038,-0.00000110,-0.00001798,0.00000687,-0.0000
 7879,-0.00016028,0.00008809,0.00002565,0.00015454,-0.00008744,0.000034
 22,0.00002541,0.00001201,-0.00001788,-0.00000786,0.00002827,-0.0000613
 3,0.00000567,-0.00001641,0.00008553,-0.00000800,-0.00003240,-0.0001673
 0,0.00015385,0.00006510,0.00006457,-0.00070270,-0.00039556,0.00006275,
 0.00019541,0.00012833,-0.00026489,-0.00057131,-0.00020060,0.00057292,-
 0.00037165,-0.00001071,-0.00078192,0.00472046,0.00562128,0.01165111,-0
 .00134897,0.00898821,0.09498395,-0.11588349,0.08386192,-0.00276217,0.0
 0686654,-0.00018242,-0.00048037,0.00399341,0.00266155,-0.00036493,-0.0
 0019335,-0.00050586,0.00013572,-0.00002703,0.00008060,-0.00001102,-0.0
 0005248,-0.00002739,-0.00000063,0.00000538,0.00000264,0.00000111,-0.00
 000055,0.00000437,0.00000017,0.00000597,-0.00000230,-0.00000217,0.0000
 0019,0.00000163,0.00001424,0.00000830,0.00000384,0.00000913,0.00001067
 ,0.00000437,0.00001062,-0.00000064,0.00000235,0.00006593,0.00002812,0.
 00004969,0.00000600,0.00015582,0.00006997,-0.00044014,-0.00257518,-0.0
 0264316,-0.10181337,0.10772528,-0.00000569,-0.00003918,0.00003422,-0.0
 0001251,-0.00000588,-0.00002201,0.00004353,0.00001874,0.00005329,-0.00
 001498,0.00003980,-0.00001874,-0.00000101,0.00000114,0.00003752,-0.000
 03092,-0.00002475,-0.00004414,0.00001706,0.00001804,-0.00003384,-0.000
 03262,0.00000672,0.00001255,0.00006516,-0.00003052,-0.00000958,0.00016
 922,0.00006943,0.00001633,-0.00025595,-0.00045592,-0.00028847,0.000234
 45,0.00016308,0.00017758,-0.00017366,-0.00011587,-0.00060783,-0.000884
 15,-0.00000926,-0.00010644,0.00268710,0.00569220,-0.00016421,-0.017336
 38,0.01243873,-0.00790411,-0.10774143,0.08366297,-0.14365093,0.0076629
 7,-0.00341334,0.00973174,0.00265651,0.00249918,0.00177295,0.00055797,-
 0.00035933,-0.00021197,0.00000667,-0.00000432,-0.00002975,-0.00004191,
 0.00000496,-0.00002440,-0.00000099,0.00000001,0.00000020,-0.00000167,0
 .00000040,-0.00000205,-0.00000522,0.00000197,-0.00000011,-0.00000131,-
 0.00000045,-0.00000050,-0.00000605,-0.00000175,0.00000416,-0.00000795,
 -0.00000792,0.00000338,0.00000126,0.00000129,-0.00000048,-0.00006516,0
 .00006743,-0.00002331,0.00001236,0.00010677,0.00006369,-0.00038652,-0.
 00267480,-0.00060145,0.11305532,-0.09541771,0.14225734,-0.00000451,0.0
 0000681,-0.00001053,0.00000601,0.00000990,0.00000240,-0.00001494,-0.00
 000877,-0.00000738,-0.00000534,-0.00001920,0.00005727,-0.00001313,0.00
 000822,-0.00005355,0.00001834,0.00000902,0.00002577,-0.00000249,-0.000
 01247,0.00002889,0.00004029,0.00000742,-0.00002679,-0.00010264,0.00001
 235,0.00002589,0.00037233,-0.00004337,-0.00000423,0.00071838,0.0002655
 0,-0.00045214,-0.00019692,0.00031881,-0.00047744,-0.00018912,0.0000650
 3,0.00004666,0.00005672,-0.00015336,0.00014268,-0.00057484,0.00028963,
 -0.00050579,-0.00558060,0.00050431,0.00137210,-0.00348633,-0.01609631,
 0.02465808,-0.08164472,-0.04150889,0.06541850,0.00938813,0.01316505,-0
 .01905958,-0.00310220,0.00267299,-0.00202810,-0.00003130,-0.00001088,-
 0.00002196,-0.00008741,0.00004054,-0.00005338,0.00000056,-0.00000064,-
 0.00000092,0.00000221,-0.00000206,-0.00000171,-0.00000483,0.00000235,-
 0.00000220,-0.00000368,-0.00000080,-0.00000356,-0.00000501,0.00001329,
 -0.00000658,-0.00000593,0.00000626,-0.00002572,-0.00001212,0.00001857,
 -0.00000586,0.00002124,-0.00001125,-0.00000485,-0.00000368,0.00003392,
 -0.00005770,-0.00014020,-0.00076502,0.00104097,0.00119750,-0.00022470,
 -0.00049379,0.08235605,0.00002278,0.00014619,-0.00011781,0.00000406,-0
 .00004248,0.00006026,-0.00010657,-0.00005261,-0.00010970,-0.00001213,-
 0.00017965,0.00012518,0.00001216,0.00008555,-0.00013126,0.00008244,0.0
 0006659,0.00010232,-0.00003595,-0.00005652,0.00007734,-0.00001166,-0.0
 0004209,-0.00000212,0.00009462,0.00006676,-0.00001560,-0.00012268,0.00
 013076,0.00021633,-0.00046160,0.00027839,0.00030362,0.00006935,-0.0008
 1226,-0.00008006,-0.00006344,0.00022561,0.00006835,-0.00004225,-0.0005
 3698,-0.00009001,0.00013819,-0.00016959,-0.00084085,0.00059699,0.00395
 965,0.00242461,0.00158877,0.00588894,0.00134438,-0.04112230,-0.1302212
 9,0.12925159,-0.00462707,-0.00167220,0.01184417,0.00264529,0.00457939,
 0.00401271,0.00013031,-0.00000563,-0.00004344,-0.00003322,0.00000484,-
 0.00004319,0.00000063,0.00000283,0.00000015,0.00000528,-0.00000246,0.0
 0000478,0.00000224,0.00000428,-0.00000394,-0.00000275,0.00000228,0.000
 00352,0.00002219,0.00001341,-0.00000125,0.00001105,0.00003179,0.000003
 74,0.00001830,-0.00000321,0.00000510,0.00001100,0.00004598,0.00001815,
 0.00000334,0.00000878,0.00001341,0.00004220,-0.00043575,-0.00038723,-0
 .00034795,-0.00186174,-0.00171325,0.04208137,0.12320956,-0.00000068,0.
 00001271,-0.00001039,-0.00001816,-0.00002505,-0.00000540,-0.00000270,0
 .00001156,0.00003156,-0.00002707,-0.00002648,0.00004032,0.00000598,0.0
 0004784,-0.00002768,0.00000507,-0.00000166,-0.00000502,-0.00000761,-0.
 00002206,0.00001546,-0.00000480,-0.00001662,-0.00000162,0.00005975,0.0
 0004156,-0.00000326,-0.00007013,0.00014960,0.00004296,0.00065388,0.000
 22087,0.00001506,-0.00045869,-0.00038590,-0.00029452,0.00024635,0.0000
 5604,0.00021785,-0.00007279,-0.00009562,-0.00048547,-0.00030521,-0.000
 81246,0.00047969,0.00113124,0.00218569,0.00247092,0.00019498,0.0047187
 5,0.00029813,0.06485259,0.12928799,-0.23855878,0.00542312,0.00863628,-
 0.00695702,-0.00167114,0.00432409,0.00190595,0.00015024,-0.00004028,0.
 00005853,-0.00006906,-0.00000990,-0.00008810,-0.00000206,0.00000153,0.
 00000055,0.00000501,-0.00000348,-0.00000344,-0.00000572,0.00000364,-0.
 00000288,-0.00000489,0.00000041,0.00000032,0.00000381,0.00000459,0.000
 00263,-0.00000819,0.00001252,-0.00000049,0.00000199,0.00000252,0.00000
 177,0.00002249,0.00004392,0.00001389,-0.00000086,0.00000527,-0.0000089
 0,-0.00015903,-0.00024977,-0.00030513,-0.00028492,-0.00175490,-0.00059
 441,-0.06946692,-0.14362880,0.24258188,0.00010390,0.00062933,-0.000524
 70,-0.00010755,-0.00039986,0.00020264,-0.00018333,-0.00011861,-0.00024
 135,-0.00022463,-0.00082117,0.00040803,0.00003456,0.00046688,-0.000695
 14,0.00033155,0.00022167,0.00042351,-0.00010478,-0.00011715,0.00037375
 ,-0.00176169,0.00057178,-0.00021185,-0.00776944,0.00283297,-0.00147041
 ,0.00114617,0.00155768,-0.00245277,0.00019416,-0.00024033,-0.00021615,
 0.00028923,-0.00013957,-0.00006873,-0.00048797,0.00008161,-0.00004240,
 0.00027732,-0.00023523,0.00044307,0.00134016,0.00053123,0.00004029,0.0
 0084412,0.00044435,-0.00095328,-0.00142068,0.00187395,-0.00120483,-0.0
 1265405,-0.00218286,0.00690111,-0.33376041,-0.02197101,0.08097661,-0.0
 0043697,0.00057632,0.00015669,0.00042605,-0.00076696,0.00139717,0.0001
 1840,-0.00025038,0.00012560,0.00000456,0.00000941,0.00000787,0.0000051
 4,0.00000394,0.00002763,0.00001833,0.00001052,-0.00001322,-0.00001326,
 -0.00000190,0.00000525,0.00009092,0.00003406,-0.00000518,-0.00007084,-
 0.00004098,-0.00007452,0.00004007,0.00007270,-0.00001161,-0.00001103,-
 0.00001460,-0.00001212,0.00005378,-0.00002752,-0.00002450,-0.00002234,
 -0.00005674,0.00000222,-0.00049552,-0.00023944,0.00029772,0.00093342,-
 0.00053709,-0.00017467,0.35329705,0.00001100,0.00001208,0.00000249,-0.
 00006374,-0.00014447,-0.00001701,0.00014547,-0.00005705,0.00009009,-0.
 00010392,0.00004270,0.00002063,-0.00002276,0.00008088,0.00007203,-0.00
 005402,-0.00003813,-0.00015943,0.00007467,0.00023613,-0.00019835,0.001
 26302,0.00026561,-0.00032128,0.00254056,-0.00058024,-0.00018657,-0.000
 82622,-0.00186511,0.00304667,-0.00030357,-0.00087437,-0.00203230,-0.00
 042553,-0.00027701,0.00037703,0.00063068,-0.00005731,-0.00016906,-0.00
 138502,0.00073793,-0.00010402,0.00081043,0.00155220,0.00515659,-0.0000
 3174,-0.00076637,0.00002555,0.00240274,0.00376777,0.00475284,0.0149241
 7,0.00717360,-0.00239029,-0.02033298,-0.04740225,0.01412427,-0.0163530
 0,0.00246067,0.00441154,0.00004203,0.00071292,-0.00087340,-0.00037790,
 0.00011743,0.00005641,-0.00000260,0.00000800,0.00000169,-0.00002228,0.
 00000571,0.00000703,-0.00001047,0.00001093,0.00000592,-0.00000910,-0.0
 0000219,-0.00000599,-0.00003558,0.00000170,0.00000504,-0.00007878,-0.0
 0005162,-0.00001948,-0.00001335,-0.00000631,0.00003456,0.00004333,0.00
 003149,0.00003963,-0.00006944,-0.00019104,0.00011283,-0.00009913,-0.00
 043429,-0.00035274,0.00050827,-0.00030174,-0.00048973,-0.00055768,-0.0
 0264957,-0.00261855,0.01785504,0.03863022,0.00005305,0.00026105,-0.000
 20429,-0.00012194,-0.00030015,0.00004731,0.00008645,0.00001288,0.00004
 735,-0.00022004,-0.00038849,0.00011048,0.00003770,0.00033081,-0.000239
 95,0.00007427,0.00004577,0.00007721,0.00008396,0.00004959,-0.00002801,
 -0.00156741,0.00005074,0.00070647,-0.00048334,-0.00017069,0.00030204,0
 .00069656,0.00216765,-0.00295483,-0.00018063,-0.00180644,0.00028613,0.
 00033385,0.00004243,-0.00029869,-0.00070037,0.00013668,-0.00015758,0.0
 0156273,-0.00040619,0.00079047,-0.00029959,0.00540082,-0.00221030,-0.0
 0012489,-0.00020657,-0.00043731,-0.00185005,0.00510104,0.00060839,-0.0
 1813951,0.00023113,0.00993661,0.07957768,0.01507962,-0.07524741,0.0243
 9960,0.00102224,-0.00238575,0.00030582,-0.00051132,0.00095062,0.000148
 95,-0.00030044,0.00010663,0.00000003,0.00000608,0.00000495,-0.00000691
 ,0.00000911,0.00001388,-0.00000780,0.00001431,-0.00001148,-0.00001083,
 -0.00000281,0.00000675,0.00008363,0.00000250,0.00004956,-0.00010515,-0
 .00006826,0.00009567,0.00014025,-0.00005853,0.00001345,-0.00003857,0.0
 0002334,-0.00000143,0.00001695,0.00014813,-0.00029984,-0.00001163,-0.0
 0038840,-0.00019013,-0.00078288,-0.00035250,0.00011702,-0.00015805,-0.
 00263078,-0.00085883,-0.08293465,-0.02267426,0.07134737,-0.00022687,-0
 .00132135,0.00061580,-0.00025822,0.00087057,0.00011968,0.00068858,0.00
 026961,0.00118739,0.00753770,-0.01848978,-0.00540797,-0.00158385,-0.00
 186491,-0.00118972,-0.00117156,-0.00034100,0.00015856,-0.00002177,-0.0
 0045626,-0.00055626,0.00117601,0.00109665,-0.00032612,-0.00013964,0.00
 098280,-0.00068885,-0.00217073,-0.00076830,0.00493428,-0.00058926,-0.0
 0041371,-0.00163302,-0.00014963,0.00012507,0.00019747,0.00016310,-0.00
 020717,-0.00003230,-0.00028474,0.00001330,-0.00023729,0.00031219,0.000
 04433,0.00012014,-0.00015709,-0.00020952,0.00031936,0.00044820,0.00026
 991,-0.00050389,-0.00073130,0.00025348,-0.00027785,0.00032675,-0.00030
 167,0.00026807,-0.00049659,-0.00027928,0.00049477,-0.02183113,0.028964
 06,0.00739521,-0.06434665,0.07089425,0.01336091,0.00006254,-0.00002303
 ,-0.00002874,-0.00001003,0.00000023,-0.00005840,0.00032529,0.00004737,
 -0.00026852,-0.00015334,-0.00006845,-0.00011720,-0.00005996,-0.0000746
 4,0.00006475,-0.00009312,-0.00017854,0.00016550,0.00040081,-0.00023070
 ,0.00007783,-0.00001615,0.00006948,0.00006042,0.00000005,0.00003471,0.
 00004095,-0.00002474,0.00002473,-0.00000154,0.00000133,0.00001292,-0.0
 0000467,-0.00000652,0.00001575,0.00000301,0.00009454,-0.00002481,0.000
 05599,0.08263978,0.00006193,-0.00002669,0.00005580,-0.00075427,-0.0001
 8325,-0.00011985,0.00066830,0.00069358,0.00148681,0.00036557,-0.010248
 38,-0.00374096,-0.00025027,-0.00109585,-0.00105007,-0.00057818,-0.0002
 1704,0.00032260,0.00053690,-0.00076048,0.00064860,0.00243668,-0.008766
 49,-0.00320028,0.00063888,-0.00084326,-0.00055278,-0.00142149,-0.00029
 742,0.00112123,0.00027657,-0.00037329,-0.00055641,-0.00017594,-0.00005
 504,0.00014907,0.00011289,-0.00006869,-0.00001493,-0.00016328,0.000015
 89,-0.00009494,0.00019709,0.00000641,0.00006307,-0.00006683,-0.0001056
 5,0.00015738,0.00024257,0.00013307,-0.00026403,-0.00038093,0.00015357,
 -0.00014765,0.00016998,-0.00018623,0.00018412,-0.00026004,0.00002343,0
 .00020797,-0.00003962,0.00943236,0.00082300,0.07784250,-0.28843462,-0.
 04894185,0.00009480,-0.00003887,-0.00006506,-0.00001101,-0.00000647,-0
 .00001774,0.00024532,-0.00010230,-0.00043007,-0.00006453,-0.00003155,-
 0.00008635,-0.00009317,-0.00020768,0.00003489,-0.00025104,-0.00035130,
 0.00010974,-0.00008173,0.00122332,-0.00020742,-0.00000585,0.00002430,0
 .00001970,0.00000091,0.00001096,0.00001343,-0.00001143,0.00000639,-0.0
 0000217,0.00000236,0.00000517,-0.00000376,-0.00000374,0.00000818,0.000
 00251,0.00003269,-0.00001953,-0.00001359,-0.07929618,0.30061449,0.0000
 2521,-0.00048997,0.00010741,0.00012085,0.00105313,0.00035131,-0.000305
 18,-0.00008483,0.00055906,0.00358076,-0.01927644,-0.00232818,-0.001058
 30,-0.00117419,-0.00237147,-0.00031465,-0.00014789,0.00088212,-0.00048
 923,0.00145651,-0.00223250,-0.00507457,0.02117835,0.00794584,-0.004953
 47,0.00255152,-0.00024209,0.00131026,0.00157518,-0.00504534,0.00041263
 ,0.00033353,0.00055918,-0.00008384,-0.00011203,0.00005625,0.00017409,-
 0.00015295,0.00013783,0.00003670,0.00007889,-0.00015034,-0.00015497,-0
 .00003854,0.00001927,0.00000147,0.00005013,-0.00005577,-0.00012245,-0.
 00003972,0.00011912,0.00006822,-0.00008338,0.00006682,0.00001691,0.000
 03290,-0.00004696,0.00021085,0.00019086,-0.00020025,0.00927045,-0.0117
 3673,0.00016299,0.01456463,-0.04928620,-0.06135752,-0.00000021,0.00001
 509,-0.00001070,-0.00000151,0.00001455,-0.00000646,0.00022556,0.000181
 28,-0.00046769,-0.00018349,-0.00003689,-0.00008479,0.00017260,0.000302
 80,0.00007263,0.00044663,0.00061272,0.00005359,-0.00036550,-0.00069206
 ,0.00145893,-0.00000813,0.00001504,0.00001707,-0.00000355,0.00000010,0
 .00001487,0.00000184,-0.00001269,-0.00000612,-0.00000730,-0.00000040,0
 .00000458,0.00000813,-0.00000222,-0.00000188,0.00002102,-0.00001766,0.
 00009261,-0.01790050,0.05390882,0.06209299,0.00034868,0.00216343,-0.00
 117294,-0.00153618,-0.00328810,-0.00017249,0.00161463,-0.00016228,0.00
 176633,-0.00127340,-0.00326210,0.00094462,0.00160405,0.00382511,-0.001
 25639,-0.00037893,0.00023002,-0.00077535,-0.00053219,-0.00031014,0.000
 76904,-0.00163342,0.00013075,-0.00013025,0.00057894,0.00331626,-0.0040
 2468,0.00933486,-0.00586895,0.00519699,0.00261348,0.00560318,-0.007790
 29,-0.02717677,0.01576576,-0.01367582,-0.01585152,0.00276220,-0.000811
 13,0.00334301,-0.00312627,0.00410107,-0.00311390,0.00204320,-0.0020560
 4,0.00106733,-0.00002678,-0.00023399,-0.00209030,-0.00153929,0.0025845
 5,0.00469227,-0.00178480,0.00166899,-0.00106628,0.00211445,-0.00278354
 ,0.00141439,-0.00148113,0.00234548,-0.02796249,-0.01251502,0.02468195,
 -0.00233649,-0.00112986,0.00183353,0.00008080,0.00007375,-0.00001550,-
 0.00000358,0.00000010,0.00005072,-0.00020311,0.00060467,-0.00018220,0.
 00003927,-0.00006256,-0.00000589,0.00025267,0.00004998,0.00000952,0.00
 019040,0.00013648,0.00006691,0.00013678,0.00005104,-0.00004046,-0.0007
 8678,0.00067920,-0.00017260,0.00027393,-0.00016659,0.00016649,0.000121
 90,-0.00005528,0.00001917,-0.00006523,0.00000010,0.00003727,0.00010730
 ,-0.00007164,0.00005580,-0.00011894,-0.00004777,0.00008676,0.00034601,
 -0.00001640,0.00035806,0.05796880,0.00000811,0.00021776,0.00022945,-0.
 00103635,-0.00184901,-0.00046725,0.00153355,0.00094135,0.00169634,-0.0
 0067690,-0.00056855,0.00158317,0.00110750,0.00271855,0.00020120,-0.001
 00940,-0.00052909,-0.00144351,0.00047016,-0.00063024,-0.00019874,-0.00
 037134,0.00053338,-0.00042014,0.00258877,0.00318445,-0.00299808,0.0005
 2627,-0.00957736,0.01463297,0.00221438,-0.00735672,0.00913483,0.017184
 20,-0.01993884,0.00914776,0.00749555,0.00214757,-0.00207799,-0.0032573
 5,0.00306182,-0.00098320,0.00331481,-0.00143970,0.00108331,-0.00089675
 ,-0.00076246,0.00094360,0.00280974,0.00191344,-0.00305969,-0.00529058,
 0.00191631,-0.00179213,0.00157890,-0.00194071,0.00284299,-0.00253082,0
 .00119067,0.00026400,-0.01395521,-0.01696871,0.01907039,-0.00717876,0.
 00083613,-0.00249913,0.00001724,0.00000966,0.00001148,0.00010113,-0.00
 004195,-0.00010653,-0.00032817,0.00038821,-0.00004257,-0.00001333,-0.0
 0003845,-0.00001311,0.00003242,0.00022368,0.00011753,-0.00007911,0.000
 02731,0.00007250,0.00009472,0.00031165,-0.00017313,-0.00023186,-0.0003
 7766,-0.00014691,-0.00031998,0.00005520,-0.00041588,-0.00013501,0.0000
 4256,-0.00004563,0.00006502,0.00003062,-0.00002509,-0.00011222,-0.0000
 1576,-0.00007835,0.00035528,-0.00012938,0.00014349,0.00056006,0.000068
 95,-0.00016665,-0.00463470,0.04234533,-0.00018883,-0.00079304,0.000152
 74,0.00090859,0.00152211,-0.00001289,-0.00056643,-0.00085968,-0.001336
 26,0.00110702,0.00151191,-0.00125827,-0.00112005,-0.00291025,0.0006069
 2,0.00046423,0.00021466,0.00064305,-0.00007808,0.00085984,0.00001944,0
 .00137156,-0.00033258,0.00045859,-0.00305068,-0.00368546,0.00758114,-0
 .00449941,0.01717644,-0.02059236,-0.00358320,0.00882130,-0.00928208,-0
 .01427534,0.00937803,-0.01526014,-0.00558432,-0.00228103,0.00357476,0.
 00370741,-0.00139421,0.00202260,-0.00427310,0.00171087,-0.00180422,0.0
 0127538,0.00029687,-0.00091205,-0.00313520,-0.00208587,0.00352734,0.00
 624602,-0.00232517,0.00206320,-0.00215352,0.00250300,-0.00294884,0.003
 61004,0.00091713,-0.00048517,0.02650503,0.01678915,-0.03734760,0.00927
 730,-0.00076819,0.00171837,-0.00006719,0.00001402,-0.00000336,-0.00023
 688,0.00003458,0.00006711,0.00017533,0.00006646,0.00024371,-0.00000435
 ,0.00002037,-0.00000571,-0.00028022,-0.00034625,-0.00017170,-0.0000533
 6,-0.00014468,-0.00010014,-0.00021938,-0.00014811,-0.00002750,0.000563
 58,-0.00014070,0.00015996,0.00028603,-0.00004217,0.00040125,0.00016450
 ,-0.00001838,0.00007893,-0.00006485,0.00001016,0.00005216,0.00010141,-
 0.00003819,0.00003577,-0.00047810,0.00028726,-0.00018516,-0.00040725,0
 .00020114,-0.00016642,-0.01144370,-0.04402132,0.06849285\\-0.00000045,
 0.00000691,-0.00000740,-0.00000202,-0.00000498,0.00000186,-0.00000228,
 -0.00000093,0.00000056,0.00001167,0.00001746,-0.00000521,-0.00000594,-
 0.00001818,0.00000546,0.00000534,0.00000446,0.00000802,0.00000221,0.00
 000769,-0.00000522,-0.00001523,0.00001199,-0.00000953,0.00001315,-0.00
 001440,0.00000833,-0.00001224,0.00001572,-0.00001301,-0.00000571,-0.00
 000003,0.00000413,0.00000628,0.00000735,-0.00000080,-0.00000467,-0.000
 00479,-0.00000089,0.00000429,-0.00000101,0.00000203,-0.00001405,-0.000
 00114,-0.00000238,0.00000425,-0.00000222,0.00000440,0.00000569,0.00000
 262,-0.00000369,-0.00000697,0.00000145,-0.00000009,-0.00000099,-0.0000
 0025,0.00000383,0.00001239,-0.00000039,-0.00000597,0.00002095,-0.00000
 277,0.00000169,-0.00002302,-0.00001716,0.00001410,-0.00000021,-0.00000
 120,0.00000225,0.00000088,0.00000128,0.00000023,0.00000061,-0.00000093
 ,-0.00000037,-0.00000056,-0.00000017,-0.00000128,0.00000015,-0.0000025
 3,0.00000147,-0.00000026,-0.00000096,0.00000304,0.00000322,-0.00000030
 ,0.00000029,0.00000101,0.00000202,0.00000137,-0.00000057,-0.00000133,-
 0.00000145,-0.00000050,-0.00000100,-0.00000094,-0.00000130,-0.00000013
 ,0.00000098,0.00000126,-0.00000014,-0.00000005,-0.00000128,0.00000075,
 -0.00000015,0.00000178,0.00000029,-0.00000175,0.00000310,-0.00000304,-
 0.00000386\\\@
 The archive entry for this job was punched.


 SEEN ON A WALL AT THE UNIVERSITY OF ILLINOIS AT CHICAGO CIRCLE:

 TO DO IS TO BE  -- SOCRATES
 TO BE IS TO DO  -- SARTRE
 OO BE DO BE DO  -- SINATRA
 Job cpu time:       0 days  2 hours 26 minutes  8.5 seconds.
 Elapsed time:       0 days  0 hours  4 minutes 35.5 seconds.
 File lengths (MBytes):  RWF=   1181 Int=      0 D2E=      0 Chk=     17 Scr=      1
 Normal termination of Gaussian 16 at Thu Aug  1 11:03:33 2024.
