 Entering Gaussian System, Link 0=g16
 Initial command:
 /public/software/apps/Gaussian/g16/l1.exe "/public/home/LJQ_HG/tmp/Gau-125091.inp" -scrdir="/public/home/LJQ_HG/tmp/"
 Entering Link 1 = /public/software/apps/Gaussian/g16/l1.exe PID=    125123.
  
 Copyright (c) 1988-2019, Gaussian, Inc.  All Rights Reserved.
  
 This is part of the Gaussian(R) 16 program.  It is based on
 the Gaussian(R) 09 system (copyright 2009, Gaussian, Inc.),
 the Gaussian(R) 03 system (copyright 2003, Gaussian, Inc.),
 the Gaussian(R) 98 system (copyright 1998, Gaussian, Inc.),
 the Gaussian(R) 94 system (copyright 1995, Gaussian, Inc.),
 the Gaussian 92(TM) system (copyright 1992, Gaussian, Inc.),
 the Gaussian 90(TM) system (copyright 1990, Gaussian, Inc.),
 the Gaussian 88(TM) system (copyright 1988, Gaussian, Inc.),
 the Gaussian 86(TM) system (copyright 1986, Carnegie Mellon
 University), and the Gaussian 82(TM) system (copyright 1983,
 Carnegie Mellon University). Gaussian is a federally registered
 trademark of Gaussian, Inc.
  
 This software contains proprietary and confidential information,
 including trade secrets, belonging to Gaussian, Inc.
  
 This software is provided under written license and may be
 used, copied, transmitted, or stored only in accord with that
 written license.
  
 The following legend is applicable only to US Government
 contracts under FAR:
  
                    RESTRICTED RIGHTS LEGEND
  
 Use, reproduction and disclosure by the US Government is
 subject to restrictions as set forth in subparagraphs (a)
 and (c) of the Commercial Computer Software - Restricted
 Rights clause in FAR 52.227-19.
  
 Gaussian, Inc.
 340 Quinnipiac St., Bldg. 40, Wallingford CT 06492
  
  
 ---------------------------------------------------------------
 Warning -- This program may not be used in any manner that
 competes with the business of Gaussian, Inc. or will provide
 assistance to any competitor of Gaussian, Inc.  The licensee
 of this program is prohibited from giving any competitor of
 Gaussian, Inc. access to this program.  By using this program,
 the user acknowledges that Gaussian, Inc. is engaged in the
 business of creating and licensing software in the field of
 computational chemistry and represents and warrants to the
 licensee that it is not a competitor of Gaussian, Inc. and that
 it will not use this program in any manner prohibited above.
 ---------------------------------------------------------------
  

 Cite this work as:
 Gaussian 16, Revision C.01,
 M. J. Frisch, G. W. Trucks, H. B. Schlegel, G. E. Scuseria, 
 M. A. Robb, J. R. Cheeseman, G. Scalmani, V. Barone, 
 G. A. Petersson, H. Nakatsuji, X. Li, M. Caricato, A. V. Marenich, 
 J. Bloino, B. G. Janesko, R. Gomperts, B. Mennucci, H. P. Hratchian, 
 J. V. Ortiz, A. F. Izmaylov, J. L. Sonnenberg, D. Williams-Young, 
 F. Ding, F. Lipparini, F. Egidi, J. Goings, B. Peng, A. Petrone, 
 T. Henderson, D. Ranasinghe, V. G. Zakrzewski, J. Gao, N. Rega, 
 G. Zheng, W. Liang, M. Hada, M. Ehara, K. Toyota, R. Fukuda, 
 J. Hasegawa, M. Ishida, T. Nakajima, Y. Honda, O. Kitao, H. Nakai, 
 T. Vreven, K. Throssell, J. A. Montgomery, Jr., J. E. Peralta, 
 F. Ogliaro, M. J. Bearpark, J. J. Heyd, E. N. Brothers, K. N. Kudin, 
 V. N. Staroverov, T. A. Keith, R. Kobayashi, J. Normand, 
 K. Raghavachari, A. P. Rendell, J. C. Burant, S. S. Iyengar, 
 J. Tomasi, M. Cossi, J. M. Millam, M. Klene, C. Adamo, R. Cammi, 
 J. W. Ochterski, R. L. Martin, K. Morokuma, O. Farkas, 
 J. B. Foresman, and D. J. Fox, Gaussian, Inc., Wallingford CT, 2019.
 
 ******************************************
 Gaussian 16:  ES64L-G16RevC.01  3-Jul-2019
                14-Mar-2024 
 ******************************************
 %nprocshared=32
 Will use up to   32 processors via shared memory.
 %mem=100GB
 -------------------------------------------
 #p opt freq ub3lyp nosymm def2svpp em=gd3bj
 -------------------------------------------
 1/18=20,19=15,26=3,38=1/1,3;
 2/9=110,12=2,15=1,17=6,18=5,40=1/2;
 3/5=43,7=202,11=2,25=1,30=1,71=1,74=-5,116=2,124=41/1,2,3;
 4//1;
 5/5=2,38=5/2;
 6/7=2,8=2,9=2,10=2,28=1/1;
 7/30=1/1,2,3,16;
 1/18=20,19=15,26=3/3(2);
 2/9=110,15=1/2;
 99//99;
 2/9=110,15=1/2;
 3/5=43,7=202,11=2,25=1,30=1,71=1,74=-5,116=2,124=41/1,2,3;
 4/5=5,16=3,69=1/1;
 5/5=2,38=5/2;
 7/30=1/1,2,3,16;
 1/18=20,19=15,26=3/3(-5);
 2/9=110,15=1/2;
 6/7=2,8=2,9=2,10=2,19=2,28=1/1;
 99/9=1/99;
 Leave Link    1 at Thu Mar 14 18:55:02 2024, MaxMem= 13421772800 cpu:               1.3 elap:               0.0
 (Enter /public/software/apps/Gaussian/g16/l101.exe)
 ------------------
 $$$$Title####2????
 ------------------
 Symbolic Z-matrix:
 Charge =  2 Multiplicity = 2
 F                     5.81821   0.85135   0.98686 
 C                     4.91568   1.37211   0.16434 
 F                     4.92566   2.69988   0.27822 
 F                     5.22183   1.0473   -1.09173 
 C                     3.51554   0.85137   0.4863 
 C                     3.2962   -0.08943   1.48643 
 C                     1.98719  -0.53986   1.72522 
 N                     0.9486   -0.08141   1.02482 
 C                     1.16258   0.85236   0.04936 
 C                    -0.08209   1.28174  -0.60936 
 N                    -1.21214   0.86139  -0.13454 
 C                    -2.32991   1.4104   -0.918 
 C                    -3.5582    2.11902  -0.30409 
 C                    -4.37481   1.07108   0.42375 
 C                    -4.00186   0.59371   1.69204 
 C                    -4.6427   -0.51234   2.25548 
 C                    -5.67971  -1.17964   1.56868 
 C                    -6.11737  -0.69488   0.32572 
 C                    -5.46721   0.42607  -0.25011 
 C                    -1.56523   2.08752  -2.09221 
 O                    -0.14655   2.04914  -1.65974 
 C                     2.42316   1.33711  -0.25548 
 H                     4.12366  -0.48143   2.08239 
 H                     1.78684  -1.28614   2.49947 
 H                    -2.61284   0.37738  -1.18422 
 H                    -3.228     2.91005   0.3893 
 H                    -4.15987   2.58992  -1.09891 
 H                    -3.19469   1.08679   2.24189 
 H                    -4.33456  -0.87108   3.24197 
 H                    -6.17341  -2.04078   2.02777 
 H                    -7.00367  -1.12392  -0.15386 
 H                    -5.90274   0.91019  -1.13388 
 H                    -1.61555   1.53502  -3.04322 
 H                    -1.82475   3.14208  -2.24976 
 H                     2.55457   2.07906  -1.04752 
 Cu                   -1.00913  -0.65797   1.02868 
 
 ITRead=  0  0  0  0  0  0  0  0  0  0  0  0  0  0  0  0  0  0  0  0
 ITRead=  0  0  0  0  0  0  0  0  0  0  0  0  0  0  0  0
 MicOpt= -1 -1 -1 -1 -1 -1 -1 -1 -1 -1 -1 -1 -1 -1 -1 -1 -1 -1 -1 -1
 MicOpt= -1 -1 -1 -1 -1 -1 -1 -1 -1 -1 -1 -1 -1 -1 -1 -1
 NAtoms=     36 NQM=       36 NQMF=       0 NMMI=      0 NMMIF=      0
                NMic=       0 NMicF=      0.
                    Isotopes and Nuclear Properties:
 (Nuclear quadrupole moments (NQMom) in fm**2, nuclear magnetic moments (NMagM)
  in nuclear magnetons)

  Atom         1           2           3           4           5           6           7           8           9          10
 IAtWgt=          19          12          19          19          12          12          12          14          12          12
 AtmWgt=  18.9984032  12.0000000  18.9984032  18.9984032  12.0000000  12.0000000  12.0000000  14.0030740  12.0000000  12.0000000
 NucSpn=           1           0           1           1           0           0           0           2           0           0
 AtZEff=  -0.0000000  -0.0000000  -0.0000000  -0.0000000  -0.0000000  -0.0000000  -0.0000000  -0.0000000  -0.0000000  -0.0000000
 NQMom=    0.0000000   0.0000000   0.0000000   0.0000000   0.0000000   0.0000000   0.0000000   2.0440000   0.0000000   0.0000000
 NMagM=    2.6288670   0.0000000   2.6288670   2.6288670   0.0000000   0.0000000   0.0000000   0.4037610   0.0000000   0.0000000
 AtZNuc=   9.0000000   6.0000000   9.0000000   9.0000000   6.0000000   6.0000000   6.0000000   7.0000000   6.0000000   6.0000000

  Atom        11          12          13          14          15          16          17          18          19          20
 IAtWgt=          14          12          12          12          12          12          12          12          12          12
 AtmWgt=  14.0030740  12.0000000  12.0000000  12.0000000  12.0000000  12.0000000  12.0000000  12.0000000  12.0000000  12.0000000
 NucSpn=           2           0           0           0           0           0           0           0           0           0
 AtZEff=  -0.0000000  -0.0000000  -0.0000000  -0.0000000  -0.0000000  -0.0000000  -0.0000000  -0.0000000  -0.0000000  -0.0000000
 NQMom=    2.0440000   0.0000000   0.0000000   0.0000000   0.0000000   0.0000000   0.0000000   0.0000000   0.0000000   0.0000000
 NMagM=    0.4037610   0.0000000   0.0000000   0.0000000   0.0000000   0.0000000   0.0000000   0.0000000   0.0000000   0.0000000
 AtZNuc=   7.0000000   6.0000000   6.0000000   6.0000000   6.0000000   6.0000000   6.0000000   6.0000000   6.0000000   6.0000000

  Atom        21          22          23          24          25          26          27          28          29          30
 IAtWgt=          16          12           1           1           1           1           1           1           1           1
 AtmWgt=  15.9949146  12.0000000   1.0078250   1.0078250   1.0078250   1.0078250   1.0078250   1.0078250   1.0078250   1.0078250
 NucSpn=           0           0           1           1           1           1           1           1           1           1
 AtZEff=  -0.0000000  -0.0000000  -0.0000000  -0.0000000  -0.0000000  -0.0000000  -0.0000000  -0.0000000  -0.0000000  -0.0000000
 NQMom=    0.0000000   0.0000000   0.0000000   0.0000000   0.0000000   0.0000000   0.0000000   0.0000000   0.0000000   0.0000000
 NMagM=    0.0000000   0.0000000   2.7928460   2.7928460   2.7928460   2.7928460   2.7928460   2.7928460   2.7928460   2.7928460
 AtZNuc=   8.0000000   6.0000000   1.0000000   1.0000000   1.0000000   1.0000000   1.0000000   1.0000000   1.0000000   1.0000000

  Atom        31          32          33          34          35          36
 IAtWgt=           1           1           1           1           1          63
 AtmWgt=   1.0078250   1.0078250   1.0078250   1.0078250   1.0078250  62.9295992
 NucSpn=           1           1           1           1           1           3
 AtZEff=  -0.0000000  -0.0000000  -0.0000000  -0.0000000  -0.0000000  -0.0000000
 NQMom=    0.0000000   0.0000000   0.0000000   0.0000000   0.0000000 -22.0000000
 NMagM=    2.7928460   2.7928460   2.7928460   2.7928460   2.7928460   2.2233000
 AtZNuc=   1.0000000   1.0000000   1.0000000   1.0000000   1.0000000  29.0000000
 Leave Link  101 at Thu Mar 14 18:55:03 2024, MaxMem= 13421772800 cpu:               5.6 elap:               0.2
 (Enter /public/software/apps/Gaussian/g16/l103.exe)

 GradGradGradGradGradGradGradGradGradGradGradGradGradGradGradGradGradGrad
 Berny optimization.
 Initialization pass.
                           ----------------------------
                           !    Initial Parameters    !
                           ! (Angstroms and Degrees)  !
 --------------------------                            --------------------------
 ! Name  Definition              Value          Derivative Info.                !
 --------------------------------------------------------------------------------
 ! R1    R(1,2)                  1.3275         estimate D2E/DX2                !
 ! R2    R(2,3)                  1.3327         estimate D2E/DX2                !
 ! R3    R(2,4)                  1.333          estimate D2E/DX2                !
 ! R4    R(2,5)                  1.5282         estimate D2E/DX2                !
 ! R5    R(5,6)                  1.3905         estimate D2E/DX2                !
 ! R6    R(5,22)                 1.4069         estimate D2E/DX2                !
 ! R7    R(6,7)                  1.4048         estimate D2E/DX2                !
 ! R8    R(6,23)                 1.0925         estimate D2E/DX2                !
 ! R9    R(7,8)                  1.334          estimate D2E/DX2                !
 ! R10   R(7,24)                 1.0939         estimate D2E/DX2                !
 ! R11   R(8,9)                  1.3672         estimate D2E/DX2                !
 ! R12   R(8,36)                 2.0409         estimate D2E/DX2                !
 ! R13   R(9,10)                 1.4722         estimate D2E/DX2                !
 ! R14   R(9,22)                 1.3845         estimate D2E/DX2                !
 ! R15   R(10,11)                1.2958         estimate D2E/DX2                !
 ! R16   R(10,21)                1.3024         estimate D2E/DX2                !
 ! R17   R(11,12)                1.4713         estimate D2E/DX2                !
 ! R18   R(11,36)                1.9242         estimate D2E/DX2                !
 ! R19   R(12,13)                1.5452         estimate D2E/DX2                !
 ! R20   R(12,20)                1.5563         estimate D2E/DX2                !
 ! R21   R(12,25)                1.1037         estimate D2E/DX2                !
 ! R22   R(13,14)                1.5149         estimate D2E/DX2                !
 ! R23   R(13,26)                1.1025         estimate D2E/DX2                !
 ! R24   R(13,27)                1.1025         estimate D2E/DX2                !
 ! R25   R(14,15)                1.4055         estimate D2E/DX2                !
 ! R26   R(14,19)                1.4365         estimate D2E/DX2                !
 ! R27   R(15,16)                1.397          estimate D2E/DX2                !
 ! R28   R(15,28)                1.0941         estimate D2E/DX2                !
 ! R29   R(16,17)                1.4115         estimate D2E/DX2                !
 ! R30   R(16,29)                1.094          estimate D2E/DX2                !
 ! R31   R(17,18)                1.4041         estimate D2E/DX2                !
 ! R32   R(17,30)                1.0937         estimate D2E/DX2                !
 ! R33   R(18,19)                1.418          estimate D2E/DX2                !
 ! R34   R(18,31)                1.0953         estimate D2E/DX2                !
 ! R35   R(19,32)                1.0978         estimate D2E/DX2                !
 ! R36   R(20,21)                1.4836         estimate D2E/DX2                !
 ! R37   R(20,33)                1.101          estimate D2E/DX2                !
 ! R38   R(20,34)                1.0974         estimate D2E/DX2                !
 ! R39   R(22,35)                1.0932         estimate D2E/DX2                !
 ! A1    A(1,2,3)              109.439          estimate D2E/DX2                !
 ! A2    A(1,2,4)              109.3962         estimate D2E/DX2                !
 ! A3    A(1,2,5)              111.0202         estimate D2E/DX2                !
 ! A4    A(3,2,4)              108.7578         estimate D2E/DX2                !
 ! A5    A(3,2,5)              109.17           estimate D2E/DX2                !
 ! A6    A(4,2,5)              109.0211         estimate D2E/DX2                !
 ! A7    A(2,5,6)              121.7782         estimate D2E/DX2                !
 ! A8    A(2,5,22)             118.8589         estimate D2E/DX2                !
 ! A9    A(6,5,22)             119.3626         estimate D2E/DX2                !
 ! A10   A(5,6,7)              119.0911         estimate D2E/DX2                !
 ! A11   A(5,6,23)             121.0415         estimate D2E/DX2                !
 ! A12   A(7,6,23)             119.8672         estimate D2E/DX2                !
 ! A13   A(6,7,8)              121.739          estimate D2E/DX2                !
 ! A14   A(6,7,24)             120.6472         estimate D2E/DX2                !
 ! A15   A(8,7,24)             117.6138         estimate D2E/DX2                !
 ! A16   A(7,8,9)              119.1752         estimate D2E/DX2                !
 ! A17   A(7,8,36)             130.45           estimate D2E/DX2                !
 ! A18   A(9,8,36)             110.1473         estimate D2E/DX2                !
 ! A19   A(8,9,10)             112.7119         estimate D2E/DX2                !
 ! A20   A(8,9,22)             122.5961         estimate D2E/DX2                !
 ! A21   A(10,9,22)            124.6878         estimate D2E/DX2                !
 ! A22   A(9,10,11)            118.6013         estimate D2E/DX2                !
 ! A23   A(9,10,21)            125.0661         estimate D2E/DX2                !
 ! A24   A(11,10,21)           116.3262         estimate D2E/DX2                !
 ! A25   A(10,11,12)           110.2653         estimate D2E/DX2                !
 ! A26   A(10,11,36)           112.6833         estimate D2E/DX2                !
 ! A27   A(12,11,36)           134.1621         estimate D2E/DX2                !
 ! A28   A(11,12,13)           124.2959         estimate D2E/DX2                !
 ! A29   A(11,12,20)           101.0015         estimate D2E/DX2                !
 ! A30   A(11,12,25)            88.5061         estimate D2E/DX2                !
 ! A31   A(13,12,20)           119.3938         estimate D2E/DX2                !
 ! A32   A(13,12,25)           108.7417         estimate D2E/DX2                !
 ! A33   A(20,12,25)           110.561          estimate D2E/DX2                !
 ! A34   A(12,13,14)           107.5867         estimate D2E/DX2                !
 ! A35   A(12,13,26)           109.9274         estimate D2E/DX2                !
 ! A36   A(12,13,27)           110.0748         estimate D2E/DX2                !
 ! A37   A(14,13,26)           110.8308         estimate D2E/DX2                !
 ! A38   A(14,13,27)           110.3444         estimate D2E/DX2                !
 ! A39   A(26,13,27)           108.0835         estimate D2E/DX2                !
 ! A40   A(13,14,15)           121.6995         estimate D2E/DX2                !
 ! A41   A(13,14,19)           119.682          estimate D2E/DX2                !
 ! A42   A(15,14,19)           118.2017         estimate D2E/DX2                !
 ! A43   A(14,15,16)           120.7399         estimate D2E/DX2                !
 ! A44   A(14,15,28)           119.7482         estimate D2E/DX2                !
 ! A45   A(16,15,28)           119.5095         estimate D2E/DX2                !
 ! A46   A(15,16,17)           121.0026         estimate D2E/DX2                !
 ! A47   A(15,16,29)           119.6121         estimate D2E/DX2                !
 ! A48   A(17,16,29)           119.3847         estimate D2E/DX2                !
 ! A49   A(16,17,18)           119.77           estimate D2E/DX2                !
 ! A50   A(16,17,30)           119.9767         estimate D2E/DX2                !
 ! A51   A(18,17,30)           120.1812         estimate D2E/DX2                !
 ! A52   A(17,18,19)           119.306          estimate D2E/DX2                !
 ! A53   A(17,18,31)           120.3057         estimate D2E/DX2                !
 ! A54   A(19,18,31)           120.1897         estimate D2E/DX2                !
 ! A55   A(14,19,18)           120.8726         estimate D2E/DX2                !
 ! A56   A(14,19,32)           118.7732         estimate D2E/DX2                !
 ! A57   A(18,19,32)           119.5791         estimate D2E/DX2                !
 ! A58   A(12,20,21)           103.8072         estimate D2E/DX2                !
 ! A59   A(12,20,33)           114.2633         estimate D2E/DX2                !
 ! A60   A(12,20,34)           114.2193         estimate D2E/DX2                !
 ! A61   A(21,20,33)           106.4096         estimate D2E/DX2                !
 ! A62   A(21,20,34)           107.0281         estimate D2E/DX2                !
 ! A63   A(33,20,34)           110.3287         estimate D2E/DX2                !
 ! A64   A(10,21,20)           107.3164         estimate D2E/DX2                !
 ! A65   A(5,22,9)             118.0306         estimate D2E/DX2                !
 ! A66   A(5,22,35)            121.5315         estimate D2E/DX2                !
 ! A67   A(9,22,35)            120.4371         estimate D2E/DX2                !
 ! A68   A(8,36,11)             82.9344         estimate D2E/DX2                !
 ! D1    D(1,2,5,6)             -2.5702         estimate D2E/DX2                !
 ! D2    D(1,2,5,22)           177.6473         estimate D2E/DX2                !
 ! D3    D(3,2,5,6)           -123.304          estimate D2E/DX2                !
 ! D4    D(3,2,5,22)            56.9135         estimate D2E/DX2                !
 ! D5    D(4,2,5,6)            118.0133         estimate D2E/DX2                !
 ! D6    D(4,2,5,22)           -61.7692         estimate D2E/DX2                !
 ! D7    D(2,5,6,7)           -179.3174         estimate D2E/DX2                !
 ! D8    D(2,5,6,23)             0.522          estimate D2E/DX2                !
 ! D9    D(22,5,6,7)             0.464          estimate D2E/DX2                !
 ! D10   D(22,5,6,23)         -179.6965         estimate D2E/DX2                !
 ! D11   D(2,5,22,9)           179.9151         estimate D2E/DX2                !
 ! D12   D(2,5,22,35)           -0.3954         estimate D2E/DX2                !
 ! D13   D(6,5,22,9)             0.1272         estimate D2E/DX2                !
 ! D14   D(6,5,22,35)          179.8167         estimate D2E/DX2                !
 ! D15   D(5,6,7,8)             -0.5141         estimate D2E/DX2                !
 ! D16   D(5,6,7,24)           179.4406         estimate D2E/DX2                !
 ! D17   D(23,6,7,8)           179.6445         estimate D2E/DX2                !
 ! D18   D(23,6,7,24)           -0.4008         estimate D2E/DX2                !
 ! D19   D(6,7,8,9)             -0.0572         estimate D2E/DX2                !
 ! D20   D(6,7,8,36)           173.8729         estimate D2E/DX2                !
 ! D21   D(24,7,8,9)           179.9868         estimate D2E/DX2                !
 ! D22   D(24,7,8,36)           -6.0831         estimate D2E/DX2                !
 ! D23   D(7,8,9,10)          -178.5871         estimate D2E/DX2                !
 ! D24   D(7,8,9,22)             0.6945         estimate D2E/DX2                !
 ! D25   D(36,8,9,10)            6.3298         estimate D2E/DX2                !
 ! D26   D(36,8,9,22)         -174.3886         estimate D2E/DX2                !
 ! D27   D(7,8,36,11)          173.7529         estimate D2E/DX2                !
 ! D28   D(9,8,36,11)          -11.891          estimate D2E/DX2                !
 ! D29   D(8,9,10,11)            6.7326         estimate D2E/DX2                !
 ! D30   D(8,9,10,21)         -172.3129         estimate D2E/DX2                !
 ! D31   D(22,9,10,11)        -172.5314         estimate D2E/DX2                !
 ! D32   D(22,9,10,21)           8.4232         estimate D2E/DX2                !
 ! D33   D(8,9,22,5)            -0.724          estimate D2E/DX2                !
 ! D34   D(8,9,22,35)          179.5829         estimate D2E/DX2                !
 ! D35   D(10,9,22,5)          178.47           estimate D2E/DX2                !
 ! D36   D(10,9,22,35)          -1.223          estimate D2E/DX2                !
 ! D37   D(9,10,11,12)         179.3876         estimate D2E/DX2                !
 ! D38   D(9,10,11,36)         -17.0262         estimate D2E/DX2                !
 ! D39   D(21,10,11,12)         -1.4841         estimate D2E/DX2                !
 ! D40   D(21,10,11,36)        162.1021         estimate D2E/DX2                !
 ! D41   D(9,10,21,20)         172.8871         estimate D2E/DX2                !
 ! D42   D(11,10,21,20)         -6.1778         estimate D2E/DX2                !
 ! D43   D(10,11,12,13)       -129.6813         estimate D2E/DX2                !
 ! D44   D(10,11,12,20)          7.8644         estimate D2E/DX2                !
 ! D45   D(10,11,12,25)        118.525          estimate D2E/DX2                !
 ! D46   D(36,11,12,13)         71.6299         estimate D2E/DX2                !
 ! D47   D(36,11,12,20)       -150.8244         estimate D2E/DX2                !
 ! D48   D(36,11,12,25)        -40.1638         estimate D2E/DX2                !
 ! D49   D(10,11,36,8)          15.7091         estimate D2E/DX2                !
 ! D50   D(12,11,36,8)         174.0231         estimate D2E/DX2                !
 ! D51   D(11,12,13,14)        -69.5858         estimate D2E/DX2                !
 ! D52   D(11,12,13,26)         51.1923         estimate D2E/DX2                !
 ! D53   D(11,12,13,27)        170.1404         estimate D2E/DX2                !
 ! D54   D(20,12,13,14)        159.9222         estimate D2E/DX2                !
 ! D55   D(20,12,13,26)        -79.2997         estimate D2E/DX2                !
 ! D56   D(20,12,13,27)         39.6484         estimate D2E/DX2                !
 ! D57   D(25,12,13,14)         31.8395         estimate D2E/DX2                !
 ! D58   D(25,12,13,26)        152.6176         estimate D2E/DX2                !
 ! D59   D(25,12,13,27)        -88.4343         estimate D2E/DX2                !
 ! D60   D(11,12,20,21)        -10.6324         estimate D2E/DX2                !
 ! D61   D(11,12,20,33)        104.8268         estimate D2E/DX2                !
 ! D62   D(11,12,20,34)       -126.8132         estimate D2E/DX2                !
 ! D63   D(13,12,20,21)        129.573          estimate D2E/DX2                !
 ! D64   D(13,12,20,33)       -114.9679         estimate D2E/DX2                !
 ! D65   D(13,12,20,34)         13.3921         estimate D2E/DX2                !
 ! D66   D(25,12,20,21)       -103.1861         estimate D2E/DX2                !
 ! D67   D(25,12,20,33)         12.273          estimate D2E/DX2                !
 ! D68   D(25,12,20,34)        140.633          estimate D2E/DX2                !
 ! D69   D(12,13,14,15)         78.1219         estimate D2E/DX2                !
 ! D70   D(12,13,14,19)        -94.3338         estimate D2E/DX2                !
 ! D71   D(26,13,14,15)        -42.0863         estimate D2E/DX2                !
 ! D72   D(26,13,14,19)        145.458          estimate D2E/DX2                !
 ! D73   D(27,13,14,15)       -161.7748         estimate D2E/DX2                !
 ! D74   D(27,13,14,19)         25.7694         estimate D2E/DX2                !
 ! D75   D(13,14,15,16)       -170.0232         estimate D2E/DX2                !
 ! D76   D(13,14,15,28)          9.4128         estimate D2E/DX2                !
 ! D77   D(19,14,15,16)          2.5402         estimate D2E/DX2                !
 ! D78   D(19,14,15,28)       -178.0239         estimate D2E/DX2                !
 ! D79   D(13,14,19,18)        170.2956         estimate D2E/DX2                !
 ! D80   D(13,14,19,32)        -19.8305         estimate D2E/DX2                !
 ! D81   D(15,14,19,18)         -2.4225         estimate D2E/DX2                !
 ! D82   D(15,14,19,32)        167.4515         estimate D2E/DX2                !
 ! D83   D(14,15,16,17)          0.0062         estimate D2E/DX2                !
 ! D84   D(14,15,16,29)        179.7282         estimate D2E/DX2                !
 ! D85   D(28,15,16,17)       -179.4311         estimate D2E/DX2                !
 ! D86   D(28,15,16,29)          0.2909         estimate D2E/DX2                !
 ! D87   D(15,16,17,18)         -2.7683         estimate D2E/DX2                !
 ! D88   D(15,16,17,30)       -179.6875         estimate D2E/DX2                !
 ! D89   D(29,16,17,18)        177.509          estimate D2E/DX2                !
 ! D90   D(29,16,17,30)          0.5898         estimate D2E/DX2                !
 ! D91   D(16,17,18,19)          2.8407         estimate D2E/DX2                !
 ! D92   D(16,17,18,31)       -172.0497         estimate D2E/DX2                !
 ! D93   D(30,17,18,19)        179.7535         estimate D2E/DX2                !
 ! D94   D(30,17,18,31)          4.863          estimate D2E/DX2                !
 ! D95   D(17,18,19,14)         -0.2583         estimate D2E/DX2                !
 ! D96   D(17,18,19,32)       -170.0515         estimate D2E/DX2                !
 ! D97   D(31,18,19,14)        174.6382         estimate D2E/DX2                !
 ! D98   D(31,18,19,32)          4.845          estimate D2E/DX2                !
 ! D99   D(12,20,21,10)         10.5043         estimate D2E/DX2                !
 ! D100  D(33,20,21,10)       -110.393          estimate D2E/DX2                !
 ! D101  D(34,20,21,10)        131.6404         estimate D2E/DX2                !
 --------------------------------------------------------------------------------
 Trust Radius=3.00D-01 FncErr=1.00D-07 GrdErr=1.00D-06 EigMax=2.50D+02 EigMin=1.00D-04
 Number of steps in this run=    216 maximum allowed number of steps=    216.
 GradGradGradGradGradGradGradGradGradGradGradGradGradGradGradGradGradGrad

 Leave Link  103 at Thu Mar 14 18:55:03 2024, MaxMem= 13421772800 cpu:               0.7 elap:               0.0
 (Enter /public/software/apps/Gaussian/g16/l202.exe)
                          Input orientation:                          
 ---------------------------------------------------------------------
 Center     Atomic      Atomic             Coordinates (Angstroms)
 Number     Number       Type             X           Y           Z
 ---------------------------------------------------------------------
      1          9           0        5.818211    0.851350    0.986856
      2          6           0        4.915681    1.372113    0.164339
      3          9           0        4.925661    2.699884    0.278218
      4          9           0        5.221828    1.047298   -1.091733
      5          6           0        3.515536    0.851366    0.486301
      6          6           0        3.296196   -0.089428    1.486428
      7          6           0        1.987193   -0.539860    1.725223
      8          7           0        0.948598   -0.081408    1.024817
      9          6           0        1.162585    0.852363    0.049364
     10          6           0       -0.082087    1.281743   -0.609361
     11          7           0       -1.212138    0.861388   -0.134539
     12          6           0       -2.329913    1.410404   -0.918000
     13          6           0       -3.558198    2.119025   -0.304086
     14          6           0       -4.374812    1.071081    0.423748
     15          6           0       -4.001865    0.593706    1.692036
     16          6           0       -4.642700   -0.512339    2.255480
     17          6           0       -5.679706   -1.179636    1.568679
     18          6           0       -6.117367   -0.694884    0.325721
     19          6           0       -5.467212    0.426072   -0.250107
     20          6           0       -1.565234    2.087516   -2.092209
     21          8           0       -0.146547    2.049138   -1.659737
     22          6           0        2.423156    1.337108   -0.255482
     23          1           0        4.123663   -0.481428    2.082395
     24          1           0        1.786840   -1.286138    2.499465
     25          1           0       -2.612837    0.377376   -1.184218
     26          1           0       -3.228003    2.910053    0.389304
     27          1           0       -4.159870    2.589920   -1.098911
     28          1           0       -3.194691    1.086791    2.241890
     29          1           0       -4.334560   -0.871077    3.241973
     30          1           0       -6.173411   -2.040780    2.027771
     31          1           0       -7.003666   -1.123923   -0.153860
     32          1           0       -5.902740    0.910193   -1.133881
     33          1           0       -1.615548    1.535024   -3.043216
     34          1           0       -1.824752    3.142078   -2.249763
     35          1           0        2.554574    2.079065   -1.047523
     36         29           0       -1.009132   -0.657968    1.028675
 ---------------------------------------------------------------------
                    Distance matrix (angstroms):
                    1          2          3          4          5
     1  F    0.000000
     2  C    1.327512   0.000000
     3  F    2.171610   1.332683   0.000000
     4  F    2.171313   1.333022   2.166915   0.000000
     5  C    2.356452   1.528150   2.334260   2.332384   0.000000
     6  C    2.737735   2.550834   3.448940   3.412788   1.390488
     7  C    4.142143   3.829888   4.606990   4.573530   2.409620
     8  N    4.958287   4.311716   4.910196   4.900434   2.783745
     9  C    4.749078   3.790658   4.198386   4.221085   2.393176
    10  C    6.127533   5.058109   5.279816   5.330963   3.785313
    11  N    7.119230   6.156325   6.420515   6.507434   4.768275
    12  C    8.386474   7.326087   7.465725   7.562461   6.037703
    13  C    9.549376   8.519620   8.523634   8.880194   7.229757
    14  C   10.210930   9.298988   9.443145   9.715593   7.893655
    15  C    9.848733   9.080881   9.280926   9.645290   7.617841
    16  C   10.625428   9.964270  10.285012  10.533053   8.458516
    17  C   11.690402  10.988440  11.366168  11.440300   9.478870
    18  C   12.053463  11.226160  11.553146  11.559486   9.757535
    19  C   11.360973  10.434137  10.651814  10.740104   9.022911
    20  C    8.094690   6.899715   6.937264   6.938820   5.830180
    21  O    6.634568   5.423262   5.468678   5.490516   4.410328
    22  C    3.647707   2.527876   2.899056   2.935280   1.406940
    23  H    2.418263   2.782417   3.744196   3.690265   2.166489
    24  H    4.807161   4.723215   5.538457   5.490061   3.407366
    25  H    8.718990   7.712762   8.022576   7.863799   6.369636
    26  H    9.296737   8.290685   8.157129   8.778552   7.051448
    27  H   10.340946   9.243619   9.189965   9.507681   8.027909
    28  H    9.102909   8.377097   8.508713   9.052756   6.940077
    29  H   10.541872  10.003534  10.357958  10.667039   8.496149
    30  H   12.379294  11.751093  12.195254  12.211429  10.228213
    31  H   13.023189  12.182047  12.534633  12.452169  10.722182
    32  H   11.911410  10.905823  11.065771  11.125493   9.556797
    33  H    8.483494   7.278180   7.428071   7.127122   6.265214
    34  H    8.610344   7.375236   7.221793   7.442004   6.422778
    35  H    4.036993   2.746492   2.786586   2.860200   2.187078
    36  Cu   6.992310   6.322319   6.860038   6.799186   4.800508
                    6          7          8          9         10
     6  C    0.000000
     7  C    1.404778   0.000000
     8  N    2.392565   1.333951   0.000000
     9  C    2.739419   2.329542   1.367197   0.000000
    10  C    4.205382   3.612539   2.364536   1.472241   0.000000
    11  N    4.884328   3.957010   2.627118   2.381850   1.295828
    12  C    6.299514   5.424718   4.092515   3.666708   2.272561
    13  C    7.420642   6.476042   5.188362   4.900526   3.588535
    14  C    7.830737   6.690597   5.479801   5.554347   4.420315
    15  C    7.332846   6.095481   5.040639   5.425570   4.597225
    16  C    7.987263   6.651121   5.741328   6.358513   5.676728
    17  C    9.042241   7.695138   6.740645   7.297553   6.491192
    18  C    9.504156   8.225967   7.126917   7.447687   6.419193
    19  C    8.948665   7.771943   6.560913   6.650234   5.464504
    20  C    6.417104   5.839146   4.554057   3.681431   2.246738
    21  O    5.130721   4.765890   3.597972   2.463153   1.302436
    22  C    2.414840   2.763379   2.413643   1.384539   2.530719
    23  H    1.092494   2.166908   3.370389   3.831474   5.295532
    24  H    2.176353   1.093857   2.080531   3.311476   4.444288
    25  H    6.501302   5.519642   4.215939   4.000144   2.748279
    26  H    7.264003   6.394126   5.176554   4.860752   3.680423
    27  H    8.334015   7.453700   6.143506   5.715433   4.310372
    28  H    6.639716   5.455718   4.473567   4.883439   4.225629
    29  H    7.869012   6.509592   5.783694   6.586471   6.127882
    30  H    9.683712   8.302997   7.454399   8.130265   7.422793
    31  H   10.480834   9.203675   8.106455   8.404443   7.341864
    32  H    9.616948   8.516348   7.251489   7.163954   5.856037
    33  H    6.876172   6.326365   5.073124   4.212849   2.887785
    34  H    7.115185   6.624810   5.367048   4.410551   3.031278
    35  H    3.416617   3.856010   3.397263   2.155364   2.789209
    36  Cu   4.366764   3.078489   2.040868   2.820728   2.702786
                   11         12         13         14         15
    11  N    0.000000
    12  C    1.471275   0.000000
    13  C    2.667282   1.545224   0.000000
    14  C    3.218410   2.469219   1.514855   0.000000
    15  C    3.345236   3.205418   2.551066   1.405536   0.000000
    16  C    4.400917   4.372288   3.827741   2.436027   1.396952
    17  C    5.198643   4.910498   4.346171   2.842418   2.444404
    18  C    5.166729   4.508202   3.855397   2.482889   2.828892
    19  C    4.278844   3.355240   2.552124   1.436472   2.438701
    20  C    2.336780   1.556272   2.677738   3.906009   4.742272
    21  O    2.207366   2.392748   3.671789   4.814118   5.311886
    22  C    3.668283   4.799580   6.032442   6.836995   6.754729
    23  H    5.932008   7.364105   8.453912   8.796902   8.205638
    24  H    4.532517   5.991499   6.929969   6.915999   6.139614
    25  H    1.816054   1.103660   2.168336   2.484218   3.201411
    26  H    2.921498   2.182787   1.102517   2.167528   2.767930
    27  H    3.550628   2.184658   1.102496   2.161379   3.434999
    28  H    3.103021   3.292031   2.771216   2.167620   1.094076
    29  H    4.914447   5.150645   4.702976   3.422864   2.158375
    30  H    6.141042   5.946488   5.438830   3.935927   3.430575
    31  H    6.122387   5.371284   4.733976   3.473117   3.920254
    32  H    4.796125   3.614126   2.765269   2.187843   3.420424
    33  H    3.012794   2.245527   3.408486   4.455179   5.385461
    34  H    3.170334   2.242203   2.799488   4.235504   5.174147
    35  H    4.062560   4.931744   6.157944   7.155212   7.259364
    36  Cu   1.924246   3.132438   3.998209   3.831886   3.311070
                   16         17         18         19         20
    16  C    0.000000
    17  C    1.411511   0.000000
    18  C    2.435556   1.404093   0.000000
    19  C    2.799714   2.435453   1.418034   0.000000
    20  C    5.927263   6.403535   5.857478   4.623761   0.000000
    21  O    6.488874   7.173806   6.864575   5.738543   1.483637
    22  C    7.723452   8.678590   8.798143   7.942790   4.454653
    23  H    8.768126   9.841617  10.392794   9.912063   7.509350
    24  H    6.480531   7.525092   8.218956   7.944374   6.610704
    25  H    4.091878   4.405498   3.963759   3.003729   2.201477
    26  H    4.146896   4.911958   4.620393   3.404859   3.098270
    27  H    4.594461   4.861634   4.080601   2.666805   2.823329
    28  H    2.157344   3.430044   3.922767   3.436706   4.737193
    29  H    1.093989   2.168995   3.422568   3.893600   6.698951
    30  H    2.175100   1.093654   2.170611   3.431152   7.433193
    31  H    3.428282   2.173273   1.095262   2.184591   6.606593
    32  H    3.885752   3.423589   2.180086   1.097778   4.595480
    33  H    6.436733   6.719846   6.048851   4.885340   1.100996
    34  H    6.449249   6.936741   6.307292   4.964154   1.097394
    35  H    8.332224   9.234013   9.207777   8.229052   4.250207
    36  Cu   3.837848   4.730539   5.156508   4.762867   4.193668
                   21         22         23         24         25
    21  O    0.000000
    22  C    3.013684   0.000000
    23  H    6.216270   3.415328   0.000000
    24  H    5.671068   3.856948   2.506441   0.000000
    25  H    3.017200   5.210073   7.535831   5.974442   0.000000
    26  H    3.799358   5.901314   8.271378   6.870913   3.044480
    27  H    4.088244   6.754047   9.389931   7.958360   2.701100
    28  H    5.043807   6.153026   7.486191   5.523838   3.546836
    29  H    7.077702   7.923067   8.546226   6.180221   4.910615
    30  H    8.163837   9.514428  10.414619   8.009843   5.370478
    31  H    7.704288   9.743304  11.367985   9.183651   4.753410
    32  H    5.891305   8.382982  10.621196   8.783776   3.333150
    33  H    2.082376   4.911391   7.954653   7.089183   2.406368
    34  H    2.087827   5.027902   8.202501   7.430199   3.065949
    35  H    2.769794   1.093206   4.337574   4.949256   5.442111
    36  Cu   3.911526   4.172528   5.242812   3.221068   2.922448
                   26         27         28         29         30
    26  H    0.000000
    27  H    1.784838   0.000000
    28  H    2.599513   3.788393   0.000000
    29  H    4.864065   5.554484   2.476432   0.000000
    30  H    5.989219   5.939180   4.324386   2.494768   0.000000
    31  H    5.551902   4.772098   5.013498   4.326632   2.507881
    32  H    3.670661   2.420806   4.331345   4.977973   4.333307
    33  H    4.033970   3.371454   5.534162   7.258509   7.699052
    34  H    2.997937   2.661225   5.126001   7.250084   8.004383
    35  H    6.016080   6.734046   6.697678   8.635003  10.129574
    36  Cu   4.250054   5.000255   3.048400   4.000322   5.438763
                   31         32         33         34         35
    31  H    0.000000
    32  H    2.511993   0.000000
    33  H    6.667097   4.734553   0.000000
    34  H    7.029418   4.780846   1.804427   0.000000
    35  H   10.120164   8.538143   4.654964   4.664105   0.000000
    36  Cu   6.127800   5.575229   4.664467   5.084657   4.949944
                   36
    36  Cu   0.000000
 Symmetry turned off by external request.
 Stoichiometry    C16H13CuF3N2O(2+,2)
 Framework group  C1[X(C16H13CuF3N2O)]
 Deg. of freedom   102
 Full point group                 C1      NOp   1
 Rotational constants (GHZ):           0.6183770           0.1022116           0.0914486
 Leave Link  202 at Thu Mar 14 18:55:03 2024, MaxMem= 13421772800 cpu:               0.3 elap:               0.0
 (Enter /public/software/apps/Gaussian/g16/l301.exe)
 Standard basis: def2SVPP (5D, 7F)
 Ernie: Thresh=  0.10000D-02 Tol=  0.10000D-05 Strict=F.
   358 basis functions,   673 primitive gaussians,   382 cartesian basis functions
    93 alpha electrons       92 beta electrons
       nuclear repulsion energy      2304.0536814431 Hartrees.
 IExCor=  402 DFT=T Ex+Corr=B3LYP ExCW=0 ScaHFX=  0.200000
 ScaDFX=  0.800000  0.720000  1.000000  0.810000 ScalE2=  1.000000  1.000000
 IRadAn=      5 IRanWt=     -1 IRanGd=            0 ICorTp=0 IEmpDi=141
 NAtoms=   36 NActive=   36 NUniq=   36 SFac= 1.00D+00 NAtFMM=   60 NAOKFM=F Big=F
 Integral buffers will be    131072 words long.
 Raffenetti 2 integral format.
 Two-electron integral symmetry is turned off.
 R6Disp:  Grimme-D3(BJ) Dispersion energy=       -0.0830537453 Hartrees.
 Nuclear repulsion after empirical dispersion term =     2303.9706276978 Hartrees.
 Leave Link  301 at Thu Mar 14 18:55:03 2024, MaxMem= 13421772800 cpu:               1.5 elap:               0.1
 (Enter /public/software/apps/Gaussian/g16/l302.exe)
 NPDir=0 NMtPBC=     1 NCelOv=     1 NCel=       1 NClECP=     1 NCelD=      1
         NCelK=      1 NCelE2=     1 NClLst=     1 CellRange=     0.0.
 One-electron integrals computed using PRISM.
   1 Symmetry operations used in ECPInt.
 ECPInt:  NShTT=   14196 NPrTT=   59705 LenC2=   12219 LenP2D=   33948.
 LDataN:  DoStor=T MaxTD1= 4 Len=   56
 NBasis=   358 RedAO= T EigKep=  3.24D-04  NBF=   358
 NBsUse=   358 1.00D-06 EigRej= -1.00D+00 NBFU=   358
 Precomputing XC quadrature grid using
 IXCGrd= 4 IRadAn=           5 IRanWt=          -1 IRanGd=           0 AccXCQ= 0.00D+00.
 Generated NRdTot=       0 NPtTot=           0 NUsed=           0 NTot=          32
 NSgBfM=   372   372   372   372   372 MxSgAt=    36 MxSgA2=    36.
 Leave Link  302 at Thu Mar 14 18:55:03 2024, MaxMem= 13421772800 cpu:               7.3 elap:               0.2
 (Enter /public/software/apps/Gaussian/g16/l303.exe)
 DipDrv:  MaxL=1.
 Leave Link  303 at Thu Mar 14 18:55:03 2024, MaxMem= 13421772800 cpu:               0.9 elap:               0.0
 (Enter /public/software/apps/Gaussian/g16/l401.exe)
 ExpMin= 3.30D-02 ExpMax= 7.64D+04 ExpMxC= 1.15D+04 IAcc=3 IRadAn=         5 AccDes= 0.00D+00
 Harris functional with IExCor=  402 and IRadAn=       5 diagonalized for initial guess.
 HarFok:  IExCor=  402 AccDes= 0.00D+00 IRadAn=         5 IDoV= 1 UseB2=F ITyADJ=14
 ICtDFT=  3500011 ScaDFX=  1.000000  1.000000  1.000000  1.000000
 FoFCou: FMM=F IPFlag=           0 FMFlag=      100000 FMFlg1=           0
         NFxFlg=           0 DoJE=T BraDBF=F KetDBF=T FulRan=T
         wScrn=  0.000000 ICntrl=       500 IOpCl=  0 I1Cent=   200000004 NGrid=           0
         NMat0=    1 NMatS0=      1 NMatT0=    0 NMatD0=    1 NMtDS0=    0 NMtDT0=    0
 Symmetry not used in FoFCou.
 Harris En= -2741.01774299096    
 JPrj=0 DoOrth=F DoCkMO=F.
 Initial guess <Sx>= 0.0000 <Sy>= 0.0000 <Sz>= 0.5000 <S**2>= 0.7500 S= 0.5000
 Leave Link  401 at Thu Mar 14 18:55:04 2024, MaxMem= 13421772800 cpu:              16.1 elap:               0.5
 (Enter /public/software/apps/Gaussian/g16/l502.exe)
 Two-electron integral symmetry not used.
 UHF open shell SCF:
 Using DIIS extrapolation, IDIIS=  1040.
 NGot= 13421772800 LenX= 13421464708 LenY= 13421318343
 Requested convergence on RMS density matrix=1.00D-08 within 128 cycles.
 Requested convergence on MAX density matrix=1.00D-06.
 Requested convergence on             energy=1.00D-06.
 No special actions if energy rises.
 Fock matrices will be formed incrementally for  20 cycles.

 Cycle   1  Pass 1  IDiag  1:
 FoFJK:  IHMeth= 1 ICntrl=       0 DoSepK=F KAlg= 0 I1Cent=           0 FoldK=F
 IRaf= 790000000 NMat=       1 IRICut=       1 DoRegI=T DoRafI=F ISym2E= 0 IDoP0=0 IntGTp=1.
 FoFCou: FMM=F IPFlag=           0 FMFlag=      100000 FMFlg1=           0
         NFxFlg=           0 DoJE=F BraDBF=F KetDBF=F FulRan=T
         wScrn=  0.000000 ICntrl=         0 IOpCl=  1 I1Cent=           0 NGrid=           0
         NMat0=    1 NMatS0=      1 NMatT0=    0 NMatD0=    1 NMtDS0=    0 NMtDT0=    0
 Symmetry not used in FoFCou.
 E= -2731.03875773768    
 DIIS: error= 2.22D-01 at cycle   1 NSaved=   1.
 NSaved= 1 IEnMin= 1 EnMin= -2731.03875773768     IErMin= 1 ErrMin= 2.22D-01
 ErrMax= 2.22D-01  0.00D+00 EMaxC= 1.00D-01 BMatC= 6.14D+01 BMatP= 6.14D+01
 IDIUse=3 WtCom= 0.00D+00 WtEn= 1.00D+00
 Coeff-Com:  0.100D+01
 Coeff-En:   0.100D+01
 Coeff:      0.100D+01
 Gap=     0.915 Goal=   None    Shift=    0.000
 Gap=     1.462 Goal=   None    Shift=    0.000
 GapD=    0.915 DampG=2.000 DampE=0.125 DampFc=0.2500 IDamp=-1.
 Damping current iteration by 2.50D-01
 RMSDP=5.56D-02 MaxDP=7.61D+00              OVMax= 9.54D-01

 Cycle   2  Pass 1  IDiag  1:
 RMSU=  1.39D-02    CP:  1.00D+00
 E= -2733.26816906868     Delta-E=       -2.229411331008 Rises=F Damp=T
 DIIS: error= 6.92D-02 at cycle   2 NSaved=   2.
 NSaved= 2 IEnMin= 2 EnMin= -2733.26816906868     IErMin= 2 ErrMin= 6.92D-02
 ErrMax= 6.92D-02  0.00D+00 EMaxC= 1.00D-01 BMatC= 6.85D+00 BMatP= 6.14D+01
 IDIUse=3 WtCom= 3.08D-01 WtEn= 6.92D-01
 Coeff-Com: -0.204D+00 0.120D+01
 Coeff-En:   0.340D+00 0.660D+00
 Coeff:      0.173D+00 0.827D+00
 Gap=    -0.257 Goal=   None    Shift=    0.000
 Gap=     0.226 Goal=   None    Shift=    0.000
 RMSDP=1.38D-02 MaxDP=1.14D+00 DE=-2.23D+00 OVMax= 9.78D-01

 Cycle   3  Pass 1  IDiag  1:
 RMSU=  1.06D-02    CP:  9.43D-01  3.71D-01
 E= -2732.60427613941     Delta-E=        0.663892929276 Rises=F Damp=F
 DIIS: error= 1.33D-01 at cycle   3 NSaved=   3.
 NSaved= 3 IEnMin= 2 EnMin= -2733.26816906868     IErMin= 2 ErrMin= 6.92D-02
 ErrMax= 1.33D-01  0.00D+00 EMaxC= 1.00D-01 BMatC= 2.55D+01 BMatP= 6.85D+00
 IDIUse=2 WtCom= 0.00D+00 WtEn= 1.00D+00
 EnCoef did     3 forward-backward iterations
 Coeff-En:   0.293D+00 0.246D+00 0.460D+00
 Coeff:      0.293D+00 0.246D+00 0.460D+00
 Gap=     1.058 Goal=   None    Shift=    0.000
 Gap=    -0.181 Goal=   None    Shift=    0.000
 RMSDP=2.08D-02 MaxDP=1.32D+00 DE= 6.64D-01 OVMax= 9.47D-01

 Cycle   4  Pass 1  IDiag  1:
 RMSU=  1.74D-02    CP:  9.48D-01  9.36D-01  2.13D-01
 E= -2700.00556246684     Delta-E=       32.598713672573 Rises=F Damp=F
 DIIS: error= 1.95D-01 at cycle   4 NSaved=   4.
 NSaved= 4 IEnMin= 2 EnMin= -2733.26816906868     IErMin= 2 ErrMin= 6.92D-02
 ErrMax= 1.95D-01  0.00D+00 EMaxC= 1.00D-01 BMatC= 9.12D+01 BMatP= 6.85D+00
 IDIUse=2 WtCom= 0.00D+00 WtEn= 1.00D+00
 EnCoef did   100 forward-backward iterations
 Coeff-En:   0.387D+00 0.110D-01 0.453D+00 0.149D+00
 Coeff:      0.387D+00 0.110D-01 0.453D+00 0.149D+00
 Gap=    -0.255 Goal=   None    Shift=    0.000
 Gap=    -0.291 Goal=   None    Shift=    0.000
 RMSDP=1.75D-02 MaxDP=1.26D+00 DE= 3.26D+01 OVMax= 9.71D-01

 Cycle   5  Pass 1  IDiag  1:
 RMSU=  7.31D-03    CP:  9.38D-01  3.84D-01  3.80D-01  2.06D-01
 E= -2735.73438808963     Delta-E=      -35.728825622798 Rises=F Damp=F
 DIIS: error= 7.67D-02 at cycle   5 NSaved=   5.
 NSaved= 5 IEnMin= 5 EnMin= -2735.73438808963     IErMin= 2 ErrMin= 6.92D-02
 ErrMax= 7.67D-02  0.00D+00 EMaxC= 1.00D-01 BMatC= 1.28D+01 BMatP= 6.85D+00
 IDIUse=2 WtCom= 0.00D+00 WtEn= 1.00D+00
 EnCoef did   100 forward-backward iterations
 Coeff-En:   0.307D+00 0.436D-02 0.217D+00 0.000D+00 0.472D+00
 Coeff:      0.307D+00 0.436D-02 0.217D+00 0.000D+00 0.472D+00
 Gap=     0.074 Goal=   None    Shift=    0.000
 Gap=     0.656 Goal=   None    Shift=    0.000
 RMSDP=1.09D-02 MaxDP=9.77D-01 DE=-3.57D+01 OVMax= 9.75D-01

 Cycle   6  Pass 1  IDiag  1:
 RMSU=  8.97D-03    CP:  9.35D-01  1.62D-01  3.43D-01  1.27D-01  2.93D-01
 E= -2725.01056743675     Delta-E=       10.723820652881 Rises=F Damp=F
 DIIS: error= 8.25D-02 at cycle   6 NSaved=   6.
 NSaved= 6 IEnMin= 5 EnMin= -2735.73438808963     IErMin= 2 ErrMin= 6.92D-02
 ErrMax= 8.25D-02  0.00D+00 EMaxC= 1.00D-01 BMatC= 2.53D+01 BMatP= 6.85D+00
 IDIUse=2 WtCom= 0.00D+00 WtEn= 1.00D+00
 EnCoef did     3 forward-backward iterations
 Coeff-En:   0.285D+00 0.000D+00 0.176D+00 0.000D+00 0.432D+00 0.107D+00
 Coeff:      0.285D+00 0.000D+00 0.176D+00 0.000D+00 0.432D+00 0.107D+00
 Gap=    -0.221 Goal=   None    Shift=    0.000
 Gap=     0.144 Goal=   None    Shift=    0.000
 RMSDP=8.81D-03 MaxDP=8.38D-01 DE= 1.07D+01 OVMax= 8.98D-01

 Cycle   7  Pass 1  IDiag  1:
 RMSU=  4.45D-03    CP:  9.35D-01  4.22D-02  3.77D-01  3.88D-02  2.12D-01
                    CP:  1.94D-01
 E= -2740.10768217850     Delta-E=      -15.097114741745 Rises=F Damp=F
 DIIS: error= 4.76D-02 at cycle   7 NSaved=   7.
 NSaved= 7 IEnMin= 7 EnMin= -2740.10768217850     IErMin= 7 ErrMin= 4.76D-02
 ErrMax= 4.76D-02  0.00D+00 EMaxC= 1.00D-01 BMatC= 2.61D+00 BMatP= 6.85D+00
 IDIUse=3 WtCom= 5.24D-01 WtEn= 4.76D-01
 EnCoef did     3 forward-backward iterations
 Coeff-Com: -0.344D-01 0.352D+00-0.676D-01-0.167D-01 0.692D-01-0.597D-01
 Coeff-Com:  0.757D+00
 Coeff-En:   0.100D+00 0.000D+00 0.000D+00 0.000D+00 0.134D+00 0.000D+00
 Coeff-En:   0.765D+00
 Coeff:      0.297D-01 0.184D+00-0.354D-01-0.877D-02 0.100D+00-0.313D-01
 Coeff:      0.761D+00
 Gap=     0.336 Goal=   None    Shift=    0.000
 Gap=     0.015 Goal=   None    Shift=    0.000
 RMSDP=3.75D-03 MaxDP=3.71D-01 DE=-1.51D+01 OVMax= 7.97D-01

 Cycle   8  Pass 1  IDiag  1:
 RMSU=  3.12D-03    CP:  9.39D-01  1.30D-02  2.27D-01  5.67D-02  2.47D-01
                    CP:  1.07D-01  7.90D-01
 E= -2740.47929669386     Delta-E=       -0.371614515367 Rises=F Damp=F
 DIIS: error= 3.26D-02 at cycle   8 NSaved=   8.
 NSaved= 8 IEnMin= 8 EnMin= -2740.47929669386     IErMin= 8 ErrMin= 3.26D-02
 ErrMax= 3.26D-02  0.00D+00 EMaxC= 1.00D-01 BMatC= 1.11D+00 BMatP= 2.61D+00
 IDIUse=3 WtCom= 6.74D-01 WtEn= 3.26D-01
 EnCoef did     1 forward-backward iterations
 Coeff-Com: -0.300D-01 0.105D+00-0.308D-01-0.521D-02 0.461D-01-0.302D-01
 Coeff-Com:  0.448D+00 0.497D+00
 Coeff-En:   0.000D+00 0.000D+00 0.000D+00 0.000D+00 0.198D-02 0.000D+00
 Coeff-En:   0.316D+00 0.682D+00
 Coeff:     -0.202D-01 0.710D-01-0.207D-01-0.351D-02 0.317D-01-0.204D-01
 Coeff:      0.405D+00 0.557D+00
 Gap=     0.291 Goal=   None    Shift=    0.000
 Gap=    -0.093 Goal=   None    Shift=    0.000
 RMSDP=2.84D-03 MaxDP=3.44D-01 DE=-3.72D-01 OVMax= 7.92D-01

 Cycle   9  Pass 1  IDiag  1:
 RMSU=  2.05D-03    CP:  9.31D-01  3.41D-02  2.83D-01  6.43D-02  3.42D-01
                    CP:  1.30D-01  8.85D-01  4.75D-01
 E= -2740.55068597184     Delta-E=       -0.071389277972 Rises=F Damp=F
 DIIS: error= 3.42D-02 at cycle   9 NSaved=   9.
 NSaved= 9 IEnMin= 9 EnMin= -2740.55068597184     IErMin= 8 ErrMin= 3.26D-02
 ErrMax= 3.42D-02  0.00D+00 EMaxC= 1.00D-01 BMatC= 8.61D-01 BMatP= 1.11D+00
 IDIUse=3 WtCom= 6.74D-01 WtEn= 3.26D-01
 EnCoef did     4 forward-backward iterations
 Coeff-Com: -0.195D-01 0.752D-01-0.237D-01-0.617D-02-0.370D-01-0.123D-01
 Coeff-Com:  0.227D+00 0.403D+00 0.394D+00
 Coeff-En:   0.000D+00 0.000D+00 0.000D+00 0.000D+00 0.000D+00 0.000D+00
 Coeff-En:   0.529D-01 0.434D+00 0.513D+00
 Coeff:     -0.131D-01 0.506D-01-0.159D-01-0.416D-02-0.249D-01-0.831D-02
 Coeff:      0.170D+00 0.413D+00 0.433D+00
 Gap=     0.163 Goal=   None    Shift=    0.000
 Gap=     0.020 Goal=   None    Shift=    0.000
 RMSDP=1.20D-03 MaxDP=3.96D-02 DE=-7.14D-02 OVMax= 2.80D-01

 Cycle  10  Pass 1  IDiag  1:
 RMSU=  9.42D-04    CP:  9.34D-01  2.74D-02  2.82D-01  5.16D-02  2.90D-01
                    CP:  1.50D-01  8.97D-01  4.49D-01  7.35D-01
 E= -2740.70268424734     Delta-E=       -0.151998275508 Rises=F Damp=F
 DIIS: error= 1.66D-02 at cycle  10 NSaved=  10.
 NSaved=10 IEnMin=10 EnMin= -2740.70268424734     IErMin=10 ErrMin= 1.66D-02
 ErrMax= 1.66D-02  0.00D+00 EMaxC= 1.00D-01 BMatC= 1.74D-01 BMatP= 8.61D-01
 IDIUse=3 WtCom= 8.34D-01 WtEn= 1.66D-01
 Coeff-Com: -0.561D-02 0.347D-01-0.218D-01-0.202D-02-0.336D-01-0.365D-02
 Coeff-Com:  0.448D-01 0.220D+00 0.690D-01 0.698D+00
 Coeff-En:   0.000D+00 0.000D+00 0.000D+00 0.000D+00 0.000D+00 0.000D+00
 Coeff-En:   0.000D+00 0.190D+00 0.000D+00 0.810D+00
 Coeff:     -0.468D-02 0.289D-01-0.182D-01-0.168D-02-0.280D-01-0.304D-02
 Coeff:      0.374D-01 0.215D+00 0.575D-01 0.717D+00
 Gap=     0.189 Goal=   None    Shift=    0.000
 Gap=     0.008 Goal=   None    Shift=    0.000
 RMSDP=1.35D-03 MaxDP=1.32D-01 DE=-1.52D-01 OVMax= 5.81D-01

 Cycle  11  Pass 1  IDiag  1:
 RMSU=  9.37D-04    CP:  9.36D-01  1.93D-02  2.61D-01  4.74D-02  2.52D-01
                    CP:  1.44D-01  8.64D-01  6.05D-01  3.82D-01  9.87D-01
 E= -2740.72258920246     Delta-E=       -0.019904955112 Rises=F Damp=F
 DIIS: error= 8.37D-03 at cycle  11 NSaved=  11.
 NSaved=11 IEnMin=11 EnMin= -2740.72258920246     IErMin=11 ErrMin= 8.37D-03
 ErrMax= 8.37D-03  0.00D+00 EMaxC= 1.00D-01 BMatC= 8.85D-02 BMatP= 1.74D-01
 IDIUse=3 WtCom= 9.16D-01 WtEn= 8.37D-02
 Coeff-Com: -0.396D-02 0.958D-02-0.322D-02 0.376D-03-0.358D-02 0.312D-02
 Coeff-Com: -0.282D-01 0.101D+00 0.319D-02 0.504D+00 0.417D+00
 Coeff-En:   0.000D+00 0.000D+00 0.000D+00 0.000D+00 0.000D+00 0.000D+00
 Coeff-En:   0.000D+00 0.000D+00 0.000D+00 0.385D+00 0.615D+00
 Coeff:     -0.363D-02 0.878D-02-0.295D-02 0.344D-03-0.328D-02 0.286D-02
 Coeff:     -0.259D-01 0.929D-01 0.292D-02 0.495D+00 0.433D+00
 Gap=     0.177 Goal=   None    Shift=    0.000
 Gap=     0.018 Goal=   None    Shift=    0.000
 RMSDP=5.93D-04 MaxDP=5.47D-02 DE=-1.99D-02 OVMax= 2.25D-01

 Cycle  12  Pass 1  IDiag  1:
 RMSU=  3.11D-04    CP:  9.35D-01  2.27D-02  2.66D-01  5.09D-02  2.72D-01
                    CP:  1.44D-01  8.74D-01  5.78D-01  5.19D-01  1.07D+00
                    CP:  6.12D-01
 E= -2740.74379265865     Delta-E=       -0.021203456193 Rises=F Damp=F
 DIIS: error= 1.63D-03 at cycle  12 NSaved=  12.
 NSaved=12 IEnMin=12 EnMin= -2740.74379265865     IErMin=12 ErrMin= 1.63D-03
 ErrMax= 1.63D-03  0.00D+00 EMaxC= 1.00D-01 BMatC= 4.50D-03 BMatP= 8.85D-02
 IDIUse=3 WtCom= 9.84D-01 WtEn= 1.63D-02
 Coeff-Com: -0.128D-02 0.322D-02-0.196D-02 0.442D-03 0.952D-03 0.133D-02
 Coeff-Com: -0.191D-01 0.109D-01-0.160D-01 0.162D+00 0.222D+00 0.637D+00
 Coeff-En:   0.000D+00 0.000D+00 0.000D+00 0.000D+00 0.000D+00 0.000D+00
 Coeff-En:   0.000D+00 0.000D+00 0.000D+00 0.000D+00 0.577D-01 0.942D+00
 Coeff:     -0.126D-02 0.317D-02-0.193D-02 0.435D-03 0.936D-03 0.131D-02
 Coeff:     -0.188D-01 0.107D-01-0.158D-01 0.159D+00 0.220D+00 0.642D+00
 Gap=     0.173 Goal=   None    Shift=    0.000
 Gap=     0.026 Goal=   None    Shift=    0.000
 RMSDP=2.63D-04 MaxDP=2.25D-02 DE=-2.12D-02 OVMax= 1.08D-01

 Cycle  13  Pass 1  IDiag  1:
 RMSU=  1.34D-04    CP:  9.36D-01  2.25D-02  2.63D-01  5.08D-02  2.67D-01
                    CP:  1.44D-01  8.67D-01  6.02D-01  4.62D-01  1.05D+00
                    CP:  7.69D-01  7.31D-01
 E= -2740.74338841802     Delta-E=        0.000404240634 Rises=F Damp=F
 DIIS: error= 2.26D-03 at cycle  13 NSaved=  13.
 NSaved=13 IEnMin=12 EnMin= -2740.74379265865     IErMin=12 ErrMin= 1.63D-03
 ErrMax= 2.26D-03  0.00D+00 EMaxC= 1.00D-01 BMatC= 6.69D-03 BMatP= 4.50D-03
 IDIUse=3 WtCom= 9.84D-01 WtEn= 1.63D-02
 Coeff-Com: -0.589D-03 0.273D-02-0.135D-02 0.558D-04 0.118D-02 0.526D-03
 Coeff-Com: -0.795D-02-0.115D-01 0.140D-01 0.907D-02-0.276D-02 0.465D+00
 Coeff-Com:  0.532D+00
 Coeff-En:   0.000D+00 0.000D+00 0.000D+00 0.000D+00 0.000D+00 0.000D+00
 Coeff-En:   0.000D+00 0.000D+00 0.000D+00 0.000D+00 0.000D+00 0.556D+00
 Coeff-En:   0.444D+00
 Coeff:     -0.580D-03 0.269D-02-0.133D-02 0.549D-04 0.117D-02 0.518D-03
 Coeff:     -0.782D-02-0.113D-01 0.138D-01 0.892D-02-0.272D-02 0.466D+00
 Coeff:      0.530D+00
 Gap=     0.172 Goal=   None    Shift=    0.000
 Gap=     0.029 Goal=   None    Shift=    0.000
 RMSDP=1.15D-04 MaxDP=1.03D-02 DE= 4.04D-04 OVMax= 3.68D-02

 Cycle  14  Pass 1  IDiag  1:
 RMSU=  5.41D-05    CP:  9.35D-01  2.33D-02  2.64D-01  5.15D-02  2.72D-01
                    CP:  1.44D-01  8.69D-01  5.91D-01  4.92D-01  1.04D+00
                    CP:  7.28D-01  8.86D-01  1.01D+00
 E= -2740.74506521339     Delta-E=       -0.001676795374 Rises=F Damp=F
 DIIS: error= 3.70D-04 at cycle  14 NSaved=  14.
 NSaved=14 IEnMin=14 EnMin= -2740.74506521339     IErMin=14 ErrMin= 3.70D-04
 ErrMax= 3.70D-04  0.00D+00 EMaxC= 1.00D-01 BMatC= 4.88D-04 BMatP= 4.50D-03
 IDIUse=3 WtCom= 9.96D-01 WtEn= 3.70D-03
 Coeff-Com: -0.204D-03 0.154D-02-0.701D-03-0.204D-04-0.254D-03-0.105D-03
 Coeff-Com: -0.253D-02-0.499D-02 0.991D-02-0.184D-01-0.548D-01 0.152D+00
 Coeff-Com:  0.124D+00 0.795D+00
 Coeff-En:   0.000D+00 0.000D+00 0.000D+00 0.000D+00 0.000D+00 0.000D+00
 Coeff-En:   0.000D+00 0.000D+00 0.000D+00 0.000D+00 0.000D+00 0.000D+00
 Coeff-En:   0.000D+00 0.100D+01
 Coeff:     -0.203D-03 0.153D-02-0.698D-03-0.204D-04-0.253D-03-0.105D-03
 Coeff:     -0.252D-02-0.497D-02 0.988D-02-0.183D-01-0.546D-01 0.151D+00
 Coeff:      0.124D+00 0.795D+00
 Gap=     0.169 Goal=   None    Shift=    0.000
 Gap=     0.029 Goal=   None    Shift=    0.000
 RMSDP=7.48D-05 MaxDP=4.81D-03 DE=-1.68D-03 OVMax= 2.53D-02

 Cycle  15  Pass 1  IDiag  1:
 RMSU=  3.45D-05    CP:  9.35D-01  2.37D-02  2.64D-01  5.19D-02  2.74D-01
                    CP:  1.44D-01  8.70D-01  5.89D-01  5.06D-01  1.04D+00
                    CP:  6.94D-01  9.75D-01  1.21D+00  1.49D+00
 E= -2740.74525253987     Delta-E=       -0.000187326478 Rises=F Damp=F
 DIIS: error= 5.77D-04 at cycle  15 NSaved=  15.
 NSaved=15 IEnMin=15 EnMin= -2740.74525253987     IErMin=14 ErrMin= 3.70D-04
 ErrMax= 5.77D-04  0.00D+00 EMaxC= 1.00D-01 BMatC= 2.66D-04 BMatP= 4.88D-04
 IDIUse=3 WtCom= 9.96D-01 WtEn= 3.70D-03
 Coeff-Com: -0.215D-03 0.110D-02-0.189D-03-0.335D-04 0.129D-03-0.739D-04
 Coeff-Com: -0.105D-02 0.503D-03-0.575D-03-0.150D-01-0.155D-01 0.417D-01
 Coeff-Com: -0.238D-01 0.466D+00 0.547D+00
 Coeff-En:   0.000D+00 0.000D+00 0.000D+00 0.000D+00 0.000D+00 0.000D+00
 Coeff-En:   0.000D+00 0.000D+00 0.000D+00 0.000D+00 0.000D+00 0.000D+00
 Coeff-En:   0.000D+00 0.122D-01 0.988D+00
 Coeff:     -0.214D-03 0.110D-02-0.189D-03-0.334D-04 0.129D-03-0.736D-04
 Coeff:     -0.105D-02 0.501D-03-0.573D-03-0.150D-01-0.155D-01 0.416D-01
 Coeff:     -0.237D-01 0.464D+00 0.549D+00
 Gap=     0.168 Goal=   None    Shift=    0.000
 Gap=     0.030 Goal=   None    Shift=    0.000
 RMSDP=4.20D-05 MaxDP=2.69D-03 DE=-1.87D-04 OVMax= 1.52D-02

 Cycle  16  Pass 1  IDiag  1:
 RMSU=  1.76D-05    CP:  9.35D-01  2.37D-02  2.64D-01  5.18D-02  2.73D-01
                    CP:  1.44D-01  8.69D-01  5.93D-01  4.97D-01  1.03D+00
                    CP:  7.03D-01  9.92D-01  1.33D+00  1.93D+00  1.08D+00
 E= -2740.74535817154     Delta-E=       -0.000105631674 Rises=F Damp=F
 DIIS: error= 1.90D-04 at cycle  16 NSaved=  16.
 NSaved=16 IEnMin=16 EnMin= -2740.74535817154     IErMin=16 ErrMin= 1.90D-04
 ErrMax= 1.90D-04  0.00D+00 EMaxC= 1.00D-01 BMatC= 4.86D-05 BMatP= 2.66D-04
 IDIUse=3 WtCom= 9.98D-01 WtEn= 1.90D-03
 Coeff-Com: -0.132D-03 0.340D-03 0.728D-04-0.272D-04 0.207D-03 0.544D-04
 Coeff-Com: -0.140D-03 0.148D-02-0.151D-03-0.121D-01 0.120D-01-0.144D-01
 Coeff-Com: -0.281D-01-0.446D-01 0.210D+00 0.876D+00
 Coeff-En:   0.000D+00 0.000D+00 0.000D+00 0.000D+00 0.000D+00 0.000D+00
 Coeff-En:   0.000D+00 0.000D+00 0.000D+00 0.000D+00 0.000D+00 0.000D+00
 Coeff-En:   0.000D+00 0.000D+00 0.000D+00 0.100D+01
 Coeff:     -0.132D-03 0.339D-03 0.726D-04-0.272D-04 0.207D-03 0.543D-04
 Coeff:     -0.140D-03 0.148D-02-0.151D-03-0.121D-01 0.120D-01-0.143D-01
 Coeff:     -0.281D-01-0.446D-01 0.210D+00 0.876D+00
 Gap=     0.168 Goal=   None    Shift=    0.000
 Gap=     0.030 Goal=   None    Shift=    0.000
 RMSDP=4.81D-05 MaxDP=1.77D-03 DE=-1.06D-04 OVMax= 2.18D-02

 Cycle  17  Pass 1  IDiag  1:
 RMSU=  1.08D-05    CP:  9.35D-01  2.38D-02  2.64D-01  5.19D-02  2.73D-01
                    CP:  1.44D-01  8.68D-01  5.96D-01  4.91D-01  1.02D+00
                    CP:  7.06D-01  1.01D+00  1.50D+00  2.46D+00  1.62D+00
                    CP:  1.67D+00
 E= -2740.74543383163     Delta-E=       -0.000075660093 Rises=F Damp=F
 DIIS: error= 1.36D-04 at cycle  17 NSaved=  17.
 NSaved=17 IEnMin=17 EnMin= -2740.74543383163     IErMin=17 ErrMin= 1.36D-04
 ErrMax= 1.36D-04  0.00D+00 EMaxC= 1.00D-01 BMatC= 1.72D-05 BMatP= 4.86D-05
 IDIUse=3 WtCom= 9.99D-01 WtEn= 1.36D-03
 Coeff-Com:  0.182D-04-0.212D-03 0.419D-04-0.527D-05-0.236D-04 0.534D-04
 Coeff-Com:  0.658D-03-0.163D-03 0.200D-02-0.486D-02 0.180D-01-0.155D-01
 Coeff-Com: -0.661D-02-0.282D+00-0.104D+00 0.468D+00 0.925D+00
 Coeff-En:   0.000D+00 0.000D+00 0.000D+00 0.000D+00 0.000D+00 0.000D+00
 Coeff-En:   0.000D+00 0.000D+00 0.000D+00 0.000D+00 0.000D+00 0.000D+00
 Coeff-En:   0.000D+00 0.000D+00 0.000D+00 0.000D+00 0.100D+01
 Coeff:      0.182D-04-0.211D-03 0.419D-04-0.527D-05-0.235D-04 0.533D-04
 Coeff:      0.657D-03-0.162D-03 0.200D-02-0.485D-02 0.180D-01-0.155D-01
 Coeff:     -0.661D-02-0.282D+00-0.104D+00 0.467D+00 0.925D+00
 Gap=     0.167 Goal=   None    Shift=    0.000
 Gap=     0.030 Goal=   None    Shift=    0.000
 RMSDP=5.57D-05 MaxDP=1.99D-03 DE=-7.57D-05 OVMax= 2.54D-02

 Cycle  18  Pass 1  IDiag  1:
 RMSU=  8.15D-06    CP:  9.35D-01  2.39D-02  2.64D-01  5.19D-02  2.73D-01
                    CP:  1.43D-01  8.67D-01  5.99D-01  4.84D-01  1.01D+00
                    CP:  7.11D-01  1.02D+00  1.69D+00  3.00D+00  2.23D+00
                    CP:  2.73D+00  1.45D+00
 E= -2740.74549620094     Delta-E=       -0.000062369305 Rises=F Damp=F
 DIIS: error= 1.82D-04 at cycle  18 NSaved=  18.
 NSaved=18 IEnMin=18 EnMin= -2740.74549620094     IErMin=17 ErrMin= 1.36D-04
 ErrMax= 1.82D-04  0.00D+00 EMaxC= 1.00D-01 BMatC= 3.06D-05 BMatP= 1.72D-05
 IDIUse=3 WtCom= 9.99D-01 WtEn= 1.36D-03
 Coeff-Com:  0.606D-04-0.174D-03-0.122D-04 0.177D-04-0.168D-03 0.253D-04
 Coeff-Com:  0.497D-03-0.138D-02 0.182D-02 0.711D-03 0.276D-02 0.198D-01
 Coeff-Com: -0.192D-01-0.869D-01-0.314D-03-0.263D+00 0.412D+00 0.933D+00
 Coeff-En:   0.000D+00 0.000D+00 0.000D+00 0.000D+00 0.000D+00 0.000D+00
 Coeff-En:   0.000D+00 0.000D+00 0.000D+00 0.000D+00 0.000D+00 0.000D+00
 Coeff-En:   0.000D+00 0.000D+00 0.000D+00 0.000D+00 0.000D+00 0.100D+01
 Coeff:      0.605D-04-0.174D-03-0.122D-04 0.176D-04-0.168D-03 0.253D-04
 Coeff:      0.497D-03-0.138D-02 0.182D-02 0.710D-03 0.276D-02 0.197D-01
 Coeff:     -0.192D-01-0.868D-01-0.314D-03-0.263D+00 0.412D+00 0.933D+00
 Gap=     0.167 Goal=   None    Shift=    0.000
 Gap=     0.031 Goal=   None    Shift=    0.000
 RMSDP=4.21D-05 MaxDP=1.55D-03 DE=-6.24D-05 OVMax= 1.94D-02

 Cycle  19  Pass 1  IDiag  1:
 RMSU=  2.42D-05    CP:  9.35D-01  2.39D-02  2.64D-01  5.19D-02  2.73D-01
                    CP:  1.43D-01  8.67D-01  6.01D-01  4.77D-01  1.00D+00
                    CP:  7.14D-01  1.02D+00  1.82D+00  3.00D+00  2.69D+00
                    CP:  3.00D+00  2.19D+00  2.31D+00
 E= -2740.74552584376     Delta-E=       -0.000029642821 Rises=F Damp=F
 DIIS: error= 2.88D-04 at cycle  19 NSaved=  19.
 NSaved=19 IEnMin=19 EnMin= -2740.74552584376     IErMin=17 ErrMin= 1.36D-04
 ErrMax= 2.88D-04  0.00D+00 EMaxC= 1.00D-01 BMatC= 6.67D-05 BMatP= 1.72D-05
 IDIUse=3 WtCom= 9.99D-01 WtEn= 1.36D-03
 Coeff-Com:  0.139D-04 0.502D-04 0.589D-04 0.468D-07-0.142D-03 0.937D-05
 Coeff-Com:  0.178D-03-0.100D-02 0.152D-02 0.155D-02-0.195D-01 0.364D-01
 Coeff-Com: -0.687D-01 0.242D+00 0.280D+00-0.779D+00-0.583D+00 0.101D+01
 Coeff-Com:  0.883D+00
 Coeff-En:   0.000D+00 0.000D+00 0.000D+00 0.000D+00 0.000D+00 0.000D+00
 Coeff-En:   0.000D+00 0.000D+00 0.000D+00 0.000D+00 0.000D+00 0.000D+00
 Coeff-En:   0.000D+00 0.000D+00 0.000D+00 0.000D+00 0.000D+00 0.000D+00
 Coeff-En:   0.100D+01
 Coeff:      0.139D-04 0.501D-04 0.588D-04 0.468D-07-0.141D-03 0.936D-05
 Coeff:      0.177D-03-0.100D-02 0.152D-02 0.155D-02-0.195D-01 0.364D-01
 Coeff:     -0.686D-01 0.242D+00 0.280D+00-0.778D+00-0.583D+00 0.101D+01
 Coeff:      0.883D+00
 Gap=     0.166 Goal=   None    Shift=    0.000
 Gap=     0.031 Goal=   None    Shift=    0.000
 RMSDP=4.82D-05 MaxDP=1.53D-03 DE=-2.96D-05 OVMax= 2.28D-02

 Cycle  20  Pass 1  IDiag  1:
 RMSU=  1.76D-05    CP:  9.35D-01  2.40D-02  2.64D-01  5.20D-02  2.73D-01
                    CP:  1.43D-01  8.66D-01  6.03D-01  4.72D-01  9.89D-01
                    CP:  7.14D-01  1.03D+00  1.97D+00  3.00D+00  3.00D+00
                    CP:  3.00D+00  3.00D+00  3.00D+00  2.12D+00
 E= -2740.74556283970     Delta-E=       -0.000036995941 Rises=F Damp=F
 DIIS: error= 2.10D-04 at cycle  20 NSaved=  20.
 NSaved=20 IEnMin=20 EnMin= -2740.74556283970     IErMin=17 ErrMin= 1.36D-04
 ErrMax= 2.10D-04  0.00D+00 EMaxC= 1.00D-01 BMatC= 3.67D-05 BMatP= 1.72D-05
 IDIUse=3 WtCom= 9.99D-01 WtEn= 1.36D-03
 Coeff-Com:  0.147D-04-0.206D-04 0.688D-05 0.171D-05 0.381D-04-0.822D-05
 Coeff-Com: -0.260D-03-0.428D-03 0.384D-03 0.193D-02-0.126D-01 0.176D-01
 Coeff-Com: -0.619D-01 0.169D+00 0.255D+00-0.441D+00-0.536D+00 0.347D+00
 Coeff-Com:  0.119D+00 0.114D+01
 Coeff-En:   0.000D+00 0.000D+00 0.000D+00 0.000D+00 0.000D+00 0.000D+00
 Coeff-En:   0.000D+00 0.000D+00 0.000D+00 0.000D+00 0.000D+00 0.000D+00
 Coeff-En:   0.000D+00 0.000D+00 0.000D+00 0.000D+00 0.000D+00 0.000D+00
 Coeff-En:   0.000D+00 0.100D+01
 Coeff:      0.147D-04-0.206D-04 0.687D-05 0.171D-05 0.381D-04-0.820D-05
 Coeff:     -0.260D-03-0.428D-03 0.384D-03 0.192D-02-0.125D-01 0.176D-01
 Coeff:     -0.618D-01 0.168D+00 0.254D+00-0.440D+00-0.535D+00 0.346D+00
 Coeff:      0.119D+00 0.114D+01
 Gap=     0.165 Goal=   None    Shift=    0.000
 Gap=     0.032 Goal=   None    Shift=    0.000
 RMSDP=4.54D-05 MaxDP=1.44D-03 DE=-3.70D-05 OVMax= 2.13D-02

 Cycle  21  Pass 1  IDiag  1:
 Restarting incremental Fock formation.
 E= -2740.74558363832     Delta-E=       -0.000020798617 Rises=F Damp=F
 DIIS: error= 1.62D-04 at cycle  21 NSaved=  20.
 NSaved=20 IEnMin=20 EnMin= -2740.74558363832     IErMin=16 ErrMin= 1.36D-04
 ErrMax= 1.62D-04  0.00D+00 EMaxC= 1.00D-01 BMatC= 2.27D-05 BMatP= 1.72D-05
 IDIUse=3 WtCom= 9.99D-01 WtEn= 1.36D-03
 Coeff-Com:  0.218D-04-0.834D-04-0.176D-04 0.545D-04-0.288D-04-0.437D-03
 Coeff-Com:  0.929D-05 0.404D-03 0.140D-03 0.232D-02-0.449D-02-0.188D-01
 Coeff-Com: -0.429D-01 0.625D-01 0.129D+00 0.543D-01-0.159D+00-0.671D+00
 Coeff-Com:  0.785D+00 0.864D+00
 Coeff-En:   0.000D+00 0.000D+00 0.000D+00 0.000D+00 0.000D+00 0.000D+00
 Coeff-En:   0.000D+00 0.000D+00 0.000D+00 0.000D+00 0.000D+00 0.000D+00
 Coeff-En:   0.000D+00 0.000D+00 0.000D+00 0.000D+00 0.000D+00 0.000D+00
 Coeff-En:   0.000D+00 0.100D+01
 Coeff:      0.218D-04-0.833D-04-0.176D-04 0.544D-04-0.288D-04-0.436D-03
 Coeff:      0.928D-05 0.403D-03 0.140D-03 0.232D-02-0.448D-02-0.188D-01
 Coeff:     -0.429D-01 0.624D-01 0.129D+00 0.543D-01-0.159D+00-0.671D+00
 Coeff:      0.784D+00 0.864D+00
 Gap=     0.165 Goal=   None    Shift=    0.000
 Gap=     0.032 Goal=   None    Shift=    0.000
 RMSDP=1.85D-05 MaxDP=6.18D-04 DE=-2.08D-05 OVMax= 8.71D-03

 Cycle  22  Pass 1  IDiag  1:
 RMSU=  1.85D-05    CP:  1.00D+00
 E= -2740.74559195296     Delta-E=       -0.000008314641 Rises=F Damp=F
 DIIS: error= 7.21D-05 at cycle  22 NSaved=  20.
 NSaved=20 IEnMin=20 EnMin= -2740.74559195296     IErMin=20 ErrMin= 7.21D-05
 ErrMax= 7.21D-05  0.00D+00 EMaxC= 1.00D-01 BMatC= 5.36D-06 BMatP= 1.72D-05
 IDIUse=1 WtCom= 1.00D+00 WtEn= 0.00D+00
 Coeff-Com:  0.187D-04-0.896D-04 0.110D-04 0.359D-05-0.459D-03 0.154D-03
 Coeff-Com:  0.472D-03-0.990D-04 0.669D-02-0.568D-02 0.108D-01-0.109D+00
 Coeff-Com: -0.586D-01 0.247D+00 0.250D+00-0.204D+00-0.657D+00 0.932D-01
 Coeff-Com:  0.542D+00 0.886D+00
 Coeff:      0.187D-04-0.896D-04 0.110D-04 0.359D-05-0.459D-03 0.154D-03
 Coeff:      0.472D-03-0.990D-04 0.669D-02-0.568D-02 0.108D-01-0.109D+00
 Coeff:     -0.586D-01 0.247D+00 0.250D+00-0.204D+00-0.657D+00 0.932D-01
 Coeff:      0.542D+00 0.886D+00
 Gap=     0.164 Goal=   None    Shift=    0.000
 Gap=     0.032 Goal=   None    Shift=    0.000
 RMSDP=2.53D-05 MaxDP=8.51D-04 DE=-8.31D-06 OVMax= 1.21D-02

 Cycle  23  Pass 1  IDiag  1:
 RMSU=  4.32D-06    CP:  1.00D+00  2.35D+00
 E= -2740.74559643303     Delta-E=       -0.000004480067 Rises=F Damp=F
 DIIS: error= 1.03D-05 at cycle  23 NSaved=  20.
 NSaved=20 IEnMin=20 EnMin= -2740.74559643303     IErMin=20 ErrMin= 1.03D-05
 ErrMax= 1.03D-05  0.00D+00 EMaxC= 1.00D-01 BMatC= 3.31D-07 BMatP= 5.36D-06
 IDIUse=1 WtCom= 1.00D+00 WtEn= 0.00D+00
 Coeff-Com:  0.156D-05-0.502D-05-0.151D-04-0.925D-04 0.455D-04 0.194D-03
 Coeff-Com: -0.386D-03 0.295D-02 0.497D-02 0.138D-01-0.444D-01-0.455D-01
 Coeff-Com:  0.773D-01 0.102D+00-0.899D-02-0.192D+00-0.190D+00 0.806D-01
 Coeff-Com:  0.495D+00 0.704D+00
 Coeff:      0.156D-05-0.502D-05-0.151D-04-0.925D-04 0.455D-04 0.194D-03
 Coeff:     -0.386D-03 0.295D-02 0.497D-02 0.138D-01-0.444D-01-0.455D-01
 Coeff:      0.773D-01 0.102D+00-0.899D-02-0.192D+00-0.190D+00 0.806D-01
 Coeff:      0.495D+00 0.704D+00
 Gap=     0.164 Goal=   None    Shift=    0.000
 Gap=     0.032 Goal=   None    Shift=    0.000
 RMSDP=6.57D-06 MaxDP=2.32D-04 DE=-4.48D-06 OVMax= 2.82D-03

 Cycle  24  Pass 1  IDiag  1:
 RMSU=  2.24D-06    CP:  1.00D+00  2.68D+00  1.14D+00
 E= -2740.74559690553     Delta-E=       -0.000000472505 Rises=F Damp=F
 DIIS: error= 5.65D-06 at cycle  24 NSaved=  20.
 NSaved=20 IEnMin=20 EnMin= -2740.74559690553     IErMin=20 ErrMin= 5.65D-06
 ErrMax= 5.65D-06  0.00D+00 EMaxC= 1.00D-01 BMatC= 5.35D-08 BMatP= 3.31D-07
 IDIUse=1 WtCom= 1.00D+00 WtEn= 0.00D+00
 Coeff-Com:  0.708D-05-0.433D-05 0.474D-05-0.185D-04 0.317D-04-0.184D-03
 Coeff-Com:  0.500D-03 0.374D-02 0.429D-02-0.432D-02-0.121D-01-0.865D-02
 Coeff-Com:  0.426D-03 0.376D-01 0.681D-02-0.870D-01-0.301D-01 0.560D-01
 Coeff-Com:  0.221D+00 0.812D+00
 Coeff:      0.708D-05-0.433D-05 0.474D-05-0.185D-04 0.317D-04-0.184D-03
 Coeff:      0.500D-03 0.374D-02 0.429D-02-0.432D-02-0.121D-01-0.865D-02
 Coeff:      0.426D-03 0.376D-01 0.681D-02-0.870D-01-0.301D-01 0.560D-01
 Coeff:      0.221D+00 0.812D+00
 Gap=     0.164 Goal=   None    Shift=    0.000
 Gap=     0.032 Goal=   None    Shift=    0.000
 RMSDP=3.89D-06 MaxDP=1.38D-04 DE=-4.73D-07 OVMax= 1.67D-03

 Cycle  25  Pass 1  IDiag  1:
 RMSU=  6.84D-07    CP:  1.00D+00  2.87D+00  1.32D+00  1.49D+00
 E= -2740.74559703161     Delta-E=       -0.000000126079 Rises=F Damp=F
 DIIS: error= 3.67D-06 at cycle  25 NSaved=  20.
 NSaved=20 IEnMin=20 EnMin= -2740.74559703161     IErMin=20 ErrMin= 3.67D-06
 ErrMax= 3.67D-06  0.00D+00 EMaxC= 1.00D-01 BMatC= 3.63D-08 BMatP= 5.35D-08
 IDIUse=1 WtCom= 1.00D+00 WtEn= 0.00D+00
 Coeff-Com: -0.437D-05 0.174D-05-0.949D-05 0.186D-04-0.637D-04 0.104D-03
 Coeff-Com:  0.605D-03 0.102D-02 0.177D-02-0.287D-02-0.679D-02-0.630D-02
 Coeff-Com:  0.135D-01 0.342D-01-0.314D-01-0.437D-01-0.741D-01-0.809D-01
 Coeff-Com:  0.507D+00 0.688D+00
 Coeff:     -0.437D-05 0.174D-05-0.949D-05 0.186D-04-0.637D-04 0.104D-03
 Coeff:      0.605D-03 0.102D-02 0.177D-02-0.287D-02-0.679D-02-0.630D-02
 Coeff:      0.135D-01 0.342D-01-0.314D-01-0.437D-01-0.741D-01-0.809D-01
 Coeff:      0.507D+00 0.688D+00
 Gap=     0.164 Goal=   None    Shift=    0.000
 Gap=     0.032 Goal=   None    Shift=    0.000
 RMSDP=2.85D-06 MaxDP=1.04D-04 DE=-1.26D-07 OVMax= 1.26D-03

 Cycle  26  Pass 1  IDiag  1:
 RMSU=  5.37D-07    CP:  1.00D+00  3.00D+00  1.36D+00  1.78D+00  1.08D+00
 E= -2740.74559708531     Delta-E=       -0.000000053699 Rises=F Damp=F
 DIIS: error= 1.18D-06 at cycle  26 NSaved=  20.
 NSaved=20 IEnMin=20 EnMin= -2740.74559708531     IErMin=20 ErrMin= 1.18D-06
 ErrMax= 1.18D-06  0.00D+00 EMaxC= 1.00D-01 BMatC= 4.15D-09 BMatP= 3.63D-08
 IDIUse=1 WtCom= 1.00D+00 WtEn= 0.00D+00
 Coeff-Com:  0.572D-05-0.594D-05 0.398D-05-0.364D-05-0.137D-03-0.301D-03
 Coeff-Com: -0.389D-03 0.232D-02 0.192D-02-0.481D-02-0.573D-02 0.298D-02
 Coeff-Com:  0.240D-01-0.256D-02-0.270D-01-0.497D-01-0.914D-01 0.698D-01
 Coeff-Com:  0.308D+00 0.773D+00
 Coeff:      0.572D-05-0.594D-05 0.398D-05-0.364D-05-0.137D-03-0.301D-03
 Coeff:     -0.389D-03 0.232D-02 0.192D-02-0.481D-02-0.573D-02 0.298D-02
 Coeff:      0.240D-01-0.256D-02-0.270D-01-0.497D-01-0.914D-01 0.698D-01
 Coeff:      0.308D+00 0.773D+00
 Gap=     0.164 Goal=   None    Shift=    0.000
 Gap=     0.032 Goal=   None    Shift=    0.000
 RMSDP=1.20D-06 MaxDP=4.39D-05 DE=-5.37D-08 OVMax= 4.86D-04

 Cycle  27  Pass 1  IDiag  1:
 RMSU=  7.40D-07    CP:  1.00D+00  3.00D+00  1.39D+00  1.96D+00  1.27D+00
                    CP:  2.56D+00
 E= -2740.74559709192     Delta-E=       -0.000000006607 Rises=F Damp=F
 DIIS: error= 2.56D-06 at cycle  27 NSaved=  20.
 NSaved=20 IEnMin=20 EnMin= -2740.74559709192     IErMin=19 ErrMin= 1.18D-06
 ErrMax= 2.56D-06  0.00D+00 EMaxC= 1.00D-01 BMatC= 6.05D-09 BMatP= 4.15D-09
 IDIUse=1 WtCom= 1.00D+00 WtEn= 0.00D+00
 Coeff-Com: -0.649D-06 0.742D-05-0.834D-05-0.119D-03-0.339D-03-0.316D-03
 Coeff-Com:  0.895D-03 0.126D-02-0.548D-03-0.863D-03-0.106D-02 0.608D-02
 Coeff-Com:  0.182D-03-0.101D-01-0.137D-01-0.304D-01-0.247D-01 0.697D-01
 Coeff-Com:  0.438D+00 0.566D+00
 Coeff:     -0.649D-06 0.742D-05-0.834D-05-0.119D-03-0.339D-03-0.316D-03
 Coeff:      0.895D-03 0.126D-02-0.548D-03-0.863D-03-0.106D-02 0.608D-02
 Coeff:      0.182D-03-0.101D-01-0.137D-01-0.304D-01-0.247D-01 0.697D-01
 Coeff:      0.438D+00 0.566D+00
 Gap=     0.164 Goal=   None    Shift=    0.000
 Gap=     0.032 Goal=   None    Shift=    0.000
 RMSDP=2.56D-07 MaxDP=2.15D-05 DE=-6.61D-09 OVMax= 9.72D-05

 Cycle  28  Pass 1  IDiag  1:
 RMSU=  9.15D-08    CP:  1.00D+00  3.00D+00  1.38D+00  1.97D+00  1.29D+00
                    CP:  2.97D+00  1.13D+00
 E= -2740.74559709387     Delta-E=       -0.000000001955 Rises=F Damp=F
 DIIS: error= 7.58D-07 at cycle  28 NSaved=  20.
 NSaved=20 IEnMin=20 EnMin= -2740.74559709387     IErMin=20 ErrMin= 7.58D-07
 ErrMax= 7.58D-07  0.00D+00 EMaxC= 1.00D-01 BMatC= 8.37D-10 BMatP= 4.15D-09
 IDIUse=1 WtCom= 1.00D+00 WtEn= 0.00D+00
 Coeff-Com:  0.492D-05-0.245D-04-0.463D-04-0.996D-04-0.645D-04-0.270D-03
 Coeff-Com:  0.396D-04 0.133D-02 0.133D-02-0.995D-03-0.509D-02 0.567D-03
 Coeff-Com:  0.284D-02 0.962D-02 0.265D-01-0.348D-01-0.871D-01-0.134D+00
 Coeff-Com:  0.262D+00 0.959D+00
 Coeff:      0.492D-05-0.245D-04-0.463D-04-0.996D-04-0.645D-04-0.270D-03
 Coeff:      0.396D-04 0.133D-02 0.133D-02-0.995D-03-0.509D-02 0.567D-03
 Coeff:      0.284D-02 0.962D-02 0.265D-01-0.348D-01-0.871D-01-0.134D+00
 Coeff:      0.262D+00 0.959D+00
 Gap=     0.164 Goal=   None    Shift=    0.000
 Gap=     0.032 Goal=   None    Shift=    0.000
 RMSDP=2.69D-07 MaxDP=3.47D-05 DE=-1.96D-09 OVMax= 8.70D-05

 Cycle  29  Pass 1  IDiag  1:
 RMSU=  2.26D-07    CP:  1.00D+00  3.00D+00  1.38D+00  1.96D+00  1.29D+00
                    CP:  3.00D+00  1.22D+00  1.96D+00
 E= -2740.74559709415     Delta-E=       -0.000000000278 Rises=F Damp=F
 DIIS: error= 1.94D-06 at cycle  29 NSaved=  20.
 NSaved=20 IEnMin=20 EnMin= -2740.74559709415     IErMin=19 ErrMin= 7.58D-07
 ErrMax= 1.94D-06  0.00D+00 EMaxC= 1.00D-01 BMatC= 2.56D-09 BMatP= 8.37D-10
 IDIUse=1 WtCom= 1.00D+00 WtEn= 0.00D+00
 Coeff-Com:  0.305D-05 0.520D-05 0.227D-04-0.112D-03-0.380D-03 0.152D-03
 Coeff-Com: -0.755D-04-0.264D-03 0.235D-03-0.381D-02 0.575D-02 0.702D-02
 Coeff-Com:  0.579D-02 0.135D-01-0.258D-01-0.603D-01-0.202D+00 0.121D-01
 Coeff-Com:  0.587D+00 0.661D+00
 Coeff:      0.305D-05 0.520D-05 0.227D-04-0.112D-03-0.380D-03 0.152D-03
 Coeff:     -0.755D-04-0.264D-03 0.235D-03-0.381D-02 0.575D-02 0.702D-02
 Coeff:      0.579D-02 0.135D-01-0.258D-01-0.603D-01-0.202D+00 0.121D-01
 Coeff:      0.587D+00 0.661D+00
 Gap=     0.164 Goal=   None    Shift=    0.000
 Gap=     0.032 Goal=   None    Shift=    0.000
 RMSDP=1.23D-07 MaxDP=1.21D-05 DE=-2.78D-10 OVMax= 3.20D-05

 Cycle  30  Pass 1  IDiag  1:
 RMSU=  7.00D-08    CP:  1.00D+00  3.00D+00  1.38D+00  1.97D+00  1.31D+00
                    CP:  3.00D+00  1.12D+00  2.54D+00  1.11D+00
 E= -2740.74559709464     Delta-E=       -0.000000000493 Rises=F Damp=F
 DIIS: error= 1.35D-06 at cycle  30 NSaved=  20.
 NSaved=20 IEnMin=20 EnMin= -2740.74559709464     IErMin=18 ErrMin= 7.58D-07
 ErrMax= 1.35D-06  0.00D+00 EMaxC= 1.00D-01 BMatC= 1.26D-09 BMatP= 8.37D-10
 IDIUse=1 WtCom= 1.00D+00 WtEn= 0.00D+00
 Coeff-Com:  0.668D-05 0.201D-04-0.544D-04-0.145D-03 0.218D-03-0.303D-03
 Coeff-Com: -0.704D-03 0.140D-03-0.607D-03 0.417D-02 0.390D-02 0.230D-02
 Coeff-Com: -0.251D-02-0.185D-01-0.222D-01-0.845D-01 0.586D-02 0.163D+00
 Coeff-Com:  0.228D+00 0.722D+00
 Coeff:      0.668D-05 0.201D-04-0.544D-04-0.145D-03 0.218D-03-0.303D-03
 Coeff:     -0.704D-03 0.140D-03-0.607D-03 0.417D-02 0.390D-02 0.230D-02
 Coeff:     -0.251D-02-0.185D-01-0.222D-01-0.845D-01 0.586D-02 0.163D+00
 Coeff:      0.228D+00 0.722D+00
 Gap=     0.164 Goal=   None    Shift=    0.000
 Gap=     0.032 Goal=   None    Shift=    0.000
 RMSDP=8.51D-08 MaxDP=4.93D-06 DE=-4.93D-10 OVMax= 3.05D-05

 Cycle  31  Pass 1  IDiag  1:
 RMSU=  2.12D-08    CP:  1.00D+00  3.00D+00  1.37D+00  1.98D+00  1.33D+00
                    CP:  3.00D+00  1.04D+00  2.77D+00  1.11D+00  1.60D+00
 E= -2740.74559709494     Delta-E=       -0.000000000297 Rises=F Damp=F
 DIIS: error= 6.71D-07 at cycle  31 NSaved=  20.
 NSaved=20 IEnMin=20 EnMin= -2740.74559709494     IErMin=20 ErrMin= 6.71D-07
 ErrMax= 6.71D-07  0.00D+00 EMaxC= 1.00D-01 BMatC= 3.11D-10 BMatP= 8.37D-10
 IDIUse=1 WtCom= 1.00D+00 WtEn= 0.00D+00
 Coeff-Com:  0.211D-04-0.108D-05 0.308D-04 0.102D-03-0.382D-03-0.648D-03
 Coeff-Com:  0.245D-03 0.109D-02 0.126D-02 0.113D-03 0.387D-03-0.577D-02
 Coeff-Com: -0.450D-02 0.127D-02-0.213D-02 0.211D-01-0.407D-01-0.111D+00
 Coeff-Com:  0.312D+00 0.828D+00
 Coeff:      0.211D-04-0.108D-05 0.308D-04 0.102D-03-0.382D-03-0.648D-03
 Coeff:      0.245D-03 0.109D-02 0.126D-02 0.113D-03 0.387D-03-0.577D-02
 Coeff:     -0.450D-02 0.127D-02-0.213D-02 0.211D-01-0.407D-01-0.111D+00
 Coeff:      0.312D+00 0.828D+00
 Gap=     0.164 Goal=   None    Shift=    0.000
 Gap=     0.032 Goal=   None    Shift=    0.000
 RMSDP=5.75D-08 MaxDP=2.86D-06 DE=-2.97D-10 OVMax= 2.12D-05

 Cycle  32  Pass 1  IDiag  1:
 RMSU=  1.16D-08    CP:  1.00D+00  3.00D+00  1.37D+00  1.99D+00  1.34D+00
                    CP:  3.00D+00  9.92D-01  2.93D+00  1.09D+00  2.03D+00
                    CP:  1.55D+00
 E= -2740.74559709502     Delta-E=       -0.000000000083 Rises=F Damp=F
 DIIS: error= 1.22D-07 at cycle  32 NSaved=  20.
 NSaved=20 IEnMin=20 EnMin= -2740.74559709502     IErMin=20 ErrMin= 1.22D-07
 ErrMax= 1.22D-07  0.00D+00 EMaxC= 1.00D-01 BMatC= 1.18D-11 BMatP= 3.11D-10
[...]
 0567,0.00000424,0.00001534,-0.00001503,0.00015801,0.00013943,-0.000091
 70,-0.00005616,-0.00011082,0.00004032,0.00024802,-0.00009717,-0.000008
 37,-0.00037803,-0.00101883,-0.00024934,0.00140315,-0.00055887,0.000632
 06,0.06603291,0.07989660,0.09323728,0.00002355,-0.00000300,0.00000783,
 -0.00007280,-0.00001484,-0.00000048,0.00002010,0.00001554,-0.00000031,
 0.00001853,0.00000170,-0.00000558,-0.00000481,0.00000794,-0.00000556,-
 0.00001025,-0.00001072,-0.00000531,0.00000074,-0.00000520,0.00000187,0
 .00001875,0.00001778,0.00006775,-0.00001366,-0.00000051,-0.00000577,-0
 .00015809,-0.00006474,-0.00000225,0.00037463,0.00002095,0.00001392,-0.
 00027876,-0.00055180,-0.00024312,-0.00170123,0.00211225,0.00099304,-0.
 00112103,0.00195615,-0.01407608,0.00348757,-0.00513555,-0.00128338,-0.
 00006601,0.00023639,0.00085229,0.00541786,-0.00331404,-0.00164790,0.00
 739082,-0.00080491,0.00421751,-0.09139442,-0.00523838,-0.10770622,-0.0
 0007934,0.00014652,0.00030479,0.00006737,0.00004931,-0.00000194,0.0000
 0938,-0.00002023,0.00002075,-0.00000538,0.00000159,-0.00000210,-0.0000
 0694,0.00000700,-0.00000276,-0.00044364,-0.00007871,0.00038117,0.00024
 912,0.00015178,-0.00004183,-0.00004372,-0.00036320,-0.00014532,0.00003
 692,0.00020972,-0.00098183,-0.00089459,0.00043648,0.00014807,-0.000249
 69,0.00014919,0.00040578,-0.00276512,0.00173195,0.00157511,0.08230017,
 0.00001390,-0.00000493,0.00000399,-0.00003799,0.00000905,0.00000714,0.
 00000849,-0.00000153,-0.00000075,0.00001073,-0.00000391,-0.00000854,-0
 .00000426,0.00000750,-0.00000938,-0.00001542,-0.00001235,0.00001680,0.
 00004763,-0.00000801,0.00000463,0.00000374,-0.00001719,0.00001261,0.00
 000492,0.00001012,-0.00000138,-0.00005088,0.00000752,-0.00000354,0.000
 19925,0.00003255,0.00006479,-0.00035916,0.00012737,-0.00011849,0.00100
 131,0.00068759,-0.00124137,-0.01093591,0.00346159,-0.02312990,-0.00403
 898,-0.00280743,-0.00055938,0.00006245,-0.00059284,-0.00010955,-0.0034
 6288,-0.00301969,0.00342660,0.00964643,0.00340189,0.02524162,-0.003282
 06,-0.05482344,0.00778438,-0.00010685,-0.00005159,-0.00003709,0.000137
 31,-0.00005118,0.00005766,0.00001017,-0.00001270,0.00001624,-0.0000019
 9,0.00000310,-0.00000036,0.00000139,0.00000070,-0.00000059,-0.00011859
 ,0.00008187,0.00003445,0.00028587,-0.00002429,0.00015330,0.00016929,-0
 .00054424,0.00034550,-0.00057031,0.00020912,-0.00088686,0.00044874,-0.
 00011135,-0.00007480,0.00071650,0.00007055,0.00090874,0.00176028,0.000
 25511,-0.00096042,0.00835112,0.05382840,0.00000236,-0.00000128,0.00000
 028,-0.00000469,0.00000451,0.00000437,0.00000061,-0.00000271,-0.000000
 40,0.00000155,-0.00000156,-0.00000254,-0.00000485,0.00000452,-0.000006
 47,-0.00001199,-0.00000229,0.00000538,0.00000348,-0.00001509,0.0000206
 3,-0.00002826,0.00003326,-0.00004084,-0.00000016,0.00001701,-0.0000238
 0,-0.00002840,-0.00002997,0.00006668,0.00010921,0.00000135,0.00003820,
 -0.00017665,0.00013821,0.00003450,0.00176548,0.00005146,-0.00029117,-0
 .00385198,0.00114065,-0.00439814,-0.00216666,-0.00002289,0.00157989,0.
 00059647,0.00006567,0.00033304,-0.00145921,0.00354623,0.00071603,-0.00
 755859,-0.00102534,-0.01011993,-0.10652482,0.00871188,-0.29726309,-0.0
 0003600,-0.00000052,-0.00003988,0.00004839,-0.00002148,-0.00001557,0.0
 0000207,-0.00001164,0.00001188,-0.00000297,-0.00000117,0.00000085,0.00
 000120,-0.00000217,0.00000179,0.00010695,0.00005821,0.00017821,0.00013
 436,-0.00000918,0.00003215,-0.00003486,-0.00035276,0.00055107,-0.00017
 202,0.00009715,0.00010942,0.00035609,-0.00014993,-0.00011075,-0.000132
 05,-0.00026672,-0.00048223,0.00150924,-0.00099694,0.00016244,0.1174158
 1,-0.01094287,0.30898083,-0.00004265,-0.00000193,0.00000290,0.00014459
 ,0.00004618,-0.00007094,-0.00003916,-0.00003170,0.00001125,-0.00004450
 ,0.00000053,0.00004885,0.00003716,-0.00009416,0.00007624,0.00013554,0.
 00006220,-0.00005496,-0.00014212,0.00008154,-0.00021910,-0.00018197,0.
 00015582,0.00003104,0.00053112,0.00131992,-0.00002790,-0.00688274,-0.0
 0451061,0.00043787,0.00031443,-0.00141061,0.00161266,0.00367583,0.0012
 1327,0.01740714,-0.00047184,-0.00123559,0.00080998,-0.00057634,0.00000
 366,0.00002163,0.00014538,0.00011583,-0.00023274,-0.00010117,-0.000290
 89,0.00000255,0.00005412,0.00006671,0.00010348,0.00006681,-0.00002708,
 -0.00000373,0.00004900,0.00001704,0.00010350,-0.04505045,-0.00117507,0
 .01023864,-0.01108070,0.00770506,-0.03862586,0.00001777,0.00006059,-0.
 00012672,0.00001296,0.00000237,0.00000380,-0.00002779,-0.00001294,-0.0
 0002615,0.00073710,0.00026141,0.00006192,0.00010267,-0.00018143,-0.000
 15830,-0.00011149,-0.00002704,0.00007998,-0.00004624,0.00002430,0.0000
 0507,0.00000289,-0.00000713,-0.00000198,-0.00001728,0.00001704,0.00000
 322,0.00000476,-0.00000525,0.00000536,-0.00003493,0.00000490,0.0000267
 1,0.05579703,-0.00000927,0.00000035,-0.00000780,0.00002630,0.00002064,
 0.00002573,-0.00000859,-0.00001307,-0.00000213,-0.00000498,-0.00000706
 ,-0.00001337,0.00001692,-0.00001116,0.00002102,0.00002596,0.00001444,-
 0.00002048,-0.00006399,0.00002464,0.00005775,0.00014240,-0.00014788,0.
 00002862,-0.00016993,-0.00035305,0.00006150,0.00111361,-0.00133430,0.0
 0200123,-0.00003486,-0.00253581,0.00215187,-0.00155208,0.00103918,0.02
 022686,-0.00005758,-0.00169464,0.00040588,-0.00049554,0.00001447,0.000
 43190,0.00006642,0.00015813,-0.00039906,-0.00020788,-0.00041295,-0.000
 00676,0.00005214,0.00009858,0.00003649,0.00012688,-0.00008073,0.000191
 52,0.00014662,0.00026917,0.00004001,-0.00063826,-0.05176423,-0.0150599
 9,0.00295185,0.00079307,0.01109954,-0.00002580,0.00003496,-0.00000237,
 0.00000351,-0.00000728,-0.00000390,0.00000168,0.00000715,0.00001303,0.
 00055718,0.00117363,0.00032250,-0.00005104,0.00008486,0.00013456,-0.00
 003616,0.00012734,0.00004252,-0.00006619,0.00000299,0.00003386,0.00001
 558,-0.00001173,-0.00000417,-0.00001587,0.00002469,0.00000134,-0.00000
 420,0.00000394,0.00000710,-0.00005142,0.00001214,0.00001339,-0.0009156
 8,0.05133884,0.00001813,-0.00000312,0.00000209,-0.00006273,0.00000071,
 0.00001974,0.00001652,0.00000588,-0.00000380,0.00001823,-0.00000257,-0
 .00001609,-0.00001361,0.00001846,-0.00002476,-0.00001897,-0.00001697,0
 .00001300,0.00002784,-0.00000193,0.00000791,-0.00004342,0.00010403,-0.
 00004790,-0.00005040,0.00009603,-0.00005669,-0.00023474,-0.00066744,-0
 .00009433,0.00016777,-0.00029444,-0.00007541,0.00024872,-0.00122255,-0
 .00473645,-0.00001589,0.00097958,-0.00026446,0.00022721,-0.00006821,-0
 .00001091,-0.00001596,0.00003480,0.00002464,-0.00002719,-0.00000327,-0
 .00001673,-0.00000902,-0.00000888,-0.00003272,0.00001839,-0.00000504,0
 .00006679,0.00000785,0.00005309,-0.00004454,-0.00239093,-0.00783960,-0
 .34129981,-0.00271138,0.00248982,-0.00167220,0.00005461,-0.00003457,0.
 00001070,-0.00000412,0.00000166,-0.00000117,-0.00000037,0.00000201,-0.
 00000033,-0.00037821,-0.00025478,0.00140931,-0.00009261,0.00007783,0.0
 0011707,0.00008853,0.00000044,-0.00001131,-0.00000262,-0.00000539,0.00
 000159,-0.00000081,0.00000103,-0.00000149,0.00000102,0.00000362,-0.000
 00209,0.00000290,0.00000315,0.00000058,0.00001445,0.00000882,0.0000038
 1,0.00432131,0.00631696,0.35244799,-0.00005270,-0.00000862,-0.00000250
 ,0.00018461,0.00010026,-0.00004231,-0.00005401,-0.00007286,0.00000831,
 -0.00005167,-0.00001027,0.00002854,0.00005470,-0.00007084,0.00009711,0
 .00015909,0.00004897,-0.00009326,-0.00019294,0.00010469,-0.00015113,-0
 .00011553,-0.00021627,0.00000726,0.00029664,-0.00001918,-0.00101657,-0
 .00627818,-0.00297398,0.00640360,0.00217215,-0.00026164,-0.00012351,0.
 00366129,-0.01668212,-0.00747596,0.00109008,-0.00055639,-0.00067444,-0
 .00007678,0.00036149,-0.00002602,-0.00002545,-0.00005581,0.00000653,0.
 00010629,0.00011029,0.00002882,-0.00005332,-0.00004228,-0.00002076,-0.
 00000939,0.00003962,-0.00002020,-0.00006238,-0.00006559,-0.00004156,-0
 .04825604,0.02316136,0.01174810,-0.01692509,0.03774773,0.00003475,0.00
 001780,0.00015083,-0.00006069,0.00001437,0.00000682,0.00000971,-0.0000
 2170,0.00003695,0.00001972,-0.00133548,-0.00264160,0.00189973,0.000008
 83,0.00029765,0.00045118,-0.00003979,-0.00007830,-0.00015524,0.0000405
 3,0.00000875,0.00000921,-0.00001278,0.00000608,0.00000444,0.00000711,-
 0.00000683,0.00000109,0.00000324,0.00000160,-0.00000541,0.00005541,0.0
 0000800,0.00001604,0.00303259,-0.00100058,0.00079834,0.06264878,-0.000
 01871,-0.00000007,-0.00000138,0.00006770,0.00001573,-0.00001721,-0.000
 01930,-0.00001475,0.00000376,-0.00002006,-0.00000058,0.00001451,0.0000
 2355,-0.00002799,0.00003891,0.00004593,0.00001927,-0.00004399,-0.00009
 551,-0.00001865,-0.00002622,0.00003233,-0.00001468,0.00014212,0.000029
 39,-0.00017049,-0.00004122,-0.00016577,-0.00014235,-0.00010988,0.00064
 679,-0.00006684,0.00084142,-0.00084103,-0.01373350,-0.00800750,0.00137
 708,0.00106164,-0.00087808,0.00041398,0.00011005,0.00008444,-0.0000730
 4,0.00004568,-0.00010616,0.00000573,0.00003596,-0.00000490,-0.00005635
 ,-0.00001270,-0.00008082,0.00003104,0.00002012,0.00012774,-0.00002091,
 0.00020014,-0.00012723,0.03227556,-0.28806021,-0.09124843,0.00637003,-
 0.00212543,0.00147698,-0.00004991,0.00003924,-0.00005052,0.00000428,0.
 00000448,0.00000862,0.00000060,0.00000246,0.00000471,-0.00103775,-0.00
 138053,0.00205347,-0.00065648,0.00032148,0.00085012,-0.00013865,0.0000
 3033,0.00013558,0.00000146,-0.00001346,0.00003141,-0.00000214,0.000008
 55,0.00000095,0.00000798,-0.00000179,-0.00000124,0.00000476,0.00000991
 ,-0.00001265,0.00005246,-0.00000514,-0.00000829,-0.00117566,0.00310648
 ,0.00022179,-0.03710599,0.30097569,0.00000779,0.00000080,-0.00000064,-
 0.00003442,-0.00000870,0.00001054,0.00001026,0.00000687,-0.00000384,0.
 00001090,0.00000157,-0.00000817,-0.00000742,0.00000517,0.00000106,0.00
 000714,0.00000116,0.00000820,0.00001278,0.00010784,-0.00000440,-0.0000
 4634,-0.00006033,-0.00015279,0.00019841,-0.00006690,-0.00030835,-0.001
 51421,0.00044477,0.00001553,0.00028004,-0.00070256,-0.00132254,-0.0018
 6743,0.01295227,0.00707585,-0.00009730,0.00051030,0.00146326,-0.000146
 45,0.00007903,-0.00013491,0.00012574,-0.00006553,0.00014055,0.00000862
 ,-0.00005816,-0.00000729,0.00008185,0.00001678,0.00013042,-0.00001937,
 0.00003411,-0.00017003,-0.00004147,-0.00011031,0.00003273,0.01624026,-
 0.09577866,-0.09215566,-0.00646919,0.01440310,0.00554066,0.00001482,0.
 00000816,0.00001382,-0.00000027,-0.00000888,-0.00001166,-0.00000848,0.
 00001280,0.00000264,0.00128922,0.00155323,-0.00048772,-0.00020135,-0.0
 0014358,-0.00017460,0.00003717,-0.00011048,-0.00001413,-0.00002465,0.0
 0002500,-0.00002375,0.00000634,-0.00000449,-0.00000388,-0.00001316,0.0
 0000360,0.00000285,0.00000346,-0.00000821,0.00000143,-0.00003804,-0.00
 000347,-0.00000299,0.00410413,-0.02815628,-0.00569820,-0.01172312,0.09
 491430,0.08610638,0.00041093,-0.00048515,0.00060224,0.00098039,0.00220
 617,-0.00242344,-0.00057764,-0.00091058,0.00044473,-0.00054224,-0.0002
 5726,0.00088575,0.01197710,0.01315751,-0.01585464,-0.00350101,0.001798
 63,-0.00268621,-0.00101188,0.00043672,-0.00058118,-0.00580186,-0.00109
 113,0.00072097,-0.00252997,-0.01808645,0.02164864,-0.00064380,-0.00114
 430,0.00131586,0.00097611,0.00022917,-0.00015147,0.00025385,-0.0000034
 9,0.00001532,-0.00001338,0.00004909,0.00001253,0.00001477,-0.00011422,
 0.00022337,-0.00019309,0.00002930,-0.00009706,-0.00002075,0.00010895,-
 0.00002779,-0.00005884,-0.00004502,-0.00011352,0.00002847,-0.00005883,
 0.00011604,0.00006060,0.00006763,-0.00001679,-0.00054371,0.00044012,-0
 .00045155,0.00070857,0.00032846,-0.00043334,-0.08179043,-0.05007447,0.
 05909729,0.00062810,0.00060488,-0.00067872,0.00011421,-0.00001898,0.00
 009429,0.00002907,-0.00000629,0.00000393,-0.00000765,0.00001031,-0.000
 00858,0.00002309,0.00001176,-0.00001054,0.00002802,-0.00000666,0.00000
 703,0.00000411,0.00000214,0.00000034,0.00000417,-0.00000235,-0.0000038
 8,-0.00000497,0.00000381,0.00000272,-0.00001026,-0.00000852,-0.0000051
 4,0.00004852,0.00001348,-0.00000124,0.00005408,-0.00001137,0.00000913,
 0.08043825,-0.00011706,0.00005431,-0.00020941,-0.00056212,-0.00096321,
 0.00003576,-0.00047611,-0.00067984,0.00007398,0.00030808,0.00000008,-0
 .00146122,-0.00339567,-0.00227101,0.00876020,0.00143260,0.00349893,0.0
 0358637,0.00066259,-0.00025604,-0.00035853,-0.00012112,0.00571073,0.00
 297196,-0.00055837,0.00114687,0.00177581,0.00018553,-0.00219427,-0.002
 27729,-0.00018104,0.00029131,0.00016509,0.00005734,0.00007608,0.000166
 61,-0.00007145,-0.00005152,0.00009402,0.00004143,0.00014147,-0.0001265
 3,0.00000629,-0.00007999,0.00012845,0.00006157,0.00007131,0.00001544,-
 0.00000037,-0.00000732,0.00005907,-0.00004346,0.00005498,-0.00014620,-
 0.00008990,-0.00016540,-0.00000173,0.00009876,-0.00004360,-0.00006344,
 0.00014776,-0.00016085,0.00030401,-0.05021593,-0.15748499,0.14029813,-
 0.00029696,-0.00037884,-0.00000326,-0.00001077,-0.00060682,-0.00048322
 ,0.00001004,-0.00001691,0.00001706,0.00000926,-0.00000704,-0.00000549,
 -0.00001151,-0.00001302,-0.00000623,0.00001098,-0.00000141,-0.00000394
 ,-0.00000368,0.00000234,0.00000303,-0.00000361,-0.00000549,0.00000557,
 0.00000155,-0.00000348,-0.00000427,-0.00000563,0.00000159,0.00000190,0
 .00000309,0.00001622,0.00000154,0.00004632,0.00000150,-0.00000360,0.05
 317268,0.15425089,0.00013714,-0.00023778,0.00019258,0.00076060,0.00026
 009,-0.00112213,-0.00012019,-0.00144516,0.00040812,0.00039019,-0.00006
 430,-0.00040137,0.00445762,0.00954416,-0.00637922,-0.00229507,0.003649
 75,0.00187458,-0.00071610,-0.00030413,-0.00023031,-0.00074648,0.002896
 97,0.00459101,0.00068302,0.00138626,0.00143667,0.00007090,-0.00260612,
 -0.00126348,-0.00000753,0.00055976,-0.00012005,-0.00001565,-0.00001901
 ,0.00023700,-0.00012037,-0.00001498,0.00004866,0.00008552,0.00007738,0
 .00007088,-0.00016289,0.00000180,-0.00003308,-0.00001104,0.00005891,-0
 .00002081,-0.00006048,-0.00001580,-0.00009439,0.00002311,-0.00000866,0
 .00005671,-0.00000593,-0.00007482,0.00001734,-0.00004161,-0.00002796,-
 0.00001856,-0.00015690,0.00011416,-0.00019883,0.05929425,0.14017597,-0
 .20900682,0.00041277,0.00004219,-0.00039979,0.00005315,-0.00049772,-0.
 00041644,-0.00000629,0.00001554,-0.00000067,0.00001434,-0.00000731,-0.
 00000596,-0.00000977,-0.00000248,0.00000428,0.00003422,-0.00001671,-0.
 00001537,0.00000373,0.00000294,-0.00000321,0.00000355,0.00000214,-0.00
 000337,0.00000247,0.00000563,0.00000360,-0.00000224,0.00000148,0.00000
 181,-0.00003722,0.00000070,0.00000396,-0.00000058,-0.00001591,0.000016
 87,-0.06206702,-0.15343386,0.21065306,0.00125254,-0.00013063,0.0002394
 3,-0.00453254,-0.00074224,0.00070651,0.00127901,0.00093177,-0.00021342
 ,0.00134496,0.00002401,-0.00091453,-0.00012115,0.00016988,-0.00016379,
 0.00265121,0.00089293,-0.00071007,-0.00860458,0.00522206,-0.00573433,-
 0.05211416,-0.00184509,0.00632453,-0.01129529,-0.00750248,0.00968159,0
 .00532606,-0.00857578,0.01343960,-0.01531894,-0.00212814,0.00731035,0.
 00484376,0.00090981,-0.00309228,0.00131844,0.00104055,-0.00037933,-0.0
 0375163,0.00904270,-0.00082189,-0.02961415,0.01599356,0.00808991,-0.00
 660501,0.00065337,0.01123527,-0.00068970,-0.00223833,0.00119261,-0.002
 46135,0.00158418,-0.00716427,-0.00544016,-0.01004926,-0.00053191,0.000
 23894,0.00064616,-0.00048914,-0.00506582,-0.00050397,-0.00112416,0.002
 90849,0.00060771,-0.00051910,0.00023099,0.00014911,-0.00028489,-0.0001
 9896,0.00029711,-0.00039314,-0.00045733,0.00042052,-0.00075742,-0.0002
 6516,-0.00038162,0.00038372,-0.00080642,-0.00055512,0.00052651,-0.0018
 0241,0.00079761,0.00055959,-0.00060554,0.00010492,0.00055440,0.0003845
 2,-0.00041926,0.00010547,0.00002290,-0.00004660,-0.00008888,-0.0001162
 6,0.00010138,0.00010329,-0.00005890,0.00014938,0.00004240,-0.00004434,
 0.00009798,-0.00019540,0.00046909,-0.00009109,0.00015675,0.12769888,0.
 00015972,-0.00007436,0.00004396,-0.00029851,-0.00002305,-0.00006111,-0
 .00000019,-0.00014994,0.00001889,0.00014364,-0.00004359,-0.00013721,-0
 .00019866,0.00014184,-0.00021906,-0.00030266,0.00044662,0.00214697,0.0
 0531320,0.00085720,-0.00127252,0.00371821,-0.01563567,0.00113684,-0.00
 634821,0.00011879,0.00037831,-0.01109243,-0.00777793,0.00981587,-0.000
 24383,-0.02510678,0.03797813,0.00066246,-0.00314537,0.00244602,-0.0011
 2126,-0.00013335,0.00152601,0.00473777,0.00021547,0.00066025,0.0023685
 4,-0.00543053,-0.00006089,0.00458831,0.00333240,-0.00051170,-0.0016654
 9,-0.00454666,-0.00268141,-0.00151266,-0.00092505,-0.00113289,-0.00087
 557,-0.00148292,0.00041649,0.00121350,-0.00061268,0.00057676,0.0003930
 7,0.00392130,-0.00110797,-0.00019101,-0.00005902,0.00212142,0.00006981
 ,0.00023651,0.00007673,0.00076909,-0.00064885,-0.00020376,-0.00074659,
 0.00042917,-0.00054180,0.00024116,-0.00047951,0.00003441,-0.00007287,-
 0.00009827,-0.00032927,0.00586165,-0.00398794,-0.00297370,-0.00025296,
 0.00053423,0.00039595,0.00005604,-0.00021726,-0.00001927,0.00001950,0.
 00002355,0.00014205,0.00000702,-0.00011596,-0.00002063,-0.00005867,0.0
 0000797,0.00000750,-0.00036825,-0.00021956,0.00020929,-0.00034575,0.00
 007245,-0.00000312,-0.00462710,0.06057676,-0.00039975,0.00005835,-0.00
 015178,0.00101472,0.00012168,-0.00002127,-0.00029059,-0.00022127,-0.00
 000687,-0.00021661,-0.00001346,-0.00000466,0.00035971,-0.00036611,0.00
 025835,0.00011244,0.00210170,-0.00059676,-0.00626312,-0.00130667,0.001
 87459,0.00542249,0.00163072,-0.01629366,0.00820524,0.00101362,-0.00054
 388,0.01640798,0.01090420,-0.01337536,0.00849523,0.03900151,-0.0755374
 1,-0.00446151,0.00240927,-0.00477041,0.00069997,0.00058562,-0.00051296
 ,0.00316252,0.00095740,0.00671541,0.00103677,-0.00158084,-0.00323209,0
 .00497193,0.00319838,-0.00564397,-0.00137742,0.00161402,-0.00263556,0.
 00087699,0.00001617,0.00001718,-0.00253247,-0.00706107,-0.00103278,-0.
 00066515,-0.00031461,-0.00026070,-0.00148332,-0.00407464,0.00601698,-0
 .00027091,0.00203982,-0.00100519,-0.00009767,-0.00007863,0.00015381,-0
 .00077046,-0.00011070,-0.00042978,0.00039403,0.00017210,0.00012876,0.0
 0001783,0.00004360,-0.00005335,0.00031072,-0.00001057,-0.00012356,0.00
 272622,-0.00226795,-0.00065376,0.00200802,-0.00012976,-0.00217291,-0.0
 0047415,0.00020917,0.00012491,-0.00016267,0.00034907,-0.00001382,-0.00
 022210,-0.00000002,-0.00003546,0.00006635,0.00001042,-0.00001779,0.000
 06077,-0.00016920,0.00012275,0.00041191,0.00012419,0.00011675,-0.03707
 394,-0.04885553,0.11359629\\0.00001546,0.00000868,-0.00000887,-0.00002
 516,-0.00000269,0.00000983,0.00001545,-0.00001107,-0.00000809,0.000014
 16,0.00000597,0.00000747,-0.00000989,-0.00000143,0.00000417,0.00000036
 ,-0.00000336,-0.00000266,-0.00000663,0.00000058,-0.00000102,-0.0000022
 0,0.00000104,0.00000068,0.00000415,-0.00000076,-0.00000214,0.00000369,
 0.00002190,-0.00001381,-0.00000699,-0.00000793,0.00000066,-0.00001490,
 -0.00001162,0.00001537,0.00000726,0.00000012,-0.00000297,0.00000842,-0
 .00001037,-0.00000684,-0.00000424,-0.00000068,0.00000337,-0.00000234,0
 .00000296,0.00000386,0.00000576,-0.00000080,-0.00000197,-0.00000237,0.
 00000767,-0.00000506,-0.00000215,-0.00000285,0.00000586,0.00001287,0.0
 0000610,-0.00000437,-0.00000511,-0.00000235,0.00000517,-0.00000836,-0.
 00000087,0.00000169,-0.00000211,0.00000083,0.00000047,-0.00000051,0.00
 000039,0.00000091,0.00000112,-0.00000016,-0.00000087,-0.00000047,-0.00
 000024,-0.00000068,0.00000137,0.00000232,-0.00000297,0.00000249,-0.000
 00095,-0.00000008,0.00000024,-0.00000061,0.00000059,-0.00000126,0.0000
 0104,0.00000024,0.00000111,0.00000025,-0.00000052,-0.00000107,0.000001
 31,-0.00000009,0.00000168,-0.00000295,0.00000088,0.00000361,-0.0000003
 8,0.00000077,0.00000074,0.00000095,0.00000179,-0.00000418,-0.00000002,
 -0.00000075\\\@
 The archive entry for this job was punched.



 WE LOSE BECAUSE WE WIN

 GAMBLERS,

 RECOLLECTING WHICH,

 TOSS THEIR DICE AGAIN....


                          EMILY DICKINSON  BOLTS OF MELODY NO. 533
 Job cpu time:       0 days  2 hours  4 minutes  6.3 seconds.
 Elapsed time:       0 days  0 hours  3 minutes 56.1 seconds.
 File lengths (MBytes):  RWF=   1244 Int=      0 D2E=      0 Chk=     17 Scr=      2
 Normal termination of Gaussian 16 at Thu Mar 14 19:09:41 2024.
