 Entering Gaussian System, Link 0=g16
 Initial command:
 /public/software/apps/Gaussian/g16/l1.exe "/public/home/LJQ_HG/tmp/Gau-129328.inp" -scrdir="/public/home/LJQ_HG/tmp/"
 Entering Link 1 = /public/software/apps/Gaussian/g16/l1.exe PID=    129329.
  
 Copyright (c) 1988-2019, Gaussian, Inc.  All Rights Reserved.
  
 This is part of the Gaussian(R) 16 program.  It is based on
 the Gaussian(R) 09 system (copyright 2009, Gaussian, Inc.),
 the Gaussian(R) 03 system (copyright 2003, Gaussian, Inc.),
 the Gaussian(R) 98 system (copyright 1998, Gaussian, Inc.),
 the Gaussian(R) 94 system (copyright 1995, Gaussian, Inc.),
 the Gaussian 92(TM) system (copyright 1992, Gaussian, Inc.),
 the Gaussian 90(TM) system (copyright 1990, Gaussian, Inc.),
 the Gaussian 88(TM) system (copyright 1988, Gaussian, Inc.),
 the Gaussian 86(TM) system (copyright 1986, Carnegie Mellon
 University), and the Gaussian 82(TM) system (copyright 1983,
 Carnegie Mellon University). Gaussian is a federally registered
 trademark of Gaussian, Inc.
  
 This software contains proprietary and confidential information,
 including trade secrets, belonging to Gaussian, Inc.
  
 This software is provided under written license and may be
 used, copied, transmitted, or stored only in accord with that
 written license.
  
 The following legend is applicable only to US Government
 contracts under FAR:
  
                    RESTRICTED RIGHTS LEGEND
  
 Use, reproduction and disclosure by the US Government is
 subject to restrictions as set forth in subparagraphs (a)
 and (c) of the Commercial Computer Software - Restricted
 Rights clause in FAR 52.227-19.
  
 Gaussian, Inc.
 340 Quinnipiac St., Bldg. 40, Wallingford CT 06492
  
  
 ---------------------------------------------------------------
 Warning -- This program may not be used in any manner that
 competes with the business of Gaussian, Inc. or will provide
 assistance to any competitor of Gaussian, Inc.  The licensee
 of this program is prohibited from giving any competitor of
 Gaussian, Inc. access to this program.  By using this program,
 the user acknowledges that Gaussian, Inc. is engaged in the
 business of creating and licensing software in the field of
 computational chemistry and represents and warrants to the
 licensee that it is not a competitor of Gaussian, Inc. and that
 it will not use this program in any manner prohibited above.
 ---------------------------------------------------------------
  

 Cite this work as:
 Gaussian 16, Revision C.01,
 M. J. Frisch, G. W. Trucks, H. B. Schlegel, G. E. Scuseria, 
 M. A. Robb, J. R. Cheeseman, G. Scalmani, V. Barone, 
 G. A. Petersson, H. Nakatsuji, X. Li, M. Caricato, A. V. Marenich, 
 J. Bloino, B. G. Janesko, R. Gomperts, B. Mennucci, H. P. Hratchian, 
 J. V. Ortiz, A. F. Izmaylov, J. L. Sonnenberg, D. Williams-Young, 
 F. Ding, F. Lipparini, F. Egidi, J. Goings, B. Peng, A. Petrone, 
 T. Henderson, D. Ranasinghe, V. G. Zakrzewski, J. Gao, N. Rega, 
 G. Zheng, W. Liang, M. Hada, M. Ehara, K. Toyota, R. Fukuda, 
 J. Hasegawa, M. Ishida, T. Nakajima, Y. Honda, O. Kitao, H. Nakai, 
 T. Vreven, K. Throssell, J. A. Montgomery, Jr., J. E. Peralta, 
 F. Ogliaro, M. J. Bearpark, J. J. Heyd, E. N. Brothers, K. N. Kudin, 
 V. N. Staroverov, T. A. Keith, R. Kobayashi, J. Normand, 
 K. Raghavachari, A. P. Rendell, J. C. Burant, S. S. Iyengar, 
 J. Tomasi, M. Cossi, J. M. Millam, M. Klene, C. Adamo, R. Cammi, 
 J. W. Ochterski, R. L. Martin, K. Morokuma, O. Farkas, 
 J. B. Foresman, and D. J. Fox, Gaussian, Inc., Wallingford CT, 2019.
 
 ******************************************
 Gaussian 16:  ES64L-G16RevC.01  3-Jul-2019
                 8-Mar-2024 
 ******************************************
 %nprocshared=32
 Will use up to   32 processors via shared memory.
 %mem=100GB
 ------------------------------------------
 #p opt freq b3lyp/def2svpp em=gd3bj nosymm
 ------------------------------------------
 1/18=20,19=15,26=3,38=1/1,3;
 2/9=110,12=2,15=1,17=6,18=5,40=1/2;
 3/5=43,7=202,11=2,25=1,30=1,71=1,74=-5,124=41/1,2,3;
 4//1;
 5/5=2,38=5/2;
 6/7=2,8=2,9=2,10=2,28=1/1;
 7/30=1/1,2,3,16;
 1/18=20,19=15,26=3/3(2);
 2/9=110,15=1/2;
 99//99;
 2/9=110,15=1/2;
 3/5=43,7=202,11=2,25=1,30=1,71=1,74=-5,124=41/1,2,3;
 4/5=5,16=3,69=1/1;
 5/5=2,38=5/2;
 7/30=1/1,2,3,16;
 1/18=20,19=15,26=3/3(-5);
 2/9=110,15=1/2;
 6/7=2,8=2,9=2,10=2,19=2,28=1/1;
 99/9=1/99;
 Leave Link    1 at Fri Mar  8 01:37:19 2024, MaxMem= 13421772800 cpu:               1.4 elap:               0.0
 (Enter /public/software/apps/Gaussian/g16/l101.exe)
 ------------------
 $$$$Title####2????
 ------------------
 Symbolic Z-matrix:
 Charge =  2 Multiplicity = 2
 C                    -1.92306   2.74435  -3.74331 
 C                    -0.89163   1.84829  -3.4492 
 C                    -1.14171   0.73028  -2.64742 
 C                    -2.43138   0.49764  -2.13985 
 C                    -2.69651  -0.68626  -1.24651 
 C                    -2.5663   -0.30177   0.23551 
 C                    -2.84983  -1.49269   1.17563 
 O                    -1.64036  -1.63868   1.897 
 C                    -0.73501  -0.68846   1.46887 
 C                     0.62834  -0.56263   2.00462 
 C                     1.08335  -1.42368   3.01426 
 C                     2.38345  -1.28572   3.50538 
 C                     3.22237  -0.29164   2.98776 
 C                     4.53376  -0.12555   3.45777 
 C                     5.34654   0.8774    2.91901 
 C                     4.8563    1.7161    1.91247 
 C                     3.55015   1.55715   1.43845 
 C                     2.72945   0.5566    1.97142 
 N                     1.45886   0.3986    1.51318 
 N                    -1.19385   0.08271   0.54591 
 C                    -3.4601    1.40942  -2.43033 
 C                    -3.20572   2.52592  -3.233 
 H                    -1.72751   3.60982  -4.36311 
 H                     0.10275   2.02177  -3.83982 
 H                    -0.33125   0.04887  -2.41967 
 H                    -1.98985  -1.51161  -1.48692 
 H                    -3.72324  -1.06874  -1.43768 
 H                    -3.2506    0.54208   0.47613 
 H                    -3.07445  -2.43378   0.62833 
 H                    -3.67844  -1.2563    1.87692 
 H                     0.44023  -2.19517   3.41908 
 H                     2.73128  -1.95256   4.28526 
 H                     4.92741  -0.76747   4.23675 
 H                     6.35818   1.00499   3.28204 
 H                     5.48975   2.49036   1.49927 
 H                     3.17896   2.21094   0.65886 
 H                    -4.45613   1.25609  -2.03362 
 H                    -4.00231   3.22372  -3.45659 
 Cu                    0.25789   1.37959   0.31763 
 
 ITRead=  0  0  0  0  0  0  0  0  0  0  0  0  0  0  0  0  0  0  0  0
 ITRead=  0  0  0  0  0  0  0  0  0  0  0  0  0  0  0  0  0  0  0
 MicOpt= -1 -1 -1 -1 -1 -1 -1 -1 -1 -1 -1 -1 -1 -1 -1 -1 -1 -1 -1 -1
 MicOpt= -1 -1 -1 -1 -1 -1 -1 -1 -1 -1 -1 -1 -1 -1 -1 -1 -1 -1 -1
 NAtoms=     39 NQM=       39 NQMF=       0 NMMI=      0 NMMIF=      0
                NMic=       0 NMicF=      0.
                    Isotopes and Nuclear Properties:
 (Nuclear quadrupole moments (NQMom) in fm**2, nuclear magnetic moments (NMagM)
  in nuclear magnetons)

  Atom         1           2           3           4           5           6           7           8           9          10
 IAtWgt=          12          12          12          12          12          12          12          16          12          12
 AtmWgt=  12.0000000  12.0000000  12.0000000  12.0000000  12.0000000  12.0000000  12.0000000  15.9949146  12.0000000  12.0000000
 NucSpn=           0           0           0           0           0           0           0           0           0           0
 AtZEff=  -0.0000000  -0.0000000  -0.0000000  -0.0000000  -0.0000000  -0.0000000  -0.0000000  -0.0000000  -0.0000000  -0.0000000
 NQMom=    0.0000000   0.0000000   0.0000000   0.0000000   0.0000000   0.0000000   0.0000000   0.0000000   0.0000000   0.0000000
 NMagM=    0.0000000   0.0000000   0.0000000   0.0000000   0.0000000   0.0000000   0.0000000   0.0000000   0.0000000   0.0000000
 AtZNuc=   6.0000000   6.0000000   6.0000000   6.0000000   6.0000000   6.0000000   6.0000000   8.0000000   6.0000000   6.0000000

  Atom        11          12          13          14          15          16          17          18          19          20
 IAtWgt=          12          12          12          12          12          12          12          12          14          14
 AtmWgt=  12.0000000  12.0000000  12.0000000  12.0000000  12.0000000  12.0000000  12.0000000  12.0000000  14.0030740  14.0030740
 NucSpn=           0           0           0           0           0           0           0           0           2           2
 AtZEff=  -0.0000000  -0.0000000  -0.0000000  -0.0000000  -0.0000000  -0.0000000  -0.0000000  -0.0000000  -0.0000000  -0.0000000
 NQMom=    0.0000000   0.0000000   0.0000000   0.0000000   0.0000000   0.0000000   0.0000000   0.0000000   2.0440000   2.0440000
 NMagM=    0.0000000   0.0000000   0.0000000   0.0000000   0.0000000   0.0000000   0.0000000   0.0000000   0.4037610   0.4037610
 AtZNuc=   6.0000000   6.0000000   6.0000000   6.0000000   6.0000000   6.0000000   6.0000000   6.0000000   7.0000000   7.0000000

  Atom        21          22          23          24          25          26          27          28          29          30
 IAtWgt=          12          12           1           1           1           1           1           1           1           1
 AtmWgt=  12.0000000  12.0000000   1.0078250   1.0078250   1.0078250   1.0078250   1.0078250   1.0078250   1.0078250   1.0078250
 NucSpn=           0           0           1           1           1           1           1           1           1           1
 AtZEff=  -0.0000000  -0.0000000  -0.0000000  -0.0000000  -0.0000000  -0.0000000  -0.0000000  -0.0000000  -0.0000000  -0.0000000
 NQMom=    0.0000000   0.0000000   0.0000000   0.0000000   0.0000000   0.0000000   0.0000000   0.0000000   0.0000000   0.0000000
 NMagM=    0.0000000   0.0000000   2.7928460   2.7928460   2.7928460   2.7928460   2.7928460   2.7928460   2.7928460   2.7928460
 AtZNuc=   6.0000000   6.0000000   1.0000000   1.0000000   1.0000000   1.0000000   1.0000000   1.0000000   1.0000000   1.0000000

  Atom        31          32          33          34          35          36          37          38          39
 IAtWgt=           1           1           1           1           1           1           1           1          63
 AtmWgt=   1.0078250   1.0078250   1.0078250   1.0078250   1.0078250   1.0078250   1.0078250   1.0078250  62.9295992
 NucSpn=           1           1           1           1           1           1           1           1           3
 AtZEff=  -0.0000000  -0.0000000  -0.0000000  -0.0000000  -0.0000000  -0.0000000  -0.0000000  -0.0000000  -0.0000000
 NQMom=    0.0000000   0.0000000   0.0000000   0.0000000   0.0000000   0.0000000   0.0000000   0.0000000 -22.0000000
 NMagM=    2.7928460   2.7928460   2.7928460   2.7928460   2.7928460   2.7928460   2.7928460   2.7928460   2.2233000
 AtZNuc=   1.0000000   1.0000000   1.0000000   1.0000000   1.0000000   1.0000000   1.0000000   1.0000000  29.0000000
 Leave Link  101 at Fri Mar  8 01:37:19 2024, MaxMem= 13421772800 cpu:              10.7 elap:               0.3
 (Enter /public/software/apps/Gaussian/g16/l103.exe)

 GradGradGradGradGradGradGradGradGradGradGradGradGradGradGradGradGradGrad
 Berny optimization.
 Initialization pass.
                           ----------------------------
                           !    Initial Parameters    !
                           ! (Angstroms and Degrees)  !
 --------------------------                            --------------------------
 ! Name  Definition              Value          Derivative Info.                !
 --------------------------------------------------------------------------------
 ! R1    R(1,2)                  1.3976         estimate D2E/DX2                !
 ! R2    R(1,22)                 1.3976         estimate D2E/DX2                !
 ! R3    R(1,23)                 1.0823         estimate D2E/DX2                !
 ! R4    R(2,3)                  1.3983         estimate D2E/DX2                !
 ! R5    R(2,24)                 1.0823         estimate D2E/DX2                !
 ! R6    R(3,4)                  1.4053         estimate D2E/DX2                !
 ! R7    R(3,25)                 1.0831         estimate D2E/DX2                !
 ! R8    R(4,5)                  1.5066         estimate D2E/DX2                !
 ! R9    R(4,21)                 1.405          estimate D2E/DX2                !
 ! R10   R(5,6)                  1.5366         estimate D2E/DX2                !
 ! R11   R(5,26)                 1.1128         estimate D2E/DX2                !
 ! R12   R(5,27)                 1.1122         estimate D2E/DX2                !
 ! R13   R(6,7)                  1.5435         estimate D2E/DX2                !
 ! R14   R(6,20)                 1.4587         estimate D2E/DX2                !
 ! R15   R(6,28)                 1.1128         estimate D2E/DX2                !
 ! R16   R(7,8)                  1.4158         estimate D2E/DX2                !
 ! R17   R(7,29)                 1.1116         estimate D2E/DX2                !
 ! R18   R(7,30)                 1.111          estimate D2E/DX2                !
 ! R19   R(8,9)                  1.3805         estimate D2E/DX2                !
 ! R20   R(9,10)                 1.4702         estimate D2E/DX2                !
 ! R21   R(9,20)                 1.2873         estimate D2E/DX2                !
 ! R22   R(10,11)                1.4028         estimate D2E/DX2                !
 ! R23   R(10,19)                1.3621         estimate D2E/DX2                !
 ! R24   R(11,12)                1.3966         estimate D2E/DX2                !
 ! R25   R(11,31)                1.0829         estimate D2E/DX2                !
 ! R26   R(12,13)                1.4            estimate D2E/DX2                !
 ! R27   R(12,32)                1.0835         estimate D2E/DX2                !
 ! R28   R(13,14)                1.4029         estimate D2E/DX2                !
 ! R29   R(13,18)                1.4126         estimate D2E/DX2                !
 ! R30   R(14,15)                1.3988         estimate D2E/DX2                !
 ! R31   R(14,33)                1.0834         estimate D2E/DX2                !
 ! R32   R(15,16)                1.3989         estimate D2E/DX2                !
 ! R33   R(15,34)                1.0824         estimate D2E/DX2                !
 ! R34   R(16,17)                1.3986         estimate D2E/DX2                !
 ! R35   R(16,35)                1.0823         estimate D2E/DX2                !
 ! R36   R(17,18)                1.3995         estimate D2E/DX2                !
 ! R37   R(17,36)                1.083          estimate D2E/DX2                !
 ! R38   R(18,19)                1.3599         estimate D2E/DX2                !
 ! R39   R(19,39)                1.9581         estimate D2E/DX2                !
 ! R40   R(20,39)                1.96           estimate D2E/DX2                !
 ! R41   R(21,22)                1.3984         estimate D2E/DX2                !
 ! R42   R(21,37)                1.083          estimate D2E/DX2                !
 ! R43   R(22,38)                1.0823         estimate D2E/DX2                !
 ! A1    A(2,1,22)             120.0174         estimate D2E/DX2                !
 ! A2    A(2,1,23)             119.9905         estimate D2E/DX2                !
 ! A3    A(22,1,23)            119.9917         estimate D2E/DX2                !
 ! A4    A(1,2,3)              120.0853         estimate D2E/DX2                !
 ! A5    A(1,2,24)             119.9543         estimate D2E/DX2                !
 ! A6    A(3,2,24)             119.9601         estimate D2E/DX2                !
 ! A7    A(2,3,4)              120.2359         estimate D2E/DX2                !
 ! A8    A(2,3,25)             119.325          estimate D2E/DX2                !
 ! A9    A(4,3,25)             120.4387         estimate D2E/DX2                !
 ! A10   A(3,4,5)              120.379          estimate D2E/DX2                !
 ! A11   A(3,4,21)             119.3293         estimate D2E/DX2                !
 ! A12   A(5,4,21)             120.244          estimate D2E/DX2                !
 ! A13   A(4,5,6)              111.1213         estimate D2E/DX2                !
 ! A14   A(4,5,26)             110.0569         estimate D2E/DX2                !
 ! A15   A(4,5,27)             109.3149         estimate D2E/DX2                !
 ! A16   A(6,5,26)             109.885          estimate D2E/DX2                !
 ! A17   A(6,5,27)             109.2718         estimate D2E/DX2                !
 ! A18   A(26,5,27)            107.0989         estimate D2E/DX2                !
 ! A19   A(5,6,7)              112.2603         estimate D2E/DX2                !
 ! A20   A(5,6,20)             110.5431         estimate D2E/DX2                !
 ! A21   A(5,6,28)             110.2547         estimate D2E/DX2                !
 ! A22   A(7,6,20)             104.2754         estimate D2E/DX2                !
 ! A23   A(7,6,28)             109.9035         estimate D2E/DX2                !
 ! A24   A(20,6,28)            109.4326         estimate D2E/DX2                !
 ! A25   A(6,7,8)              103.4725         estimate D2E/DX2                !
 ! A26   A(6,7,29)             112.9821         estimate D2E/DX2                !
 ! A27   A(6,7,30)             110.9345         estimate D2E/DX2                !
 ! A28   A(8,7,29)             109.6442         estimate D2E/DX2                !
 ! A29   A(8,7,30)             109.7224         estimate D2E/DX2                !
 ! A30   A(29,7,30)            109.8897         estimate D2E/DX2                !
 ! A31   A(7,8,9)              109.3437         estimate D2E/DX2                !
 ! A32   A(8,9,10)             123.6435         estimate D2E/DX2                !
 ! A33   A(8,9,20)             113.6362         estimate D2E/DX2                !
 ! A34   A(10,9,20)            122.7198         estimate D2E/DX2                !
 ! A35   A(9,10,11)            120.6982         estimate D2E/DX2                !
 ! A36   A(9,10,19)            119.6263         estimate D2E/DX2                !
 ! A37   A(11,10,19)           119.6753         estimate D2E/DX2                !
 ! A38   A(10,11,12)           119.6309         estimate D2E/DX2                !
 ! A39   A(10,11,31)           120.9117         estimate D2E/DX2                !
 ! A40   A(12,11,31)           119.4574         estimate D2E/DX2                !
 ! A41   A(11,12,13)           119.8651         estimate D2E/DX2                !
 ! A42   A(11,12,32)           119.4181         estimate D2E/DX2                !
 ! A43   A(13,12,32)           120.7168         estimate D2E/DX2                !
 ! A44   A(12,13,14)           121.3545         estimate D2E/DX2                !
 ! A45   A(12,13,18)           118.9017         estimate D2E/DX2                !
 ! A46   A(14,13,18)           119.7438         estimate D2E/DX2                !
 ! A47   A(13,14,15)           119.9319         estimate D2E/DX2                !
 ! A48   A(13,14,33)           120.688          estimate D2E/DX2                !
 ! A49   A(15,14,33)           119.3801         estimate D2E/DX2                !
 ! A50   A(14,15,16)           120.223          estimate D2E/DX2                !
 ! A51   A(14,15,34)           119.8954         estimate D2E/DX2                !
 ! A52   A(16,15,34)           119.8816         estimate D2E/DX2                !
 ! A53   A(15,16,17)           120.1999         estimate D2E/DX2                !
 ! A54   A(15,16,35)           119.8991         estimate D2E/DX2                !
 ! A55   A(17,16,35)           119.901          estimate D2E/DX2                !
 ! A56   A(16,17,18)           119.9895         estimate D2E/DX2                !
 ! A57   A(16,17,36)           119.6985         estimate D2E/DX2                !
 ! A58   A(18,17,36)           120.3119         estimate D2E/DX2                !
 ! A59   A(13,18,17)           119.9119         estimate D2E/DX2                !
 ! A60   A(13,18,19)           119.9138         estimate D2E/DX2                !
 ! A61   A(17,18,19)           120.1744         estimate D2E/DX2                !
 ! A62   A(10,19,18)           122.0132         estimate D2E/DX2                !
 ! A63   A(10,19,39)           101.5297         estimate D2E/DX2                !
 ! A64   A(18,19,39)           136.1037         estimate D2E/DX2                !
 ! A65   A(6,20,9)             109.2713         estimate D2E/DX2                !
 ! A66   A(6,20,39)            147.8344         estimate D2E/DX2                !
 ! A67   A(9,20,39)            102.4672         estimate D2E/DX2                !
 ! A68   A(4,21,22)            120.2393         estimate D2E/DX2                !
 ! A69   A(4,21,37)            120.3819         estimate D2E/DX2                !
 ! A70   A(22,21,37)           119.3787         estimate D2E/DX2                !
 ! A71   A(1,22,21)            120.086          estimate D2E/DX2                !
 ! A72   A(1,22,38)            119.9512         estimate D2E/DX2                !
 ! A73   A(21,22,38)           119.9625         estimate D2E/DX2                !
 ! A74   A(19,39,20)            92.9624         estimate D2E/DX2                !
 ! D1    D(22,1,2,3)             0.1782         estimate D2E/DX2                !
 ! D2    D(22,1,2,24)         -179.6166         estimate D2E/DX2                !
 ! D3    D(23,1,2,3)           179.9289         estimate D2E/DX2                !
 ! D4    D(23,1,2,24)            0.1341         estimate D2E/DX2                !
 ! D5    D(2,1,22,21)           -0.1526         estimate D2E/DX2                !
 ! D6    D(2,1,22,38)          179.6349         estimate D2E/DX2                !
 ! D7    D(23,1,22,21)        -179.9033         estimate D2E/DX2                !
 ! D8    D(23,1,22,38)          -0.1158         estimate D2E/DX2                !
 ! D9    D(1,2,3,4)              0.3608         estimate D2E/DX2                !
 ! D10   D(1,2,3,25)          -179.4325         estimate D2E/DX2                !
 ! D11   D(24,2,3,4)          -179.8444         estimate D2E/DX2                !
 ! D12   D(24,2,3,25)            0.3623         estimate D2E/DX2                !
 ! D13   D(2,3,4,5)           -178.4108         estimate D2E/DX2                !
 ! D14   D(2,3,4,21)            -0.9161         estimate D2E/DX2                !
 ! D15   D(25,3,4,5)             1.3801         estimate D2E/DX2                !
 ! D16   D(25,3,4,21)          178.8748         estimate D2E/DX2                !
 ! D17   D(3,4,5,6)             93.3428         estimate D2E/DX2                !
 ! D18   D(3,4,5,26)           -28.609          estimate D2E/DX2                !
 ! D19   D(3,4,5,27)          -145.9725         estimate D2E/DX2                !
 ! D20   D(21,4,5,6)           -84.1288         estimate D2E/DX2                !
 ! D21   D(21,4,5,26)          153.9194         estimate D2E/DX2                !
 ! D22   D(21,4,5,27)           36.5559         estimate D2E/DX2                !
 ! D23   D(3,4,21,22)            0.9417         estimate D2E/DX2                !
 ! D24   D(3,4,21,37)         -178.9207         estimate D2E/DX2                !
 ! D25   D(5,4,21,22)          178.4399         estimate D2E/DX2                !
 ! D26   D(5,4,21,37)           -1.4226         estimate D2E/DX2                !
 ! D27   D(4,5,6,7)            179.3044         estimate D2E/DX2                !
 ! D28   D(4,5,6,20)           -64.7242         estimate D2E/DX2                !
 ! D29   D(4,5,6,28)            56.4066         estimate D2E/DX2                !
 ! D30   D(26,5,6,7)           -58.6438         estimate D2E/DX2                !
 ! D31   D(26,5,6,20)           57.3276         estimate D2E/DX2                !
 ! D32   D(26,5,6,28)          178.4584         estimate D2E/DX2                !
 ! D33   D(27,5,6,7)            58.5943         estimate D2E/DX2                !
 ! D34   D(27,5,6,20)          174.5657         estimate D2E/DX2                !
 ! D35   D(27,5,6,28)          -64.3035         estimate D2E/DX2                !
 ! D36   D(5,6,7,8)            119.9809         estimate D2E/DX2                !
 ! D37   D(5,6,7,29)             1.4848         estimate D2E/DX2                !
 ! D38   D(5,6,7,30)          -122.4262         estimate D2E/DX2                !
 ! D39   D(20,6,7,8)             0.2849         estimate D2E/DX2                !
 ! D40   D(20,6,7,29)         -118.2112         estimate D2E/DX2                !
 ! D41   D(20,6,7,30)          117.8778         estimate D2E/DX2                !
 ! D42   D(28,6,7,8)          -116.9236         estimate D2E/DX2                !
 ! D43   D(28,6,7,29)          124.5803         estimate D2E/DX2                !
 ! D44   D(28,6,7,30)            0.6693         estimate D2E/DX2                !
 ! D45   D(5,6,20,9)          -121.0564         estimate D2E/DX2                !
 ! D46   D(5,6,20,39)           68.7034         estimate D2E/DX2                !
 ! D47   D(7,6,20,9)            -0.2073         estimate D2E/DX2                !
 ! D48   D(7,6,20,39)         -170.4475         estimate D2E/DX2                !
 ! D49   D(28,6,20,9)          117.3263         estimate D2E/DX2                !
 ! D50   D(28,6,20,39)         -52.9139         estimate D2E/DX2                !
 ! D51   D(6,7,8,9)             -0.2714         estimate D2E/DX2                !
 ! D52   D(29,7,8,9)           120.5138         estimate D2E/DX2                !
 ! D53   D(30,7,8,9)          -118.7083         estimate D2E/DX2                !
 ! D54   D(7,8,9,10)          -179.6078         estimate D2E/DX2                !
 ! D55   D(7,8,9,20)             0.1602         estimate D2E/DX2                !
 ! D56   D(8,9,10,11)           -0.4663         estimate D2E/DX2                !
 ! D57   D(8,9,10,19)          179.401          estimate D2E/DX2                !
 ! D58   D(20,9,10,11)         179.7863         estimate D2E/DX2                !
 ! D59   D(20,9,10,19)          -0.3464         estimate D2E/DX2                !
 ! D60   D(8,9,20,6)             0.0431         estimate D2E/DX2                !
 ! D61   D(8,9,20,39)          174.74           estimate D2E/DX2                !
 ! D62   D(10,9,20,6)          179.8135         estimate D2E/DX2                !
 ! D63   D(10,9,20,39)          -5.4896         estimate D2E/DX2                !
 ! D64   D(9,10,11,12)         179.894          estimate D2E/DX2                !
 ! D65   D(9,10,11,31)          -0.1001         estimate D2E/DX2                !
 ! D66   D(19,10,11,12)          0.0268         estimate D2E/DX2                !
 ! D67   D(19,10,11,31)       -179.9674         estimate D2E/DX2                !
 ! D68   D(9,10,19,18)        -179.8831         estimate D2E/DX2                !
 ! D69   D(9,10,19,39)           5.9237         estimate D2E/DX2                !
 ! D70   D(11,10,19,18)         -0.0144         estimate D2E/DX2                !
 ! D71   D(11,10,19,39)       -174.2076         estimate D2E/DX2                !
 ! D72   D(10,11,12,13)         -0.023          estimate D2E/DX2                !
 ! D73   D(10,11,12,32)        179.9948         estimate D2E/DX2                !
 ! D74   D(31,11,12,13)        179.9712         estimate D2E/DX2                !
 ! D75   D(31,11,12,32)         -0.0109         estimate D2E/DX2                !
 ! D76   D(11,12,13,14)       -179.9818         estimate D2E/DX2                !
 ! D77   D(11,12,13,18)          0.0071         estimate D2E/DX2                !
 ! D78   D(32,12,13,14)          0.0001         estimate D2E/DX2                !
 ! D79   D(32,12,13,18)        179.989          estimate D2E/DX2                !
 ! D80   D(12,13,14,15)        179.9821         estimate D2E/DX2                !
 ! D81   D(12,13,14,33)         -0.0129         estimate D2E/DX2                !
 ! D82   D(18,13,14,15)         -0.0066         estimate D2E/DX2                !
 ! D83   D(18,13,14,33)        179.9984         estimate D2E/DX2                !
 ! D84   D(12,13,18,17)       -179.9763         estimate D2E/DX2                !
 ! D85   D(12,13,18,19)          0.0055         estimate D2E/DX2                !
 ! D86   D(14,13,18,17)          0.0127         estimate D2E/DX2                !
 ! D87   D(14,13,18,19)        179.9945         estimate D2E/DX2                !
 ! D88   D(13,14,15,16)         -0.002          estimate D2E/DX2                !
 ! D89   D(13,14,15,34)       -179.9982         estimate D2E/DX2                !
 ! D90   D(33,14,15,16)        179.9931         estimate D2E/DX2                !
 ! D91   D(33,14,15,34)         -0.0031         estimate D2E/DX2                !
 ! D92   D(14,15,16,17)          0.0046         estimate D2E/DX2                !
 ! D93   D(14,15,16,35)       -179.9942         estimate D2E/DX2                !
 ! D94   D(34,15,16,17)       -179.9992         estimate D2E/DX2                !
 ! D95   D(34,15,16,35)          0.002          estimate D2E/DX2                !
 ! D96   D(15,16,17,18)          0.0015         estimate D2E/DX2                !
 ! D97   D(15,16,17,36)       -179.9927         estimate D2E/DX2                !
 ! D98   D(35,16,17,18)       -179.9997         estimate D2E/DX2                !
 ! D99   D(35,16,17,36)          0.0061         estimate D2E/DX2                !
 ! D100  D(16,17,18,13)         -0.0101         estimate D2E/DX2                !
 ! D101  D(16,17,18,19)       -179.9919         estimate D2E/DX2                !
 ! D102  D(36,17,18,13)        179.984          estimate D2E/DX2                !
 ! D103  D(36,17,18,19)          0.0023         estimate D2E/DX2                !
 ! D104  D(13,18,19,10)         -0.0018         estimate D2E/DX2                !
 ! D105  D(13,18,19,39)        171.7781         estimate D2E/DX2                !
 ! D106  D(17,18,19,10)        179.98           estimate D2E/DX2                !
 ! D107  D(17,18,19,39)         -8.2401         estimate D2E/DX2                !
 ! D108  D(10,19,39,20)         -7.1332         estimate D2E/DX2                !
 ! D109  D(18,19,39,20)        179.9742         estimate D2E/DX2                !
 ! D110  D(6,20,39,19)         177.6433         estimate D2E/DX2                !
 ! D111  D(9,20,39,19)           7.0757         estimate D2E/DX2                !
 ! D112  D(4,21,22,1)           -0.4122         estimate D2E/DX2                !
 ! D113  D(4,21,22,38)         179.8004         estimate D2E/DX2                !
 ! D114  D(37,21,22,1)         179.4517         estimate D2E/DX2                !
 ! D115  D(37,21,22,38)         -0.3358         estimate D2E/DX2                !
 --------------------------------------------------------------------------------
 Trust Radius=3.00D-01 FncErr=1.00D-07 GrdErr=1.00D-06 EigMax=2.50D+02 EigMin=1.00D-04
 Number of steps in this run=    234 maximum allowed number of steps=    234.
 GradGradGradGradGradGradGradGradGradGradGradGradGradGradGradGradGradGrad

 Leave Link  103 at Fri Mar  8 01:37:19 2024, MaxMem= 13421772800 cpu:               1.3 elap:               0.1
 (Enter /public/software/apps/Gaussian/g16/l202.exe)
                          Input orientation:                          
 ---------------------------------------------------------------------
 Center     Atomic      Atomic             Coordinates (Angstroms)
 Number     Number       Type             X           Y           Z
 ---------------------------------------------------------------------
      1          6           0       -1.923057    2.744345   -3.743311
      2          6           0       -0.891625    1.848287   -3.449198
      3          6           0       -1.141709    0.730275   -2.647420
      4          6           0       -2.431376    0.497641   -2.139853
      5          6           0       -2.696510   -0.686260   -1.246507
      6          6           0       -2.566302   -0.301774    0.235514
      7          6           0       -2.849825   -1.492685    1.175635
      8          8           0       -1.640364   -1.638683    1.897004
      9          6           0       -0.735007   -0.688456    1.468871
     10          6           0        0.628344   -0.562629    2.004617
     11          6           0        1.083352   -1.423682    3.014265
     12          6           0        2.383448   -1.285720    3.505384
     13          6           0        3.222367   -0.291638    2.987763
     14          6           0        4.533758   -0.125550    3.457770
     15          6           0        5.346538    0.877400    2.919011
     16          6           0        4.856300    1.716103    1.912466
     17          6           0        3.550146    1.557146    1.438449
     18          6           0        2.729454    0.556602    1.971415
     19          7           0        1.458861    0.398600    1.513175
     20          7           0       -1.193854    0.082705    0.545912
     21          6           0       -3.460101    1.409424   -2.430333
     22          6           0       -3.205723    2.525917   -3.233005
     23          1           0       -1.727507    3.609824   -4.363111
     24          1           0        0.102754    2.021772   -3.839817
     25          1           0       -0.331246    0.048872   -2.419667
     26          1           0       -1.989850   -1.511614   -1.486919
     27          1           0       -3.723239   -1.068739   -1.437678
     28          1           0       -3.250600    0.542082    0.476134
     29          1           0       -3.074447   -2.433784    0.628333
     30          1           0       -3.678442   -1.256300    1.876920
     31          1           0        0.440228   -2.195168    3.419075
     32          1           0        2.731278   -1.952563    4.285265
     33          1           0        4.927414   -0.767466    4.236749
     34          1           0        6.358182    1.004992    3.282036
     35          1           0        5.489752    2.490359    1.499272
     36          1           0        3.178957    2.210938    0.658856
     37          1           0       -4.456126    1.256093   -2.033615
     38          1           0       -4.002309    3.223718   -3.456589
     39         29           0        0.257889    1.379592    0.317627
 ---------------------------------------------------------------------
                    Distance matrix (angstroms):
                    1          2          3          4          5
     1  C    0.000000
     2  C    1.397596   0.000000
     3  C    2.422387   1.398335   0.000000
     4  C    2.806625   2.430939   1.405341   0.000000
     5  C    4.312924   3.812268   2.527159   1.506647   0.000000
     6  C    5.052094   4.583057   3.377262   2.509908   1.536610
     7  C    6.557999   6.032058   4.740776   3.889596   2.557459
     8  O    7.148706   6.426620   5.149020   4.635277   3.450249
     9  C    6.353143   5.535973   4.372877   4.160214   3.349743
    10  C    7.105238   6.153610   5.142581   5.259533   4.651854
    11  C    8.489745   7.508839   6.453302   6.527613   5.743285
    12  C    9.345105   8.301465   7.372107   7.630964   6.981819
    13  C    8.999997   7.933390   7.200330   7.673345   7.288201
    14  C   10.088723   9.002056   8.379541   8.957390   8.644154
    15  C   10.035887   8.967240   8.550096   9.286133   9.191692
    16  C    8.888463   7.861524   7.598719   8.427109   8.532022
    17  C    7.629943   6.610839   6.276268   7.050206   7.159788
    18  C    7.687013   6.645578   6.029071   6.598497   6.429682
    19  N    6.676117   5.679042   4.917675   5.337449   5.104887
    20  N    5.100343   4.378302   3.258747   2.986129   2.462123
    21  C    2.422484   2.797813   2.425554   1.404992   2.525155
    22  C    1.397625   2.420944   2.797748   2.430740   3.810978
    23  H    1.082333   2.153357   3.402728   3.888958   5.395232
    24  H    2.152983   1.082345   2.153709   3.410963   4.679164
    25  H    3.398745   2.147523   1.083066   2.165695   2.740656
    26  H    4.817567   4.042966   2.663113   2.158327   1.112823
    27  H    4.805851   4.535779   3.371087   2.148373   1.112209
    28  H    4.941260   4.762265   3.773517   2.741622   2.187083
    29  H    6.873863   6.302944   4.947454   4.082848   2.590695
    30  H    7.118534   6.765526   5.554381   4.556967   3.323392
    31  H    9.015746   8.080627   6.918316   6.811682   5.820961
    32  H   10.401049   9.348465   8.382110   8.598758   7.852701
    33  H   11.087972   9.988852   9.298885   9.819029   9.391321
    34  H   10.998171   9.928764   9.564637  10.339759  10.264282
    35  H    9.082892   8.100715   8.016809   8.941947   9.200277
    36  H    6.759744   5.794589   5.638438   6.499538   6.822410
    37  H    3.399175   3.880752   3.411539   2.164751   2.736517
    38  H    2.152974   3.401209   3.880083   3.410736   4.677339
    39  Cu   4.807317   3.966110   3.342453   3.748225   3.929724
                    6          7          8          9         10
     6  C    0.000000
     7  C    1.543529   0.000000
     8  O    2.324916   1.415798   0.000000
     9  C    2.241503   2.281497   1.380544   0.000000
    10  C    3.661084   3.694574   2.513267   1.470232   0.000000
    11  C    4.722299   4.342258   2.951801   2.497044   1.402795
    12  C    6.013337   5.732165   4.347704   3.772118   2.419825
    13  C    6.409654   6.449639   5.162406   4.257383   2.787287
    14  C    7.799028   7.848216   6.545636   5.659723   4.189863
    15  C    8.438284   8.708446   7.496130   6.445153   5.017086
    16  C    7.872675   8.379952   7.311735   6.102573   4.803824
    17  C    6.504888   7.094376   6.112691   4.837994   3.653891
    18  C    5.638723   5.996766   4.890820   3.715536   2.380849
    19  N    4.280757   4.717591   3.728678   2.448818   1.362070
    20  N    1.458693   2.370790   2.233383   1.287277   2.421711
    21  C    3.291476   4.668798   5.597164   5.199137   6.346114
    22  C    4.520544   5.975946   6.790525   6.208403   7.188315
    23  H    6.095205   7.613994   8.169667   7.312474   7.969150
    24  H    5.397319   6.798815   7.024849   6.019082   6.411925
    25  H    3.488325   4.652508   4.816148   3.978367   4.568264
    26  H    2.182381   2.798055   3.404295   3.314953   4.466132
    27  H    2.174008   2.787828   3.972821   4.185949   5.571518
    28  H    1.112769   2.188652   3.060632   2.971188   4.313103
    29  H    2.226653   1.111603   2.073236   3.037376   4.371046
    30  H    2.200497   1.110984   2.073736   3.025353   4.364160
    31  H    4.770663   4.043631   2.637279   2.730321   2.168240
    32  H    6.869494   6.405466   4.991349   4.641678   3.399353
    33  H    8.507792   8.389387   7.026317   6.303206   4.848337
    34  H    9.520260   9.770502   8.537217   7.514563   6.076206
    35  H    8.619344   9.247590   8.248984   6.989522   5.762759
    36  H    6.284977   7.094371   6.291140   4.937785   4.001171
    37  H    3.338762   4.520539   5.635425   5.467669   6.742915
    38  H    5.303097   6.710453   7.608067   7.088055   8.099638
    39  Cu   3.287824   4.317874   3.899715   2.566715   2.599114
                   11         12         13         14         15
    11  C    0.000000
    12  C    1.396596   0.000000
    13  C    2.420250   1.399970   0.000000
    14  C    3.713104   2.443787   1.402939   0.000000
    15  C    4.845493   3.715215   2.425588   1.398850   0.000000
    16  C    5.030641   4.202776   2.803038   2.425631   1.398888
    17  C    4.177751   3.703416   2.434300   2.806531   2.425107
    18  C    2.778257   2.422175   1.412600   2.435179   2.801781
    19  N    2.390605   2.767795   2.400165   3.675755   4.161689
    20  N    3.680711   4.840264   5.060215   6.428672   7.002847
    21  C    7.636302   8.754633   8.769536  10.046277  10.317724
    22  C    8.545401   9.548471   9.378535  10.568648  10.663305
    23  H    9.362841  10.138023   9.682872  10.692176  10.513684
    24  H    7.733768   8.372159   7.854916   8.803384   8.630679
    25  H    5.804922   6.652588   6.479538   7.631707   7.837421
    26  H    5.450960   6.640772   6.976985   8.302324   8.884942
    27  H    6.561181   7.859553   8.272234   9.645362  10.248368
    28  H    5.393466   6.652797   6.993044   8.362542   8.943761
    29  H    4.899007   6.275675   7.057306   8.439102   9.334031
    30  H    4.898597   6.276884   7.055899   8.439071   9.332143
    31  H    1.082899   2.147242   3.398493   4.587135   5.810561
    32  H    2.147281   1.083457   2.164105   2.696601   4.088389
    33  H    4.086796   2.697266   2.166463   1.083434   2.148879
    34  H    5.813260   4.593012   3.406051   2.153493   1.082354
    35  H    6.085333   5.285110   3.885376   3.404794   2.153557
    36  H    4.811442   4.578447   3.418856   3.889548   3.403679
    37  H    7.959152   9.160846   9.304244  10.624606  10.989274
    38  H    9.451678  10.468142  10.299677  11.484354  11.556575
    39  Cu   3.976379   4.667299   4.325594   5.514436   5.737050
                   16         17         18         19         20
    16  C    0.000000
    17  C    1.398570   0.000000
    18  C    2.423095   1.399527   0.000000
    19  N    3.665766   2.391921   1.359910   0.000000
    20  N    6.414033   5.047389   4.201069   2.841177   0.000000
    21  C    9.387038   8.008299   7.642858   6.385077   3.969143
    22  C    9.598327   8.270596   8.135755   6.986419   4.929210
    23  H    9.290617   8.107108   8.325436   7.415904   6.068267
    24  H    7.468493   6.321430   6.543447   5.755713   4.967473
    25  H    6.961154   5.676720   5.376549   4.335209   3.088672
    26  H    8.297213   6.976147   6.205596   4.954098   2.703306
    27  H    9.622229   8.250425   7.476690   6.141236   3.414417
    28  H    8.316442   6.943094   6.164181   4.824424   2.108578
    29  H    9.042528   7.776184   6.665699   5.418139   3.142633
    30  H    9.037603   7.769184   6.660081   5.409518   3.120528
    31  H    6.088481   5.260640   3.861154   3.376048   4.014224
    32  H    4.858498   4.592708   3.413182   3.851168   5.790660
    33  H    3.402273   3.889881   3.422853   4.561625   7.198263
    34  H    2.153381   3.404226   3.884128   5.244037   8.085186
    35  H    1.082341   2.153290   3.403172   4.541336   7.167725
    36  H    2.151715   1.083047   2.159095   2.640674   4.864525
    37  H   10.124448   8.731910   8.256035   6.949970   4.321252
    38  H   10.467789   9.153056   9.049495   7.905961   5.811488
    39  Cu   4.878743   3.482345   3.085605   1.958064   1.959997
                   21         22         23         24         25
    21  C    0.000000
    22  C    1.398409   0.000000
    23  H    3.402833   2.153397   0.000000
    24  H    3.880148   3.401236   2.479032   0.000000
    25  H    3.411884   3.880707   4.290326   2.469315   0.000000
    26  H    3.403547   4.563860   5.879663   4.732857   2.460915
    27  H    2.682517   4.051243   5.867713   5.473550   3.703913
    28  H    3.040349   4.206581   5.928671   5.662323   4.141443
    29  H    4.926907   6.286955   7.953236   7.064768   4.793645
    30  H    5.070127   6.374948   8.150049   7.597650   5.600701
    31  H    7.900710   8.934863   9.947835   8.401666   6.302523
    32  H    9.733211  10.574930  11.207824   9.419206   7.638122
    33  H   10.933400  11.523520  11.722040   9.812651   8.522194
    34  H   11.366328  11.671643  11.428551   9.533363   8.841495
    35  H    9.834129   9.899848   9.365338   7.599026   7.429869
    36  H    7.366316   7.483978   7.158940   5.453152   5.145227
    37  H    1.083033   2.148138   4.290916   4.963065   4.315212
    38  H    2.153800   1.082343   2.479029   4.294541   4.963019
    39  Cu   4.623378   5.090939   5.552030   4.209608   3.100109
                   26         27         28         29         30
    26  H    0.000000
    27  H    1.789749   0.000000
    28  H    3.108172   2.545743   0.000000
    29  H    2.549714   2.559820   2.984958   0.000000
    30  H    3.772524   3.320203   2.319359   1.819409   0.000000
    31  H    5.517364   6.495487   5.456707   4.494232   4.497017
    32  H    7.470046   8.671448   7.517686   6.878311   6.882544
    33  H    9.009033  10.350057   9.095991   8.934599   8.936918
    34  H    9.938102  11.323034  10.020782  10.384691  10.383719
    35  H    8.993196  10.303983   9.013121   9.917219   9.911400
    36  H    6.721481   7.924143   6.645124   7.789701   7.780060
    37  H    3.747212   2.509404   2.874360   4.755018   4.712663
    38  H    5.509352   4.751744   4.818978   7.039520   6.972931
    39  Cu   4.082620   4.992474   3.610546   5.073740   4.987386
                   31         32         33         34         35
    31  H    0.000000
    32  H    2.461311   0.000000
    33  H    4.779306   2.495961   0.000000
    34  H    6.729189   4.786234   2.469855   0.000000
    35  H    7.151049   5.925411   4.292252   2.477647   0.000000
    36  H    5.876497   5.539494   4.972857   4.294514   2.474702
    37  H    8.100451  10.093686  11.465735  12.052736  10.626627
    38  H    9.817088  11.492231  12.444153  12.556735  10.733014
    39  Cu   4.736152   5.741347   6.463268   6.792762   5.477452
                   36         37         38         39
    36  H    0.000000
    37  H    8.152032   0.000000
    38  H    8.338657   2.470294   0.000000
    39  Cu   3.056176   5.269301   5.982875   0.000000
 Symmetry turned off by external request.
 Stoichiometry    C19H16CuN2O(2+,2)
 Framework group  C1[X(C19H16CuN2O)]
 Deg. of freedom   111
 Full point group                 C1      NOp   1
 Rotational constants (GHZ):           0.4631960           0.1457597           0.1149752
 Leave Link  202 at Fri Mar  8 01:37:19 2024, MaxMem= 13421772800 cpu:               0.2 elap:               0.0
 (Enter /public/software/apps/Gaussian/g16/l301.exe)
 Standard basis: def2SVPP (5D, 7F)
 Ernie: Thresh=  0.10000D-02 Tol=  0.10000D-05 Strict=F.
   364 basis functions,   685 primitive gaussians,   388 cartesian basis functions
    90 alpha electrons       89 beta electrons
       nuclear repulsion energy      2233.1858483014 Hartrees.
 IExCor=  402 DFT=T Ex+Corr=B3LYP ExCW=0 ScaHFX=  0.200000
 ScaDFX=  0.800000  0.720000  1.000000  0.810000 ScalE2=  1.000000  1.000000
 IRadAn=      5 IRanWt=     -1 IRanGd=            0 ICorTp=0 IEmpDi=141
 NAtoms=   39 NActive=   39 NUniq=   39 SFac= 1.00D+00 NAtFMM=   60 NAOKFM=F Big=F
 Integral buffers will be    131072 words long.
 Raffenetti 2 integral format.
 Two-electron integral symmetry is turned off.
 R6Disp:  Grimme-D3(BJ) Dispersion energy=       -0.0951406392 Hartrees.
 Nuclear repulsion after empirical dispersion term =     2233.0907076622 Hartrees.
 Leave Link  301 at Fri Mar  8 01:37:20 2024, MaxMem= 13421772800 cpu:               1.8 elap:               0.1
 (Enter /public/software/apps/Gaussian/g16/l302.exe)
 NPDir=0 NMtPBC=     1 NCelOv=     1 NCel=       1 NClECP=     1 NCelD=      1
         NCelK=      1 NCelE2=     1 NClLst=     1 CellRange=     0.0.
 One-electron integrals computed using PRISM.
   1 Symmetry operations used in ECPInt.
 ECPInt:  NShTT=   15225 NPrTT=   63920 LenC2=   13632 LenP2D=   38005.
 LDataN:  DoStor=T MaxTD1= 4 Len=   56
 NBasis=   364 RedAO= T EigKep=  2.55D-04  NBF=   364
 NBsUse=   364 1.00D-06 EigRej= -1.00D+00 NBFU=   364
 Precomputing XC quadrature grid using
 IXCGrd= 4 IRadAn=           5 IRanWt=          -1 IRanGd=           0 AccXCQ= 0.00D+00.
 Generated NRdTot=       0 NPtTot=           0 NUsed=           0 NTot=          32
 NSgBfM=   380   380   380   380   380 MxSgAt=    39 MxSgA2=    39.
 Leave Link  302 at Fri Mar  8 01:37:20 2024, MaxMem= 13421772800 cpu:               8.5 elap:               0.3
 (Enter /public/software/apps/Gaussian/g16/l303.exe)
 DipDrv:  MaxL=1.
 Leave Link  303 at Fri Mar  8 01:37:20 2024, MaxMem= 13421772800 cpu:               2.0 elap:               0.1
 (Enter /public/software/apps/Gaussian/g16/l401.exe)
 ExpMin= 3.30D-02 ExpMax= 7.64D+04 ExpMxC= 1.15D+04 IAcc=3 IRadAn=         5 AccDes= 0.00D+00
 Harris functional with IExCor=  402 and IRadAn=       5 diagonalized for initial guess.
 HarFok:  IExCor=  402 AccDes= 0.00D+00 IRadAn=         5 IDoV= 1 UseB2=F ITyADJ=14
 ICtDFT=  3500011 ScaDFX=  1.000000  1.000000  1.000000  1.000000
 FoFCou: FMM=F IPFlag=           0 FMFlag=      100000 FMFlg1=           0
         NFxFlg=           0 DoJE=T BraDBF=F KetDBF=T FulRan=T
         wScrn=  0.000000 ICntrl=       500 IOpCl=  0 I1Cent=   200000004 NGrid=           0
         NMat0=    1 NMatS0=      1 NMatT0=    0 NMatD0=    1 NMtDS0=    0 NMtDT0=    0
 Symmetry not used in FoFCou.
 Harris En= -2557.87048602065    
 JPrj=0 DoOrth=F DoCkMO=F.
 Initial guess <Sx>= 0.0000 <Sy>= 0.0000 <Sz>= 0.5000 <S**2>= 0.7500 S= 0.5000
 Leave Link  401 at Fri Mar  8 01:37:21 2024, MaxMem= 13421772800 cpu:              23.1 elap:               0.8
 (Enter /public/software/apps/Gaussian/g16/l502.exe)
 Two-electron integral symmetry not used.
 UHF open shell SCF:
 Using DIIS extrapolation, IDIIS=  1040.
 NGot= 13421772800 LenX= 13421455084 LenY= 13421304099
 Requested convergence on RMS density matrix=1.00D-08 within 128 cycles.
 Requested convergence on MAX density matrix=1.00D-06.
 Requested convergence on             energy=1.00D-06.
 No special actions if energy rises.
 Fock matrices will be formed incrementally for  20 cycles.

 Cycle   1  Pass 1  IDiag  1:
 FoFJK:  IHMeth= 1 ICntrl=       0 DoSepK=F KAlg= 0 I1Cent=           0 FoldK=F
 IRaf= 830000000 NMat=       1 IRICut=       1 DoRegI=T DoRafI=F ISym2E= 0 IDoP0=0 IntGTp=1.
 FoFCou: FMM=F IPFlag=           0 FMFlag=      100000 FMFlg1=           0
         NFxFlg=           0 DoJE=F BraDBF=F KetDBF=F FulRan=T
         wScrn=  0.000000 ICntrl=         0 IOpCl=  1 I1Cent=           0 NGrid=           0
         NMat0=    1 NMatS0=      1 NMatT0=    0 NMatD0=    1 NMtDS0=    0 NMtDT0=    0
 Symmetry not used in FoFCou.
 E= -2545.60601304046    
 DIIS: error= 2.53D-01 at cycle   1 NSaved=   1.
 NSaved= 1 IEnMin= 1 EnMin= -2545.60601304046     IErMin= 1 ErrMin= 2.53D-01
 ErrMax= 2.53D-01  0.00D+00 EMaxC= 1.00D-01 BMatC= 6.34D+01 BMatP= 6.34D+01
 IDIUse=3 WtCom= 0.00D+00 WtEn= 1.00D+00
 Coeff-Com:  0.100D+01
 Coeff-En:   0.100D+01
 Coeff:      0.100D+01
 Gap=     0.149 Goal=   None    Shift=    0.000
 Gap=     0.940 Goal=   None    Shift=    0.000
 GapD=    0.149 DampG=1.000 DampE=0.125 DampFc=0.1250 IDamp=-1.
 Damping current iteration by 1.25D-01
 RMSDP=7.04D-02 MaxDP=8.34D+00              OVMax= 9.68D-01

 Cycle   2  Pass 1  IDiag  1:
 RMSU=  8.80D-03    CP:  1.00D+00
 E= -2549.21436339645     Delta-E=       -3.608350355995 Rises=F Damp=T
 DIIS: error= 1.24D-01 at cycle   2 NSaved=   2.
 NSaved= 2 IEnMin= 2 EnMin= -2549.21436339645     IErMin= 2 ErrMin= 1.24D-01
 ErrMax= 1.24D-01  0.00D+00 EMaxC= 1.00D-01 BMatC= 2.28D+01 BMatP= 6.34D+01
 IDIUse=3 WtCom= 0.00D+00 WtEn= 1.00D+00
 Coeff-Com: -0.116D+01 0.216D+01
 Coeff-En:   0.000D+00 0.100D+01
 Coeff:      0.000D+00 0.100D+01
 Gap=    -0.136 Goal=   None    Shift=    0.000
 Gap=     0.023 Goal=   None    Shift=    0.000
 RMSDP=2.23D-02 MaxDP=3.30D+00 DE=-3.61D+00 OVMax= 9.31D-01

 Cycle   3  Pass 1  IDiag  1:
 RMSU=  1.84D-02    CP:  9.38D-01  2.42D+00
 E= -2534.93711004332     Delta-E=       14.277253353128 Rises=F Damp=F
 DIIS: error= 1.14D-01 at cycle   3 NSaved=   3.
 NSaved= 3 IEnMin= 2 EnMin= -2549.21436339645     IErMin= 3 ErrMin= 1.14D-01
 ErrMax= 1.14D-01  0.00D+00 EMaxC= 1.00D-01 BMatC= 4.11D+01 BMatP= 2.28D+01
 IDIUse=2 WtCom= 0.00D+00 WtEn= 1.00D+00
 EnCoef did    13 forward-backward iterations
 Coeff-En:   0.600D+00 0.151D-01 0.385D+00
 Coeff:      0.600D+00 0.151D-01 0.385D+00
 Gap=    -0.202 Goal=   None    Shift=    0.000
 Gap=    -0.101 Goal=   None    Shift=    0.000
 RMSDP=1.12D-01 MaxDP=1.34D+01 DE= 1.43D+01 OVMax= 9.84D-01

 Cycle   4  Pass 1  IDiag  1:
 RMSU=  1.09D-01    CP:  1.02D+00  1.34D+00 -1.14D-01
 E= -2450.95816657812     Delta-E=       83.978943465203 Rises=F Damp=F
 DIIS: error= 1.74D-01 at cycle   4 NSaved=   4.
 NSaved= 4 IEnMin= 2 EnMin= -2549.21436339645     IErMin= 3 ErrMin= 1.14D-01
 ErrMax= 1.74D-01  0.00D+00 EMaxC= 1.00D-01 BMatC= 1.52D+02 BMatP= 2.28D+01
 IDIUse=2 WtCom= 0.00D+00 WtEn= 1.00D+00
 EnCoef did   100 forward-backward iterations
 Coeff-En:   0.556D+00 0.100D-01 0.367D+00 0.671D-01
 Coeff:      0.556D+00 0.100D-01 0.367D+00 0.671D-01
 Gap=    -0.002 Goal=   None    Shift=    0.000
 Gap=     0.530 Goal=   None    Shift=    0.000
 RMSDP=1.10D-01 MaxDP=1.34D+01 DE= 8.40D+01 OVMax= 9.98D-01

 Cycle   5  Pass 1  IDiag  1:
 RMSU=  8.20D-03    CP:  9.07D-01  2.22D-01  1.33D-01  6.81D-03
 E= -2551.78516238017     Delta-E=     -100.826995802050 Rises=F Damp=F
 DIIS: error= 8.98D-02 at cycle   5 NSaved=   5.
 NSaved= 5 IEnMin= 5 EnMin= -2551.78516238017     IErMin= 5 ErrMin= 8.98D-02
 ErrMax= 8.98D-02  0.00D+00 EMaxC= 1.00D-01 BMatC= 1.32D+01 BMatP= 2.28D+01
 IDIUse=3 WtCom= 1.02D-01 WtEn= 8.98D-01
 EnCoef did   100 forward-backward iterations
 Coeff-Com: -0.542D+00 0.114D+01 0.808D-01-0.375D-01 0.362D+00
 Coeff-En:   0.360D+00 0.402D-02 0.162D+00 0.000D+00 0.475D+00
 Coeff:      0.268D+00 0.120D+00 0.154D+00-0.383D-02 0.463D+00
 Gap=    -0.591 Goal=   None    Shift=    0.000
 Gap=     0.021 Goal=   None    Shift=    0.000
 RMSDP=9.02D-03 MaxDP=2.78D-01 DE=-1.01D+02 OVMax= 9.74D-01

 Cycle   6  Pass 1  IDiag  1:
 RMSU=  7.32D-03    CP:  9.05D-01  7.48D-02  1.28D-01 -3.20D-04  3.84D-01
 E= -2546.09625105533     Delta-E=        5.688911324842 Rises=F Damp=F
 DIIS: error= 1.05D-01 at cycle   6 NSaved=   6.
 NSaved= 6 IEnMin= 5 EnMin= -2551.78516238017     IErMin= 5 ErrMin= 8.98D-02
 ErrMax= 1.05D-01  0.00D+00 EMaxC= 1.00D-01 BMatC= 1.65D+01 BMatP= 1.32D+01
 IDIUse=2 WtCom= 0.00D+00 WtEn= 1.00D+00
 EnCoef did   100 forward-backward iterations
 Coeff-En:   0.204D+00 0.743D-02 0.000D+00 0.000D+00 0.511D+00 0.278D+00
 Coeff:      0.204D+00 0.743D-02 0.000D+00 0.000D+00 0.511D+00 0.278D+00
 Gap=     0.020 Goal=   None    Shift=    0.000
 Gap=     0.004 Goal=   None    Shift=    0.000
 RMSDP=6.82D-03 MaxDP=1.28D-01 DE= 5.69D+00 OVMax= 9.87D-01

 Cycle   7  Pass 1  IDiag  1:
 RMSU=  4.30D-03    CP:  9.02D-01  9.87D-02  9.08D-02  1.66D-03  5.12D-01
                    CP:  2.98D-01
 E= -2557.24098537581     Delta-E=      -11.144734320478 Rises=F Damp=F
 DIIS: error= 1.68D-02 at cycle   7 NSaved=   7.
 NSaved= 7 IEnMin= 7 EnMin= -2557.24098537581     IErMin= 7 ErrMin= 1.68D-02
 ErrMax= 1.68D-02  0.00D+00 EMaxC= 1.00D-01 BMatC= 8.19D-01 BMatP= 1.32D+01
 IDIUse=3 WtCom= 8.32D-01 WtEn= 1.68D-01
 Coeff-Com: -0.219D-01 0.955D-01-0.446D-01-0.756D-02 0.163D+00 0.665D-01
 Coeff-Com:  0.749D+00
 Coeff-En:   0.933D-02 0.000D+00 0.000D+00 0.000D+00 0.000D+00 0.000D+00
 Coeff-En:   0.991D+00
 Coeff:     -0.166D-01 0.794D-01-0.371D-01-0.628D-02 0.135D+00 0.553D-01
 Coeff:      0.790D+00
 Gap=     0.265 Goal=   None    Shift=    0.000
 Gap=     0.015 Goal=   None    Shift=    0.000
 RMSDP=4.11D-03 MaxDP=2.66D-01 DE=-1.11D+01 OVMax= 9.25D-01

 Cycle   8  Pass 1  IDiag  1:
 RMSU=  3.48D-03    CP:  9.15D-01  1.84D-02  6.72D-02  1.71D-03  4.87D-01
                    CP:  2.00D-01  5.67D-01
 E= -2557.12519664103     Delta-E=        0.115788734782 Rises=F Damp=F
 DIIS: error= 3.04D-02 at cycle   8 NSaved=   8.
 NSaved= 8 IEnMin= 7 EnMin= -2557.24098537581     IErMin= 7 ErrMin= 1.68D-02
 ErrMax= 3.04D-02  0.00D+00 EMaxC= 1.00D-01 BMatC= 1.48D+00 BMatP= 8.19D-01
 IDIUse=2 WtCom= 0.00D+00 WtEn= 1.00D+00
 Coeff-En:   0.000D+00 0.000D+00 0.000D+00 0.000D+00 0.000D+00 0.000D+00
 Coeff-En:   0.564D+00 0.436D+00
 Coeff:      0.000D+00 0.000D+00 0.000D+00 0.000D+00 0.000D+00 0.000D+00
 Coeff:      0.564D+00 0.436D+00
 Gap=     0.217 Goal=   None    Shift=    0.000
 Gap=    -0.031 Goal=   None    Shift=    0.000
 RMSDP=2.91D-03 MaxDP=2.73D-01 DE= 1.16D-01 OVMax= 7.83D-01

 Cycle   9  Pass 1  IDiag  1:
 RMSU=  1.92D-03    CP:  9.07D-01  4.85D-02  7.21D-02  2.07D-03  5.71D-01
                    CP:  2.23D-01  6.96D-01  4.34D-01
 E= -2557.25772500520     Delta-E=       -0.132528364175 Rises=F Damp=F
 DIIS: error= 2.42D-02 at cycle   9 NSaved=   9.
 NSaved= 9 IEnMin= 9 EnMin= -2557.25772500520     IErMin= 7 ErrMin= 1.68D-02
 ErrMax= 2.42D-02  0.00D+00 EMaxC= 1.00D-01 BMatC= 1.03D+00 BMatP= 8.19D-01
 IDIUse=2 WtCom= 0.00D+00 WtEn= 1.00D+00
 EnCoef did     4 forward-backward iterations
 Coeff-En:   0.000D+00 0.000D+00 0.000D+00 0.000D+00 0.000D+00 0.000D+00
 Coeff-En:   0.380D+00 0.326D+00 0.293D+00
 Coeff:      0.000D+00 0.000D+00 0.000D+00 0.000D+00 0.000D+00 0.000D+00
 Coeff:      0.380D+00 0.326D+00 0.293D+00
 Gap=     0.162 Goal=   None    Shift=    0.000
 Gap=    -0.043 Goal=   None    Shift=    0.000
 RMSDP=2.42D-03 MaxDP=3.11D-01 DE=-1.33D-01 OVMax= 7.49D-01

 Cycle  10  Pass 1  IDiag  1:
 RMSU=  1.29D-03    CP:  9.09D-01  2.45D-02  7.15D-02  1.01D-03  4.63D-01
                    CP:  2.38D-01  7.38D-01  6.41D-01  1.32D-01
 E= -2557.42093346541     Delta-E=       -0.163208460210 Rises=F Damp=F
 DIIS: error= 2.20D-02 at cycle  10 NSaved=  10.
 NSaved=10 IEnMin=10 EnMin= -2557.42093346541     IErMin= 7 ErrMin= 1.68D-02
 ErrMax= 2.20D-02  0.00D+00 EMaxC= 1.00D-01 BMatC= 5.57D-01 BMatP= 8.19D-01
 IDIUse=3 WtCom= 8.32D-01 WtEn= 1.68D-01
 EnCoef did     1 forward-backward iterations
 Coeff-Com:  0.840D-02-0.203D-01 0.164D-03-0.942D-03-0.268D-02 0.110D-01
 Coeff-Com:  0.278D+00 0.226D+00 0.295D+00 0.206D+00
 Coeff-En:   0.000D+00 0.000D+00 0.000D+00 0.000D+00 0.000D+00 0.000D+00
 Coeff-En:   0.412D-01 0.000D+00 0.338D+00 0.621D+00
 Coeff:      0.699D-02-0.169D-01 0.137D-03-0.783D-03-0.223D-02 0.911D-02
 Coeff:      0.238D+00 0.188D+00 0.302D+00 0.276D+00
 Gap=     0.132 Goal=   None    Shift=    0.000
 Gap=     0.002 Goal=   None    Shift=    0.000
 RMSDP=1.53D-03 MaxDP=2.40D-01 DE=-1.63D-01 OVMax= 4.78D-01

 Cycle  11  Pass 1  IDiag  1:
 RMSU=  9.79D-04    CP:  9.05D-01  4.06D-02  7.87D-02  1.42D-03  5.14D-01
                    CP:  2.69D-01  8.05D-01  4.78D-01  2.41D-01  3.64D-01
 E= -2557.51696202205     Delta-E=       -0.096028556636 Rises=F Damp=F
 DIIS: error= 7.08D-03 at cycle  11 NSaved=  11.
 NSaved=11 IEnMin=11 EnMin= -2557.51696202205     IErMin=11 ErrMin= 7.08D-03
 ErrMax= 7.08D-03  0.00D+00 EMaxC= 1.00D-01 BMatC= 9.28D-02 BMatP= 5.57D-01
 IDIUse=3 WtCom= 9.29D-01 WtEn= 7.08D-02
 EnCoef did     5 forward-backward iterations
 Coeff-Com: -0.156D-02 0.487D-03-0.567D-03 0.396D-03-0.895D-02-0.891D-02
 Coeff-Com:  0.109D+00 0.100D+00 0.181D+00 0.201D+00 0.427D+00
 Coeff-En:   0.000D+00 0.000D+00 0.000D+00 0.000D+00 0.000D+00 0.000D+00
 Coeff-En:   0.000D+00 0.000D+00 0.984D-01 0.246D+00 0.655D+00
 Coeff:     -0.145D-02 0.453D-03-0.527D-03 0.368D-03-0.831D-02-0.828D-02
 Coeff:      0.101D+00 0.929D-01 0.176D+00 0.205D+00 0.443D+00
 Gap=     0.150 Goal=   None    Shift=    0.000
 Gap=     0.017 Goal=   None    Shift=    0.000
 RMSDP=5.06D-04 MaxDP=4.58D-02 DE=-9.60D-02 OVMax= 1.56D-01

 Cycle  12  Pass 1  IDiag  1:
 RMSU=  3.72D-04    CP:  9.06D-01  3.98D-02  7.60D-02  1.54D-03  5.08D-01
                    CP:  2.51D-01  7.95D-01  5.16D-01  2.44D-01  5.04D-01
                    CP:  7.91D-01
 E= -2557.53974324376     Delta-E=       -0.022781221714 Rises=F Damp=F
 DIIS: error= 3.32D-03 at cycle  12 NSaved=  12.
 NSaved=12 IEnMin=12 EnMin= -2557.53974324376     IErMin=12 ErrMin= 3.32D-03
 ErrMax= 3.32D-03  0.00D+00 EMaxC= 1.00D-01 BMatC= 7.81D-03 BMatP= 9.28D-02
 IDIUse=3 WtCom= 9.67D-01 WtEn= 3.32D-02
 Coeff-Com: -0.101D-01 0.167D-01-0.107D-02 0.192D-03 0.524D-03-0.702D-02
 Coeff-Com:  0.251D-01 0.395D-01 0.686D-01 0.711D-01 0.163D+00 0.633D+00
 Coeff-En:   0.000D+00 0.000D+00 0.000D+00 0.000D+00 0.000D+00 0.000D+00
 Coeff-En:   0.000D+00 0.000D+00 0.000D+00 0.000D+00 0.000D+00 0.100D+01
 Coeff:     -0.973D-02 0.161D-01-0.104D-02 0.186D-03 0.507D-03-0.679D-02
 Coeff:      0.243D-01 0.382D-01 0.663D-01 0.687D-01 0.158D+00 0.645D+00
 Gap=     0.130 Goal=   None    Shift=    0.000
 Gap=     0.020 Goal=   None    Shift=    0.000
 RMSDP=2.30D-04 MaxDP=2.62D-02 DE=-2.28D-02 OVMax= 7.16D-02

 Cycle  13  Pass 1  IDiag  1:
 RMSU=  1.33D-04    CP:  9.06D-01  4.07D-02  7.62D-02  1.60D-03  5.15D-01
                    CP:  2.52D-01  7.94D-01  5.06D-01  2.72D-01  4.06D-01
                    CP:  8.84D-01  8.48D-01
 E= -2557.53905385282     Delta-E=        0.000689390939 Rises=F Damp=F
 DIIS: error= 3.30D-03 at cycle  13 NSaved=  13.
 NSaved=13 IEnMin=12 EnMin= -2557.53974324376     IErMin=13 ErrMin= 3.30D-03
 ErrMax= 3.30D-03  0.00D+00 EMaxC= 1.00D-01 BMatC= 1.58D-02 BMatP= 7.81D-03
 IDIUse=3 WtCom= 9.67D-01 WtEn= 3.32D-02
 Coeff-Com: -0.553D-02 0.895D-02-0.152D-03 0.170D-03 0.692D-03-0.281D-02
 Coeff-Com:  0.211D-01 0.290D-01 0.118D-01 0.480D-01-0.315D+00 0.125D+00
 Coeff-Com:  0.108D+01
 Coeff-En:   0.000D+00 0.000D+00 0.000D+00 0.000D+00 0.000D+00 0.000D+00
 Coeff-En:   0.000D+00 0.000D+00 0.000D+00 0.000D+00 0.000D+00 0.611D+00
 Coeff-En:   0.389D+00
 Coeff:     -0.535D-02 0.865D-02-0.147D-03 0.164D-03 0.669D-03-0.272D-02
 Coeff:      0.204D-01 0.280D-01 0.114D-01 0.464D-01-0.305D+00 0.141D+00
 Coeff:      0.106D+01
 Gap=     0.126 Goal=   None    Shift=    0.000
 Gap=     0.016 Goal=   None    Shift=    0.000
 RMSDP=4.10D-04 MaxDP=1.73D-02 DE= 6.89D-04 OVMax= 1.76D-01

 Cycle  14  Pass 1  IDiag  1:
 RMSU=  2.39D-04    CP:  9.06D-01  4.11D-02  7.42D-02  1.64D-03  5.15D-01
                    CP:  2.40D-01  7.77D-01  5.42D-01  3.12D-01  4.05D-01
                    CP:  6.95D-01  1.31D+00  1.75D+00
 E= -2557.54355924953     Delta-E=       -0.004505396708 Rises=F Damp=F
 DIIS: error= 1.24D-03 at cycle  14 NSaved=  14.
 NSaved=14 IEnMin=14 EnMin= -2557.54355924953     IErMin=14 ErrMin= 1.24D-03
 ErrMax= 1.24D-03  0.00D+00 EMaxC= 1.00D-01 BMatC= 2.27D-03 BMatP= 7.81D-03
 IDIUse=3 WtCom= 9.88D-01 WtEn= 1.24D-02
 Coeff-Com: -0.228D-02 0.363D-02 0.199D-03-0.930D-05-0.143D-02 0.426D-03
 Coeff-Com:  0.642D-02 0.460D-02-0.423D-02 0.314D-01-0.210D+00-0.219D-01
 Coeff-Com:  0.718D+00 0.476D+00
 Coeff-En:   0.000D+00 0.000D+00 0.000D+00 0.000D+00 0.000D+00 0.000D+00
 Coeff-En:   0.000D+00 0.000D+00 0.000D+00 0.000D+00 0.000D+00 0.000D+00
 Coeff-En:   0.145D+00 0.855D+00
 Coeff:     -0.225D-02 0.359D-02 0.197D-03-0.918D-05-0.141D-02 0.420D-03
 Coeff:      0.634D-02 0.454D-02-0.418D-02 0.311D-01-0.207D+00-0.217D-01
 Coeff:      0.711D+00 0.480D+00
 Gap=     0.128 Goal=   None    Shift=    0.000
 Gap=     0.019 Goal=   None    Shift=    0.000
 RMSDP=1.49D-04 MaxDP=5.58D-03 DE=-4.51D-03 OVMax= 7.10D-02

 Cycle  15  Pass 1  IDiag  1:
 RMSU=  9.17D-05    CP:  9.06D-01  4.08D-02  7.41D-02  1.62D-03  5.15D-01
                    CP:  2.40D-01  7.73D-01  5.44D-01  3.38D-01  3.89D-01
                    CP:  6.32D-01  1.35D+00  2.04D+00  1.30D+00
 E= -2557.54292649073     Delta-E=        0.000632758798 Rises=F Damp=F
 DIIS: error= 1.78D-03 at cycle  15 NSaved=  15.
 NSaved=15 IEnMin=14 EnMin= -2557.54355924953     IErMin=14 ErrMin= 1.24D-03
 ErrMax= 1.78D-03  0.00D+00 EMaxC= 1.00D-01 BMatC= 3.07D-03 BMatP= 2.27D-03
 IDIUse=3 WtCom= 9.88D-01 WtEn= 1.24D-02
 EnCoef did     8 forward-backward iterations
 Coeff-Com: -0.195D-02 0.332D-02 0.105D-04-0.446D-06-0.248D-02 0.276D-03
 Coeff-Com:  0.148D-02-0.164D-02-0.245D-02 0.275D-01-0.698D-01 0.423D-01
 Coeff-Com:  0.408D+00 0.268D+00 0.328D+00
 Coeff-En:   0.000D+00 0.000D+00 0.000D+00 0.000D+00 0.000D+00 0.000D+00
 Coeff-En:   0.000D+00 0.000D+00 0.000D+00 0.000D+00 0.000D+00 0.000D+00
 Coeff-En:   0.165D+00 0.686D+00 0.149D+00
 Coeff:     -0.193D-02 0.328D-02 0.104D-04-0.440D-06-0.245D-02 0.273D-03
 Coeff:      0.146D-02-0.162D-02-0.242D-02 0.271D-01-0.689D-01 0.418D-01
 Coeff:      0.405D+00 0.273D+00 0.326D+00
 Gap=     0.129 Goal=   None    Shift=    0.000
 Gap=     0.020 Goal=   None    Shift=    0.000
 RMSDP=7.49D-05 MaxDP=4.52D-03 DE= 6.33D-04 OVMax= 2.69D-02

 Cycle  16  Pass 1  IDiag  1:
 RMSU=  3.10D-05    CP:  9.06D-01  4.08D-02  7.44D-02  1.60D-03  5.14D-01
                    CP:  2.43D-01  7.77D-01  5.38D-01  3.31D-01  3.95D-01
                    CP:  6.75D-01  1.27D+00  1.89D+00  1.22D+00  9.35D-01
 E= -2557.54388910610     Delta-E=       -0.000962615371 Rises=F Damp=F
 DIIS: error= 1.04D-03 at cycle  16 NSaved=  16.
 NSaved=16 IEnMin=16 EnMin= -2557.54388910610     IErMin=16 ErrMin= 1.04D-03
 ErrMax= 1.04D-03  0.00D+00 EMaxC= 1.00D-01 BMatC= 1.21D-03 BMatP= 2.27D-03
 IDIUse=3 WtCom= 9.90D-01 WtEn= 1.04D-02
 Coeff-Com: -0.188D-02 0.321D-02-0.403D-04-0.108D-04-0.166D-02 0.151D-03
 Coeff-Com:  0.922D-03-0.102D-02-0.620D-02 0.259D-01-0.424D-01 0.354D-01
 Coeff-Com:  0.233D+00 0.545D-01-0.207D+00 0.907D+00
 Coeff-En:   0.000D+00 0.000D+00 0.000D+00 0.000D+00 0.000D+00 0.000D+00
 Coeff-En:   0.000D+00 0.000D+00 0.000D+00 0.000D+00 0.000D+00 0.000D+00
 Coeff-En:   0.862D-01 0.000D+00 0.000D+00 0.914D+00
 Coeff:     -0.186D-02 0.317D-02-0.399D-04-0.107D-04-0.165D-02 0.149D-03
 Coeff:      0.912D-03-0.100D-02-0.613D-02 0.256D-01-0.419D-01 0.350D-01
 Coeff:      0.232D+00 0.539D-01-0.205D+00 0.907D+00
 Gap=     0.130 Goal=   None    Shift=    0.000
 Gap=     0.022 Goal=   None    Shift=    0.000
 RMSDP=5.96D-05 MaxDP=3.52D-03 DE=-9.63D-04 OVMax= 2.27D-02

 Cycle  17  Pass 1  IDiag  1:
 RMSU=  1.82D-05    CP:  9.06D-01  4.06D-02  7.46D-02  1.57D-03  5.13D-01
                    CP:  2.45D-01  7.80D-01  5.35D-01  3.25D-01  4.05D-01
                    CP:  7.04D-01  1.22D+00  1.81D+00  1.15D+00  9.92D-01
                    CP:  1.77D+00
 E= -2557.54428576359     Delta-E=       -0.000396657490 Rises=F Damp=F
 DIIS: error= 5.99D-04 at cycle  17 NSaved=  17.
 NSaved=17 IEnMin=17 EnMin= -2557.54428576359     IErMin=17 ErrMin= 5.99D-04
 ErrMax= 5.99D-04  0.00D+00 EMaxC= 1.00D-01 BMatC= 5.50D-04 BMatP= 1.21D-03
 IDIUse=3 WtCom= 9.94D-01 WtEn= 5.99D-03
 Coeff-Com: -0.835D-03 0.142D-02 0.102D-04 0.723D-05-0.497D-03-0.813D-04
 Coeff-Com:  0.244D-02 0.177D-02-0.778D-02 0.191D-01-0.453D-01-0.175D-01
 Coeff-Com:  0.366D-01-0.733D-01-0.540D+00 0.559D+00 0.106D+01
 Coeff-En:   0.000D+00 0.000D+00 0.000D+00 0.000D+00 0.000D+00 0.000D+00
 Coeff-En:   0.000D+00 0.000D+00 0.000D+00 0.000D+00 0.000D+00 0.000D+00
 Coeff-En:   0.000D+00 0.000D+00 0.000D+00 0.000D+00 0.100D+01
 Coeff:     -0.830D-03 0.141D-02 0.102D-04 0.719D-05-0.494D-03-0.808D-04
 Coeff:      0.242D-02 0.176D-02-0.773D-02 0.189D-01-0.450D-01-0.174D-01
 Coeff:      0.364D-01-0.728D-01-0.536D+00 0.555D+00 0.106D+01
 Gap=     0.131 Goal=   None    Shift=    0.000
 Gap=     0.024 Goal=   None    Shift=    0.000
 RMSDP=6.29D-05 MaxDP=3.89D-03 DE=-3.97D-04 OVMax= 1.86D-02

 Cycle  18  Pass 1  IDiag  1:
 RMSU=  2.25D-05    CP:  9.06D-01  4.03D-02  7.47D-02  1.55D-03  5.12D-01
                    CP:  2.46D-01  7.82D-01  5.33D-01  3.22D-01  4.15D-01
                    CP:  7.24D-01  1.17D+00  1.77D+00  1.10D+00  1.09D+00
                    CP:  2.98D+00  2.21D+00
 E= -2557.54442869521     Delta-E=       -0.000142931622 Rises=F Damp=F
 DIIS: error= 4.58D-04 at cycle  18 NSaved=  18.
 NSaved=18 IEnMin=18 EnMin= -2557.54442869521     IErMin=18 ErrMin= 4.58D-04
 ErrMax= 4.58D-04  0.00D+00 EMaxC= 1.00D-01 BMatC= 2.35D-04 BMatP= 5.50D-04
 IDIUse=3 WtCom= 9.95D-01 WtEn= 4.58D-03
 Coeff-Com:  0.591D-04-0.112D-03-0.142D-04-0.936D-05 0.819D-04-0.260D-05
 Coeff-Com:  0.181D-02 0.959D-03-0.259D-02 0.591D-02-0.272D-01-0.327D-01
 Coeff-Com: -0.256D-01 0.693D-01 0.156D+00-0.649D+00 0.469D+00 0.103D+01
 Coeff-En:   0.000D+00 0.000D+00 0.000D+00 0.000D+00 0.000D+00 0.000D+00
 Coeff-En:   0.000D+00 0.000D+00 0.000D+00 0.000D+00 0.000D+00 0.000D+00
 Coeff-En:   0.000D+00 0.000D+00 0.000D+00 0.000D+00 0.000D+00 0.100D+01
 Coeff:      0.588D-04-0.111D-03-0.142D-04-0.932D-05 0.815D-04-0.259D-05
 Coeff:      0.180D-02 0.955D-03-0.258D-02 0.588D-02-0.271D-01-0.325D-01
 Coeff:     -0.255D-01 0.689D-01 0.155D+00-0.646D+00 0.467D+00 0.103D+01
 Gap=     0.131 Goal=   None    Shift=    0.000
 Gap=     0.024 Goal=   None    Shift=    0.000
 RMSDP=4.09D-05 MaxDP=2.55D-03 DE=-1.43D-04 OVMax= 1.38D-02

 Cycle  19  Pass 1  IDiag  1:
 RMSU=  2.18D-05    CP:  9.06D-01  4.03D-02  7.45D-02  1.55D-03  5.11D-01
                    CP:  2.46D-01  7.81D-01  5.35D-01  3.24D-01  4.17D-01
                    CP:  7.12D-01  1.18D+00  1.86D+00  1.14D+00  1.18D+00
                    CP:  3.00D+00  3.00D+00  1.47D+00
 E= -2557.54449647489     Delta-E=       -0.000067779677 Rises=F Damp=F
 DIIS: error= 9.86D-05 at cycle  19 NSaved=  19.
 NSaved=19 IEnMin=19 EnMin= -2557.54449647489     IErMin=19 ErrMin= 9.86D-05
 ErrMax= 9.86D-05  0.00D+00 EMaxC= 1.00D-01 BMatC= 1.80D-05 BMatP= 2.35D-04
 IDIUse=1 WtCom= 1.00D+00 WtEn= 0.00D+00
 Coeff-Com:  0.162D-03-0.282D-03-0.192D-04 0.224D-05 0.112D-03-0.284D-04
 Coeff-Com: -0.572D-04-0.255D-03 0.511D-04 0.597D-03 0.112D-02-0.780D-02
 Coeff-Com: -0.236D-01 0.639D-01 0.257D+00-0.498D+00-0.667D-01 0.543D+00
 Coeff-Com:  0.731D+00
 Coeff:      0.162D-03-0.282D-03-0.192D-04 0.224D-05 0.112D-03-0.284D-04
 Coeff:     -0.572D-04-0.255D-03 0.511D-04 0.597D-03 0.112D-02-0.780D-02
 Coeff:     -0.236D-01 0.639D-01 0.257D+00-0.498D+00-0.667D-01 0.543D+00
 Coeff:      0.731D+00
 Gap=     0.131 Goal=   None    Shift=    0.000
 Gap=     0.024 Goal=   None    Shift=    0.000
 RMSDP=1.90D-05 MaxDP=1.01D-03 DE=-6.78D-05 OVMax= 7.80D-03

 Cycle  20  Pass 1  IDiag  1:
 RMSU=  8.88D-06    CP:  9.06D-01  4.02D-02  7.45D-02  1.55D-03  5.11D-01
                    CP:  2.46D-01  7.81D-01  5.36D-01  3.25D-01  4.18D-01
                    CP:  7.08D-01  1.19D+00  1.89D+00  1.14D+00  1.21D+00
                    CP:  3.00D+00  3.00D+00  1.89D+00  1.55D+00
 E= -2557.54450910832     Delta-E=       -0.000012633431 Rises=F Damp=F
 DIIS: error= 5.38D-05 at cycle  20 NSaved=  20.
 NSaved=20 IEnMin=20 EnMin= -2557.54450910832     IErMin=20 ErrMin= 5.38D-05
 ErrMax= 5.38D-05  0.00D+00 EMaxC= 1.00D-01 BMatC= 2.47D-06 BMatP= 1.80D-05
 IDIUse=1 WtCom= 1.00D+00 WtEn= 0.00D+00
 Coeff-Com:  0.916D-04-0.148D-03-0.151D-04 0.141D-05 0.408D-04 0.879D-05
 Coeff-Com: -0.445D-03-0.428D-03 0.447D-03-0.665D-03 0.500D-02-0.999D-03
 Coeff-Com:  0.107D-01 0.197D-01 0.840D-01-0.766D-01-0.147D+00-0.483D-01
 Coeff-Com:  0.340D+00 0.814D+00
 Coeff:      0.916D-04-0.148D-03-0.151D-04 0.141D-05 0.408D-04 0.879D-05
 Coeff:     -0.445D-03-0.428D-03 0.447D-03-0.665D-03 0.500D-02-0.999D-03
 Coeff:      0.107D-01 0.197D-01 0.840D-01-0.766D-01-0.147D+00-0.483D-01
 Coeff:      0.340D+00 0.814D+00
 Gap=     0.131 Goal=   None    Shift=    0.000
 Gap=     0.023 Goal=   None    Shift=    0.000
 RMSDP=1.54D-05 MaxDP=7.00D-04 DE=-1.26D-05 OVMax= 5.68D-03

 Cycle  21  Pass 1  IDiag  1:
 Restarting incremental Fock formation.
 E= -2557.54451239740     Delta-E=       -0.000003289079 Rises=F Damp=F
 DIIS: error= 5.63D-05 at cycle  21 NSaved=  20.
 NSaved=20 IEnMin=20 EnMin= -2557.54451239740     IErMin=19 ErrMin= 5.38D-05
 ErrMax= 5.63D-05  0.00D+00 EMaxC= 1.00D-01 BMatC= 7.33D-06 BMatP= 2.47D-06
 IDIUse=1 WtCom= 1.00D+00 WtEn= 0.00D+00
 Coeff-Com:  0.207D-04-0.273D-04-0.141D-05 0.162D-05-0.609D-05-0.301D-03
 Coeff-Com: -0.274D-03 0.369D-03-0.514D-03 0.485D-02-0.675D-03 0.846D-02
 Coeff-Com: -0.205D-01-0.651D-01 0.101D+00-0.293D-02-0.192D+00-0.572D-01
 Coeff-Com:  0.445D+00 0.780D+00
 Coeff:      0.207D-04-0.273D-04-0.141D-05 0.162D-05-0.609D-05-0.301D-03
 Coeff:     -0.274D-03 0.369D-03-0.514D-03 0.485D-02-0.675D-03 0.846D-02
 Coeff:     -0.205D-01-0.651D-01 0.101D+00-0.293D-02-0.192D+00-0.572D-01
 Coeff:      0.445D+00 0.780D+00
 Gap=     0.131 Goal=   None    Shift=    0.000
 Gap=     0.024 Goal=   None    Shift=    0.000
 RMSDP=1.29D-05 MaxDP=8.30D-04 DE=-3.29D-06 OVMax= 5.89D-03

 Cycle  22  Pass 1  IDiag  1:
 RMSU=  1.29D-05    CP:  1.00D+00
 E= -2557.54451760452     Delta-E=       -0.000005207123 Rises=F Damp=F
 DIIS: error= 3.20D-05 at cycle  22 NSaved=  20.
 NSaved=20 IEnMin=20 EnMin= -2557.54451760452     IErMin=20 ErrMin= 3.20D-05
 ErrMax= 3.20D-05  0.00D+00 EMaxC= 1.00D-01 BMatC= 2.13D-06 BMatP= 2.47D-06
 IDIUse=1 WtCom= 1.00D+00 WtEn= 0.00D+00
 Coeff-Com:  0.566D-05-0.672D-05-0.108D-04 0.563D-05 0.234D-03-0.839D-04
 Coeff-Com:  0.596D-04-0.186D-03-0.150D-02-0.351D-02 0.106D-01-0.234D-01
 Coeff-Com: -0.100D+00 0.946D-01 0.110D+00-0.122D+00-0.269D+00-0.198D+00
 Coeff-Com:  0.521D+00 0.981D+00
 Coeff:      0.566D-05-0.672D-05-0.108D-04 0.563D-05 0.234D-03-0.839D-04
 Coeff:      0.596D-04-0.186D-03-0.150D-02-0.351D-02 0.106D-01-0.234D-01
 Coeff:     -0.100D+00 0.946D-01 0.110D+00-0.122D+00-0.269D+00-0.198D+00
 Coeff:      0.521D+00 0.981D+00
 Gap=     0.131 Goal=   None    Shift=    0.000
 Gap=     0.024 Goal=   None    Shift=    0.000
 RMSDP=1.45D-05 MaxDP=7.46D-04 DE=-5.21D-06 OVMax= 6.97D-03

 Cycle  23  Pass 1  IDiag  1:
 RMSU=  4.52D-06    CP:  1.00D+00  2.08D+00
 E= -2557.54452037415     Delta-E=       -0.000002769628 Rises=F Damp=F
 DIIS: error= 1.69D-05 at cycle  23 NSaved=  20.
 NSaved=20 IEnMin=20 EnMin= -2557.54452037415     IErMin=20 ErrMin= 1.69D-05
 ErrMax= 1.69D-05  0.00D+00 EMaxC= 1.00D-01 BMatC= 6.55D-07 BMatP= 2.13D-06
 IDIUse=1 WtCom= 1.00D+00 WtEn= 0.00D+00
 Coeff-Com: -0.228D-05 0.357D-06 0.562D-05 0.260D-03-0.630D-04-0.733D-04
 Coeff-Com:  0.292D-04-0.191D-02-0.248D-02 0.458D-02-0.376D-02-0.219D-01
 Coeff-Com:  0.364D-03 0.576D-01 0.263D-02-0.927D-01-0.219D+00-0.493D-01
 Coeff-Com:  0.388D+00 0.937D+00
 Coeff:     -0.228D-05 0.357D-06 0.562D-05 0.260D-03-0.630D-04-0.733D-04
 Coeff:      0.292D-04-0.191D-02-0.248D-02 0.458D-02-0.376D-02-0.219D-01
 Coeff:      0.364D-03 0.576D-01 0.263D-02-0.927D-01-0.219D+00-0.493D-01
 Coeff:      0.388D+00 0.937D+00
 Gap=     0.131 Goal=   None    Shift=    0.000
 Gap=     0.024 Goal=   None    Shift=    0.000
 RMSDP=7.80D-06 MaxDP=3.28D-04 DE=-2.77D-06 OVMax= 3.93D-03

 Cycle  24  Pass 1  IDiag  1:
 RMSU=  2.36D-06    CP:  1.00D+00  2.63D+00  1.44D+00
 E= -2557.54452121178     Delta-E=       -0.000000837630 Rises=F Damp=F
 DIIS: error= 1.34D-05 at cycle  24 NSaved=  20.
 NSaved=20 IEnMin=20 EnMin= -2557.54452121178     IErMin=20 ErrMin= 1.34D-05
 ErrMax= 1.34D-05  0.00D+00 EMaxC= 1.00D-01 BMatC= 3.24D-07 BMatP= 6.55D-07
 IDIUse=1 WtCom= 1.00D+00 WtEn= 0.00D+00
 Coeff-Com: -0.299D-05-0.280D-05 0.150D-03-0.527D-04-0.175D-04 0.235D-04
 Coeff-Com: -0.986D-03-0.872D-03 0.176D-02 0.873D-02 0.285D-01-0.430D-01
 Coeff-Com: -0.241D-02 0.509D-01 0.438D-01-0.816D-01-0.266D+00-0.141D+00
 Coeff-Com:  0.711D+00 0.691D+00
 Coeff:     -0.299D-05-0.280D-05 0.150D-03-0.527D-04-0.175D-04 0.235D-04
 Coeff:     -0.986D-03-0.872D-03 0.176D-02 0.873D-02 0.285D-01-0.430D-01
 Coeff:     -0.241D-02 0.509D-01 0.438D-01-0.816D-01-0.266D+00-0.141D+00
 Coeff:      0.711D+00 0.691D+00
 Gap=     0.131 Goal=   None    Shift=    0.000
 Gap=     0.024 Goal=   None    Shift=    0.000
 RMSDP=4.71D-06 MaxDP=1.84D-04 DE=-8.38D-07 OVMax= 2.22D-03

 Cycle  25  Pass 1  IDiag  1:
 RMSU=  1.17D-06    CP:  1.00D+00  2.91D+00  1.88D+00  1.84D+00
 E= -2557.54452149670     Delta-E=       -0.000000284921 Rises=F Damp=F
 DIIS: error= 1.53D-05 at cycle  25 NSaved=  20.
 NSaved=20 IEnMin=20 EnMin= -2557.54452149670     IErMin=19 ErrMin= 1.34D-05
 ErrMax= 1.53D-05  0.00D+00 EMaxC= 1.00D-01 BMatC= 3.06D-07 BMatP= 3.24D-07
 IDIUse=1 WtCom= 1.00D+00 WtEn= 0.00D+00
 Coeff-Com:  0.248D-05 0.474D-05-0.103D-04 0.519D-04-0.124D-03 0.540D-03
 Coeff-Com:  0.380D-04-0.355D-02 0.742D-02 0.304D-01-0.352D-01-0.205D-01
 Coeff-Com:  0.524D-01 0.912D-01 0.602D-01-0.176D+00-0.353D+00-0.512D-01
 Coeff-Com:  0.356D+00 0.104D+01
 Coeff:      0.248D-05 0.474D-05-0.103D-04 0.519D-04-0.124D-03 0.540D-03
 Coeff:      0.380D-04-0.355D-02 0.742D-02 0.304D-01-0.352D-01-0.205D-01
 Coeff:      0.524D-01 0.912D-01 0.602D-01-0.176D+00-0.353D+00-0.512D-01
 Coeff:      0.356D+00 0.104D+01
 Gap=     0.131 Goal=   None    Shift=    0.000
 Gap=     0.024 Goal=   None    Shift=    0.000
 RMSDP=4.28D-06 MaxDP=2.12D-04 DE=-2.85D-07 OVMax= 1.87D-03

 Cycle  26  Pass 1  IDiag  1:
 RMSU=  1.87D-06    CP:  1.00D+00  3.00D+00  2.16D+00  3.00D+00  1.72D+00
 E= -2557.54452166895     Delta-E=       -0.000000172249 Rises=F Damp=F
 DIIS: error= 1.20D-05 at cycle  26 NSaved=  20.
 NSaved=20 IEnMin=20 EnMin= -2557.54452166895     IErMin=20 ErrMin= 1.20D-05
 ErrMax= 1.20D-05  0.00D+00 EMaxC= 1.00D-01 BMatC= 1.87D-07 BMatP= 3.06D-07
 IDIUse=1 WtCom= 1.00D+00 WtEn= 0.00D+00
 Coeff-Com: -0.874D-05 0.103D-04 0.669D-04-0.164D-03 0.693D-03 0.324D-03
 Coeff-Com: -0.340D-02 0.323D-02 0.155D-01-0.136D-01-0.112D-01 0.306D-01
 Coeff-Com:  0.560D-01 0.570D-01-0.603D-01-0.235D+00-0.222D+00 0.136D-01
 Coeff-Com:  0.707D+00 0.663D+00
 Coeff:     -0.874D-05 0.103D-04 0.669D-04-0.164D-03 0.693D-03 0.324D-03
 Coeff:     -0.340D-02 0.323D-02 0.155D-01-0.136D-01-0.112D-01 0.306D-01
 Coeff:      0.560D-01 0.570D-01-0.603D-01-0.235D+00-0.222D+00 0.136D-01
 Coeff:      0.707D+00 0.663D+00
 Gap=     0.131 Goal=   None    Shift=    0.000
 Gap=     0.024 Goal=   None    Shift=    0.000
 RMSDP=2.11D-06 MaxDP=1.68D-04 DE=-1.72D-07 OVMax= 7.03D-04

 Cycle  27  Pass 1  IDiag  1:
 RMSU=  1.60D-06    CP:  1.00D+00  3.00D+00  2.35D+00  3.00D+00  2.27D+00
                    CP:  1.47D+00
 E= -2557.54452171947     Delta-E=       -0.000000050514 Rises=F Damp=F
 DIIS: error= 9.64D-06 at cycle  27 NSaved=  20.
 NSaved=20 IEnMin=20 EnMin= -2557.54452171947     IErMin=20 ErrMin= 9.64D-06
 ErrMax= 9.64D-06  0.00D+00 EMaxC= 1.00D-01 BMatC= 1.12D-07 BMatP= 1.87D-07
 IDIUse=1 WtCom= 1.00D+00 WtEn= 0.00D+00
 Coeff-Com:  0.879D-05 0.255D-04-0.143D-03 0.306D-03 0.238D-03-0.156D-02
 Coeff-Com:  0.465D-03 0.364D-02-0.461D-03 0.604D-03 0.125D-01 0.149D-01
 Coeff-Com:  0.115D-01-0.926D-02-0.813D-01-0.704D-01-0.581D-01 0.156D+00
 Coeff-Com:  0.291D+00 0.730D+00
 Coeff:      0.879D-05 0.255D-04-0.143D-03 0.306D-03 0.238D-03-0.156D-02
 Coeff:      0.465D-03 0.364D-02-0.461D-03 0.604D-03 0.125D-01 0.149D-01
 Coeff:      0.115D-01-0.926D-02-0.813D-01-0.704D-01-0.581D-01 0.156D+00
 Coeff:      0.291D+00 0.730D+00
 Gap=     0.131 Goal=   None    Shift=    0.000
 Gap=     0.024 Goal=   None    Shift=    0.000
 RMSDP=8.84D-07 MaxDP=8.71D-05 DE=-5.05D-08 OVMax= 2.12D-04

 Cycle  28  Pass 1  IDiag  1:
 RMSU=  4.00D-07    CP:  1.00D+00  3.00D+00  2.42D+00  3.00D+00  2.49D+00
                    CP:  1.45D+00  1.42D+00
 E= -2557.54452174089     Delta-E=       -0.000000021427 Rises=F Damp=F
 DIIS: error= 6.25D-06 at cycle  28 NSaved=  20.
 NSaved=20 IEnMin=20 EnMin= -2557.54452174089     IErMin=20 ErrMin= 6.25D-06
 ErrMax= 6.25D-06  0.00D+00 EMaxC= 1.00D-01 BMatC= 4.44D-08 BMatP= 1.12D-07
 IDIUse=1 WtCom= 1.00D+00 WtEn= 0.00D+00
 Coeff-Com:  0.177D-04-0.107D-03 0.151D-03 0.104D-03-0.899D-03-0.615D-04
 Coeff-Com:  0.119D-02 0.263D-03 0.154D-02 0.627D-02 0.524D-02 0.186D-02
 Coeff-Com: -0.761D-02-0.391D-01 0.357D-02-0.580D-02-0.487D-02-0.359D-01
 Coeff-Com:  0.206D+00 0.869D+00
 Coeff:      0.177D-04-0.107D-03 0.151D-03 0.104D-03-0.899D-03-0.615D-04
 Coeff:      0.119D-02 0.263D-03 0.154D-02 0.627D-02 0.524D-02 0.186D-02
 Coeff:     -0.761D-02-0.391D-01 0.357D-02-0.580D-02-0.487D-02-0.359D-01
 Coeff:      0.206D+00 0.869D+00
 Gap=     0.131 Goal=   None    Shift=    0.000
 Gap=     0.024 Goal=   None    Shift=    0.000
 RMSDP=5.54D-07 MaxDP=3.72D-05 DE=-2.14D-08 OVMax= 1.23D-04

 Cycle  29  Pass 1  IDiag  1:
 RMSU=  1.30D-07    CP:  1.00D+00  3.00D+00  2.46D+00  3.00D+00  2.62D+00
                    CP:  1.52D+00  1.69D+00  1.53D+00
 E= -2557.54452174854     Delta-E=       -0.000000007649 Rises=F Damp=F
 DIIS: error= 3.10D-06 at cycle  29 NSaved=  20.
 NSaved=20 IEnMin=20 EnMin= -2557.54452174854     IErMin=20 ErrMin= 3.10D-06
 ErrMax= 3.10D-06  0.00D+00 EMaxC= 1.00D-01 BMatC= 1.34D-08 BMatP= 4.44D-08
 IDIUse=1 WtCom= 1.00D+00 WtEn= 0.00D+00
 Coeff-Com: -0.221D-04-0.123D-03-0.188D-03 0.136D-03 0.563D-04 0.867D-04
 Coeff-Com: -0.151D-02 0.131D-02 0.625D-03-0.278D-02-0.981D-02-0.145D-01
[...]
 0631,0.00000313,0.00000448,-0.00000100,0.00000233,-0.00000246,0.000018
 24,-0.00002066,0.00001873,0.00002243,-0.00001533,-0.00000712,0.0000380
 0,-0.00000484,-0.00014643,-0.00023100,0.00020339,-0.00026050,-0.000582
 05,0.00012740,0.00015873,0.00025673,-0.00003906,-0.00050455,-0.0001837
 2,0.00066020,0.00018237,-0.00059273,0.00007956,0.00254958,0.00326357,-
 0.00700077,-0.00186063,0.00580085,-0.09879782,-0.17999203,0.11333265,-
 0.00295532,0.00068335,0.00557040,-0.00287555,0.00516177,0.00282784,-0.
 00016788,-0.00001107,0.00039310,0.00000411,-0.00001311,0.00006614,0.00
 000184,-0.00001099,0.00000008,-0.00000239,0.00000040,0.00000019,0.0000
 0194,0.00000513,0.00000474,-0.00001089,0.00000882,-0.00000479,-0.00000
 963,-0.00000245,-0.00000728,-0.00000044,-0.00000087,-0.00000017,-0.000
 00021,-0.00000059,0.00000093,0.00000147,0.00000011,0.00000029,0.000004
 33,-0.00000195,0.00000266,-0.00000322,-0.00000236,-0.00000331,-0.00001
 365,0.00001468,0.00001914,0.00000065,0.00002345,0.00001080,-0.00016462
 ,-0.00045870,-0.00007725,0.00085131,-0.00111905,-0.00157432,0.10852068
 ,0.17782036,-0.00002720,-0.00000038,0.00001173,-0.00002694,0.00001397,
 0.00001635,-0.00004253,-0.00002820,-0.00000639,0.00004568,0.00000210,-
 0.00002703,-0.00000394,0.00000206,-0.00000450,0.00001469,0.00000701,0.
 00001113,0.00000025,0.00001399,0.00002766,-0.00006309,-0.00001901,0.00
 000959,0.00006125,-0.00014856,-0.00008344,-0.00001760,-0.00048538,-0.0
 0015089,-0.00024644,0.00016679,-0.00007989,0.00043935,-0.00007150,-0.0
 0024355,-0.00077340,-0.00076939,-0.00009257,-0.00371184,0.00327246,-0.
 00168149,0.01272997,0.01707419,-0.00795677,0.07540414,0.11339955,-0.14
 314197,-0.00621852,-0.00554169,0.00957893,-0.00394545,0.00283049,0.002
 49016,-0.00008552,-0.00019819,0.00052511,-0.00000342,0.00000253,0.0000
 4524,0.00001384,-0.00002707,0.00000203,0.00004720,0.00001506,-0.000012
 81,-0.00001457,0.00000383,0.00000180,-0.00001653,-0.00001175,-0.000006
 18,-0.00000592,0.00000014,0.00000141,-0.00000072,-0.00000051,0.0000008
 4,0.00000148,-0.00000210,0.00000061,-0.00000088,-0.00000142,-0.0000006
 4,0.00000141,0.00000010,-0.00000066,-0.00000406,-0.00000023,-0.0000054
 0,-0.00000173,0.00001017,0.00001282,-0.00003469,-0.00001194,0.00002609
 ,0.00073305,0.00044108,-0.00054777,0.00084938,-0.00167945,-0.00001023,
 -0.07644620,-0.12602233,0.14226528,0.00017513,-0.00006625,-0.00006341,
 -0.00005223,-0.00013694,-0.00017758,0.00014880,0.00007189,-0.00009456,
 -0.00008281,-0.00003888,0.00011831,0.00001233,-0.00001792,0.00003341,-
 0.00003250,-0.00009198,-0.00003312,-0.00005335,-0.00002121,-0.00002924
 ,0.00007352,0.00007234,0.00000491,-0.00015323,-0.00005544,-0.00018143,
 0.00052826,0.00035539,0.00001435,0.00009699,-0.00003098,0.00012329,0.0
 0042180,-0.00053816,0.00060259,-0.00111269,-0.00277143,-0.00009527,-0.
 00034598,-0.00018568,0.00041531,-0.00351933,-0.00464028,-0.00135681,-0
 .00861899,0.01299375,-0.02552316,-0.10523399,0.04148005,-0.09975763,0.
 00759646,-0.00749669,0.01281058,0.00135844,0.00131882,0.00171646,0.000
 08445,0.00006371,-0.00005843,-0.00008281,0.00021147,-0.00003206,-0.000
 27199,-0.00007464,0.00010234,0.00002637,-0.00000122,-0.00000792,0.0000
 2208,0.00001863,0.00009317,0.00002783,0.00000828,0.00000729,0.00000526
 ,0.00000314,-0.00000533,-0.00000529,0.00000952,-0.00000460,0.00002091,
 0.00001988,0.00001150,0.00000341,-0.00000575,0.00000834,0.00000322,-0.
 00000305,0.00000460,0.00000112,0.00002254,0.00001062,-0.00010373,-0.00
 017311,0.00005365,-0.00007935,0.00038590,0.00017352,-0.00029832,0.0006
 8330,-0.00106511,0.00047642,0.00168517,0.00135447,0.10895006,0.0000582
 1,0.00020419,-0.00007185,0.00022410,-0.00038676,0.00041520,0.00021465,
 0.00000561,-0.00001004,-0.00004913,-0.00031365,0.00013535,0.00008667,0
 .00004842,-0.00006863,-0.00006075,0.00016345,0.00017290,0.00003143,0.0
 0000051,0.00006479,-0.00008105,-0.00006824,-0.00005257,0.00011836,0.00
 016905,0.00018640,-0.00040295,-0.00050820,0.00009101,-0.00029547,0.000
 12157,-0.00042289,0.00112228,0.00042796,0.00097486,-0.00438925,0.00052
 239,0.00267331,-0.00002250,-0.00032008,-0.00043831,-0.00373045,0.00395
 721,0.00264883,-0.00474762,0.00800158,-0.00728134,0.04295786,-0.089388
 73,0.09941021,0.00987601,-0.00442003,0.01624036,0.00301099,-0.00033526
 ,-0.00278135,-0.00011859,-0.00024527,-0.00007409,-0.00005419,0.0003402
 3,-0.00007176,-0.00027074,-0.00008060,0.00008331,0.00003546,0.00000516
 ,0.00004603,-0.00000335,0.00005821,-0.00015549,-0.00002762,0.00000018,
 -0.00001450,0.00001090,0.00001218,-0.00000217,-0.00001460,0.00002203,-
 0.00000321,-0.00004222,-0.00003985,-0.00001691,-0.00000443,0.00000779,
 -0.00001242,-0.00000144,-0.00000111,-0.00000279,-0.00002737,-0.0000189
 0,-0.00005774,-0.00020077,-0.00007151,0.00016100,0.00034628,-0.0006023
 9,-0.00044975,-0.00016336,0.00014288,-0.00036445,0.00175396,-0.0023608
 6,-0.00231685,-0.04312793,0.08516176,0.00008125,-0.00024331,-0.0001373
 6,-0.00048197,0.00040087,-0.00040681,-0.00002709,-0.00004140,0.0000870
 5,-0.00010399,0.00020656,-0.00014647,0.00002549,0.00005294,-0.00006838
 ,0.00005763,0.00008081,0.00014438,-0.00001424,0.00002955,-0.00000974,0
 .00011360,-0.00012227,0.00014459,-0.00072512,0.00029652,-0.00051408,0.
 00103571,0.00053832,-0.00038066,0.00024169,-0.00024677,0.00044414,-0.0
 0122039,0.00006377,-0.00030950,0.00187930,0.00374450,0.00104629,0.0003
 8092,-0.00054905,0.00032588,-0.00268827,0.00208864,0.00340565,-0.00236
 656,0.00443902,-0.00227309,-0.10135851,0.09738443,-0.22686209,-0.00976
 534,0.00534129,-0.00978456,-0.00052600,-0.00355940,0.00053700,0.000213
 25,-0.00025895,0.00007602,0.00001493,-0.00028144,0.00004997,0.00017569
 ,0.00002331,-0.00004585,-0.00001622,-0.00000195,0.00003339,-0.00001924
 ,-0.00002069,0.00003181,-0.00000023,-0.00000109,-0.00000733,-0.0000034
 3,-0.00000920,0.00000926,0.00000650,-0.00000671,0.00002199,0.00000134,
 -0.00001575,-0.00001386,0.00000566,-0.00000095,0.00000213,0.00000842,-
 0.00000515,0.00000640,0.00005196,-0.00000886,0.00004824,0.00010589,0.0
 0018160,-0.00002819,0.00022000,-0.00040387,-0.00041312,0.00004501,0.00
 020251,-0.00029878,0.00127183,-0.00239724,-0.00111136,0.11148745,-0.10
 833256,0.23571047,0.00055911,-0.00209454,0.00215788,0.00083590,-0.0003
 2080,-0.00020900,0.00133681,0.00229585,0.00090943,-0.00802459,-0.00095
 543,0.00299527,0.00038421,-0.00118819,-0.00035694,-0.00019214,0.000286
 31,-0.00008511,0.00007177,-0.00007847,-0.00016811,0.00002460,-0.000019
 50,0.00005092,-0.00001414,0.00006893,-0.00009405,-0.00001989,-0.000009
 39,-0.00000245,0.00002649,0.00002100,-0.00000196,-0.00001663,-0.000009
 62,-0.00000434,-0.00000540,-0.00000162,-0.00001000,-0.00000305,0.00000
 497,-0.00001201,0.00000014,0.00000268,-0.00000644,0.00000364,-0.000011
 00,0.00000658,0.00000077,0.00000784,-0.00000582,0.00002186,0.00002243,
 -0.00002308,-0.00002849,-0.00003343,0.00000246,0.00018910,-0.00007034,
 0.00019658,-0.32262468,0.02344009,0.07147770,-0.00945927,0.00267601,0.
 00357577,-0.00043228,0.00022937,-0.00005912,-0.00018663,-0.00006214,-0
 .00026990,-0.00033409,-0.00015263,0.00014495,0.00009002,-0.00013302,0.
 00015279,0.00025038,0.00041496,-0.00015878,0.00021093,0.00005450,-0.00
 034295,0.00000161,-0.00003868,0.00004550,0.00001014,0.00002276,-0.0000
 0165,-0.00000712,0.00000615,-0.00000372,0.00000193,-0.00000014,-0.0000
 0161,-0.00000380,0.00000289,0.00000311,-0.00000108,0.00000026,0.000000
 56,-0.00000129,0.00000009,0.00000064,0.00000064,0.00000110,0.00000750,
 0.33688400,-0.00178867,-0.00411457,0.00238804,-0.00018125,-0.00056760,
 -0.00004146,0.00184635,-0.00466577,0.00092019,0.02765698,0.00102003,-0
 .00638594,0.00065574,0.00131316,-0.00070956,0.00039302,-0.00014029,0.0
 0021730,0.00003297,-0.00004203,0.00012285,-0.00014611,-0.00000269,-0.0
 0008866,0.00007849,-0.00003397,0.00007033,-0.00001470,-0.00000207,-0.0
 0000188,-0.00002153,-0.00001447,0.00000629,0.00001041,0.00000321,-0.00
 000016,0.00001406,-0.00002085,0.00002039,-0.00000467,-0.00000766,0.000
 00649,0.00000190,-0.00000938,0.00000912,-0.00001701,0.00000299,-0.0000
 2160,0.00000433,0.00001122,-0.00000331,-0.00003750,-0.00000734,-0.0000
 2925,-0.00002400,0.00001820,0.00001181,-0.00022208,0.00012203,-0.00018
 358,0.02329766,-0.05950555,-0.00273177,-0.02645433,0.00587937,0.007185
 97,-0.00114347,0.00025109,0.00013173,-0.00008658,0.00005898,-0.0001749
 5,0.00125392,0.00010175,-0.00020256,-0.00030072,0.00010892,-0.00017735
 ,-0.00043339,-0.00054356,-0.00007728,0.00003769,-0.00002680,0.00028543
 ,-0.00000069,0.00001569,-0.00002373,-0.00000717,-0.00000326,0.00000945
 ,0.00000458,0.00000014,0.00000899,-0.00000158,-0.00000137,-0.00000024,
 -0.00000145,0.00000379,0.00000239,0.00000049,0.00000123,0.00000085,0.0
 0000016,0.00000089,0.00000089,0.00000234,0.00000171,0.00000112,-0.0243
 7173,0.05995185,0.00209739,0.00233586,0.00666253,0.00009746,-0.0000735
 1,-0.00065818,0.00182970,0.00194882,0.00563274,-0.00044044,-0.00109778
 ,0.00497163,-0.00077190,-0.00073513,-0.00308164,-0.00008222,0.00051623
 ,0.00019277,0.00018641,-0.00011346,-0.00019772,-0.00001776,-0.00005509
 ,-0.00001263,-0.00007076,0.00005600,-0.00004638,0.00000683,0.00001470,
 -0.00002946,0.00002622,0.00000430,0.00001166,-0.00002313,-0.00001597,-
 0.00000482,0.00000847,0.00000873,-0.00000365,-0.00000487,-0.00000575,-
 0.00000502,-0.00000135,-0.00000124,-0.00000340,-0.00000990,-0.00001507
 ,-0.00000255,0.00001922,0.00002469,-0.00002476,-0.00002614,-0.00002035
 ,0.00000860,0.00007711,0.00001849,0.00000698,0.00008953,-0.00005443,0.
 00014129,0.07057148,-0.00043061,-0.06080709,0.00799261,-0.00150284,0.0
 0394103,0.00015908,-0.00016765,-0.00044486,-0.00047923,-0.00016820,-0.
 00099427,-0.00038090,-0.00011129,0.00051931,-0.00006470,-0.00014223,0.
 00005809,-0.00046165,-0.00004536,0.00025830,-0.00005621,0.00023600,-0.
 00041505,-0.00001044,-0.00005330,0.00002923,-0.00001134,0.00005865,-0.
 00002831,-0.00000574,0.00001080,0.00000459,0.00000059,-0.00000066,-0.0
 0000261,-0.00000376,0.00000542,0.00000393,-0.00000112,0.00000049,0.000
 00190,-0.00000289,0.00000096,0.00000110,-0.00000229,-0.00000208,0.0000
 1588,-0.07879395,0.00049340,0.04813076,-0.00897798,0.02719626,-0.00040
 570,-0.00470457,-0.00038291,0.00294841,-0.00026528,-0.00086958,0.00020
 186,-0.00108838,-0.00306999,0.00293834,0.00059709,-0.00069461,-0.00030
 165,0.00002643,0.00003347,-0.00009591,-0.00000752,0.00000459,-0.000000
 66,-0.00003704,-0.00003539,0.00003149,-0.00000946,0.00006287,-0.000088
 90,0.00003213,0.00002381,-0.00002348,0.00001324,-0.00000115,0.00001247
 ,-0.00001511,-0.00000724,-0.00000089,0.00000762,0.00001466,-0.00001521
 ,0.00000031,-0.00000230,0.00000184,-0.00000421,-0.00000166,-0.00000144
 ,0.00000048,-0.00000006,-0.00000676,0.00001150,-0.00000722,0.00000596,
 -0.00000722,-0.00003393,0.00004083,0.00004618,0.00002511,0.00001249,-0
 .00000570,-0.00002709,0.00006312,0.01216025,-0.01605624,0.00107488,-0.
 12102462,0.11871533,0.00067633,0.00095673,-0.00027594,-0.00111002,-0.0
 0037998,0.00121066,-0.00015614,-0.00003317,0.00003756,-0.00020506,-0.0
 0011471,-0.00022097,0.00011797,-0.00001385,0.00002470,-0.00001305,0.00
 001578,0.00001136,0.00001917,0.00000338,0.00000895,-0.00000255,0.00000
 455,-0.00000422,0.00000495,0.00000151,0.00000232,-0.00000042,0.0000004
 9,0.00000072,-0.00000145,-0.00000009,0.00000213,0.00000044,-0.00000115
 ,0.00000139,-0.00000009,-0.00000238,0.00000297,0.00000168,-0.00000617,
 0.00001190,0.00000804,0.00054665,-0.00001375,-0.00120225,0.12245218,-0
 .00244340,0.00467002,0.00075211,-0.00034125,0.00101609,0.00115231,-0.0
 0089770,0.00053679,-0.00040925,-0.00228881,-0.00257613,0.00264098,0.00
 073021,-0.00055999,-0.00043139,-0.00008291,0.00000766,-0.00013977,-0.0
 0004056,0.00000270,-0.00000744,0.00006466,0.00007581,-0.00003651,0.000
 05828,-0.00008929,0.00011925,-0.00007125,-0.00005043,0.00001872,-0.000
 01244,0.00001496,-0.00002243,0.00002214,0.00001207,-0.00000192,-0.0000
 0818,-0.00002191,0.00003046,-0.00000158,0.00000362,-0.00000599,0.00000
 360,-0.00000124,0.00000450,0.00000380,0.00000376,-0.00000304,-0.000009
 50,-0.00001415,0.00000563,0.00002076,0.00006450,-0.00007120,-0.0000004
 0,-0.00001937,-0.00006409,0.00006600,0.00006216,0.00001578,0.01274442,
 -0.01537033,0.00043217,0.11871457,-0.28490695,0.00657301,-0.00013191,0
 .00051500,-0.00061696,-0.00022601,0.00022686,0.00001137,0.00001737,-0.
 00003208,-0.00003179,-0.00012742,-0.00020762,0.00014608,-0.00002120,0.
 00002920,0.00000641,0.00000348,0.00000974,0.00002695,0.00000598,0.0000
 1204,-0.00000388,0.00000030,0.00000080,0.00000582,-0.00000629,-0.00000
 110,-0.00000161,0.00000053,-0.00000097,0.00000115,-0.00000150,-0.00000
 116,0.00000086,0.00000035,0.00000130,-0.00000002,-0.00000073,0.0000023
 5,-0.00000035,0.00000241,0.00000524,-0.00000093,0.00000744,0.00093953,
 -0.00090931,-0.12556292,0.29560967,0.00381828,-0.00616610,0.00657531,0
 .00291230,0.00033482,0.00528234,0.00009651,-0.00034924,-0.00066419,0.0
 0281131,0.00166782,0.00674580,-0.00020887,-0.00010663,-0.00077041,-0.0
 0005404,0.00024741,-0.00011011,-0.00006062,-0.00002802,-0.00006127,-0.
 00000707,0.00006921,-0.00003609,0.00007404,-0.00002339,0.00003016,-0.0
 0005898,-0.00002440,-0.00000110,0.00000975,0.00002168,-0.00000645,-0.0
 0000051,0.00000259,-0.00000361,-0.00000446,-0.00003226,0.00000672,-0.0
 0000455,0.00000814,-0.00000941,0.00000061,-0.00000232,-0.00000069,0.00
 000057,-0.00000663,-0.00000109,-0.00002089,0.00000394,-0.00000246,0.00
 003867,0.00005386,-0.00007393,-0.00009387,-0.00004188,0.00001194,0.000
 14227,0.00001682,0.00002898,-0.00230403,0.00878690,0.00697384,0.000383
 69,0.00674705,-0.04627420,-0.00112288,-0.00064965,-0.00299216,-0.00004
 061,-0.00019466,-0.00033114,-0.00031005,-0.00000192,-0.00068317,-0.000
 12971,0.00000479,-0.00009437,-0.00003869,-0.00015467,0.00005397,0.0000
 4292,0.00004098,0.00000678,0.00000403,-0.00001103,0.00000118,0.0000028
 8,0.00000775,0.00000162,-0.00000676,-0.00000050,-0.00000481,0.00000016
 ,0.00000008,0.00000012,-0.00000517,0.00000265,0.00000366,-0.00000111,0
 .00000106,0.00000125,-0.00000307,0.00000070,0.00000055,0.00000538,0.00
 001013,0.00000338,-0.00124861,-0.00091173,-0.00378675,-0.00457619,-0.0
 0937244,0.02998269,-0.00057145,-0.00083334,-0.00079467,0.00105593,-0.0
 0193368,-0.00236770,-0.00774876,-0.00361861,-0.01523928,0.00201303,-0.
 00593478,-0.00348277,0.00016702,-0.00128836,0.00118847,-0.00563093,-0.
 00232687,0.00283141,-0.00073814,-0.00002180,0.00008081,0.00137156,0.00
 478898,-0.00494674,0.00649238,-0.00914870,0.01596412,0.00446115,0.0034
 8414,-0.00244962,0.00056837,-0.00243366,0.00230249,-0.00109210,-0.0004
 1362,0.00016138,0.00033866,-0.00138671,0.00099250,-0.00011327,0.000005
 50,0.00015657,0.00012146,-0.00014258,0.00044458,-0.00122123,-0.0003617
 8,0.00010828,0.00058105,0.00336229,-0.00308913,-0.00874530,-0.00007344
 ,-0.00699988,-0.02597184,0.00526620,-0.01969527,-0.05750488,-0.0322412
 2,0.02785935,-0.00226592,0.01245034,-0.00087847,-0.00461999,-0.0011262
 3,0.00196235,0.00005224,0.00009700,-0.00018220,-0.00046527,-0.00018655
 ,0.00180651,0.00040576,0.00071741,0.00017920,0.00007658,0.00017818,-0.
 00022129,0.00011392,0.00041266,-0.00025769,-0.00029107,-0.00043608,0.0
 0015161,0.00000039,0.00005240,0.00006604,0.00001559,-0.00012764,-0.000
 01875,0.00052513,-0.00031498,0.00033395,-0.00014522,0.00011559,0.00001
 651,0.00001152,-0.00014913,-0.00007141,0.00005922,-0.00013631,0.000116
 06,0.00004184,-0.00010330,-0.00000728,0.00001925,-0.00202442,0.0018775
 3,-0.00009610,-0.00001870,-0.00023715,-0.00017788,-0.00019040,-0.00004
 264,0.09890729,0.00256124,-0.00541217,-0.00119813,-0.00291872,0.004039
 80,-0.00002916,0.00212453,-0.00221029,0.00528272,-0.00192749,0.0030959
 9,-0.00138935,-0.00089044,-0.00027138,0.00169762,-0.00241103,-0.003152
 15,-0.00151564,-0.00113645,-0.00024390,-0.00080730,0.00165411,0.003534
 87,0.00043272,-0.00463174,-0.01321395,0.01389792,0.00261194,-0.0058894
 2,0.00862668,-0.00173406,0.00050876,0.00118017,0.00009104,-0.00049311,
 -0.00030301,0.00018578,-0.00047357,0.00096425,-0.00056207,-0.00056339,
 -0.00008029,0.00029778,-0.00049614,0.00011541,-0.00079693,-0.00107591,
 -0.00068495,-0.00028434,0.00168678,-0.00284649,0.00104546,0.00272705,-
 0.00356696,0.00053777,-0.01471511,0.00973369,-0.03215802,-0.02209344,0
 .01985664,0.00035340,-0.00364162,0.00094343,0.00277950,-0.00129647,-0.
 00002729,-0.00012020,-0.00022439,-0.00017599,-0.00009404,0.00041982,0.
 00069401,-0.00131218,-0.00221905,-0.00635508,-0.00027289,-0.00050847,-
 0.00019912,0.00026558,-0.00027568,-0.00002718,0.00127542,0.00043670,0.
 00042569,0.00003619,-0.00031297,0.00037832,0.00002338,0.00001662,0.000
 06193,-0.00010968,0.00060364,0.00059938,0.00015540,-0.00041642,-0.0002
 9920,-0.00043289,0.00061745,0.00048466,0.00000449,0.00003094,0.0001697
 6,-0.00018253,0.00013980,0.00007990,0.00006902,-0.00021785,0.00143176,
 -0.00001496,-0.00009655,-0.00001222,-0.00012358,0.00003083,0.00004910,
 0.03604220,0.06162434,0.00320501,0.00130551,-0.00097870,0.00451729,0.0
 0483217,-0.01396401,-0.00868323,-0.00724112,-0.02527172,-0.00836046,-0
 .00388303,-0.00245163,-0.00002114,-0.00089522,0.00108089,0.00330915,-0
 .00220234,0.00435117,-0.00054655,-0.00097454,0.00002480,-0.00508113,0.
 00014378,-0.00017189,0.01404228,0.01137521,-0.01010054,-0.00032931,0.0
 1132540,-0.01558631,0.00356380,0.00025324,0.00390931,-0.00302207,-0.00
 171472,-0.00007514,0.00132626,0.00099245,0.00016645,-0.00015458,0.0000
 4475,-0.00015961,-0.00001331,-0.00026172,0.00016013,-0.00105039,-0.000
 20498,-0.00099185,0.00322132,0.00145442,-0.00027611,-0.00931989,-0.005
 39885,-0.00007435,-0.01788071,0.01262065,-0.04712188,0.02696810,0.0241
 0564,-0.03495839,-0.00082890,0.00317080,-0.00127598,-0.00536590,-0.000
 75026,0.00111833,0.00037230,0.00016058,0.00049338,0.00041229,0.0003506
 9,-0.00203937,-0.00167110,-0.00159687,-0.00474588,0.00011244,0.0002620
 0,-0.00035952,0.00009323,0.00055474,-0.00088939,-0.00060493,0.00009967
 ,0.00001502,-0.00023557,-0.00025479,0.00015862,-0.00003274,-0.00008523
 ,-0.00008266,0.00004044,0.00010083,0.00027650,0.00006934,-0.00010590,-
 0.00022859,-0.00001425,0.00021233,0.00016474,-0.00003498,0.00002788,0.
 00002881,0.00009978,0.00001644,0.00013510,-0.00066362,-0.00030996,0.00
 066734,0.00013193,-0.00012804,-0.00004313,0.00004755,0.00018676,0.0001
 9713,0.00238225,-0.04758839,0.14889894\\-0.00000301,0.00000112,-0.0000
 0150,0.00000211,0.00000421,0.00000251,-0.00000809,-0.00000135,-0.00000
 647,0.00000176,0.00000194,-0.00000884,-0.00000036,-0.00001082,0.000002
 59,0.00000385,0.00001886,-0.00000696,0.00000586,-0.00000609,0.00001505
 ,-0.00000824,0.00000101,-0.00000474,0.00001205,-0.00000522,0.00000724,
 -0.00000168,0.00000147,-0.00000287,0.00000221,-0.00000552,-0.00000233,
 -0.00000047,-0.00000138,-0.00000021,0.00000458,-0.00000449,0.00000156,
 -0.00000171,-0.00000104,-0.00000258,0.00000025,0.00000127,-0.00000139,
 0.00000160,-0.00000062,0.00000133,-0.00000263,0.00000255,0.00000194,0.
 00000267,-0.00000538,-0.00000459,-0.00000307,0.00001741,0.00000487,-0.
 00001106,-0.00000975,-0.00000150,0.00000006,0.00000051,0.00000122,0.00
 000100,-0.00000018,0.00000162,-0.00000034,0.00000081,0.00000227,-0.000
 00071,0.00000113,0.00000094,0.00000008,0.00000054,-0.00000098,0.000001
 18,0.00000134,-0.00000148,0.00000159,0.00000124,-0.00000213,-0.0000011
 8,-0.00000033,0.00000254,0.00000218,0.00000121,-0.00000458,0.00000052,
 -0.00000126,-0.00000106,-0.00000103,0.00000099,-0.00000018,0.00000127,
 -0.00000123,-0.00000141,-0.00000011,0.00000027,0.00000027,-0.00000024,
 -0.00000070,0.00000085,-0.00000122,0.00000058,-0.00000014,-0.00000094,
 0.00000131,0.00000150,-0.00000056,-0.00000004,0.00000094,-0.00000056,0
 .00000034,0.00000185,0.00000240,-0.00000470,0.00000488\\\@
 The archive entry for this job was punched.


 THE MOST INCOMPREHENSIBLE THING ABOUT THE WORLD
 IS THAT IT IS COMPREHENSIBLE. -- A. EINSTEIN
 Job cpu time:       0 days  2 hours 58 minutes 52.1 seconds.
 Elapsed time:       0 days  0 hours  5 minutes 40.2 seconds.
 File lengths (MBytes):  RWF=   1341 Int=      0 D2E=      0 Chk=     18 Scr=      2
 Normal termination of Gaussian 16 at Fri Mar  8 02:01:08 2024.
