 Entering Gaussian System, Link 0=g16
 Initial command:
 /public/software/apps/Gaussian/g16/l1.exe "/public/home/LJQ_HG/tmp/Gau-36970.inp" -scrdir="/public/home/LJQ_HG/tmp/"
 Entering Link 1 = /public/software/apps/Gaussian/g16/l1.exe PID=     36971.
  
 Copyright (c) 1988-2019, Gaussian, Inc.  All Rights Reserved.
  
 This is part of the Gaussian(R) 16 program.  It is based on
 the Gaussian(R) 09 system (copyright 2009, Gaussian, Inc.),
 the Gaussian(R) 03 system (copyright 2003, Gaussian, Inc.),
 the Gaussian(R) 98 system (copyright 1998, Gaussian, Inc.),
 the Gaussian(R) 94 system (copyright 1995, Gaussian, Inc.),
 the Gaussian 92(TM) system (copyright 1992, Gaussian, Inc.),
 the Gaussian 90(TM) system (copyright 1990, Gaussian, Inc.),
 the Gaussian 88(TM) system (copyright 1988, Gaussian, Inc.),
 the Gaussian 86(TM) system (copyright 1986, Carnegie Mellon
 University), and the Gaussian 82(TM) system (copyright 1983,
 Carnegie Mellon University). Gaussian is a federally registered
 trademark of Gaussian, Inc.
  
 This software contains proprietary and confidential information,
 including trade secrets, belonging to Gaussian, Inc.
  
 This software is provided under written license and may be
 used, copied, transmitted, or stored only in accord with that
 written license.
  
 The following legend is applicable only to US Government
 contracts under FAR:
  
                    RESTRICTED RIGHTS LEGEND
  
 Use, reproduction and disclosure by the US Government is
 subject to restrictions as set forth in subparagraphs (a)
 and (c) of the Commercial Computer Software - Restricted
 Rights clause in FAR 52.227-19.
  
 Gaussian, Inc.
 340 Quinnipiac St., Bldg. 40, Wallingford CT 06492
  
  
 ---------------------------------------------------------------
 Warning -- This program may not be used in any manner that
 competes with the business of Gaussian, Inc. or will provide
 assistance to any competitor of Gaussian, Inc.  The licensee
 of this program is prohibited from giving any competitor of
 Gaussian, Inc. access to this program.  By using this program,
 the user acknowledges that Gaussian, Inc. is engaged in the
 business of creating and licensing software in the field of
 computational chemistry and represents and warrants to the
 licensee that it is not a competitor of Gaussian, Inc. and that
 it will not use this program in any manner prohibited above.
 ---------------------------------------------------------------
  

 Cite this work as:
 Gaussian 16, Revision C.01,
 M. J. Frisch, G. W. Trucks, H. B. Schlegel, G. E. Scuseria, 
 M. A. Robb, J. R. Cheeseman, G. Scalmani, V. Barone, 
 G. A. Petersson, H. Nakatsuji, X. Li, M. Caricato, A. V. Marenich, 
 J. Bloino, B. G. Janesko, R. Gomperts, B. Mennucci, H. P. Hratchian, 
 J. V. Ortiz, A. F. Izmaylov, J. L. Sonnenberg, D. Williams-Young, 
 F. Ding, F. Lipparini, F. Egidi, J. Goings, B. Peng, A. Petrone, 
 T. Henderson, D. Ranasinghe, V. G. Zakrzewski, J. Gao, N. Rega, 
 G. Zheng, W. Liang, M. Hada, M. Ehara, K. Toyota, R. Fukuda, 
 J. Hasegawa, M. Ishida, T. Nakajima, Y. Honda, O. Kitao, H. Nakai, 
 T. Vreven, K. Throssell, J. A. Montgomery, Jr., J. E. Peralta, 
 F. Ogliaro, M. J. Bearpark, J. J. Heyd, E. N. Brothers, K. N. Kudin, 
 V. N. Staroverov, T. A. Keith, R. Kobayashi, J. Normand, 
 K. Raghavachari, A. P. Rendell, J. C. Burant, S. S. Iyengar, 
 J. Tomasi, M. Cossi, J. M. Millam, M. Klene, C. Adamo, R. Cammi, 
 J. W. Ochterski, R. L. Martin, K. Morokuma, O. Farkas, 
 J. B. Foresman, and D. J. Fox, Gaussian, Inc., Wallingford CT, 2019.
 
 ******************************************
 Gaussian 16:  ES64L-G16RevC.01  3-Jul-2019
                 7-Mar-2024 
 ******************************************
 %nprocshared=32
 Will use up to   32 processors via shared memory.
 %mem=100GB
 ------------------------------------------
 #p opt freq b3lyp/def2svpp em=gd3bj nosymm
 ------------------------------------------
 1/18=20,19=15,26=3,38=1/1,3;
 2/9=110,12=2,15=1,17=6,18=5,40=1/2;
 3/5=43,7=202,11=2,25=1,30=1,71=1,74=-5,124=41/1,2,3;
 4//1;
 5/5=2,38=5/2;
 6/7=2,8=2,9=2,10=2,28=1/1;
 7/30=1/1,2,3,16;
 1/18=20,19=15,26=3/3(2);
 2/9=110,15=1/2;
 99//99;
 2/9=110,15=1/2;
 3/5=43,7=202,11=2,25=1,30=1,71=1,74=-5,124=41/1,2,3;
 4/5=5,16=3,69=1/1;
 5/5=2,38=5/2;
 7/30=1/1,2,3,16;
 1/18=20,19=15,26=3/3(-5);
 2/9=110,15=1/2;
 6/7=2,8=2,9=2,10=2,19=2,28=1/1;
 99/9=1/99;
 Leave Link    1 at Thu Mar  7 22:59:30 2024, MaxMem= 13421772800 cpu:               1.5 elap:               0.1
 (Enter /public/software/apps/Gaussian/g16/l101.exe)
 ------------------
 $$$$Title####2????
 ------------------
 Symbolic Z-matrix:
 Charge =  2 Multiplicity = 2
 C                    -0.99035   2.75632  -1.82914 
 C                    -0.45206   2.22222  -0.48736 
 C                    -0.12844   3.37985   0.508 
 C                     0.84191   4.43267   0.01019 
 C                     0.4003    5.47194  -0.82867 
 C                     1.29249   6.45427  -1.26887 
 C                     2.6277    6.42185  -0.86017 
 C                     3.0699    5.41424  -0.00005 
 C                     2.18074   4.43096   0.44326 
 C                    -1.51709   1.36263   0.16616 
 N                    -1.24954   0.51481   1.10014 
 C                    -2.4753   -0.15068   1.52168 
 C                    -2.3308   -1.65758   1.40417 
 C                    -1.69318  -2.24571   0.29487 
 C                    -1.58503  -3.63512   0.19449 
 C                    -2.1221   -4.45242   1.19116 
 C                    -2.774    -3.88109   2.28671 
 C                    -2.88249  -2.49101   2.39234 
 C                    -3.58235   0.49242   0.6356 
 C                    -4.36815  -0.47509  -0.22695 
 C                    -3.97066  -0.77595  -1.54418 
 C                    -4.67869  -1.7176   -2.29668 
 C                    -5.78274  -2.37052  -1.7433 
 C                    -6.17973  -2.08508  -0.43475 
 C                    -5.47503  -1.14452   0.32211 
 O                    -2.86023   1.42059  -0.15788 
 C                     0.75783   1.35346  -0.77753 
 N                     0.652     0.13842  -1.1971 
 C                     1.97839  -0.43447  -1.38447 
 C                     2.12552  -1.7138   -0.58038 
 C                     1.59688  -1.82452   0.72039 
 C                     1.75958  -3.00331   1.4527 
 C                     2.46134  -4.07772   0.90213 
 C                     3.00689  -3.97241  -0.37961 
 C                     2.84462  -2.79556  -1.11696 
 C                     2.94767   0.71938  -0.99759 
 C                     3.90416   0.41367   0.13758 
 C                     3.56158   0.67788   1.47786 
 C                     4.43915   0.33591   2.51068 
 C                     5.65986  -0.27737   2.21902 
 C                     6.00429  -0.55281   0.89347 
 C                     5.13023  -0.21267  -0.14316 
 O                     2.06616   1.77462  -0.65258 
 H                    -1.8437    3.44867  -1.66428 
 H                    -0.1957    3.29095  -2.39154 
 H                    -1.34349   1.91767  -2.46866 
 H                     0.26152   2.94248   1.45478 
 H                    -1.07574   3.89471   0.78559 
 H                    -0.63544   5.52711  -1.13729 
 H                     0.94662   7.24492  -1.92212 
 H                     3.31674   7.18387  -1.20067 
 H                     4.1009    5.39834   0.32883 
 H                     2.53767   3.66981   1.12532 
 H                    -2.66134   0.12345   2.58412 
 H                    -1.28468  -1.63112  -0.49525 
 H                    -1.08547  -4.07768  -0.65753 
 H                    -2.03809  -5.52851   1.11185 
 H                    -3.19739  -4.51582   3.05428 
 H                    -3.39779  -2.06535   3.24427 
 H                    -4.28664   1.06457   1.27954 
 H                    -3.10603  -0.29711  -1.98584 
 H                    -4.36676  -1.94626  -3.30755 
 H                    -6.32763  -3.10131  -2.3267 
 H                    -7.03061  -2.59714  -0.00433 
 H                    -5.78402  -0.94555   1.3409 
 H                     2.10072  -0.65997  -2.46731 
 H                     1.06294  -0.99872   1.17058 
 H                     1.34209  -3.08272   2.44812 
 H                     2.58709  -4.98998   1.47064 
 H                     3.55787  -4.80279  -0.8018 
 H                     3.28127  -2.72776  -2.1056 
 H                     3.52756   1.03409  -1.89349 
 H                     2.61147   1.13216   1.7283 
 H                     4.1692    0.54023   3.53867 
 H                     6.33633  -0.54423   3.02063 
 H                     6.94677  -1.03531   0.6692 
 H                     5.40366  -0.44636  -1.16476 
 Cu                   -0.23335  -0.90644   0.2077 
 
 ITRead=  0  0  0  0  0  0  0  0  0  0  0  0  0  0  0  0  0  0  0  0
 ITRead=  0  0  0  0  0  0  0  0  0  0  0  0  0  0  0  0  0  0  0  0
 ITRead=  0  0  0  0  0  0  0  0  0  0  0  0  0  0  0  0  0  0  0  0
 ITRead=  0  0  0  0  0  0  0  0  0  0  0  0  0  0  0  0  0  0
 MicOpt= -1 -1 -1 -1 -1 -1 -1 -1 -1 -1 -1 -1 -1 -1 -1 -1 -1 -1 -1 -1
 MicOpt= -1 -1 -1 -1 -1 -1 -1 -1 -1 -1 -1 -1 -1 -1 -1 -1 -1 -1 -1 -1
 MicOpt= -1 -1 -1 -1 -1 -1 -1 -1 -1 -1 -1 -1 -1 -1 -1 -1 -1 -1 -1 -1
 MicOpt= -1 -1 -1 -1 -1 -1 -1 -1 -1 -1 -1 -1 -1 -1 -1 -1 -1 -1
 NAtoms=     78 NQM=       78 NQMF=       0 NMMI=      0 NMMIF=      0
                NMic=       0 NMicF=      0.
                    Isotopes and Nuclear Properties:
 (Nuclear quadrupole moments (NQMom) in fm**2, nuclear magnetic moments (NMagM)
  in nuclear magnetons)

  Atom         1           2           3           4           5           6           7           8           9          10
 IAtWgt=          12          12          12          12          12          12          12          12          12          12
 AtmWgt=  12.0000000  12.0000000  12.0000000  12.0000000  12.0000000  12.0000000  12.0000000  12.0000000  12.0000000  12.0000000
 NucSpn=           0           0           0           0           0           0           0           0           0           0
 AtZEff=  -0.0000000  -0.0000000  -0.0000000  -0.0000000  -0.0000000  -0.0000000  -0.0000000  -0.0000000  -0.0000000  -0.0000000
 NQMom=    0.0000000   0.0000000   0.0000000   0.0000000   0.0000000   0.0000000   0.0000000   0.0000000   0.0000000   0.0000000
 NMagM=    0.0000000   0.0000000   0.0000000   0.0000000   0.0000000   0.0000000   0.0000000   0.0000000   0.0000000   0.0000000
 AtZNuc=   6.0000000   6.0000000   6.0000000   6.0000000   6.0000000   6.0000000   6.0000000   6.0000000   6.0000000   6.0000000

  Atom        11          12          13          14          15          16          17          18          19          20
 IAtWgt=          14          12          12          12          12          12          12          12          12          12
 AtmWgt=  14.0030740  12.0000000  12.0000000  12.0000000  12.0000000  12.0000000  12.0000000  12.0000000  12.0000000  12.0000000
 NucSpn=           2           0           0           0           0           0           0           0           0           0
 AtZEff=  -0.0000000  -0.0000000  -0.0000000  -0.0000000  -0.0000000  -0.0000000  -0.0000000  -0.0000000  -0.0000000  -0.0000000
 NQMom=    2.0440000   0.0000000   0.0000000   0.0000000   0.0000000   0.0000000   0.0000000   0.0000000   0.0000000   0.0000000
 NMagM=    0.4037610   0.0000000   0.0000000   0.0000000   0.0000000   0.0000000   0.0000000   0.0000000   0.0000000   0.0000000
 AtZNuc=   7.0000000   6.0000000   6.0000000   6.0000000   6.0000000   6.0000000   6.0000000   6.0000000   6.0000000   6.0000000

  Atom        21          22          23          24          25          26          27          28          29          30
 IAtWgt=          12          12          12          12          12          16          12          14          12          12
 AtmWgt=  12.0000000  12.0000000  12.0000000  12.0000000  12.0000000  15.9949146  12.0000000  14.0030740  12.0000000  12.0000000
 NucSpn=           0           0           0           0           0           0           0           2           0           0
 AtZEff=  -0.0000000  -0.0000000  -0.0000000  -0.0000000  -0.0000000  -0.0000000  -0.0000000  -0.0000000  -0.0000000  -0.0000000
 NQMom=    0.0000000   0.0000000   0.0000000   0.0000000   0.0000000   0.0000000   0.0000000   2.0440000   0.0000000   0.0000000
 NMagM=    0.0000000   0.0000000   0.0000000   0.0000000   0.0000000   0.0000000   0.0000000   0.4037610   0.0000000   0.0000000
 AtZNuc=   6.0000000   6.0000000   6.0000000   6.0000000   6.0000000   8.0000000   6.0000000   7.0000000   6.0000000   6.0000000

  Atom        31          32          33          34          35          36          37          38          39          40
 IAtWgt=          12          12          12          12          12          12          12          12          12          12
 AtmWgt=  12.0000000  12.0000000  12.0000000  12.0000000  12.0000000  12.0000000  12.0000000  12.0000000  12.0000000  12.0000000
 NucSpn=           0           0           0           0           0           0           0           0           0           0
 AtZEff=  -0.0000000  -0.0000000  -0.0000000  -0.0000000  -0.0000000  -0.0000000  -0.0000000  -0.0000000  -0.0000000  -0.0000000
 NQMom=    0.0000000   0.0000000   0.0000000   0.0000000   0.0000000   0.0000000   0.0000000   0.0000000   0.0000000   0.0000000
 NMagM=    0.0000000   0.0000000   0.0000000   0.0000000   0.0000000   0.0000000   0.0000000   0.0000000   0.0000000   0.0000000
 AtZNuc=   6.0000000   6.0000000   6.0000000   6.0000000   6.0000000   6.0000000   6.0000000   6.0000000   6.0000000   6.0000000

  Atom        41          42          43          44          45          46          47          48          49          50
 IAtWgt=          12          12          16           1           1           1           1           1           1           1
 AtmWgt=  12.0000000  12.0000000  15.9949146   1.0078250   1.0078250   1.0078250   1.0078250   1.0078250   1.0078250   1.0078250
 NucSpn=           0           0           0           1           1           1           1           1           1           1
 AtZEff=  -0.0000000  -0.0000000  -0.0000000  -0.0000000  -0.0000000  -0.0000000  -0.0000000  -0.0000000  -0.0000000  -0.0000000
 NQMom=    0.0000000   0.0000000   0.0000000   0.0000000   0.0000000   0.0000000   0.0000000   0.0000000   0.0000000   0.0000000
 NMagM=    0.0000000   0.0000000   0.0000000   2.7928460   2.7928460   2.7928460   2.7928460   2.7928460   2.7928460   2.7928460
 AtZNuc=   6.0000000   6.0000000   8.0000000   1.0000000   1.0000000   1.0000000   1.0000000   1.0000000   1.0000000   1.0000000

  Atom        51          52          53          54          55          56          57          58          59          60
 IAtWgt=           1           1           1           1           1           1           1           1           1           1
 AtmWgt=   1.0078250   1.0078250   1.0078250   1.0078250   1.0078250   1.0078250   1.0078250   1.0078250   1.0078250   1.0078250
 NucSpn=           1           1           1           1           1           1           1           1           1           1
 AtZEff=  -0.0000000  -0.0000000  -0.0000000  -0.0000000  -0.0000000  -0.0000000  -0.0000000  -0.0000000  -0.0000000  -0.0000000
 NQMom=    0.0000000   0.0000000   0.0000000   0.0000000   0.0000000   0.0000000   0.0000000   0.0000000   0.0000000   0.0000000
 NMagM=    2.7928460   2.7928460   2.7928460   2.7928460   2.7928460   2.7928460   2.7928460   2.7928460   2.7928460   2.7928460
 AtZNuc=   1.0000000   1.0000000   1.0000000   1.0000000   1.0000000   1.0000000   1.0000000   1.0000000   1.0000000   1.0000000

  Atom        61          62          63          64          65          66          67          68          69          70
 IAtWgt=           1           1           1           1           1           1           1           1           1           1
 AtmWgt=   1.0078250   1.0078250   1.0078250   1.0078250   1.0078250   1.0078250   1.0078250   1.0078250   1.0078250   1.0078250
 NucSpn=           1           1           1           1           1           1           1           1           1           1
 AtZEff=  -0.0000000  -0.0000000  -0.0000000  -0.0000000  -0.0000000  -0.0000000  -0.0000000  -0.0000000  -0.0000000  -0.0000000
 NQMom=    0.0000000   0.0000000   0.0000000   0.0000000   0.0000000   0.0000000   0.0000000   0.0000000   0.0000000   0.0000000
 NMagM=    2.7928460   2.7928460   2.7928460   2.7928460   2.7928460   2.7928460   2.7928460   2.7928460   2.7928460   2.7928460
 AtZNuc=   1.0000000   1.0000000   1.0000000   1.0000000   1.0000000   1.0000000   1.0000000   1.0000000   1.0000000   1.0000000

  Atom        71          72          73          74          75          76          77          78
 IAtWgt=           1           1           1           1           1           1           1          63
 AtmWgt=   1.0078250   1.0078250   1.0078250   1.0078250   1.0078250   1.0078250   1.0078250  62.9295992
 NucSpn=           1           1           1           1           1           1           1           3
 AtZEff=  -0.0000000  -0.0000000  -0.0000000  -0.0000000  -0.0000000  -0.0000000  -0.0000000  -0.0000000
 NQMom=    0.0000000   0.0000000   0.0000000   0.0000000   0.0000000   0.0000000   0.0000000 -22.0000000
 NMagM=    2.7928460   2.7928460   2.7928460   2.7928460   2.7928460   2.7928460   2.7928460   2.2233000
 AtZNuc=   1.0000000   1.0000000   1.0000000   1.0000000   1.0000000   1.0000000   1.0000000  29.0000000
 Leave Link  101 at Thu Mar  7 22:59:31 2024, MaxMem= 13421772800 cpu:              16.5 elap:               0.5
 (Enter /public/software/apps/Gaussian/g16/l103.exe)

 GradGradGradGradGradGradGradGradGradGradGradGradGradGradGradGradGradGrad
 Berny optimization.
 Initialization pass.
                           ----------------------------
                           !    Initial Parameters    !
                           ! (Angstroms and Degrees)  !
 --------------------------                            --------------------------
 ! Name  Definition              Value          Derivative Info.                !
 --------------------------------------------------------------------------------
 ! R1    R(1,2)                  1.5412         estimate D2E/DX2                !
 ! R2    R(1,44)                 1.1112         estimate D2E/DX2                !
 ! R3    R(1,45)                 1.1107         estimate D2E/DX2                !
 ! R4    R(1,46)                 1.1122         estimate D2E/DX2                !
 ! R5    R(2,3)                  1.5606         estimate D2E/DX2                !
 ! R6    R(2,10)                 1.5167         estimate D2E/DX2                !
 ! R7    R(2,27)                 1.5175         estimate D2E/DX2                !
 ! R8    R(3,4)                  1.5159         estimate D2E/DX2                !
 ! R9    R(3,47)                 1.1134         estimate D2E/DX2                !
 ! R10   R(3,48)                 1.1133         estimate D2E/DX2                !
 ! R11   R(4,5)                  1.4067         estimate D2E/DX2                !
 ! R12   R(4,9)                  1.4071         estimate D2E/DX2                !
 ! R13   R(5,6)                  1.3981         estimate D2E/DX2                !
 ! R14   R(5,49)                 1.0821         estimate D2E/DX2                !
 ! R15   R(6,7)                  1.3967         estimate D2E/DX2                !
 ! R16   R(6,50)                 1.0823         estimate D2E/DX2                !
 ! R17   R(7,8)                  1.3966         estimate D2E/DX2                !
 ! R18   R(7,51)                 1.0823         estimate D2E/DX2                !
 ! R19   R(8,9)                  1.3979         estimate D2E/DX2                !
 ! R20   R(8,52)                 1.0823         estimate D2E/DX2                !
 ! R21   R(9,53)                 1.0826         estimate D2E/DX2                !
 ! R22   R(10,11)                1.2895         estimate D2E/DX2                !
 ! R23   R(10,26)                1.3829         estimate D2E/DX2                !
 ! R24   R(11,12)                1.4571         estimate D2E/DX2                !
 ! R25   R(11,78)                1.9619         estimate D2E/DX2                !
 ! R26   R(12,13)                1.5184         estimate D2E/DX2                !
 ! R27   R(12,19)                1.557          estimate D2E/DX2                !
 ! R28   R(12,54)                1.1129         estimate D2E/DX2                !
 ! R29   R(13,14)                1.4082         estimate D2E/DX2                !
 ! R30   R(13,18)                1.4055         estimate D2E/DX2                !
 ! R31   R(14,15)                1.3972         estimate D2E/DX2                !
 ! R32   R(14,55)                1.0812         estimate D2E/DX2                !
 ! R33   R(14,78)                1.983          estimate D2E/DX2                !
 ! R34   R(15,16)                1.3963         estimate D2E/DX2                !
 ! R35   R(15,56)                1.0823         estimate D2E/DX2                !
 ! R36   R(16,17)                1.397          estimate D2E/DX2                !
 ! R37   R(16,57)                1.0823         estimate D2E/DX2                !
 ! R38   R(17,18)                1.3983         estimate D2E/DX2                !
 ! R39   R(17,58)                1.0823         estimate D2E/DX2                !
 ! R40   R(18,59)                1.0828         estimate D2E/DX2                !
 ! R41   R(19,20)                1.5158         estimate D2E/DX2                !
 ! R42   R(19,26)                1.4186         estimate D2E/DX2                !
 ! R43   R(19,60)                1.1127         estimate D2E/DX2                !
 ! R44   R(20,21)                1.4084         estimate D2E/DX2                !
 ! R45   R(20,25)                1.4053         estimate D2E/DX2                !
 ! R46   R(21,22)                1.398          estimate D2E/DX2                !
 ! R47   R(21,61)                1.0826         estimate D2E/DX2                !
 ! R48   R(22,23)                1.397          estimate D2E/DX2                !
 ! R49   R(22,62)                1.0823         estimate D2E/DX2                !
 ! R50   R(23,24)                1.3969         estimate D2E/DX2                !
 ! R51   R(23,63)                1.0823         estimate D2E/DX2                !
 ! R52   R(24,25)                1.3979         estimate D2E/DX2                !
 ! R53   R(24,64)                1.0823         estimate D2E/DX2                !
 ! R54   R(25,65)                1.083          estimate D2E/DX2                !
 ! R55   R(27,28)                1.2898         estimate D2E/DX2                !
 ! R56   R(27,43)                1.3801         estimate D2E/DX2                !
 ! R57   R(28,29)                1.4569         estimate D2E/DX2                !
 ! R58   R(28,78)                1.9619         estimate D2E/DX2                !
 ! R59   R(29,30)                1.5182         estimate D2E/DX2                !
 ! R60   R(29,36)                1.5558         estimate D2E/DX2                !
 ! R61   R(29,66)                1.1128         estimate D2E/DX2                !
 ! R62   R(30,31)                1.4084         estimate D2E/DX2                !
 ! R63   R(30,35)                1.4054         estimate D2E/DX2                !
 ! R64   R(31,32)                1.3972         estimate D2E/DX2                !
 ! R65   R(31,67)                1.0815         estimate D2E/DX2                !
 ! R66   R(31,78)                2.1108         estimate D2E/DX2                !
 ! R67   R(32,33)                1.3964         estimate D2E/DX2                !
 ! R68   R(32,68)                1.0823         estimate D2E/DX2                !
 ! R69   R(33,34)                1.397          estimate D2E/DX2                !
 ! R70   R(33,69)                1.0822         estimate D2E/DX2                !
 ! R71   R(34,35)                1.3982         estimate D2E/DX2                !
 ! R72   R(34,70)                1.0823         estimate D2E/DX2                !
 ! R73   R(35,71)                1.0829         estimate D2E/DX2                !
 ! R74   R(36,37)                1.5156         estimate D2E/DX2                !
 ! R75   R(36,43)                1.4176         estimate D2E/DX2                !
 ! R76   R(36,72)                1.1126         estimate D2E/DX2                !
 ! R77   R(37,38)                1.4084         estimate D2E/DX2                !
 ! R78   R(37,42)                1.4051         estimate D2E/DX2                !
 ! R79   R(38,39)                1.3978         estimate D2E/DX2                !
 ! R80   R(38,73)                1.0825         estimate D2E/DX2                !
 ! R81   R(39,40)                1.3969         estimate D2E/DX2                !
 ! R82   R(39,74)                1.0823         estimate D2E/DX2                !
 ! R83   R(40,41)                1.397          estimate D2E/DX2                !
 ! R84   R(40,75)                1.0823         estimate D2E/DX2                !
 ! R85   R(41,42)                1.398          estimate D2E/DX2                !
 ! R86   R(41,76)                1.0823         estimate D2E/DX2                !
 ! R87   R(42,77)                1.0831         estimate D2E/DX2                !
 ! R88   R(55,78)                1.4576         estimate D2E/DX2                !
 ! R89   R(67,78)                1.6174         estimate D2E/DX2                !
 ! A1    A(2,1,44)             110.7919         estimate D2E/DX2                !
 ! A2    A(2,1,45)             110.9626         estimate D2E/DX2                !
 ! A3    A(2,1,46)             110.4978         estimate D2E/DX2                !
 ! A4    A(44,1,45)            108.9454         estimate D2E/DX2                !
 ! A5    A(44,1,46)            108.1365         estimate D2E/DX2                !
 ! A6    A(45,1,46)            107.3962         estimate D2E/DX2                !
 ! A7    A(1,2,3)              111.7541         estimate D2E/DX2                !
 ! A8    A(1,2,10)             109.043          estimate D2E/DX2                !
 ! A9    A(1,2,27)             108.0824         estimate D2E/DX2                !
 ! A10   A(3,2,10)             106.9304         estimate D2E/DX2                !
 ! A11   A(3,2,27)             112.4135         estimate D2E/DX2                !
 ! A12   A(10,2,27)            108.5297         estimate D2E/DX2                !
 ! A13   A(2,3,4)              116.007          estimate D2E/DX2                !
 ! A14   A(2,3,47)             108.8796         estimate D2E/DX2                !
 ! A15   A(2,3,48)             109.0029         estimate D2E/DX2                !
 ! A16   A(4,3,47)             109.1395         estimate D2E/DX2                !
 ! A17   A(4,3,48)             107.7796         estimate D2E/DX2                !
 ! A18   A(47,3,48)            105.5235         estimate D2E/DX2                !
 ! A19   A(3,4,5)              120.5308         estimate D2E/DX2                !
 ! A20   A(3,4,9)              120.474          estimate D2E/DX2                !
 ! A21   A(5,4,9)              118.8899         estimate D2E/DX2                !
 ! A22   A(4,5,6)              120.4318         estimate D2E/DX2                !
 ! A23   A(4,5,49)             120.5444         estimate D2E/DX2                !
 ! A24   A(6,5,49)             119.0226         estimate D2E/DX2                !
 ! A25   A(5,6,7)              120.1047         estimate D2E/DX2                !
 ! A26   A(5,6,50)             119.9572         estimate D2E/DX2                !
 ! A27   A(7,6,50)             119.9369         estimate D2E/DX2                !
 ! A28   A(6,7,8)              119.9751         estimate D2E/DX2                !
 ! A29   A(6,7,51)             120.0128         estimate D2E/DX2                !
 ! A30   A(8,7,51)             120.0083         estimate D2E/DX2                !
 ! A31   A(7,8,9)              120.0922         estimate D2E/DX2                !
 ! A32   A(7,8,52)             119.9571         estimate D2E/DX2                !
 ! A33   A(9,8,52)             119.9494         estimate D2E/DX2                !
 ! A34   A(4,9,8)              120.4482         estimate D2E/DX2                !
 ! A35   A(4,9,53)             120.5615         estimate D2E/DX2                !
 ! A36   A(8,9,53)             118.9903         estimate D2E/DX2                !
 ! A37   A(2,10,11)            122.6188         estimate D2E/DX2                !
 ! A38   A(2,10,26)            123.8703         estimate D2E/DX2                !
 ! A39   A(11,10,26)           113.5035         estimate D2E/DX2                !
 ! A40   A(10,11,12)           109.5911         estimate D2E/DX2                !
 ! A41   A(10,11,78)           104.7321         estimate D2E/DX2                !
 ! A42   A(12,11,78)           103.6783         estimate D2E/DX2                !
 ! A43   A(11,12,13)           110.5382         estimate D2E/DX2                !
 ! A44   A(11,12,19)           104.1726         estimate D2E/DX2                !
 ! A45   A(11,12,54)           107.7174         estimate D2E/DX2                !
 ! A46   A(13,12,19)           115.6924         estimate D2E/DX2                !
 ! A47   A(13,12,54)           109.5274         estimate D2E/DX2                !
 ! A48   A(19,12,54)           108.8256         estimate D2E/DX2                !
 ! A49   A(12,13,14)           121.2354         estimate D2E/DX2                !
 ! A50   A(12,13,18)           119.7841         estimate D2E/DX2                !
 ! A51   A(14,13,18)           118.9412         estimate D2E/DX2                !
 ! A52   A(13,14,15)           120.4613         estimate D2E/DX2                !
 ! A53   A(13,14,55)           120.621          estimate D2E/DX2                !
 ! A54   A(13,14,78)            94.9269         estimate D2E/DX2                !
 ! A55   A(15,14,55)           118.9168         estimate D2E/DX2                !
 ! A56   A(15,14,78)           127.6949         estimate D2E/DX2                !
 ! A57   A(14,15,16)           120.0658         estimate D2E/DX2                !
 ! A58   A(14,15,56)           119.928          estimate D2E/DX2                !
 ! A59   A(16,15,56)           120.0061         estimate D2E/DX2                !
 ! A60   A(15,16,17)           119.99           estimate D2E/DX2                !
 ! A61   A(15,16,57)           119.9874         estimate D2E/DX2                !
 ! A62   A(17,16,57)           120.0216         estimate D2E/DX2                !
 ! A63   A(16,17,18)           120.1332         estimate D2E/DX2                !
 ! A64   A(16,17,58)           119.9255         estimate D2E/DX2                !
 ! A65   A(18,17,58)           119.9412         estimate D2E/DX2                !
 ! A66   A(13,18,17)           120.3931         estimate D2E/DX2                !
 ! A67   A(13,18,59)           120.4535         estimate D2E/DX2                !
 ! A68   A(17,18,59)           119.1533         estimate D2E/DX2                !
 ! A69   A(12,19,20)           115.3917         estimate D2E/DX2                !
 ! A70   A(12,19,26)           103.0981         estimate D2E/DX2                !
 ! A71   A(12,19,60)           109.456          estimate D2E/DX2                !
 ! A72   A(20,19,26)           111.2979         estimate D2E/DX2                !
 ! A73   A(20,19,60)           109.2328         estimate D2E/DX2                !
 ! A74   A(26,19,60)           108.0268         estimate D2E/DX2                !
 ! A75   A(19,20,21)           121.4837         estimate D2E/DX2                !
 ! A76   A(19,20,25)           119.3449         estimate D2E/DX2                !
 ! A77   A(21,20,25)           119.0752         estimate D2E/DX2                !
 ! A78   A(20,21,22)           120.2911         estimate D2E/DX2                !
 ! A79   A(20,21,61)           120.8297         estimate D2E/DX2                !
 ! A80   A(22,21,61)           118.8718         estimate D2E/DX2                !
 ! A81   A(21,22,23)           120.124          estimate D2E/DX2                !
 ! A82   A(21,22,62)           119.9396         estimate D2E/DX2                !
 ! A83   A(23,22,62)           119.935          estimate D2E/DX2                !
 ! A84   A(22,23,24)           120.0119         estimate D2E/DX2                !
 ! A85   A(22,23,63)           119.9974         estimate D2E/DX2                !
 ! A86   A(24,23,63)           119.99           estimate D2E/DX2                !
 ! A87   A(23,24,25)           120.0927         estimate D2E/DX2                !
 ! A88   A(23,24,64)           119.9511         estimate D2E/DX2                !
 ! A89   A(25,24,64)           119.9552         estimate D2E/DX2                !
 ! A90   A(20,25,24)           120.4014         estimate D2E/DX2                !
 ! A91   A(20,25,65)           120.3135         estimate D2E/DX2                !
 ! A92   A(24,25,65)           119.2811         estimate D2E/DX2                !
 ! A93   A(10,26,19)           109.6277         estimate D2E/DX2                !
 ! A94   A(2,27,28)            122.4184         estimate D2E/DX2                !
 ! A95   A(2,27,43)            124.3198         estimate D2E/DX2                !
 ! A96   A(28,27,43)           113.2481         estimate D2E/DX2                !
 ! A97   A(27,28,29)           109.7285         estimate D2E/DX2                !
 ! A98   A(27,28,78)           107.807          estimate D2E/DX2                !
 ! A99   A(29,28,78)           107.0683         estimate D2E/DX2                !
 ! A100  A(28,29,30)           110.5769         estimate D2E/DX2                !
 ! A101  A(28,29,36)           104.0978         estimate D2E/DX2                !
 ! A102  A(28,29,66)           107.7528         estimate D2E/DX2                !
 ! A103  A(30,29,36)           115.6499         estimate D2E/DX2                !
 ! A104  A(30,29,66)           109.51           estimate D2E/DX2                !
 ! A105  A(36,29,66)           108.8906         estimate D2E/DX2                !
 ! A106  A(29,30,31)           121.2664         estimate D2E/DX2                !
 ! A107  A(29,30,35)           119.7338         estimate D2E/DX2                !
 ! A108  A(31,30,35)           118.9565         estimate D2E/DX2                !
 ! A109  A(30,31,32)           120.4413         estimate D2E/DX2                !
 ! A110  A(30,31,67)           120.6444         estimate D2E/DX2                !
 ! A111  A(30,31,78)            93.8383         estimate D2E/DX2                !
 ! A112  A(32,31,67)           118.9137         estimate D2E/DX2                !
 ! A113  A(32,31,78)           126.5275         estimate D2E/DX2                !
 ! A114  A(31,32,33)           120.0657         estimate D2E/DX2                !
 ! A115  A(31,32,68)           119.934          estimate D2E/DX2                !
 ! A116  A(33,32,68)           120.0002         estimate D2E/DX2                !
 ! A117  A(32,33,34)           119.9999         estimate D2E/DX2                !
 ! A118  A(32,33,69)           119.99           estimate D2E/DX2                !
 ! A119  A(34,33,69)           120.0092         estimate D2E/DX2                !
 ! A120  A(33,34,35)           120.1309         estimate D2E/DX2                !
 ! A121  A(33,34,70)           119.9259         estimate D2E/DX2                !
 ! A122  A(35,34,70)           119.9432         estimate D2E/DX2                !
 ! A123  A(30,35,34)           120.3899         estimate D2E/DX2                !
 ! A124  A(30,35,71)           120.4433         estimate D2E/DX2                !
 ! A125  A(34,35,71)           119.1667         estimate D2E/DX2                !
 ! A126  A(29,36,37)           115.4576         estimate D2E/DX2                !
 ! A127  A(29,36,43)           103.0134         estimate D2E/DX2                !
 ! A128  A(29,36,72)           109.527          estimate D2E/DX2                !
 ! A129  A(37,36,43)           111.1185         estimate D2E/DX2                !
 ! A130  A(37,36,72)           109.3439         estimate D2E/DX2                !
 ! A131  A(43,36,72)           108.029          estimate D2E/DX2                !
 ! A132  A(36,37,38)           121.4293         estimate D2E/DX2                !
 ! A133  A(36,37,42)           119.4034         estimate D2E/DX2                !
 ! A134  A(38,37,42)           119.078          estimate D2E/DX2                !
 ! A135  A(37,38,39)           120.3026         estimate D2E/DX2                !
 ! A136  A(37,38,73)           120.8225         estimate D2E/DX2                !
 ! A137  A(39,38,73)           118.8671         estimate D2E/DX2                !
 ! A138  A(38,39,40)           120.1177         estimate D2E/DX2                !
 ! A139  A(38,39,74)           119.9366         estimate D2E/DX2                !
 ! A140  A(40,39,74)           119.9443         estimate D2E/DX2                !
 ! A141  A(39,40,41)           120.009          estimate D2E/DX2                !
 ! A142  A(39,40,75)           119.9867         estimate D2E/DX2                !
 ! A143  A(41,40,75)           120.0033         estimate D2E/DX2                !
 ! A144  A(40,41,42)           120.0982         estimate D2E/DX2                !
 ! A145  A(40,41,76)           119.9487         estimate D2E/DX2                !
 ! A146  A(42,41,76)           119.9521         estimate D2E/DX2                !
 ! A147  A(37,42,41)           120.3893         estimate D2E/DX2                !
 ! A148  A(37,42,77)           120.3257         estimate D2E/DX2                !
 ! A149  A(41,42,77)           119.2821         estimate D2E/DX2                !
 ! A150  A(27,43,36)           109.8948         estimate D2E/DX2                !
 ! A151  A(11,78,14)            95.046          estimate D2E/DX2                !
 ! A152  A(11,78,28)            99.9999         estimate D2E/DX2                !
 ! A153  A(11,78,31)           130.8225         estimate D2E/DX2                !
 ! A154  A(11,78,55)           101.885          estimate D2E/DX2                !
 ! A155  A(11,78,67)           100.6996         estimate D2E/DX2                !
 ! A156  A(14,78,28)           136.3336         estimate D2E/DX2                !
 ! A157  A(14,78,31)           109.5049         estimate D2E/DX2                !
 ! A158  A(14,78,67)           121.6889         estimate D2E/DX2                !
 ! A159  A(28,78,31)            90.8176         estimate D2E/DX2                !
 ! A160  A(28,78,55)           104.1788         estimate D2E/DX2                !
 ! A161  A(28,78,67)            95.4504         estimate D2E/DX2                !
 ! A162  A(31,78,55)           121.7555         estimate D2E/DX2                !
 ! A163  A(55,78,67)           146.8048         estimate D2E/DX2                !
 ! D1    D(44,1,2,3)           -52.4563         estimate D2E/DX2                !
 ! D2    D(44,1,2,10)           65.5409         estimate D2E/DX2                !
 ! D3    D(44,1,2,27)         -176.6606         estimate D2E/DX2                !
 ! D4    D(45,1,2,3)            68.6996         estimate D2E/DX2                !
 ! D5    D(45,1,2,10)         -173.3032         estimate D2E/DX2                !
 ! D6    D(45,1,2,27)          -55.5048         estimate D2E/DX2                !
 ! D7    D(46,1,2,3)          -172.2858         estimate D2E/DX2                !
 ! D8    D(46,1,2,10)          -54.2886         estimate D2E/DX2                !
 ! D9    D(46,1,2,27)           63.5099         estimate D2E/DX2                !
 ! D10   D(1,2,3,4)            -56.1037         estimate D2E/DX2                !
 ! D11   D(1,2,3,47)          -179.6354         estimate D2E/DX2                !
 ! D12   D(1,2,3,48)            65.7239         estimate D2E/DX2                !
 ! D13   D(10,2,3,4)          -175.3576         estimate D2E/DX2                !
 ! D14   D(10,2,3,47)           61.1106         estimate D2E/DX2                !
 ! D15   D(10,2,3,48)          -53.5301         estimate D2E/DX2                !
 ! D16   D(27,2,3,4)            65.6371         estimate D2E/DX2                !
 ! D17   D(27,2,3,47)          -57.8946         estimate D2E/DX2                !
 ! D18   D(27,2,3,48)         -172.5353         estimate D2E/DX2                !
 ! D19   D(1,2,10,11)          161.4975         estimate D2E/DX2                !
 ! D20   D(1,2,10,26)          -19.5582         estimate D2E/DX2                !
 ! D21   D(3,2,10,11)          -77.5107         estimate D2E/DX2                !
 ! D22   D(3,2,10,26)          101.4336         estimate D2E/DX2                !
 ! D23   D(27,2,10,11)          43.9814         estimate D2E/DX2                !
 ! D24   D(27,2,10,26)        -137.0743         estimate D2E/DX2                !
 ! D25   D(1,2,27,28)          -79.0956         estimate D2E/DX2                !
 ! D26   D(1,2,27,43)           99.4688         estimate D2E/DX2                !
 ! D27   D(3,2,27,28)          157.0966         estimate D2E/DX2                !
 ! D28   D(3,2,27,43)          -24.339          estimate D2E/DX2                !
 ! D29   D(10,2,27,28)          39.0318         estimate D2E/DX2                !
 ! D30   D(10,2,27,43)        -142.4039         estimate D2E/DX2                !
 ! D31   D(2,3,4,5)             81.0705         estimate D2E/DX2                !
 ! D32   D(2,3,4,9)           -102.702          estimate D2E/DX2                !
 ! D33   D(47,3,4,5)          -155.5332         estimate D2E/DX2                !
 ! D34   D(47,3,4,9)            20.6943         estimate D2E/DX2                !
 ! D35   D(48,3,4,5)           -41.4041         estimate D2E/DX2                !
 ! D36   D(48,3,4,9)           134.8234         estimate D2E/DX2                !
 ! D37   D(3,4,5,6)            178.9499         estimate D2E/DX2                !
 ! D38   D(3,4,5,49)            -0.6295         estimate D2E/DX2                !
 ! D39   D(9,4,5,6)              2.6634         estimate D2E/DX2                !
 ! D40   D(9,4,5,49)          -176.9161         estimate D2E/DX2                !
 ! D41   D(3,4,9,8)           -179.0102         estimate D2E/DX2                !
 ! D42   D(3,4,9,53)             0.9047         estimate D2E/DX2                !
 ! D43   D(5,4,9,8)             -2.7214         estimate D2E/DX2                !
 ! D44   D(5,4,9,53)           177.1935         estimate D2E/DX2                !
 ! D45   D(4,5,6,7)             -1.0144         estimate D2E/DX2                !
 ! D46   D(4,5,6,50)           179.392          estimate D2E/DX2                !
 ! D47   D(49,5,6,7)           178.5714         estimate D2E/DX2                !
 ! D48   D(49,5,6,50)           -1.0222         estimate D2E/DX2                !
 ! D49   D(5,6,7,8)             -0.6212         estimate D2E/DX2                !
 ! D50   D(5,6,7,51)          -179.9093         estimate D2E/DX2                !
 ! D51   D(50,6,7,8)           178.9725         estimate D2E/DX2                !
 ! D52   D(50,6,7,51)           -0.3156         estimate D2E/DX2                !
 ! D53   D(6,7,8,9)              0.5637         estimate D2E/DX2                !
 ! D54   D(6,7,8,52)          -179.0403         estimate D2E/DX2                !
 ! D55   D(51,7,8,9)           179.8518         estimate D2E/DX2                !
 ! D56   D(51,7,8,52)            0.2478         estimate D2E/DX2                !
 ! D57   D(7,8,9,4)              1.1296         estimate D2E/DX2                !
 ! D58   D(7,8,9,53)          -178.7866         estimate D2E/DX2                !
 ! D59   D(52,8,9,4)          -179.2663         estimate D2E/DX2                !
 ! D60   D(52,8,9,53)            0.8175         estimate D2E/DX2                !
 ! D61   D(2,10,11,12)         179.8935         estimate D2E/DX2                !
 ! D62   D(2,10,11,78)         -69.4284         estimate D2E/DX2                !
 ! D63   D(26,10,11,12)          0.8494         estimate D2E/DX2                !
 ! D64   D(26,10,11,78)        111.5274         estimate D2E/DX2                !
 ! D65   D(2,10,26,19)        -179.9051         estimate D2E/DX2                !
 ! D66   D(11,10,26,19)         -0.8747         estimate D2E/DX2                !
 ! D67   D(10,11,12,13)        124.4124         estimate D2E/DX2                !
 ! D68   D(10,11,12,19)         -0.485          estimate D2E/DX2                !
 ! D69   D(10,11,12,54)       -115.9568         estimate D2E/DX2                !
 ! D70   D(78,11,12,13)         13.0404         estimate D2E/DX2                !
 ! D71   D(78,11,12,19)       -111.8571         estimate D2E/DX2                !
 ! D72   D(78,11,12,54)        132.6711         estimate D2E/DX2                !
 ! D73   D(10,11,78,14)       -108.1928         estimate D2E/DX2                !
 ! D74   D(10,11,78,28)         30.6545         estimate D2E/DX2                !
 ! D75   D(10,11,78,31)        130.5277         estimate D2E/DX2                !
 ! D76   D(10,11,78,55)        -76.2805         estimate D2E/DX2                !
 ! D77   D(10,11,78,67)        128.2091         estimate D2E/DX2                !
 ! D78   D(12,11,78,14)          6.6933         estimate D2E/DX2                !
 ! D79   D(12,11,78,28)        145.5406         estimate D2E/DX2                !
 ! D80   D(12,11,78,31)       -114.5862         estimate D2E/DX2                !
 ! D81   D(12,11,78,55)         38.6057         estimate D2E/DX2                !
 ! D82   D(12,11,78,67)       -116.9048         estimate D2E/DX2                !
 ! D83   D(11,12,13,14)        -41.4678         estimate D2E/DX2                !
 ! D84   D(11,12,13,18)        140.8387         estimate D2E/DX2                !
 ! D85   D(19,12,13,14)         76.5919         estimate D2E/DX2                !
 ! D86   D(19,12,13,18)       -101.1016         estimate D2E/DX2                !
 ! D87   D(54,12,13,14)       -160.0019         estimate D2E/DX2                !
 ! D88   D(54,12,13,18)         22.3046         estimate D2E/DX2                !
 ! D89   D(11,12,19,20)        121.5281         estimate D2E/DX2                !
 ! D90   D(11,12,19,26)         -0.0215         estimate D2E/DX2                !
 ! D91   D(11,12,19,60)       -114.8033         estimate D2E/DX2                !
 ! D92   D(13,12,19,20)         -0.0081         estimate D2E/DX2                !
 ! D93   D(13,12,19,26)       -121.5577         estimate D2E/DX2                !
 ! D94   D(13,12,19,60)        123.6605         estimate D2E/DX2                !
 ! D95   D(54,12,19,20)       -123.7818         estimate D2E/DX2                !
 ! D96   D(54,12,19,26)        114.6686         estimate D2E/DX2                !
 ! D97   D(54,12,19,60)         -0.1131         estimate D2E/DX2                !
 ! D98   D(12,13,14,15)       -179.1357         estimate D2E/DX2                !
 ! D99   D(12,13,14,55)          0.5078         estimate D2E/DX2                !
 ! D100  D(12,13,14,78)         41.1616         estimate D2E/DX2                !
 ! D101  D(18,13,14,15)         -1.4231         estimate D2E/DX2                !
 ! D102  D(18,13,14,55)        178.2203         estimate D2E/DX2                !
 ! D103  D(18,13,14,78)       -141.1259         estimate D2E/DX2                !
 ! D104  D(12,13,18,17)        179.0578         estimate D2E/DX2                !
 ! D105  D(12,13,18,59)         -0.8696         estimate D2E/DX2                !
 ! D106  D(14,13,18,17)          1.3113         estimate D2E/DX2                !
 ! D107  D(14,13,18,59)       -178.616          estimate D2E/DX2                !
 ! D108  D(13,14,15,16)          0.6219         estimate D2E/DX2                !
 ! D109  D(13,14,15,56)       -179.4573         estimate D2E/DX2                !
 ! D110  D(55,14,15,16)       -179.0276         estimate D2E/DX2                !
 ! D111  D(55,14,15,56)          0.8933         estimate D2E/DX2                !
 ! D112  D(78,14,15,16)        126.1004         estimate D2E/DX2                !
 ! D113  D(78,14,15,56)        -53.9787         estimate D2E/DX2                !
 ! D114  D(13,14,78,11)        -24.5153         estimate D2E/DX2                !
 ! D115  D(13,14,78,28)       -134.6959         estimate D2E/DX2                !
 ! D116  D(13,14,78,31)        112.1612         estimate D2E/DX2                !
 ! D117  D(13,14,78,67)         81.3602         estimate D2E/DX2                !
 ! D118  D(15,14,78,11)       -159.7233         estimate D2E/DX2                !
 ! D119  D(15,14,78,28)         90.0962         estimate D2E/DX2                !
 ! D120  D(15,14,78,31)        -23.0467         estimate D2E/DX2                !
 ! D121  D(15,14,78,67)        -53.8478         estimate D2E/DX2                !
 ! D122  D(14,15,16,17)          0.311          estimate D2E/DX2                !
 ! D123  D(14,15,16,57)        179.966          estimate D2E/DX2                !
 ! D124  D(56,15,16,17)       -179.6098         estimate D2E/DX2                !
 ! D125  D(56,15,16,57)          0.0452         estimate D2E/DX2                !
 ! D126  D(15,16,17,18)         -0.422          estimate D2E/DX2                !
 ! D127  D(15,16,17,58)        179.4707         estimate D2E/DX2                !
 ! D128  D(57,16,17,18)        179.9232         estimate D2E/DX2                !
 ! D129  D(57,16,17,58)         -0.1841         estimate D2E/DX2                !
 ! D130  D(16,17,18,13)         -0.4005         estimate D2E/DX2                !
 ! D131  D(16,17,18,59)        179.5277         estimate D2E/DX2                !
 ! D132  D(58,17,18,13)        179.7068         estimate D2E/DX2                !
 ! D133  D(58,17,18,59)         -0.3649         estimate D2E/DX2                !
 ! D134  D(12,19,20,21)        -91.4436         estimate D2E/DX2                !
 ! D135  D(12,19,20,25)         84.9573         estimate D2E/DX2                !
 ! D136  D(26,19,20,21)         25.5752         estimate D2E/DX2                !
 ! D137  D(26,19,20,25)       -158.0239         estimate D2E/DX2                !
 ! D138  D(60,19,20,21)        144.7704         estimate D2E/DX2                !
 ! D139  D(60,19,20,25)        -38.8287         estimate D2E/DX2                !
 ! D140  D(12,19,26,10)          0.4875         estimate D2E/DX2                !
 ! D141  D(20,19,26,10)       -123.7924         estimate D2E/DX2                !
 ! D142  D(60,19,26,10)        116.2953         estimate D2E/DX2                !
 ! D143  D(19,20,21,22)        177.0876         estimate D2E/DX2                !
 ! D144  D(19,20,21,61)         -1.9139         estimate D2E/DX2                !
 ! D145  D(25,20,21,22)          0.6772         estimate D2E/DX2                !
 ! D146  D(25,20,21,61)       -178.3243         estimate D2E/DX2                !
 ! D147  D(19,20,25,24)       -177.1795         estimate D2E/DX2                !
 ! D148  D(19,20,25,65)          2.0877         estimate D2E/DX2                !
 ! D149  D(21,20,25,24)         -0.6912         estimate D2E/DX2                !
 ! D150  D(21,20,25,65)        178.576          estimate D2E/DX2                !
 ! D151  D(20,21,22,23)         -0.2718         estimate D2E/DX2                !
 ! D152  D(20,21,22,62)       -179.8477         estimate D2E/DX2                !
 ! D153  D(61,21,22,23)        178.7492         estimate D2E/DX2                !
 ! D154  D(61,21,22,62)         -0.8267         estimate D2E/DX2                !
 ! D155  D(21,22,23,24)         -0.1292         estimate D2E/DX2                !
 ! D156  D(21,22,23,63)       -179.8199         estimate D2E/DX2                !
 ! D157  D(62,22,23,24)        179.4467         estimate D2E/DX2                !
 ! D158  D(62,22,23,63)         -0.244          estimate D2E/DX2                !
 ! D159  D(22,23,24,25)          0.1159         estimate D2E/DX2                !
 ! D160  D(22,23,24,64)       -179.5261         estimate D2E/DX2                !
 ! D161  D(63,23,24,25)        179.8067         estimate D2E/DX2                !
 ! D162  D(63,23,24,64)          0.1647         estimate D2E/DX2                !
 ! D163  D(23,24,25,20)          0.2994         estimate D2E/DX2                !
 ! D164  D(23,24,25,65)       -178.9753         estimate D2E/DX2                !
 ! D165  D(64,24,25,20)        179.9414         estimate D2E/DX2                !
 ! D166  D(64,24,25,65)          0.6667         estimate D2E/DX2                !
 ! D167  D(2,27,28,29)         179.9972         estimate D2E/DX2                !
 ! D168  D(2,27,28,78)         -63.727          estimate D2E/DX2                !
 ! D169  D(43,27,28,29)          1.2877         estimate D2E/DX2                !
 ! D170  D(43,27,28,78)        117.5634         estimate D2E/DX2                !
 ! D171  D(2,27,43,36)         179.8951         estimate D2E/DX2                !
 ! D172  D(28,27,43,36)         -1.4239         estimate D2E/DX2                !
 ! D173  D(27,28,29,30)        124.1691         estimate D2E/DX2                !
 ! D174  D(27,28,29,36)         -0.6517         estimate D2E/DX2                !
 ! D175  D(27,28,29,66)       -116.1771         estimate D2E/DX2                !
 ! D176  D(78,28,29,30)          7.4281         estimate D2E/DX2                !
 ! D177  D(78,28,29,36)       -117.3926         estimate D2E/DX2                !
 ! D178  D(78,28,29,66)        127.082          estimate D2E/DX2                !
 ! D179  D(27,28,78,11)         26.2385         estimate D2E/DX2                !
 ! D180  D(27,28,78,14)        134.544          estimate D2E/DX2                !
 ! D181  D(27,28,78,31)       -105.5503         estimate D2E/DX2                !
 ! D182  D(27,28,78,55)        131.323          estimate D2E/DX2                !
 ! D183  D(27,28,78,67)        -75.6615         estimate D2E/DX2                !
 ! D184  D(29,28,78,11)        144.2407         estimate D2E/DX2                !
 ! D185  D(29,28,78,14)       -107.4538         estimate D2E/DX2                !
 ! D186  D(29,28,78,31)         12.4519         estimate D2E/DX2                !
 ! D187  D(29,28,78,55)       -110.6748         estimate D2E/DX2                !
 ! D188  D(29,28,78,67)         42.3407         estimate D2E/DX2                !
 ! D189  D(28,29,30,31)        -40.113          estimate D2E/DX2                !
 ! D190  D(28,29,30,35)        142.3057         estimate D2E/DX2                !
 ! D191  D(36,29,30,31)         77.8492         estimate D2E/DX2                !
 ! D192  D(36,29,30,35)        -99.732          estimate D2E/DX2                !
 ! D193  D(66,29,30,31)       -158.7034         estimate D2E/DX2                !
 ! D194  D(66,29,30,35)         23.7154         estimate D2E/DX2                !
 ! D195  D(28,29,36,37)        121.1394         estimate D2E/DX2                !
 ! D196  D(28,29,36,43)         -0.1654         estimate D2E/DX2                !
 ! D197  D(28,29,36,72)       -114.9373         estimate D2E/DX2                !
 ! D198  D(30,29,36,37)         -0.3667         estimate D2E/DX2                !
 ! D199  D(30,29,36,43)       -121.6715         estimate D2E/DX2                !
 ! D200  D(30,29,36,72)        123.5566         estimate D2E/DX2                !
 ! D201  D(66,29,36,37)       -124.1387         estimate D2E/DX2                !
 ! D202  D(66,29,36,43)        114.5566         estimate D2E/DX2                !
 ! D203  D(66,29,36,72)         -0.2153         estimate D2E/DX2                !
 ! D204  D(29,30,31,32)       -179.0428         estimate D2E/DX2                !
 ! D205  D(29,30,31,67)          0.6777         estimate D2E/DX2                !
 ! D206  D(29,30,31,78)         43.9568         estimate D2E/DX2                !
 ! D207  D(35,30,31,32)         -1.4431         estimate D2E/DX2                !
 ! D208  D(35,30,31,67)        178.2774         estimate D2E/DX2                !
 ! D209  D(35,30,31,78)       -138.4435         estimate D2E/DX2                !
 ! D210  D(29,30,35,34)        178.9713         estimate D2E/DX2                !
 ! D211  D(29,30,35,71)         -0.9292         estimate D2E/DX2                !
 ! D212  D(31,30,35,34)          1.3341         estimate D2E/DX2                !
 ! D213  D(31,30,35,71)       -178.5664         estimate D2E/DX2                !
 ! D214  D(30,31,32,33)          0.6369         estimate D2E/DX2                !
 ! D215  D(30,31,32,68)       -179.4383         estimate D2E/DX2                !
 ! D216  D(67,31,32,33)       -179.0884         estimate D2E/DX2                !
 ! D217  D(67,31,32,68)          0.8364         estimate D2E/DX2                !
 ! D218  D(78,31,32,33)        122.7716         estimate D2E/DX2                !
 ! D219  D(78,31,32,68)        -57.3035         estimate D2E/DX2                !
 ! D220  D(30,31,78,11)       -132.8834         estimate D2E/DX2                !
 ! D221  D(30,31,78,14)        111.6935         estimate D2E/DX2                !
 ! D222  D(30,31,78,28)        -28.8894         estimate D2E/DX2                !
 ! D223  D(30,31,78,55)         78.3841         estimate D2E/DX2                !
 ! D224  D(32,31,78,11)         94.1464         estimate D2E/DX2                !
 ! D225  D(32,31,78,14)        -21.2767         estimate D2E/DX2                !
 ! D226  D(32,31,78,28)       -161.8596         estimate D2E/DX2                !
 ! D227  D(32,31,78,55)        -54.5861         estimate D2E/DX2                !
 ! D228  D(31,32,33,34)          0.2982         estimate D2E/DX2                !
 ! D229  D(31,32,33,69)        179.9665         estimate D2E/DX2                !
 ! D230  D(68,32,33,34)       -179.6266         estimate D2E/DX2                !
 ! D231  D(68,32,33,69)          0.0416         estimate D2E/DX2                !
 ! D232  D(32,33,34,35)         -0.4066         estimate D2E/DX2                !
 ! D233  D(32,33,34,70)        179.4738         estimate D2E/DX2                !
 ! D234  D(69,33,34,35)        179.9253         estimate D2E/DX2                !
 ! D235  D(69,33,34,70)         -0.1944         estimate D2E/DX2                !
 ! D236  D(33,34,35,30)         -0.4211         estimate D2E/DX2                !
 ! D237  D(33,34,35,71)        179.4807         estimate D2E/DX2                !
 ! D238  D(70,34,35,30)        179.6986         estimate D2E/DX2                !
 ! D239  D(70,34,35,71)         -0.3996         estimate D2E/DX2                !
 ! D240  D(29,36,37,38)        -90.0068         estimate D2E/DX2                !
 ! D241  D(29,36,37,42)         86.5242         estimate D2E/DX2                !
 ! D242  D(43,36,37,38)         26.8157         estimate D2E/DX2                !
 ! D243  D(43,36,37,42)       -156.6533         estimate D2E/DX2                !
 ! D244  D(72,36,37,38)        145.9739         estimate D2E/DX2                !
 ! D245  D(72,36,37,42)        -37.495          estimate D2E/DX2                !
 ! D246  D(29,36,43,27)          0.8812         estimate D2E/DX2                !
 ! D247  D(37,36,43,27)       -123.3271         estimate D2E/DX2                !
 ! D248  D(72,36,43,27)        116.7302         estimate D2E/DX2                !
 ! D249  D(36,37,38,39)        177.3549         estimate D2E/DX2                !
 ! D250  D(36,37,38,73)         -1.6158         estimate D2E/DX2                !
 ! D251  D(42,37,38,39)          0.8128         estimate D2E/DX2                !
 ! D252  D(42,37,38,73)       -178.1579         estimate D2E/DX2                !
 ! D253  D(36,37,42,41)       -177.4191         estimate D2E/DX2                !
 ! D254  D(36,37,42,77)          1.9496         estimate D2E/DX2                !
 ! D255  D(38,37,42,41)         -0.8059         estimate D2E/DX2                !
 ! D256  D(38,37,42,77)        178.5627         estimate D2E/DX2                !
 ! D257  D(37,38,39,40)         -0.3429         estimate D2E/DX2                !
 ! D258  D(37,38,39,74)       -179.903          estimate D2E/DX2                !
 ! D259  D(73,38,39,40)        178.6478         estimate D2E/DX2                !
 ! D260  D(73,38,39,74)         -0.9124         estimate D2E/DX2                !
 ! D261  D(38,39,40,41)         -0.145          estimate D2E/DX2                !
 ! D262  D(38,39,40,75)       -179.7972         estimate D2E/DX2                !
 ! D263  D(74,39,40,41)        179.4151         estimate D2E/DX2                !
 ! D264  D(74,39,40,75)         -0.237          estimate D2E/DX2                !
 ! D265  D(39,40,41,42)          0.1526         estimate D2E/DX2                !
 ! D266  D(39,40,41,76)       -179.502          estimate D2E/DX2                !
 ! D267  D(75,40,41,42)        179.8047         estimate D2E/DX2                !
 ! D268  D(75,40,41,76)          0.1501         estimate D2E/DX2                !
 ! D269  D(40,41,42,37)          0.329          estimate D2E/DX2                !
 ! D270  D(40,41,42,77)       -179.0463         estimate D2E/DX2                !
 ! D271  D(76,41,42,37)        179.9835         estimate D2E/DX2                !
 ! D272  D(76,41,42,77)          0.6083         estimate D2E/DX2                !
 --------------------------------------------------------------------------------
 Trust Radius=3.00D-01 FncErr=1.00D-07 GrdErr=1.00D-06 EigMax=2.50D+02 EigMin=1.00D-04
 Number of steps in this run=    468 maximum allowed number of steps=    468.
 GradGradGradGradGradGradGradGradGradGradGradGradGradGradGradGradGradGrad

 Leave Link  103 at Thu Mar  7 22:59:31 2024, MaxMem= 13421772800 cpu:               0.5 elap:               0.0
 (Enter /public/software/apps/Gaussian/g16/l202.exe)
 Symmetry turned off by external request.
 Stoichiometry    C39H34CuN2O2(2+,2)
 Framework group  C1[X(C39H34CuN2O2)]
 Deg. of freedom   228
 Full point group                 C1      NOp   1
                          Input orientation:                          
 ---------------------------------------------------------------------
 Center     Atomic      Atomic             Coordinates (Angstroms)
 Number     Number       Type             X           Y           Z
 ---------------------------------------------------------------------
      1          6           0       -0.990348    2.756324   -1.829142
      2          6           0       -0.452057    2.222223   -0.487355
      3          6           0       -0.128440    3.379847    0.507995
      4          6           0        0.841911    4.432670    0.010192
      5          6           0        0.400299    5.471943   -0.828667
      6          6           0        1.292493    6.454275   -1.268874
      7          6           0        2.627702    6.421849   -0.860173
      8          6           0        3.069904    5.414244   -0.000051
      9          6           0        2.180736    4.430961    0.443264
     10          6           0       -1.517090    1.362626    0.166157
     11          7           0       -1.249542    0.514809    1.100138
     12          6           0       -2.475299   -0.150683    1.521684
     13          6           0       -2.330799   -1.657577    1.404173
     14          6           0       -1.693178   -2.245713    0.294866
     15          6           0       -1.585028   -3.635118    0.194489
     16          6           0       -2.122100   -4.452425    1.191161
     17          6           0       -2.774002   -3.881086    2.286710
     18          6           0       -2.882488   -2.491012    2.392337
     19          6           0       -3.582353    0.492421    0.635599
     20          6           0       -4.368151   -0.475086   -0.226953
     21          6           0       -3.970664   -0.775946   -1.544183
     22          6           0       -4.678687   -1.717603   -2.296684
     23          6           0       -5.782744   -2.370521   -1.743295
     24          6           0       -6.179730   -2.085084   -0.434748
     25          6           0       -5.475033   -1.144519    0.322108
     26          8           0       -2.860233    1.420593   -0.157875
     27          6           0        0.757834    1.353461   -0.777525
     28          7           0        0.651998    0.138419   -1.197095
     29          6           0        1.978389   -0.434474   -1.384474
     30          6           0        2.125521   -1.713803   -0.580375
     31          6           0        1.596877   -1.824521    0.720386
     32          6           0        1.759578   -3.003309    1.452698
     33          6           0        2.461335   -4.077721    0.902134
     34          6           0        3.006889   -3.972410   -0.379608
     35          6           0        2.844623   -2.795560   -1.116959
     36          6           0        2.947670    0.719377   -0.997592
     37          6           0        3.904155    0.413673    0.137579
     38          6           0        3.561580    0.677875    1.477864
     39          6           0        4.439150    0.335913    2.510679
     40          6           0        5.659858   -0.277367    2.219016
     41          6           0        6.004291   -0.552805    0.893473
     42          6           0        5.130232   -0.212673   -0.143156
     43          8           0        2.066164    1.774618   -0.652582
     44          1           0       -1.843701    3.448666   -1.664284
     45          1           0       -0.195703    3.290946   -2.391540
     46          1           0       -1.343493    1.917670   -2.468656
     47          1           0        0.261517    2.942481    1.454782
     48          1           0       -1.075743    3.894713    0.785588
     49          1           0       -0.635438    5.527107   -1.137292
     50          1           0        0.946618    7.244921   -1.922119
     51          1           0        3.316744    7.183874   -1.200670
     52          1           0        4.100897    5.398338    0.328830
     53          1           0        2.537666    3.669809    1.125324
     54          1           0       -2.661344    0.123448    2.584119
     55          1           0       -1.284675   -1.631116   -0.495250
     56          1           0       -1.085474   -4.077683   -0.657530
     57          1           0       -2.038087   -5.528514    1.111852
     58          1           0       -3.197389   -4.515819    3.054276
     59          1           0       -3.397793   -2.065345    3.244267
     60          1           0       -4.286641    1.064567    1.279540
     61          1           0       -3.106028   -0.297114   -1.985839
     62          1           0       -4.366759   -1.946258   -3.307549
     63          1           0       -6.327634   -3.101308   -2.326700
     64          1           0       -7.030607   -2.597135   -0.004334
     65          1           0       -5.784015   -0.945552    1.340899
     66          1           0        2.100723   -0.659965   -2.467309
     67          1           0        1.062937   -0.998722    1.170576
     68          1           0        1.342093   -3.082718    2.448116
     69          1           0        2.587088   -4.989982    1.470643
     70          1           0        3.557866   -4.802786   -0.801797
     71          1           0        3.281270   -2.727762   -2.105599
     72          1           0        3.527557    1.034094   -1.893487
     73          1           0        2.611465    1.132163    1.728296
     74          1           0        4.169203    0.540229    3.538668
     75          1           0        6.336331   -0.544228    3.020626
     76          1           0        6.946774   -1.035307    0.669197
     77          1           0        5.403658   -0.446356   -1.164762
     78         29           0       -0.233350   -0.906439    0.207703
 ---------------------------------------------------------------------
 Rotational constants (GHZ):           0.1069976           0.0690889           0.0478895
 Leave Link  202 at Thu Mar  7 22:59:31 2024, MaxMem= 13421772800 cpu:               1.4 elap:               0.0
 (Enter /public/software/apps/Gaussian/g16/l301.exe)
 Standard basis: def2SVPP (5D, 7F)
 Ernie: Thresh=  0.10000D-02 Tol=  0.10000D-05 Strict=F.
   694 basis functions,  1282 primitive gaussians,   739 cartesian basis functions
   163 alpha electrons      162 beta electrons
       nuclear repulsion energy      6266.8934496064 Hartrees.
 IExCor=  402 DFT=T Ex+Corr=B3LYP ExCW=0 ScaHFX=  0.200000
 ScaDFX=  0.800000  0.720000  1.000000  0.810000 ScalE2=  1.000000  1.000000
 IRadAn=      5 IRanWt=     -1 IRanGd=            0 ICorTp=0 IEmpDi=141
 NAtoms=   78 NActive=   78 NUniq=   78 SFac= 1.00D+00 NAtFMM=   60 NAOKFM=T Big=T
 Integral buffers will be    131072 words long.
 Raffenetti 2 integral format.
 Two-electron integral symmetry is turned off.
 R6Disp:  Grimme-D3(BJ) Dispersion energy=       -0.2239000102 Hartrees.
 Nuclear repulsion after empirical dispersion term =     6266.6695495962 Hartrees.
 Leave Link  301 at Thu Mar  7 22:59:31 2024, MaxMem= 13421772800 cpu:               2.2 elap:               0.1
 (Enter /public/software/apps/Gaussian/g16/l302.exe)
 NPDir=0 NMtPBC=     1 NCelOv=     1 NCel=       1 NClECP=     1 NCelD=      1
         NCelK=      1 NCelE2=     1 NClLst=     1 CellRange=     0.0.
 One-electron integrals computed using PRISM.
   1 Symmetry operations used in ECPInt.
 ECPInt:  NShTT=   56616 NPrTT=  232241 LenC2=   48608 LenP2D=  124734.
 LDataN:  DoStor=T MaxTD1= 4 Len=   56
 NBasis=   694 RedAO= T EigKep=  2.22D-04  NBF=   694
 NBsUse=   694 1.00D-06 EigRej= -1.00D+00 NBFU=   694
 Precomputing XC quadrature grid using
 IXCGrd= 4 IRadAn=           5 IRanWt=          -1 IRanGd=           0 AccXCQ= 0.00D+00.
 Generated NRdTot=       0 NPtTot=           0 NUsed=           0 NTot=          32
 NSgBfM=   714   713   713   713   714 MxSgAt=    78 MxSgA2=    78.
 Leave Link  302 at Thu Mar  7 22:59:32 2024, MaxMem= 13421772800 cpu:              37.0 elap:               1.2
 (Enter /public/software/apps/Gaussian/g16/l303.exe)
 DipDrv:  MaxL=1.
 Leave Link  303 at Thu Mar  7 22:59:33 2024, MaxMem= 13421772800 cpu:               3.7 elap:               0.1
 (Enter /public/software/apps/Gaussian/g16/l401.exe)
 ExpMin= 3.30D-02 ExpMax= 7.64D+04 ExpMxC= 1.15D+04 IAcc=3 IRadAn=         5 AccDes= 0.00D+00
 Harris functional with IExCor=  402 and IRadAn=       5 diagonalized for initial guess.
 HarFok:  IExCor=  402 AccDes= 0.00D+00 IRadAn=         5 IDoV= 1 UseB2=F ITyADJ=14
 ICtDFT=  3500011 ScaDFX=  1.000000  1.000000  1.000000  1.000000
 FoFCou: FMM=F IPFlag=           0 FMFlag=      100000 FMFlg1=        2001
         NFxFlg=           0 DoJE=T BraDBF=F KetDBF=T FulRan=T
         wScrn=  0.000000 ICntrl=       500 IOpCl=  0 I1Cent=   200000004 NGrid=           0
         NMat0=    1 NMatS0=      1 NMatT0=    0 NMatD0=    1 NMtDS0=    0 NMtDT0=    0
 Symmetry not used in FoFCou.
 Harris En= -3405.38470898570    
 JPrj=0 DoOrth=F DoCkMO=F.
 Initial guess <Sx>= 0.0000 <Sy>= 0.0000 <Sz>= 0.5000 <S**2>= 0.7500 S= 0.5000
 Leave Link  401 at Thu Mar  7 22:59:35 2024, MaxMem= 13421772800 cpu:              84.9 elap:               2.7
 (Enter /public/software/apps/Gaussian/g16/l502.exe)
 Two-electron integral symmetry not used.
 UHF open shell SCF:
 Using DIIS extrapolation, IDIIS=  1040.
 NGot= 13421772800 LenX= 13420648525 LenY= 13420101665
 Requested convergence on RMS density matrix=1.00D-08 within 128 cycles.
 Requested convergence on MAX density matrix=1.00D-06.
 Requested convergence on             energy=1.00D-06.
 No special actions if energy rises.
 Fock matrices will be formed incrementally for  20 cycles.

 Cycle   1  Pass 1  IDiag  1:
 FoFJK:  IHMeth= 1 ICntrl=       0 DoSepK=F KAlg= 0 I1Cent=           0 FoldK=F
 IRaf= 990000000 NMat=       1 IRICut=       1 DoRegI=T DoRafI=F ISym2E= 0 IDoP0=0 IntGTp=1.
 FoFCou: FMM=T IPFlag=           0 FMFlag=      100000 FMFlg1=        2001
         NFxFlg=           0 DoJE=F BraDBF=F KetDBF=F FulRan=T
         wScrn=  0.000000 ICntrl=         0 IOpCl=  1 I1Cent=           0 NGrid=           0
         NMat0=    1 NMatS0=      1 NMatT0=    0 NMatD0=    1 NMtDS0=    0 NMtDT0=    0
 Symmetry not used in FoFCou.
 FMM levels:  10  Number of levels for PrismC:   9
 E= -3399.23535598686    
 DIIS: error= 9.09D-02 at cycle   1 NSaved=   1.
 NSaved= 1 IEnMin= 1 EnMin= -3399.23535598686     IErMin= 1 ErrMin= 9.09D-02
 ErrMax= 9.09D-02  0.00D+00 EMaxC= 1.00D-01 BMatC= 4.47D+01 BMatP= 4.47D+01
 IDIUse=3 WtCom= 9.10D-02 WtEn= 9.09D-01
 Coeff-Com:  0.100D+01
 Coeff-En:   0.100D+01
 Coeff:      0.100D+01
 Gap=     1.301 Goal=   None    Shift=    0.000
 Gap=     0.681 Goal=   None    Shift=    0.000
 GapD=    0.681 DampG=2.000 DampE=0.250 DampFc=0.5000 IDamp=-1.
 Damping current iteration by 5.00D-01
 RMSDP=5.63D-02 MaxDP=1.86D+01              OVMax= 9.54D-01

 Cycle   2  Pass 1  IDiag  1:
 RMSU=  2.81D-02    CP:  1.08D+00
 E= -3393.20270413357     Delta-E=        6.032651853289 Rises=F Damp=T
 DIIS: error= 4.24D-02 at cycle   2 NSaved=   2.
 NSaved= 2 IEnMin= 1 EnMin= -3399.23535598686     IErMin= 2 ErrMin= 4.24D-02
 ErrMax= 4.24D-02  0.00D+00 EMaxC= 1.00D-01 BMatC= 1.85D+01 BMatP= 4.47D+01
 IDIUse=3 WtCom= 5.76D-01 WtEn= 4.24D-01
 Coeff-Com:  0.343D+00 0.657D+00
 Coeff-En:   0.680D+00 0.320D+00
 Coeff:      0.486D+00 0.514D+00
 Gap=    -0.355 Goal=   None    Shift=    0.000
 Gap=     0.443 Goal=   None    Shift=    0.000
 RMSDP=2.87D-02 MaxDP=8.95D+00 DE= 6.03D+00 OVMax= 9.86D-01

 Cycle   3  Pass 1  IDiag  1:
 RMSU=  7.51D-03    CP:  8.75D-01  2.21D-02
 E= -3380.81726886138     Delta-E=       12.385435272183 Rises=F Damp=F
 DIIS: error= 7.88D-02 at cycle   3 NSaved=   3.
 NSaved= 3 IEnMin= 1 EnMin= -3399.23535598686     IErMin= 2 ErrMin= 4.24D-02
 ErrMax= 7.88D-02  0.00D+00 EMaxC= 1.00D-01 BMatC= 5.88D+01 BMatP= 1.85D+01
 IDIUse=2 WtCom= 0.00D+00 WtEn= 1.00D+00
 EnCoef did     5 forward-backward iterations
 Coeff-En:   0.541D+00 0.336D+00 0.122D+00
 Coeff:      0.541D+00 0.336D+00 0.122D+00
 Gap=     0.088 Goal=   None    Shift=    0.000
 Gap=     0.089 Goal=   None    Shift=    0.000
 RMSDP=8.04D-03 MaxDP=1.88D+00 DE= 1.24D+01 OVMax= 5.74D-01

 Cycle   4  Pass 1  IDiag  1:
 RMSU=  5.49D-03    CP:  8.92D-01  1.46D-01  3.72D-01
 E= -3402.57418094666     Delta-E=      -21.756912085279 Rises=F Damp=F
 DIIS: error= 4.57D-02 at cycle   4 NSaved=   4.
 NSaved= 4 IEnMin= 4 EnMin= -3402.57418094666     IErMin= 2 ErrMin= 4.24D-02
 ErrMax= 4.57D-02  0.00D+00 EMaxC= 1.00D-01 BMatC= 1.25D+01 BMatP= 1.85D+01
 IDIUse=3 WtCom= 5.43D-01 WtEn= 4.57D-01
 EnCoef did   100 forward-backward iterations
 Coeff-Com:  0.256D+00 0.275D+00 0.113D+00 0.356D+00
 Coeff-En:   0.363D+00 0.000D+00 0.289D-02 0.634D+00
 Coeff:      0.305D+00 0.150D+00 0.628D-01 0.483D+00
 Gap=     0.263 Goal=   None    Shift=    0.000
 Gap=     0.008 Goal=   None    Shift=    0.000
 RMSDP=6.23D-03 MaxDP=2.19D+00 DE=-2.18D+01 OVMax= 9.64D-01

 Cycle   5  Pass 1  IDiag  1:
 RMSU=  2.33D-03    CP:  9.05D-01 -4.65D-03  1.83D-01  3.36D-01
 E= -3404.45545840728     Delta-E=       -1.881277460619 Rises=F Damp=F
 DIIS: error= 2.81D-02 at cycle   5 NSaved=   5.
 NSaved= 5 IEnMin= 5 EnMin= -3404.45545840728     IErMin= 5 ErrMin= 2.81D-02
 ErrMax= 2.81D-02  0.00D+00 EMaxC= 1.00D-01 BMatC= 4.32D+00 BMatP= 1.25D+01
 IDIUse=3 WtCom= 7.19D-01 WtEn= 2.81D-01
 Coeff-Com: -0.628D-01 0.662D-01 0.146D-01 0.269D+00 0.713D+00
 Coeff-En:   0.000D+00 0.000D+00 0.000D+00 0.283D+00 0.717D+00
 Coeff:     -0.451D-01 0.476D-01 0.105D-01 0.273D+00 0.714D+00
 Gap=     0.357 Goal=   None    Shift=    0.000
 Gap=     0.112 Goal=   None    Shift=    0.000
 RMSDP=2.19D-03 MaxDP=3.51D-01 DE=-1.88D+00 OVMax= 5.06D-01

 Cycle   6  Pass 1  IDiag  1:
 RMSU=  1.67D-03    CP:  8.99D-01  5.87D-03  2.19D-01  5.20D-01  6.16D-01
 E= -3404.86716728811     Delta-E=       -0.411708880831 Rises=F Damp=F
 DIIS: error= 1.20D-02 at cycle   6 NSaved=   6.
 NSaved= 6 IEnMin= 6 EnMin= -3404.86716728811     IErMin= 6 ErrMin= 1.20D-02
 ErrMax= 1.20D-02  0.00D+00 EMaxC= 1.00D-01 BMatC= 1.15D+00 BMatP= 4.32D+00
 IDIUse=3 WtCom= 8.80D-01 WtEn= 1.20D-01
 Coeff-Com: -0.676D-01 0.957D-02 0.679D-02 0.744D-01 0.488D+00 0.489D+00
 Coeff-En:   0.000D+00 0.000D+00 0.000D+00 0.000D+00 0.357D+00 0.643D+00
 Coeff:     -0.595D-01 0.842D-02 0.598D-02 0.655D-01 0.473D+00 0.507D+00
 Gap=     0.264 Goal=   None    Shift=    0.000
 Gap=     0.024 Goal=   None    Shift=    0.000
 RMSDP=1.63D-03 MaxDP=1.15D-01 DE=-4.12D-01 OVMax= 9.35D-01

 Cycle   7  Pass 1  IDiag  1:
 RMSU=  9.47D-04    CP:  8.92D-01  4.99D-04  2.20D-01  4.72D-01  9.12D-01
                    CP:  3.51D-01
 E= -3405.09990906810     Delta-E=       -0.232741779982 Rises=F Damp=F
 DIIS: error= 5.83D-03 at cycle   7 NSaved=   7.
 NSaved= 7 IEnMin= 7 EnMin= -3405.09990906810     IErMin= 7 ErrMin= 5.83D-03
 ErrMax= 5.83D-03  0.00D+00 EMaxC= 1.00D-01 BMatC= 2.61D-01 BMatP= 1.15D+00
 IDIUse=3 WtCom= 9.42D-01 WtEn= 5.83D-02
 Coeff-Com: -0.143D-01-0.585D-02-0.131D-02 0.182D-02 0.109D+00 0.362D+00
 Coeff-Com:  0.548D+00
 Coeff-En:   0.000D+00 0.000D+00 0.000D+00 0.000D+00 0.000D+00 0.279D+00
 Coeff-En:   0.721D+00
 Coeff:     -0.135D-01-0.551D-02-0.123D-02 0.171D-02 0.103D+00 0.357D+00
 Coeff:      0.558D+00
 Gap=     0.185 Goal=   None    Shift=    0.000
 Gap=     0.033 Goal=   None    Shift=    0.000
 RMSDP=7.03D-04 MaxDP=2.92D-02 DE=-2.33D-01 OVMax= 2.95D-01

 Cycle   8  Pass 1  IDiag  1:
 RMSU=  5.47D-04    CP:  8.93D-01 -5.42D-04  2.13D-01  4.63D-01  8.61D-01
                    CP:  4.99D-01  6.46D-01
 E= -3405.16594791900     Delta-E=       -0.066038850902 Rises=F Damp=F
 DIIS: error= 2.04D-03 at cycle   8 NSaved=   8.
 NSaved= 8 IEnMin= 8 EnMin= -3405.16594791900     IErMin= 8 ErrMin= 2.04D-03
 ErrMax= 2.04D-03  0.00D+00 EMaxC= 1.00D-01 BMatC= 5.31D-02 BMatP= 2.61D-01
 IDIUse=3 WtCom= 9.80D-01 WtEn= 2.04D-02
 Coeff-Com:  0.121D-03-0.119D-02-0.634D-03-0.309D-02-0.122D-01 0.189D+00
 Coeff-Com:  0.313D+00 0.515D+00
 Coeff-En:   0.000D+00 0.000D+00 0.000D+00 0.000D+00 0.000D+00 0.360D-01
 Coeff-En:   0.000D+00 0.964D+00
 Coeff:      0.118D-03-0.116D-02-0.621D-03-0.302D-02-0.119D-01 0.186D+00
 Coeff:      0.307D+00 0.524D+00
 Gap=     0.173 Goal=   None    Shift=    0.000
 Gap=     0.005 Goal=   None    Shift=    0.000
 RMSDP=4.46D-04 MaxDP=4.87D-02 DE=-6.60D-02 OVMax= 2.89D-01

 Cycle   9  Pass 1  IDiag  1:
 RMSU=  3.76D-04    CP:  8.93D-01  1.42D-04  2.16D-01  4.76D-01  8.31D-01
                    CP:  6.00D-01  5.78D-01  7.82D-01
 E= -3405.17265465949     Delta-E=       -0.006706740489 Rises=F Damp=F
 DIIS: error= 1.54D-03 at cycle   9 NSaved=   9.
 NSaved= 9 IEnMin= 9 EnMin= -3405.17265465949     IErMin= 9 ErrMin= 1.54D-03
 ErrMax= 1.54D-03  0.00D+00 EMaxC= 1.00D-01 BMatC= 2.18D-02 BMatP= 5.31D-02
 IDIUse=3 WtCom= 9.85D-01 WtEn= 1.54D-02
 Coeff-Com:  0.217D-02-0.124D-03 0.187D-03-0.725D-02-0.141D-01 0.858D-01
 Coeff-Com:  0.161D+00 0.369D+00 0.403D+00
 Coeff-En:   0.000D+00 0.000D+00 0.000D+00 0.000D+00 0.000D+00 0.000D+00
 Coeff-En:   0.000D+00 0.370D+00 0.630D+00
 Coeff:      0.213D-02-0.122D-03 0.185D-03-0.714D-02-0.138D-01 0.845D-01
 Coeff:      0.159D+00 0.369D+00 0.406D+00
 Gap=     0.171 Goal=   None    Shift=    0.000
 Gap=     0.014 Goal=   None    Shift=    0.000
 RMSDP=3.24D-04 MaxDP=2.73D-02 DE=-6.71D-03 OVMax= 2.95D-01

 Cycle  10  Pass 1  IDiag  1:
 RMSU=  1.30D-04    CP:  8.94D-01 -1.86D-04  2.15D-01  4.68D-01  8.43D-01
                    CP:  5.46D-01  7.16D-01  8.30D-01  3.50D-01
 E= -3405.17695587147     Delta-E=       -0.004301211982 Rises=F Damp=F
 DIIS: error= 1.26D-03 at cycle  10 NSaved=  10.
 NSaved=10 IEnMin=10 EnMin= -3405.17695587147     IErMin=10 ErrMin= 1.26D-03
 ErrMax= 1.26D-03  0.00D+00 EMaxC= 1.00D-01 BMatC= 5.72D-03 BMatP= 2.18D-02
 IDIUse=3 WtCom= 9.87D-01 WtEn= 1.26D-02
 Coeff-Com:  0.173D-02 0.653D-03-0.128D-03-0.412D-02-0.741D-02 0.140D-01
 Coeff-Com:  0.109D-01 0.195D+00 0.355D+00 0.435D+00
 Coeff-En:   0.000D+00 0.000D+00 0.000D+00 0.000D+00 0.000D+00 0.000D+00
[...]
 .00000987,-0.00001290,-0.00002723,0.00000370,-0.00000620,-0.00000025,0
 .00000038,0.00000170,0.00000224,-0.00000432,-0.00000625,0.00000151,-0.
 00001301,0.00000427,-0.00000546,0.00001949,0.00004721,0.00000997,0.000
 03994,0.00010431,0.00007611,0.00122880,-0.00043541,0.00005840,-0.00027
 767,0.00065470,0.00112152,-0.01349469,0.00777575,0.05846200,0.00000688
 ,-0.00000711,-0.00000960,0.00004404,0.00004144,-0.00001695,0.00002905,
 0.00001999,0.00008777,-0.00010471,-0.00004427,-0.00000864,-0.00001317,
 0.00007133,-0.00005632,-0.00013850,-0.00002970,-0.00000969,0.00007864,
 0.00002160,0.00000647,0.00000768,-0.00005067,0.00003552,0.00016353,0.0
 0000119,0.00002485,0.00001504,-0.00008412,0.00005585,-0.00000776,0.000
 03401,-0.00001518,0.00000449,0.00000609,-0.00000998,-0.00000594,0.0000
 0217,0.00000151,0.00000665,0.00000514,-0.00000851,0.00000362,0.0000010
 6,-0.00000067,0.00000318,-0.00000386,-0.00000665,-0.00000232,0.0000033
 8,0.00000787,-0.00000142,0.00000305,0.00000073,0.00000359,-0.00000335,
 0.00000238,0.00001362,0.00000843,0.00000187,-0.00000137,-0.00000423,-0
 .00001062,0.00001378,0.00001140,-0.00000046,-0.00000858,-0.00000588,0.
 00000165,-0.00000084,-0.00000038,0.00000648,-0.00001318,-0.00001060,0.
 00000313,-0.00001230,0.00002941,-0.00001690,-0.00010363,-0.00040377,0.
 00009761,0.00014519,0.00020375,-0.00009955,-0.00044256,0.00001774,-0.0
 0027451,0.00006477,-0.00004907,0.00009854,0.00010921,0.00000597,0.0000
 7800,-0.00002526,0.00012908,-0.00003831,0.00003572,-0.00004788,-0.0001
 4566,0.00001996,-0.00015058,0.00010849,0.00004241,0.00011923,-0.000010
 84,-0.00058964,-0.00125034,0.00207833,-0.00735665,0.00599481,0.0254486
 3,-0.00399732,0.00333714,-0.00157741,-0.00053468,-0.00012475,-0.000628
 96,-0.00076672,0.00238602,-0.00312937,0.01119382,-0.00388118,-0.016339
 29,-0.10494934,0.03271775,0.10148422,0.00112393,-0.00001345,-0.0002173
 9,0.00000236,-0.00000256,0.00000116,-0.00000507,0.00000600,-0.00000577
 ,-0.00000483,0.00000217,-0.00000209,0.00001445,-0.00000323,-0.00004130
 ,-0.00000991,0.00000886,-0.00003105,0.00000397,0.00000300,0.00000022,0
 .00000033,0.00000123,0.00000176,0.00000110,0.00000123,-0.00000298,-0.0
 0000157,-0.00000002,0.00000205,-0.00000883,-0.00002646,-0.00000036,0.0
 0000797,0.00000169,-0.00000051,-0.00000154,0.00000060,0.00000085,-0.00
 000360,-0.00000235,-0.00000121,-0.00000175,-0.00000123,0.00000059,-0.0
 0000072,-0.00000008,0.00000013,0.00000081,-0.00000081,0.00000018,-0.00
 000138,0.00000112,-0.00000043,-0.00000113,0.00000094,0.00000033,-0.000
 00126,-0.00000059,-0.00000051,-0.00000051,0.00000046,0.,0.00000032,0.0
 0000040,-0.00000020,-0.00000084,0.00000065,-0.00000111,-0.00006955,-0.
 00005112,-0.00004468,0.00001172,0.00005104,-0.00003069,-0.00000053,0.0
 0000844,-0.00000283,0.00000466,-0.00000256,-0.00000854,0.00000144,0.00
 000370,-0.00000082,-0.00002828,-0.00004017,-0.00005081,-0.00037698,0.0
 0037026,-0.00074411,-0.00041594,0.00052516,0.00125680,-0.00005259,-0.0
 0032179,0.00007362,0.00035601,-0.00024339,-0.00072700,0.00037476,-0.00
 151299,0.00055406,0.10628518,-0.00001619,0.00002563,0.00001072,-0.0000
 1270,-0.00001881,-0.00005156,0.00002013,0.00003712,-0.00000894,-0.0001
 2981,-0.00005556,0.00000709,-0.00002851,0.00008840,-0.00006194,-0.0001
 8749,-0.00005058,-0.00000900,0.00010690,0.00000379,0.00002823,0.000040
 77,-0.00005932,0.00006130,0.00017382,0.00004152,0.00000840,0.00000551,
 -0.00002607,0.00001117,0.00001832,0.00005030,0.00003531,0.00000051,-0.
 00000293,-0.00000998,0.00000012,-0.00000597,-0.00001235,-0.00001341,0.
 00000006,-0.00000013,0.00000220,0.00001350,-0.00000230,-0.00000016,0.0
 0000054,0.00000745,0.00000065,-0.00000166,0.00000179,0.00000084,-0.000
 00310,0.00000109,0.00000276,0.00000158,-0.00000291,0.00000254,0.000000
 61,0.00000013,0.00000005,0.00000074,-0.00000340,0.00000416,0.00000370,
 -0.00000039,-0.00000228,-0.00000177,0.00000065,-0.00000039,0.00000040,
 0.00000335,-0.00000466,-0.00000363,0.00000014,-0.00002008,0.00000751,-
 0.00000622,-0.00000312,-0.00008706,0.00003294,-0.00007943,-0.00002609,
 0.00004916,-0.00008943,0.00008362,-0.00037085,-0.00010145,0.00006915,0
 .00006489,0.00015001,-0.00001643,-0.00002102,-0.00000850,0.00004347,0.
 00000484,0.00001132,-0.00002925,-0.00005920,0.00001878,-0.00007059,0.0
 0005864,0.00006008,-0.00001679,0.00001171,-0.00172923,-0.00282627,-0.0
 0106455,0.00442831,0.00097876,-0.00928313,0.00369747,0.00497603,0.0000
 0416,-0.00014478,-0.00070533,0.00031751,0.00240643,0.00635893,0.000145
 33,-0.00126767,0.00533702,0.00353922,0.03224874,-0.05445250,-0.0559995
 1,0.00024422,-0.00003061,0.00030477,-0.00000398,-0.00000001,-0.0000046
 4,0.00000433,-0.00000745,-0.00000700,0.00000489,0.00000166,0.00000445,
 0.00001121,0.00000386,0.00000155,-0.00000060,0.00000720,-0.00000771,0.
 00000659,0.00000025,-0.00000101,-0.00000098,-0.00000196,-0.00000025,0.
 00000425,-0.00000499,-0.00000226,-0.00000827,-0.00001730,-0.00001353,0
 .00001257,0.00000964,-0.00001052,0.00000196,0.00000043,0.00000142,0.00
 000370,0.00000012,0.00000267,-0.00000258,-0.00000011,-0.00000151,-0.00
 000173,-0.00000084,0.00000062,-0.00000085,0.00000013,-0.00000009,-0.00
 000062,-0.00000039,0.00000063,-0.00000138,0.,-0.00000016,-0.00000014,-
 0.00000097,-0.00000006,0.00000022,0.00000029,0.00000017,-0.00000024,0.
 00000020,-0.00000010,0.,0.00000017,0.,-0.00000023,-0.00000002,-0.00000
 018,-0.00010609,-0.00006715,-0.00000984,-0.00001028,-0.00004003,-0.000
 01291,-0.00000228,-0.00000161,-0.00000045,-0.00000391,-0.00000171,-0.0
 0000264,-0.00000974,-0.00000958,-0.00000150,-0.00004130,0.00000385,-0.
 00003358,-0.00012038,0.00009418,0.00082402,0.00031345,0.00049758,-0.00
 050744,-0.00034366,-0.00087795,0.00008929,-0.00011284,-0.00004343,0.00
 020068,-0.00155282,-0.00363715,0.00028923,-0.03773160,0.04449437,0.000
 00019,0.00000538,-0.00000496,-0.00000915,-0.00001642,-0.00000077,-0.00
 000036,0.00001574,-0.00001161,-0.00001257,-0.00000938,0.00000136,-0.00
 000388,0.00000324,-0.00000049,-0.00001154,-0.00000407,-0.00000007,0.00
 000710,-0.00000328,0.00000502,0.00001615,-0.00000381,0.00000453,0.0000
 0298,0.00001295,-0.00000910,-0.00002063,0.00001450,-0.00001603,-0.0000
 0025,-0.00001551,0.00000627,-0.00000572,0.00000271,-0.00000019,-0.0000
 0149,0.00000615,0.00001220,0.00001049,0.00000158,-0.00000601,-0.000001
 86,-0.00001057,0.00000108,0.00000191,-0.00000159,-0.00001133,-0.000001
 95,0.00000480,0.00000389,0.00000049,0.00000309,0.00000141,-0.00000466,
 -0.00000520,0.00000210,0.00000407,0.00000086,-0.00000101,0.00000070,-0
 .00000054,-0.00000167,0.00000334,0.00000285,-0.00000108,-0.00000254,-0
 .00000116,0.00000117,-0.00000034,-0.00000079,0.00000048,-0.00000262,-0
 .00000256,0.00000295,0.00001393,-0.00000091,0.00000173,-0.00019346,-0.
 00002717,-0.00001671,-0.00000656,0.00006653,0.00002334,0.00012258,-0.0
 0010624,0.00025990,-0.00000773,-0.00007634,-0.00007583,-0.00007023,0.0
 0002305,-0.00005772,0.00001446,-0.00006878,0.00000802,-0.00002264,0.00
 003428,0.00006468,-0.00000654,0.00007720,-0.00006085,-0.00006367,-0.00
 001304,0.00003103,-0.00104905,0.00069266,0.00023677,-0.00113989,0.0007
 3028,0.00230847,-0.00026913,-0.00024519,0.00135684,-0.00071507,0.00037
 051,0.00031597,-0.00401577,0.00053396,-0.00258824,0.01292337,-0.006875
 55,-0.01816744,0.10064259,-0.05660604,-0.27412270,0.00009178,-0.000213
 93,0.00010479,0.00000018,0.00000049,-0.00000057,-0.00000025,0.00000120
 ,-0.00000143,-0.00000020,0.00000019,0.00000139,0.00000163,-0.00000389,
 0.00000556,-0.00000036,-0.00000207,0.00000111,0.00000069,-0.00000034,-
 0.00000015,-0.00000012,-0.00000071,-0.00000055,0.00000129,-0.00000157,
 0.00000153,-0.00000004,-0.00000303,-0.00000576,0.00000316,0.00001134,0
 .00000293,-0.00000036,-0.00000013,0.00000046,-0.00000130,-0.00000062,-
 0.00000150,0.00000225,0.00000030,0.00000148,0.00000100,0.00000045,-0.0
 0000061,-0.00000038,-0.00000045,-0.00000004,-0.00000078,-0.00000023,0.
 00000010,-0.00000043,0.00000092,-0.00000055,-0.00000027,0.00000003,-0.
 00000105,-0.00000012,-0.00000028,0.00000023,0.00000013,0.00000016,0.00
 000004,0.00000013,0.00000017,-0.00000006,-0.00000081,0.00000013,-0.000
 00015,0.00004201,0.00006118,0.00002083,-0.00000237,-0.00002265,0.00001
 819,-0.00000033,-0.00000447,0.00000046,0.00000408,0.00000344,0.0000022
 3,0.00000665,0.00000533,0.00000276,0.00002962,0.00001393,0.00002851,0.
 00018522,0.00002526,0.00045112,-0.00025558,-0.00001375,0.00007930,0.00
 008346,0.00004948,-0.00005062,0.00069431,-0.00024898,-0.00081465,0.000
 22962,0.00039540,0.00110407,-0.10728325,0.06146328,0.28955632,-0.00128
 601,0.00023034,0.00099253,-0.00036295,-0.00099426,-0.00136989,-0.00096
 688,0.00052481,0.00168761,0.00019689,-0.00027885,-0.00020027,-0.000064
 41,0.00019657,-0.00032210,-0.00017059,-0.00000270,0.00006248,-0.000185
 75,0.00012170,-0.00012246,-0.00017352,-0.00021319,0.00040199,0.0002568
 1,-0.00019188,0.00005799,-0.00216072,0.01468723,-0.00880192,-0.0256545
 8,0.01817809,0.01693328,-0.00676170,0.00776016,0.00426222,-0.00751070,
 0.00147261,0.00559016,-0.00128169,-0.00130329,0.00206658,-0.00005421,-
 0.00550103,0.00011550,0.00053615,0.00069259,-0.00414557,-0.00075924,0.
 00234354,0.00091698,-0.00003453,-0.00104556,0.00068809,-0.00268145,0.0
 0015705,0.00070258,-0.00057036,-0.00058072,-0.00059448,0.00079085,0.00
 017315,0.00120653,-0.00067399,-0.00098183,-0.00030718,0.00030960,0.000
 18590,-0.00001583,0.00001973,-0.00033351,-0.00069611,0.00110690,0.0006
 8527,0.00046070,0.00430833,-0.00301024,0.00297171,0.00126067,-0.013959
 29,-0.00070904,-0.02255438,-0.01013077,0.02150836,-0.00490555,-0.00571
 300,0.00699262,-0.00719563,-0.00026418,0.00620992,0.00074147,0.0018482
 8,0.00237920,-0.00077748,0.00514720,-0.00247762,0.00079617,-0.00226157
 ,-0.00300319,-0.00038046,-0.00154712,0.00127997,-0.00004986,0.00046283
 ,-0.00022521,-0.00235872,-0.00061742,0.00044909,-0.00008832,0.00009350
 ,-0.00043413,0.00055369,0.00052927,0.00060813,-0.00014246,0.00023792,-
 0.00042701,-0.00007953,0.00007017,0.00012985,-0.00002540,0.00004346,-0
 .00048341,0.00037632,0.00010864,0.00045444,0.00265554,0.00420559,0.001
 09689,-0.00000534,0.00032394,-0.00041142,0.00014158,-0.00019703,0.0002
 1175,0.00026972,-0.00005827,-0.00003096,0.00018274,0.00000863,-0.00012
 759,0.00008664,0.00045465,0.00009877,-0.00001509,0.00002306,-0.0000543
 7,-0.00000947,0.00000647,0.00003219,0.00001154,-0.00003255,-0.00007360
 ,-0.00003001,-0.00005594,0.00001257,0.00001282,-0.00009058,-0.00025489
 ,-0.00022576,-0.00027301,-0.00027087,-0.00879775,-0.00164076,-0.004628
 16,0.00041999,0.00020435,0.00024214,0.00012244,0.00011738,-0.00020710,
 0.00010409,0.00003849,0.00007492,0.00021064,0.00006026,-0.00021905,0.0
 0009899,0.00012773,-0.00007577,0.00001437,0.00022174,-0.00028131,-0.00
 001441,0.00006711,0.00001219,0.00000003,0.00004563,-0.00000324,-0.0000
 7193,0.00004918,-0.00000934,-0.00022217,0.00009667,0.00008155,-0.00034
 301,0.00016374,-0.00031036,-0.00929528,-0.00223796,-0.00513741,0.00041
 399,-0.00000020,0.00029313,0.00015634,-0.00018240,-0.00014351,0.000100
 78,0.00003193,0.00007296,0.00022428,-0.00013590,-0.00018527,0.00001556
 ,-0.00011034,-0.00002754,0.00007330,-0.00042686,-0.00017162,0.00000900
 ,-0.00006786,0.00003525,0.00000743,-0.00004377,0.00000841,-0.00002707,
 -0.00005666,0.00001420,-0.00013121,-0.00011202,0.00004471,0.09251422,-
 0.00015254,0.00105876,0.00150000,0.00018821,0.00053669,-0.00100055,0.0
 0081745,-0.00056516,-0.00131534,-0.00586635,-0.00245552,0.00079359,-0.
 00043205,0.00358206,-0.00238557,-0.00703389,-0.00187465,-0.00034640,0.
 00431722,0.00070488,0.00060126,0.00082435,-0.00289575,0.00199358,0.007
 37334,0.00193393,0.00044912,0.01098049,-0.02292244,0.00924661,0.027664
 76,-0.03332168,-0.01319206,0.00499338,0.00261611,-0.00525962,-0.004099
 69,0.00168722,0.00476588,0.00091616,-0.00056228,-0.00098400,-0.0005488
 2,-0.00355335,0.00022229,-0.00019473,-0.00072780,0.00205155,0.00046915
 ,-0.00255847,-0.00194548,0.00001304,0.00220403,-0.00275613,0.00197205,
 0.00210669,-0.00060420,0.00055197,-0.00005200,0.00051357,-0.00009653,-
 0.00000839,-0.00081287,0.00040387,0.00047130,0.00010346,-0.00039626,-0
 .00032602,-0.00014163,-0.00010829,0.00005730,0.00055756,-0.00072949,-0
 .00091412,-0.00045112,-0.01144793,0.00356911,-0.00196913,-0.01013050,-
 0.02269926,0.00619502,-0.01885702,-0.02535366,0.02213266,-0.00359847,0
 .00413083,0.00227709,0.00202638,0.00019230,-0.00383116,0.00039584,0.00
 087724,0.00342322,0.00077872,-0.00212919,0.00042551,0.00030242,-0.0011
 6738,-0.00131454,0.00002996,-0.00086007,0.00156397,-0.00004321,0.00065
 990,0.00066509,-0.00148311,0.00120220,-0.00048329,0.00039407,-0.000515
 05,-0.00018136,-0.00019877,0.00050511,0.00039674,0.00037305,0.00005481
 ,-0.00004794,-0.00011937,0.00007901,0.00038164,0.00009366,-0.00000692,
 -0.00037780,0.00014662,-0.00007483,0.00045804,0.00946854,0.00497580,-0
 .00079994,-0.00029851,-0.00003839,-0.00042162,0.00003081,-0.00026090,-
 0.00067426,0.00016514,0.00007516,0.00025677,0.00019992,0.00023033,-0.0
 0041719,0.00010407,0.00046937,-0.00028874,0.00043994,-0.00015675,0.000
 03444,0.00003638,-0.00000650,0.00001015,0.00005990,0.00001805,-0.00005
 650,-0.00014226,-0.00000353,-0.00009601,-0.00022757,0.00011106,-0.0002
 7547,-0.00064146,-0.00039250,0.00060885,-0.00219792,0.00075339,-0.0006
 8340,-0.00024344,-0.00019413,-0.00019433,0.00023415,0.00009115,0.00001
 365,0.00005218,-0.00014164,-0.00003428,-0.00000332,0.00011653,-0.00021
 216,-0.00039480,0.00002488,-0.00029816,-0.00004821,-0.00013923,0.00038
 194,0.00003263,-0.00004997,-0.00001707,-0.00002914,-0.00002580,-0.0000
 0550,-0.00003271,-0.00002714,-0.00004043,0.00005220,0.00006574,-0.0000
 0765,0.00098794,-0.00043667,-0.00046202,-0.00078871,-0.00010583,-0.001
 43784,0.00028205,0.00008254,0.00017204,-0.00017205,-0.00004308,-0.0000
 8056,-0.00001729,-0.00005834,0.00006154,0.00000311,0.00011790,0.000071
 25,0.00021939,0.00021688,0.00016808,-0.00004497,-0.00059858,-0.0002009
 2,-0.00003481,-0.00007220,0.00003846,0.00002532,-0.00003671,0.00001377
 ,0.00003066,-0.00002335,0.00003579,-0.00005201,-0.00003336,-0.00002374
 ,-0.00754431,0.09281034,0.00086782,-0.00021567,-0.00070291,-0.00040893
 ,0.00018760,0.00073822,0.00044349,-0.00007141,-0.00004263,0.00148634,0
 .00083657,-0.00022257,0.00020134,-0.00107139,0.00066936,0.00191131,0.0
 0053159,0.00006092,-0.00107019,-0.00020014,-0.00012543,-0.00015417,0.0
 0085674,-0.00063418,-0.00205417,-0.00041961,-0.00014723,-0.00427865,-0
 .00170960,0.00461617,0.01610998,-0.01154416,-0.01162261,0.00513772,-0.
 00362384,-0.00208158,-0.00038263,0.00017036,0.00014100,0.00578572,0.00
 086137,0.00541082,-0.00044881,-0.00074316,-0.00084517,0.00006053,-0.00
 032668,0.00063392,0.00082086,-0.00188194,-0.00170935,0.00028148,0.0039
 8534,-0.00377003,0.00010501,0.00052196,-0.00010551,-0.00021367,0.00006
 146,-0.00013007,0.00003876,-0.00015165,0.00067563,-0.00015620,-0.00045
 446,-0.00012933,0.00002702,-0.00001872,0.00003038,0.00002764,-0.000038
 36,-0.00038227,0.00041278,0.00034432,-0.00018228,-0.00248454,0.0026209
 2,-0.00161486,-0.00043600,0.01507311,0.00079802,0.02618187,0.02072493,
 -0.02886552,0.00681709,0.00093738,-0.00499875,-0.00147169,-0.00044038,
 0.00184121,0.00525462,0.00308860,0.00390824,-0.00105627,0.00094554,-0.
 00147832,-0.00028162,0.00108524,0.00115209,0.00063801,0.00159198,-0.00
 317977,0.00095721,-0.00526520,-0.00209822,0.00115041,-0.00125051,0.000
 44074,-0.00013312,0.00007347,0.00014173,-0.00022711,0.00007583,0.00010
 331,-0.00016976,0.00011976,-0.00013082,-0.00007408,0.00004955,-0.00012
 009,0.00002779,-0.00006393,-0.00015148,0.00026838,-0.00005135,-0.00034
 461,-0.00690374,-0.00607775,0.00058511,0.00008844,-0.00021086,0.000274
 94,-0.00011677,0.00017662,-0.00001830,-0.00025805,-0.00000198,-0.00022
 026,-0.00027201,-0.00008953,0.00000749,-0.00008422,-0.00041733,-0.0000
 4206,-0.00012458,0.00003895,0.00001978,-0.00000606,0.00001699,0.000000
 89,-0.00001631,-0.00000022,0.00002550,0.00004999,0.00001972,0.00002499
 ,0.00005976,-0.00002432,0.00014899,0.00047499,0.00011011,-0.00012303,-
 0.00407845,0.00075908,-0.00310741,0.00004468,-0.00037311,-0.00005135,0
 .00004532,0.00008562,-0.00007650,0.00000851,-0.00012358,0.00000014,-0.
 00000694,0.00004331,-0.00009778,0.00001573,-0.00002124,0.00000816,-0.0
 0000842,0.00028484,-0.00001637,-0.00006545,0.00000936,-0.00008096,0.00
 000373,0.00000827,-0.00000534,-0.00001798,-0.00000014,-0.00001740,0.00
 006620,0.00000220,-0.00002358,0.00003923,0.00012588,0.00012804,-0.0039
 4177,-0.00310692,-0.00220564,-0.00010639,0.00031696,-0.00028122,0.0001
 7861,-0.00009631,0.00000252,0.00001206,0.00013584,-0.00008594,0.000010
 30,-0.00016009,-0.00011269,-0.00012366,-0.00009784,-0.00009990,-0.0000
 0480,-0.00005927,0.00022827,-0.00003988,-0.00002112,-0.00010268,0.0000
 0205,0.00001168,-0.00000721,-0.00002437,-0.00000589,-0.00003752,0.0000
 9002,-0.00000324,-0.00000113,-0.04450136,-0.01645620,0.04981330\\0.000
 00176,-0.00000291,0.00000363,-0.00000498,-0.00001097,-0.00000720,0.000
 00156,0.00000782,0.00000571,0.00000170,-0.00000086,0.00000135,-0.00000
 098,0.00000014,0.00000081,0.00000283,0.00000155,-0.00000035,-0.0000023
 5,0.00000035,-0.00000040,0.00000126,0.00000087,-0.00000063,-0.00000132
 ,-0.00000132,0.00000020,-0.00001436,0.00001294,-0.00000970,0.00001750,
 -0.00000481,-0.00000106,-0.00001675,-0.00000519,0.00000176,0.00000427,
 0.00000937,-0.00002094,-0.00001155,0.00001145,0.00000567,0.00000466,-0
 .00000643,0.00000200,0.00000179,-0.00000050,-0.00000775,-0.00000233,0.
 00000840,0.00000471,-0.00000108,-0.00001014,0.00000733,-0.00000894,-0.
 00001703,0.00001559,0.00000690,0.00000271,-0.00001032,-0.00000038,0.00
 000298,0.00000650,-0.00000433,-0.00000467,-0.00000239,0.00000227,0.000
 00113,-0.00000302,-0.00000030,0.00000044,0.00000216,-0.00000370,-0.000
 00281,0.00000283,0.00001726,0.00000669,-0.00000573,0.00000739,0.000010
 97,-0.00000015,-0.00001589,0.00000147,0.00000104,0.00001311,-0.0000007
 5,0.00000315,-0.00000559,0.00000324,0.00001080,0.00001125,0.00001273,-
 0.00000857,-0.00000585,-0.00000506,0.00000245,-0.00000165,0.00000061,0
 .00000428,0.00000053,0.00000292,-0.00000412,0.00000133,-0.00000618,-0.
 00000291,0.00001041,-0.00000876,-0.00000694,-0.00001326,0.00000312,0.0
 0001229,-0.00000173,0.00000218,-0.00000760,0.00000650,-0.00000274,0.00
 000401,-0.00000399,0.00000141,0.00000365,-0.00000023,-0.00000072,-0.00
 000417,0.00000507,-0.00000553,-0.00000188,-0.00000910,-0.00000176,0.00
 000045,-0.00000016,0.00000064,-0.00000071,-0.00000066,0.00000107,-0.00
 000013,-0.00000043,-0.00000080,-0.00000028,-0.00000089,-0.00000045,0.0
 0000014,0.00000057,0.00000055,-0.00000018,0.00000086,-0.00000014,-0.00
 000002,0.00000031,-0.00000076,0.00000042,-0.00000033,-0.00000073,0.000
 00042,-0.00000090,0.00000011,0.,-0.00000038,0.00000081,0.00000022,0.00
 000148,-0.00000002,-0.00000022,0.00002385,0.00000763,0.00001372,-0.000
 00004,0.00000191,0.00000026,-0.00000061,0.00000060,0.00000147,0.000000
 52,-0.00000081,-0.00000143,-0.00000016,0.00000048,-0.00000137,0.000000
 76,0.00000300,-0.00000134,-0.00000015,-0.00000030,-0.00000073,0.000000
 51,0.00000052,0.00000076,0.00000067,0.00000032,0.00000046,0.00000083,0
 .00000036,-0.00000081,0.00000017,0.00000028,-0.00000149,-0.00000044,0.
 00000085,-0.00000070,0.00000182,-0.00000050,-0.00000228,0.00000029,0.0
 0000138,-0.00000073,0.00000044,0.00000034,-0.00000119,-0.00000034,0.00
 000016,0.00000131,0.00000015,0.00000041,0.00000108,-0.00000100,0.00000
 384,-0.00000022,0.00000214,-0.00000012,0.00000017,-0.00000033,0.000000
 37,-0.00000110,-0.00000048,-0.00000018,-0.00000059,-0.00000074,0.00000
 052,0.00000069,-0.00000006,0.00000087,0.00000096,-0.00001598,-0.000028
 53,-0.00000309\\\@
 The archive entry for this job was punched.


 TO DRY ONE'S EYES AND LAUGH AT A FALL
 AND BAFFLED, GET UP AND BEGIN AGAIN.
           R. BROWNING
 Job cpu time:       1 days 22 hours 44 minutes  4.4 seconds.
 Elapsed time:       0 days  1 hours 28 minutes  0.2 seconds.
 File lengths (MBytes):  RWF=   8306 Int=      0 D2E=      0 Chk=     59 Scr=      2
 Normal termination of Gaussian 16 at Fri Mar  8 02:10:59 2024.
