 Entering Gaussian System, Link 0=g16
 Initial command:
 /public/software/apps/Gaussian/g16/l1.exe "/public/home/LJQ_HG/tmp/Gau-126982.inp" -scrdir="/public/home/LJQ_HG/tmp/"
 Entering Link 1 = /public/software/apps/Gaussian/g16/l1.exe PID=    126984.
  
 Copyright (c) 1988-2019, Gaussian, Inc.  All Rights Reserved.
  
 This is part of the Gaussian(R) 16 program.  It is based on
 the Gaussian(R) 09 system (copyright 2009, Gaussian, Inc.),
 the Gaussian(R) 03 system (copyright 2003, Gaussian, Inc.),
 the Gaussian(R) 98 system (copyright 1998, Gaussian, Inc.),
 the Gaussian(R) 94 system (copyright 1995, Gaussian, Inc.),
 the Gaussian 92(TM) system (copyright 1992, Gaussian, Inc.),
 the Gaussian 90(TM) system (copyright 1990, Gaussian, Inc.),
 the Gaussian 88(TM) system (copyright 1988, Gaussian, Inc.),
 the Gaussian 86(TM) system (copyright 1986, Carnegie Mellon
 University), and the Gaussian 82(TM) system (copyright 1983,
 Carnegie Mellon University). Gaussian is a federally registered
 trademark of Gaussian, Inc.
  
 This software contains proprietary and confidential information,
 including trade secrets, belonging to Gaussian, Inc.
  
 This software is provided under written license and may be
 used, copied, transmitted, or stored only in accord with that
 written license.
  
 The following legend is applicable only to US Government
 contracts under FAR:
  
                    RESTRICTED RIGHTS LEGEND
  
 Use, reproduction and disclosure by the US Government is
 subject to restrictions as set forth in subparagraphs (a)
 and (c) of the Commercial Computer Software - Restricted
 Rights clause in FAR 52.227-19.
  
 Gaussian, Inc.
 340 Quinnipiac St., Bldg. 40, Wallingford CT 06492
  
  
 ---------------------------------------------------------------
 Warning -- This program may not be used in any manner that
 competes with the business of Gaussian, Inc. or will provide
 assistance to any competitor of Gaussian, Inc.  The licensee
 of this program is prohibited from giving any competitor of
 Gaussian, Inc. access to this program.  By using this program,
 the user acknowledges that Gaussian, Inc. is engaged in the
 business of creating and licensing software in the field of
 computational chemistry and represents and warrants to the
 licensee that it is not a competitor of Gaussian, Inc. and that
 it will not use this program in any manner prohibited above.
 ---------------------------------------------------------------
  

 Cite this work as:
 Gaussian 16, Revision C.01,
 M. J. Frisch, G. W. Trucks, H. B. Schlegel, G. E. Scuseria, 
 M. A. Robb, J. R. Cheeseman, G. Scalmani, V. Barone, 
 G. A. Petersson, H. Nakatsuji, X. Li, M. Caricato, A. V. Marenich, 
 J. Bloino, B. G. Janesko, R. Gomperts, B. Mennucci, H. P. Hratchian, 
 J. V. Ortiz, A. F. Izmaylov, J. L. Sonnenberg, D. Williams-Young, 
 F. Ding, F. Lipparini, F. Egidi, J. Goings, B. Peng, A. Petrone, 
 T. Henderson, D. Ranasinghe, V. G. Zakrzewski, J. Gao, N. Rega, 
 G. Zheng, W. Liang, M. Hada, M. Ehara, K. Toyota, R. Fukuda, 
 J. Hasegawa, M. Ishida, T. Nakajima, Y. Honda, O. Kitao, H. Nakai, 
 T. Vreven, K. Throssell, J. A. Montgomery, Jr., J. E. Peralta, 
 F. Ogliaro, M. J. Bearpark, J. J. Heyd, E. N. Brothers, K. N. Kudin, 
 V. N. Staroverov, T. A. Keith, R. Kobayashi, J. Normand, 
 K. Raghavachari, A. P. Rendell, J. C. Burant, S. S. Iyengar, 
 J. Tomasi, M. Cossi, J. M. Millam, M. Klene, C. Adamo, R. Cammi, 
 J. W. Ochterski, R. L. Martin, K. Morokuma, O. Farkas, 
 J. B. Foresman, and D. J. Fox, Gaussian, Inc., Wallingford CT, 2019.
 
 ******************************************
 Gaussian 16:  ES64L-G16RevC.01  3-Jul-2019
                 7-Mar-2024 
 ******************************************
 %nprocshared=32
 Will use up to   32 processors via shared memory.
 %mem=100GB
 ------------------------------------------
 #p opt freq b3lyp/def2svpp em=gd3bj nosymm
 ------------------------------------------
 1/18=20,19=15,26=3,38=1/1,3;
 2/9=110,12=2,15=1,17=6,18=5,40=1/2;
 3/5=43,7=202,11=2,25=1,30=1,71=1,74=-5,124=41/1,2,3;
 4//1;
 5/5=2,38=5/2;
 6/7=2,8=2,9=2,10=2,28=1/1;
 7/30=1/1,2,3,16;
 1/18=20,19=15,26=3/3(2);
 2/9=110,15=1/2;
 99//99;
 2/9=110,15=1/2;
 3/5=43,7=202,11=2,25=1,30=1,71=1,74=-5,124=41/1,2,3;
 4/5=5,16=3,69=1/1;
 5/5=2,38=5/2;
 7/30=1/1,2,3,16;
 1/18=20,19=15,26=3/3(-5);
 2/9=110,15=1/2;
 6/7=2,8=2,9=2,10=2,19=2,28=1/1;
 99/9=1/99;
 Leave Link    1 at Thu Mar  7 23:02:12 2024, MaxMem= 13421772800 cpu:               1.6 elap:               0.1
 (Enter /public/software/apps/Gaussian/g16/l101.exe)
 ------------------
 $$$$Title####2????
 ------------------
 Symbolic Z-matrix:
 Charge =  2 Multiplicity = 2
 C                    -4.76074  -1.89228   1.73575 
 C                    -5.17387  -0.71722   2.36944 
 C                    -4.22687   0.21154   2.8124 
 C                    -2.85557  -0.03008   2.62316 
 C                    -1.82592   0.98632   3.06121 
 C                    -1.37863   1.92947   1.92367 
 C                    -2.46622   2.94382   1.50168 
 O                    -2.70324   2.63155   0.14265 
 C                    -1.87117   1.59951  -0.23339 
 C                    -1.88132   0.9835   -1.56301 
 C                    -2.22969   1.62837  -2.75481 
 C                    -1.90322   1.00339  -3.97635 
 C                    -1.18222  -0.20877  -3.98994 
 C                    -0.88366  -0.81937  -2.76387 
 C                     0.21171  -1.77066  -2.50655 
 C                     1.13993  -2.23254  -3.44934 
 C                     2.38876  -2.69408  -2.98806 
 C                     2.72695  -2.59343  -1.62355 
 C                     1.76598  -2.10635  -0.72935 
 C                     2.07799  -1.54429   0.58959 
 N                     1.35932  -0.59342   1.11795 
 C                     2.04201  -0.13901   2.32869 
 C                     2.56462   1.30656   2.15514 
 C                     3.26393   1.53338   0.83303 
 C                     2.51547   1.83809  -0.31846 
 C                     3.15      1.98596  -1.55502 
 C                     4.53595   1.8395   -1.65208 
 C                     5.28934   1.5467   -0.51207 
 C                     4.65806   1.39342   0.72644 
 C                     3.18832  -1.15431   2.53251 
 O                     3.18646  -1.89688   1.32949 
 N                     0.55412  -1.80038  -1.19875 
 N                    -1.30256  -0.21701  -1.63012 
 N                    -1.07504   1.17853   0.7073 
 C                    -2.44911  -1.21914   1.99133 
 C                    -3.39923  -2.14334   1.54784 
 H                    -5.49548  -2.60873   1.39161 
 H                    -6.22879  -0.52518   2.51655 
 H                    -4.56384   1.11562   3.3033 
 H                    -2.21642   1.58994   3.90956 
 H                    -0.93579   0.44903   3.45019 
 H                    -0.47829   2.48801   2.24961 
 H                    -2.08606   3.98492   1.58145 
 H                    -3.40673   2.8486    2.08189 
 H                    -2.68697   2.60939  -2.74449 
 H                    -2.1366    1.49823  -4.90999 
 H                    -0.82221  -0.61662  -4.92478 
 H                     0.93833  -2.18066  -4.51081 
 H                     3.12828  -3.03895  -3.69889 
 H                     3.73292  -2.81756  -1.29221 
 H                     1.34403  -0.17982   3.19145 
 H                     1.71437   2.01068   2.2339 
 H                     3.24483   1.55939   2.9977 
 H                     1.44013   1.94719  -0.26069 
 H                     2.56633   2.21101  -2.43841 
 H                     5.02637   1.95374  -2.61021 
 H                     6.36316   1.43501  -0.58865 
 H                     5.25659   1.16454   1.59873 
 H                     2.95511  -1.83288   3.38106 
 H                     4.18064  -0.6864    2.69784 
 H                    -1.39747  -1.42491   1.83421 
 H                    -3.07954  -3.05321   1.05642 
 Cu                   -0.28025  -0.49831   0.0062 
 
 ITRead=  0  0  0  0  0  0  0  0  0  0  0  0  0  0  0  0  0  0  0  0
 ITRead=  0  0  0  0  0  0  0  0  0  0  0  0  0  0  0  0  0  0  0  0
 ITRead=  0  0  0  0  0  0  0  0  0  0  0  0  0  0  0  0  0  0  0  0
 ITRead=  0  0  0
 MicOpt= -1 -1 -1 -1 -1 -1 -1 -1 -1 -1 -1 -1 -1 -1 -1 -1 -1 -1 -1 -1
 MicOpt= -1 -1 -1 -1 -1 -1 -1 -1 -1 -1 -1 -1 -1 -1 -1 -1 -1 -1 -1 -1
 MicOpt= -1 -1 -1 -1 -1 -1 -1 -1 -1 -1 -1 -1 -1 -1 -1 -1 -1 -1 -1 -1
 MicOpt= -1 -1 -1
 NAtoms=     63 NQM=       63 NQMF=       0 NMMI=      0 NMMIF=      0
                NMic=       0 NMicF=      0.
                    Isotopes and Nuclear Properties:
 (Nuclear quadrupole moments (NQMom) in fm**2, nuclear magnetic moments (NMagM)
  in nuclear magnetons)

  Atom         1           2           3           4           5           6           7           8           9          10
 IAtWgt=          12          12          12          12          12          12          12          16          12          12
 AtmWgt=  12.0000000  12.0000000  12.0000000  12.0000000  12.0000000  12.0000000  12.0000000  15.9949146  12.0000000  12.0000000
 NucSpn=           0           0           0           0           0           0           0           0           0           0
 AtZEff=  -0.0000000  -0.0000000  -0.0000000  -0.0000000  -0.0000000  -0.0000000  -0.0000000  -0.0000000  -0.0000000  -0.0000000
 NQMom=    0.0000000   0.0000000   0.0000000   0.0000000   0.0000000   0.0000000   0.0000000   0.0000000   0.0000000   0.0000000
 NMagM=    0.0000000   0.0000000   0.0000000   0.0000000   0.0000000   0.0000000   0.0000000   0.0000000   0.0000000   0.0000000
 AtZNuc=   6.0000000   6.0000000   6.0000000   6.0000000   6.0000000   6.0000000   6.0000000   8.0000000   6.0000000   6.0000000

  Atom        11          12          13          14          15          16          17          18          19          20
 IAtWgt=          12          12          12          12          12          12          12          12          12          12
 AtmWgt=  12.0000000  12.0000000  12.0000000  12.0000000  12.0000000  12.0000000  12.0000000  12.0000000  12.0000000  12.0000000
 NucSpn=           0           0           0           0           0           0           0           0           0           0
 AtZEff=  -0.0000000  -0.0000000  -0.0000000  -0.0000000  -0.0000000  -0.0000000  -0.0000000  -0.0000000  -0.0000000  -0.0000000
 NQMom=    0.0000000   0.0000000   0.0000000   0.0000000   0.0000000   0.0000000   0.0000000   0.0000000   0.0000000   0.0000000
 NMagM=    0.0000000   0.0000000   0.0000000   0.0000000   0.0000000   0.0000000   0.0000000   0.0000000   0.0000000   0.0000000
 AtZNuc=   6.0000000   6.0000000   6.0000000   6.0000000   6.0000000   6.0000000   6.0000000   6.0000000   6.0000000   6.0000000

  Atom        21          22          23          24          25          26          27          28          29          30
 IAtWgt=          14          12          12          12          12          12          12          12          12          12
 AtmWgt=  14.0030740  12.0000000  12.0000000  12.0000000  12.0000000  12.0000000  12.0000000  12.0000000  12.0000000  12.0000000
 NucSpn=           2           0           0           0           0           0           0           0           0           0
 AtZEff=  -0.0000000  -0.0000000  -0.0000000  -0.0000000  -0.0000000  -0.0000000  -0.0000000  -0.0000000  -0.0000000  -0.0000000
 NQMom=    2.0440000   0.0000000   0.0000000   0.0000000   0.0000000   0.0000000   0.0000000   0.0000000   0.0000000   0.0000000
 NMagM=    0.4037610   0.0000000   0.0000000   0.0000000   0.0000000   0.0000000   0.0000000   0.0000000   0.0000000   0.0000000
 AtZNuc=   7.0000000   6.0000000   6.0000000   6.0000000   6.0000000   6.0000000   6.0000000   6.0000000   6.0000000   6.0000000

  Atom        31          32          33          34          35          36          37          38          39          40
 IAtWgt=          16          14          14          14          12          12           1           1           1           1
 AtmWgt=  15.9949146  14.0030740  14.0030740  14.0030740  12.0000000  12.0000000   1.0078250   1.0078250   1.0078250   1.0078250
 NucSpn=           0           2           2           2           0           0           1           1           1           1
 AtZEff=  -0.0000000  -0.0000000  -0.0000000  -0.0000000  -0.0000000  -0.0000000  -0.0000000  -0.0000000  -0.0000000  -0.0000000
 NQMom=    0.0000000   2.0440000   2.0440000   2.0440000   0.0000000   0.0000000   0.0000000   0.0000000   0.0000000   0.0000000
 NMagM=    0.0000000   0.4037610   0.4037610   0.4037610   0.0000000   0.0000000   2.7928460   2.7928460   2.7928460   2.7928460
 AtZNuc=   8.0000000   7.0000000   7.0000000   7.0000000   6.0000000   6.0000000   1.0000000   1.0000000   1.0000000   1.0000000

  Atom        41          42          43          44          45          46          47          48          49          50
 IAtWgt=           1           1           1           1           1           1           1           1           1           1
 AtmWgt=   1.0078250   1.0078250   1.0078250   1.0078250   1.0078250   1.0078250   1.0078250   1.0078250   1.0078250   1.0078250
 NucSpn=           1           1           1           1           1           1           1           1           1           1
 AtZEff=  -0.0000000  -0.0000000  -0.0000000  -0.0000000  -0.0000000  -0.0000000  -0.0000000  -0.0000000  -0.0000000  -0.0000000
 NQMom=    0.0000000   0.0000000   0.0000000   0.0000000   0.0000000   0.0000000   0.0000000   0.0000000   0.0000000   0.0000000
 NMagM=    2.7928460   2.7928460   2.7928460   2.7928460   2.7928460   2.7928460   2.7928460   2.7928460   2.7928460   2.7928460
 AtZNuc=   1.0000000   1.0000000   1.0000000   1.0000000   1.0000000   1.0000000   1.0000000   1.0000000   1.0000000   1.0000000

  Atom        51          52          53          54          55          56          57          58          59          60
 IAtWgt=           1           1           1           1           1           1           1           1           1           1
 AtmWgt=   1.0078250   1.0078250   1.0078250   1.0078250   1.0078250   1.0078250   1.0078250   1.0078250   1.0078250   1.0078250
 NucSpn=           1           1           1           1           1           1           1           1           1           1
 AtZEff=  -0.0000000  -0.0000000  -0.0000000  -0.0000000  -0.0000000  -0.0000000  -0.0000000  -0.0000000  -0.0000000  -0.0000000
 NQMom=    0.0000000   0.0000000   0.0000000   0.0000000   0.0000000   0.0000000   0.0000000   0.0000000   0.0000000   0.0000000
 NMagM=    2.7928460   2.7928460   2.7928460   2.7928460   2.7928460   2.7928460   2.7928460   2.7928460   2.7928460   2.7928460
 AtZNuc=   1.0000000   1.0000000   1.0000000   1.0000000   1.0000000   1.0000000   1.0000000   1.0000000   1.0000000   1.0000000

  Atom        61          62          63
 IAtWgt=           1           1          63
 AtmWgt=   1.0078250   1.0078250  62.9295992
 NucSpn=           1           1           3
 AtZEff=  -0.0000000  -0.0000000  -0.0000000
 NQMom=    0.0000000   0.0000000 -22.0000000
 NMagM=    2.7928460   2.7928460   2.2233000
 AtZNuc=   1.0000000   1.0000000  29.0000000
 Leave Link  101 at Thu Mar  7 23:02:12 2024, MaxMem= 13421772800 cpu:               3.1 elap:               0.1
 (Enter /public/software/apps/Gaussian/g16/l103.exe)

 GradGradGradGradGradGradGradGradGradGradGradGradGradGradGradGradGradGrad
 Berny optimization.
 Initialization pass.
                           ----------------------------
                           !    Initial Parameters    !
                           ! (Angstroms and Degrees)  !
 --------------------------                            --------------------------
 ! Name  Definition              Value          Derivative Info.                !
 --------------------------------------------------------------------------------
 ! R1    R(1,2)                  1.3975         estimate D2E/DX2                !
 ! R2    R(1,36)                 1.3972         estimate D2E/DX2                !
 ! R3    R(1,37)                 1.0824         estimate D2E/DX2                !
 ! R4    R(2,3)                  1.3984         estimate D2E/DX2                !
 ! R5    R(2,38)                 1.0823         estimate D2E/DX2                !
 ! R6    R(3,4)                  1.4052         estimate D2E/DX2                !
 ! R7    R(3,39)                 1.0825         estimate D2E/DX2                !
 ! R8    R(4,5)                  1.5117         estimate D2E/DX2                !
 ! R9    R(4,35)                 1.4065         estimate D2E/DX2                !
 ! R10   R(5,6)                  1.5439         estimate D2E/DX2                !
 ! R11   R(5,40)                 1.112          estimate D2E/DX2                !
 ! R12   R(5,41)                 1.1101         estimate D2E/DX2                !
 ! R13   R(6,7)                  1.5459         estimate D2E/DX2                !
 ! R14   R(6,34)                 1.4614         estimate D2E/DX2                !
 ! R15   R(6,42)                 1.1085         estimate D2E/DX2                !
 ! R16   R(7,8)                  1.4144         estimate D2E/DX2                !
 ! R17   R(7,43)                 1.1112         estimate D2E/DX2                !
 ! R18   R(7,44)                 1.1092         estimate D2E/DX2                !
 ! R19   R(8,9)                  1.378          estimate D2E/DX2                !
 ! R20   R(9,10)                 1.4654         estimate D2E/DX2                !
 ! R21   R(9,34)                 1.3023         estimate D2E/DX2                !
 ! R22   R(10,11)                1.3991         estimate D2E/DX2                !
 ! R23   R(10,33)                1.3344         estimate D2E/DX2                !
 ! R24   R(11,12)                1.4104         estimate D2E/DX2                !
 ! R25   R(11,45)                1.0824         estimate D2E/DX2                !
 ! R26   R(12,13)                1.4104         estimate D2E/DX2                !
 ! R27   R(12,46)                1.0821         estimate D2E/DX2                !
 ! R28   R(13,14)                1.4019         estimate D2E/DX2                !
 ! R29   R(13,47)                1.0816         estimate D2E/DX2                !
 ! R30   R(14,15)                1.4734         estimate D2E/DX2                !
 ! R31   R(14,33)                1.3505         estimate D2E/DX2                !
 ! R32   R(15,16)                1.4013         estimate D2E/DX2                !
 ! R33   R(15,32)                1.3522         estimate D2E/DX2                !
 ! R34   R(16,17)                1.409          estimate D2E/DX2                !
 ! R35   R(16,48)                1.0817         estimate D2E/DX2                !
 ! R36   R(17,18)                1.4094         estimate D2E/DX2                !
 ! R37   R(17,49)                1.0822         estimate D2E/DX2                !
 ! R38   R(18,19)                1.4001         estimate D2E/DX2                !
 ! R39   R(18,50)                1.0826         estimate D2E/DX2                !
 ! R40   R(19,20)                1.4673         estimate D2E/DX2                !
 ! R41   R(19,32)                1.3351         estimate D2E/DX2                !
 ! R42   R(20,21)                1.3038         estimate D2E/DX2                !
 ! R43   R(20,31)                1.3786         estimate D2E/DX2                !
 ! R44   R(21,22)                1.4623         estimate D2E/DX2                !
 ! R45   R(21,63)                1.9832         estimate D2E/DX2                !
 ! R46   R(22,23)                1.5469         estimate D2E/DX2                !
 ! R47   R(22,30)                1.5448         estimate D2E/DX2                !
 ! R48   R(22,51)                1.1105         estimate D2E/DX2                !
 ! R49   R(23,24)                1.5128         estimate D2E/DX2                !
 ! R50   R(23,52)                1.1068         estimate D2E/DX2                !
 ! R51   R(23,53)                1.112          estimate D2E/DX2                !
 ! R52   R(24,25)                1.4068         estimate D2E/DX2                !
 ! R53   R(24,29)                1.4052         estimate D2E/DX2                !
 ! R54   R(25,26)                1.3977         estimate D2E/DX2                !
 ! R55   R(25,54)                1.0824         estimate D2E/DX2                !
 ! R56   R(26,27)                1.397          estimate D2E/DX2                !
 ! R57   R(26,55)                1.0825         estimate D2E/DX2                !
 ! R58   R(27,28)                1.3975         estimate D2E/DX2                !
 ! R59   R(27,56)                1.0824         estimate D2E/DX2                !
 ! R60   R(28,29)                1.3985         estimate D2E/DX2                !
 ! R61   R(28,57)                1.0823         estimate D2E/DX2                !
 ! R62   R(29,58)                1.0824         estimate D2E/DX2                !
 ! R63   R(30,31)                1.4137         estimate D2E/DX2                !
 ! R64   R(30,59)                1.1113         estimate D2E/DX2                !
 ! R65   R(30,60)                1.1095         estimate D2E/DX2                !
 ! R66   R(32,63)                1.9605         estimate D2E/DX2                !
 ! R67   R(33,63)                1.9498         estimate D2E/DX2                !
 ! R68   R(34,63)                1.9837         estimate D2E/DX2                !
 ! R69   R(35,36)                1.3977         estimate D2E/DX2                !
 ! R70   R(35,61)                1.083          estimate D2E/DX2                !
 ! R71   R(36,62)                1.0824         estimate D2E/DX2                !
 ! A1    A(2,1,36)             120.0104         estimate D2E/DX2                !
 ! A2    A(2,1,37)             120.0034         estimate D2E/DX2                !
 ! A3    A(36,1,37)            119.9861         estimate D2E/DX2                !
 ! A4    A(1,2,3)              120.1237         estimate D2E/DX2                !
 ! A5    A(1,2,38)             119.9321         estimate D2E/DX2                !
 ! A6    A(3,2,38)             119.9442         estimate D2E/DX2                !
 ! A7    A(2,3,4)              120.2641         estimate D2E/DX2                !
 ! A8    A(2,3,39)             119.1762         estimate D2E/DX2                !
 ! A9    A(4,3,39)             120.5597         estimate D2E/DX2                !
 ! A10   A(3,4,5)              120.6678         estimate D2E/DX2                !
 ! A11   A(3,4,35)             119.2003         estimate D2E/DX2                !
 ! A12   A(5,4,35)             120.116          estimate D2E/DX2                !
 ! A13   A(4,5,6)              113.2392         estimate D2E/DX2                !
 ! A14   A(4,5,40)             110.2952         estimate D2E/DX2                !
 ! A15   A(4,5,41)             108.8007         estimate D2E/DX2                !
 ! A16   A(6,5,40)             109.4047         estimate D2E/DX2                !
 ! A17   A(6,5,41)             108.7562         estimate D2E/DX2                !
 ! A18   A(40,5,41)            106.081          estimate D2E/DX2                !
 ! A19   A(5,6,7)              113.4622         estimate D2E/DX2                !
 ! A20   A(5,6,34)             111.0725         estimate D2E/DX2                !
 ! A21   A(5,6,42)             109.0545         estimate D2E/DX2                !
 ! A22   A(7,6,34)             104.8394         estimate D2E/DX2                !
 ! A23   A(7,6,42)             108.7271         estimate D2E/DX2                !
 ! A24   A(34,6,42)            109.5674         estimate D2E/DX2                !
 ! A25   A(6,7,8)              103.61           estimate D2E/DX2                !
 ! A26   A(6,7,43)             110.7614         estimate D2E/DX2                !
 ! A27   A(6,7,44)             113.4176         estimate D2E/DX2                !
 ! A28   A(8,7,43)             109.4597         estimate D2E/DX2                !
 ! A29   A(8,7,44)             109.9722         estimate D2E/DX2                !
 ! A30   A(43,7,44)            109.4488         estimate D2E/DX2                !
 ! A31   A(7,8,9)              109.0481         estimate D2E/DX2                !
 ! A32   A(8,9,10)             123.9349         estimate D2E/DX2                !
 ! A33   A(8,9,34)             114.4644         estimate D2E/DX2                !
 ! A34   A(10,9,34)            121.5837         estimate D2E/DX2                !
 ! A35   A(9,10,11)            125.51           estimate D2E/DX2                !
 ! A36   A(9,10,33)            114.8854         estimate D2E/DX2                !
 ! A37   A(11,10,33)           118.6725         estimate D2E/DX2                !
 ! A38   A(10,11,12)           118.4153         estimate D2E/DX2                !
 ! A39   A(10,11,45)           120.984          estimate D2E/DX2                !
 ! A40   A(12,11,45)           120.5072         estimate D2E/DX2                !
 ! A41   A(11,12,13)           120.4964         estimate D2E/DX2                !
 ! A42   A(11,12,46)           119.6484         estimate D2E/DX2                !
 ! A43   A(13,12,46)           119.6651         estimate D2E/DX2                !
 ! A44   A(12,13,14)           118.3448         estimate D2E/DX2                !
 ! A45   A(12,13,47)           120.1682         estimate D2E/DX2                !
 ! A46   A(14,13,47)           121.3853         estimate D2E/DX2                !
 ! A47   A(13,14,15)           126.3195         estimate D2E/DX2                !
 ! A48   A(13,14,33)           118.2887         estimate D2E/DX2                !
 ! A49   A(15,14,33)           111.8366         estimate D2E/DX2                !
 ! A50   A(14,15,16)           125.9952         estimate D2E/DX2                !
 ! A51   A(14,15,32)           111.7985         estimate D2E/DX2                !
 ! A52   A(16,15,32)           118.4057         estimate D2E/DX2                !
 ! A53   A(15,16,17)           118.3448         estimate D2E/DX2                !
 ! A54   A(15,16,48)           121.3954         estimate D2E/DX2                !
 ! A55   A(17,16,48)           120.1424         estimate D2E/DX2                !
 ! A56   A(16,17,18)           120.4129         estimate D2E/DX2                !
 ! A57   A(16,17,49)           119.6711         estimate D2E/DX2                !
 ! A58   A(18,17,49)           119.6509         estimate D2E/DX2                !
 ! A59   A(17,18,19)           118.5858         estimate D2E/DX2                !
 ! A60   A(17,18,50)           120.2984         estimate D2E/DX2                !
 ! A61   A(19,18,50)           120.9529         estimate D2E/DX2                !
 ! A62   A(18,19,20)           124.1538         estimate D2E/DX2                !
 ! A63   A(18,19,32)           118.5661         estimate D2E/DX2                !
 ! A64   A(20,19,32)           114.9141         estimate D2E/DX2                !
 ! A65   A(19,20,21)           121.7668         estimate D2E/DX2                !
 ! A66   A(19,20,31)           123.7425         estimate D2E/DX2                !
 ! A67   A(21,20,31)           114.346          estimate D2E/DX2                !
 ! A68   A(20,21,22)           107.748          estimate D2E/DX2                !
 ! A69   A(20,21,63)           105.2782         estimate D2E/DX2                !
 ! A70   A(22,21,63)           146.6334         estimate D2E/DX2                !
 ! A71   A(21,22,23)           110.8067         estimate D2E/DX2                !
 ! A72   A(21,22,30)           104.5618         estimate D2E/DX2                !
 ! A73   A(21,22,51)           109.7796         estimate D2E/DX2                !
 ! A74   A(23,22,30)           112.2275         estimate D2E/DX2                !
 ! A75   A(23,22,51)           109.5029         estimate D2E/DX2                !
 ! A76   A(30,22,51)           109.8611         estimate D2E/DX2                !
 ! A77   A(22,23,24)           113.2257         estimate D2E/DX2                !
 ! A78   A(22,23,52)           109.0861         estimate D2E/DX2                !
 ! A79   A(22,23,53)           109.5191         estimate D2E/DX2                !
 ! A80   A(24,23,52)           108.7804         estimate D2E/DX2                !
 ! A81   A(24,23,53)           110.2032         estimate D2E/DX2                !
 ! A82   A(52,23,53)           105.7449         estimate D2E/DX2                !
 ! A83   A(23,24,25)           120.1261         estimate D2E/DX2                !
 ! A84   A(23,24,29)           120.6636         estimate D2E/DX2                !
 ! A85   A(25,24,29)           119.1663         estimate D2E/DX2                !
 ! A86   A(24,25,26)           120.3674         estimate D2E/DX2                !
 ! A87   A(24,25,54)           120.4457         estimate D2E/DX2                !
 ! A88   A(26,25,54)           119.1813         estimate D2E/DX2                !
 ! A89   A(25,26,27)           120.0499         estimate D2E/DX2                !
 ! A90   A(25,26,55)           119.9479         estimate D2E/DX2                !
 ! A91   A(27,26,55)           120.002          estimate D2E/DX2                !
 ! A92   A(26,27,28)           120.0073         estimate D2E/DX2                !
 ! A93   A(26,27,56)           119.9948         estimate D2E/DX2                !
 ! A94   A(28,27,56)           119.9978         estimate D2E/DX2                !
 ! A95   A(27,28,29)           120.1352         estimate D2E/DX2                !
 ! A96   A(27,28,57)           119.9187         estimate D2E/DX2                !
 ! A97   A(29,28,57)           119.9458         estimate D2E/DX2                !
 ! A98   A(24,29,28)           120.2708         estimate D2E/DX2                !
 ! A99   A(24,29,58)           120.5684         estimate D2E/DX2                !
 ! A100  A(28,29,58)           119.1607         estimate D2E/DX2                !
 ! A101  A(22,30,31)           103.413          estimate D2E/DX2                !
 ! A102  A(22,30,59)           110.2645         estimate D2E/DX2                !
 ! A103  A(22,30,60)           113.9638         estimate D2E/DX2                !
 ! A104  A(31,30,59)           109.1941         estimate D2E/DX2                !
 ! A105  A(31,30,60)           110.4565         estimate D2E/DX2                !
 ! A106  A(59,30,60)           109.3558         estimate D2E/DX2                !
 ! A107  A(20,31,30)           108.8706         estimate D2E/DX2                !
 ! A108  A(15,32,19)           125.0933         estimate D2E/DX2                !
 ! A109  A(15,32,63)           118.169          estimate D2E/DX2                !
 ! A110  A(19,32,63)           108.8093         estimate D2E/DX2                !
 ! A111  A(10,33,14)           125.3127         estimate D2E/DX2                !
 ! A112  A(10,33,63)           108.3601         estimate D2E/DX2                !
 ! A113  A(14,33,63)           118.5266         estimate D2E/DX2                !
 ! A114  A(6,34,9)             107.9461         estimate D2E/DX2                !
 ! A115  A(6,34,63)            144.2701         estimate D2E/DX2                !
 ! A116  A(9,34,63)            105.2425         estimate D2E/DX2                !
 ! A117  A(4,35,36)            120.3377         estimate D2E/DX2                !
 ! A118  A(4,35,61)            120.4239         estimate D2E/DX2                !
 ! A119  A(36,35,61)           119.2358         estimate D2E/DX2                !
 ! A120  A(1,36,35)            120.0619         estimate D2E/DX2                !
 ! A121  A(1,36,62)            119.9957         estimate D2E/DX2                !
 ! A122  A(35,36,62)           119.9422         estimate D2E/DX2                !
 ! A123  A(21,63,32)            87.7559         estimate D2E/DX2                !
 ! A124  A(21,63,33)           155.6185         estimate D2E/DX2                !
 ! A125  A(21,63,34)           100.0003         estimate D2E/DX2                !
 ! A126  A(32,63,33)            78.6477         estimate D2E/DX2                !
 ! A127  A(32,63,34)           161.6535         estimate D2E/DX2                !
 ! A128  A(33,63,34)            87.9701         estimate D2E/DX2                !
 ! D1    D(36,1,2,3)             0.2245         estimate D2E/DX2                !
 ! D2    D(36,1,2,38)         -179.8481         estimate D2E/DX2                !
 ! D3    D(37,1,2,3)          -179.8574         estimate D2E/DX2                !
 ! D4    D(37,1,2,38)            0.07           estimate D2E/DX2                !
 ! D5    D(2,1,36,35)           -0.0967         estimate D2E/DX2                !
 ! D6    D(2,1,36,62)         -179.9595         estimate D2E/DX2                !
 ! D7    D(37,1,36,35)         179.9852         estimate D2E/DX2                !
 ! D8    D(37,1,36,62)           0.1224         estimate D2E/DX2                !
 ! D9    D(1,2,3,4)              0.0194         estimate D2E/DX2                !
 ! D10   D(1,2,3,39)          -179.8669         estimate D2E/DX2                !
 ! D11   D(38,2,3,4)          -179.9081         estimate D2E/DX2                !
 ! D12   D(38,2,3,39)            0.2057         estimate D2E/DX2                !
 ! D13   D(2,3,4,5)            178.1656         estimate D2E/DX2                !
 ! D14   D(2,3,4,35)            -0.3858         estimate D2E/DX2                !
 ! D15   D(39,3,4,5)            -1.9497         estimate D2E/DX2                !
 ! D16   D(39,3,4,35)          179.4989         estimate D2E/DX2                !
 ! D17   D(3,4,5,6)            -95.4927         estimate D2E/DX2                !
 ! D18   D(3,4,5,40)            27.4848         estimate D2E/DX2                !
 ! D19   D(3,4,5,41)           143.4534         estimate D2E/DX2                !
 ! D20   D(35,4,5,6)            83.0454         estimate D2E/DX2                !
 ! D21   D(35,4,5,40)         -153.9771         estimate D2E/DX2                !
 ! D22   D(35,4,5,41)          -38.0085         estimate D2E/DX2                !
 ! D23   D(3,4,35,36)            0.5139         estimate D2E/DX2                !
 ! D24   D(3,4,35,61)          179.9212         estimate D2E/DX2                !
 ! D25   D(5,4,35,36)         -178.0456         estimate D2E/DX2                !
 ! D26   D(5,4,35,61)            1.3617         estimate D2E/DX2                !
 ! D27   D(4,5,6,7)             71.0144         estimate D2E/DX2                !
 ! D28   D(4,5,6,34)           -46.7892         estimate D2E/DX2                !
 ! D29   D(4,5,6,42)          -167.6402         estimate D2E/DX2                !
 ! D30   D(40,5,6,7)           -52.454          estimate D2E/DX2                !
 ! D31   D(40,5,6,34)         -170.2576         estimate D2E/DX2                !
 ! D32   D(40,5,6,42)           68.8914         estimate D2E/DX2                !
 ! D33   D(41,5,6,7)          -167.9065         estimate D2E/DX2                !
 ! D34   D(41,5,6,34)           74.2899         estimate D2E/DX2                !
 ! D35   D(41,5,6,42)          -46.5612         estimate D2E/DX2                !
 ! D36   D(5,6,7,8)           -118.8969         estimate D2E/DX2                !
 ! D37   D(5,6,7,43)           123.8221         estimate D2E/DX2                !
 ! D38   D(5,6,7,44)             0.3016         estimate D2E/DX2                !
 ! D39   D(34,6,7,8)             2.4672         estimate D2E/DX2                !
 ! D40   D(34,6,7,43)         -114.8138         estimate D2E/DX2                !
 ! D41   D(34,6,7,44)          121.6657         estimate D2E/DX2                !
 ! D42   D(42,6,7,8)           119.5745         estimate D2E/DX2                !
 ! D43   D(42,6,7,43)            2.2935         estimate D2E/DX2                !
 ! D44   D(42,6,7,44)         -121.227          estimate D2E/DX2                !
 ! D45   D(5,6,34,9)           119.8468         estimate D2E/DX2                !
 ! D46   D(5,6,34,63)          -37.5907         estimate D2E/DX2                !
 ! D47   D(7,6,34,9)            -3.0747         estimate D2E/DX2                !
 ! D48   D(7,6,34,63)         -160.5122         estimate D2E/DX2                !
 ! D49   D(42,6,34,9)         -119.6049         estimate D2E/DX2                !
 ! D50   D(42,6,34,63)          82.9576         estimate D2E/DX2                !
 ! D51   D(6,7,8,9)             -1.089          estimate D2E/DX2                !
 ! D52   D(43,7,8,9)           117.0985         estimate D2E/DX2                !
 ! D53   D(44,7,8,9)          -122.6272         estimate D2E/DX2                !
 ! D54   D(7,8,9,10)           177.5991         estimate D2E/DX2                !
 ! D55   D(7,8,9,34)            -0.9193         estimate D2E/DX2                !
 ! D56   D(8,9,10,11)           29.5799         estimate D2E/DX2                !
 ! D57   D(8,9,10,33)         -161.6785         estimate D2E/DX2                !
 ! D58   D(34,9,10,11)        -152.0031         estimate D2E/DX2                !
 ! D59   D(34,9,10,33)          16.7384         estimate D2E/DX2                !
 ! D60   D(8,9,34,6)             2.6131         estimate D2E/DX2                !
 ! D61   D(8,9,34,63)          169.1846         estimate D2E/DX2                !
 ! D62   D(10,9,34,6)         -175.9439         estimate D2E/DX2                !
 ! D63   D(10,9,34,63)          -9.3724         estimate D2E/DX2                !
 ! D64   D(9,10,11,12)         165.8015         estimate D2E/DX2                !
 ! D65   D(9,10,11,45)         -10.6994         estimate D2E/DX2                !
 ! D66   D(33,10,11,12)         -2.5527         estimate D2E/DX2                !
 ! D67   D(33,10,11,45)       -179.0536         estimate D2E/DX2                !
 ! D68   D(9,10,33,14)        -161.9584         estimate D2E/DX2                !
 ! D69   D(9,10,33,63)         -13.5577         estimate D2E/DX2                !
 ! D70   D(11,10,33,14)          7.6057         estimate D2E/DX2                !
 ! D71   D(11,10,33,63)        156.0063         estimate D2E/DX2                !
 ! D72   D(10,11,12,13)         -3.1961         estimate D2E/DX2                !
 ! D73   D(10,11,12,46)       -178.1687         estimate D2E/DX2                !
 ! D74   D(45,11,12,13)        173.3221         estimate D2E/DX2                !
 ! D75   D(45,11,12,46)         -1.6504         estimate D2E/DX2                !
 ! D76   D(11,12,13,14)          4.4146         estimate D2E/DX2                !
 ! D77   D(11,12,13,47)       -171.9703         estimate D2E/DX2                !
 ! D78   D(46,12,13,14)        179.3863         estimate D2E/DX2                !
 ! D79   D(46,12,13,47)          3.0014         estimate D2E/DX2                !
 ! D80   D(12,13,14,15)       -156.8446         estimate D2E/DX2                !
 ! D81   D(12,13,14,33)          0.0637         estimate D2E/DX2                !
 ! D82   D(47,13,14,15)         19.4941         estimate D2E/DX2                !
 ! D83   D(47,13,14,33)        176.4024         estimate D2E/DX2                !
 ! D84   D(13,14,15,16)         -0.3289         estimate D2E/DX2                !
 ! D85   D(13,14,15,32)        157.1561         estimate D2E/DX2                !
 ! D86   D(33,14,15,16)       -158.4863         estimate D2E/DX2                !
 ! D87   D(33,14,15,32)         -1.0013         estimate D2E/DX2                !
 ! D88   D(13,14,33,10)         -6.3239         estimate D2E/DX2                !
 ! D89   D(13,14,33,63)       -151.8507         estimate D2E/DX2                !
 ! D90   D(15,14,33,10)        153.7727         estimate D2E/DX2                !
 ! D91   D(15,14,33,63)          8.2459         estimate D2E/DX2                !
 ! D92   D(14,15,16,17)        155.6085         estimate D2E/DX2                !
 ! D93   D(14,15,16,48)        -20.4556         estimate D2E/DX2                !
 ! D94   D(32,15,16,17)         -0.5497         estimate D2E/DX2                !
 ! D95   D(32,15,16,48)       -176.6139         estimate D2E/DX2                !
 ! D96   D(14,15,32,19)       -151.9781         estimate D2E/DX2                !
 ! D97   D(14,15,32,63)         -6.5661         estimate D2E/DX2                !
 ! D98   D(16,15,32,19)          7.3988         estimate D2E/DX2                !
 ! D99   D(16,15,32,63)        152.8108         estimate D2E/DX2                !
 ! D100  D(15,16,17,18)         -4.8434         estimate D2E/DX2                !
 ! D101  D(15,16,17,49)       -178.9084         estimate D2E/DX2                !
 ! D102  D(48,16,17,18)        171.2718         estimate D2E/DX2                !
 ! D103  D(48,16,17,49)         -2.7932         estimate D2E/DX2                !
 ! D104  D(16,17,18,19)          4.0248         estimate D2E/DX2                !
 ! D105  D(16,17,18,50)       -171.3809         estimate D2E/DX2                !
 ! D106  D(49,17,18,19)        178.0911         estimate D2E/DX2                !
 ! D107  D(49,17,18,50)          2.6854         estimate D2E/DX2                !
 ! D108  D(17,18,19,20)       -159.3656         estimate D2E/DX2                !
 ! D109  D(17,18,19,32)          2.2533         estimate D2E/DX2                !
 ! D110  D(50,18,19,20)         16.0088         estimate D2E/DX2                !
 ! D111  D(50,18,19,32)        177.6277         estimate D2E/DX2                !
 ! D112  D(18,19,20,21)        147.7948         estimate D2E/DX2                !
 ! D113  D(18,19,20,31)        -27.5831         estimate D2E/DX2                !
 ! D114  D(32,19,20,21)        -14.425          estimate D2E/DX2                !
 ! D115  D(32,19,20,31)        170.1971         estimate D2E/DX2                !
 ! D116  D(18,19,32,15)         -8.263          estimate D2E/DX2                !
 ! D117  D(18,19,32,63)       -156.3474         estimate D2E/DX2                !
 ! D118  D(20,19,32,15)        155.0151         estimate D2E/DX2                !
 ! D119  D(20,19,32,63)          6.9307         estimate D2E/DX2                !
 ! D120  D(19,20,21,22)       -172.1133         estimate D2E/DX2                !
 ! D121  D(19,20,21,63)         12.7095         estimate D2E/DX2                !
 ! D122  D(31,20,21,22)          3.6688         estimate D2E/DX2                !
 ! D123  D(31,20,21,63)       -171.5084         estimate D2E/DX2                !
 ! D124  D(19,20,31,30)        179.1346         estimate D2E/DX2                !
 ! D125  D(21,20,31,30)          3.4473         estimate D2E/DX2                !
 ! D126  D(20,21,22,23)        112.56           estimate D2E/DX2                !
 ! D127  D(20,21,22,30)         -8.5591         estimate D2E/DX2                !
 ! D128  D(20,21,22,51)       -126.3627         estimate D2E/DX2                !
 ! D129  D(63,21,22,23)        -75.9199         estimate D2E/DX2                !
 ! D130  D(63,21,22,30)        162.961          estimate D2E/DX2                !
 ! D131  D(63,21,22,51)         45.1574         estimate D2E/DX2                !
 ! D132  D(20,21,63,32)         -6.4844         estimate D2E/DX2                !
 ! D133  D(20,21,63,33)        -62.1751         estimate D2E/DX2                !
 ! D134  D(20,21,63,34)       -169.7487         estimate D2E/DX2                !
 ! D135  D(22,21,63,32)       -178.113          estimate D2E/DX2                !
 ! D136  D(22,21,63,33)        126.1963         estimate D2E/DX2                !
 ! D137  D(22,21,63,34)         18.6227         estimate D2E/DX2                !
 ! D138  D(21,22,23,24)        -45.5771         estimate D2E/DX2                !
 ! D139  D(21,22,23,52)         75.7012         estimate D2E/DX2                !
 ! D140  D(21,22,23,53)       -169.0021         estimate D2E/DX2                !
 ! D141  D(30,22,23,24)         70.9002         estimate D2E/DX2                !
 ! D142  D(30,22,23,52)       -167.8215         estimate D2E/DX2                !
 ! D143  D(30,22,23,53)        -52.5248         estimate D2E/DX2                !
 ! D144  D(51,22,23,24)       -166.8177         estimate D2E/DX2                !
 ! D145  D(51,22,23,52)        -45.5394         estimate D2E/DX2                !
 ! D146  D(51,22,23,53)         69.7573         estimate D2E/DX2                !
 ! D147  D(21,22,30,31)         10.1673         estimate D2E/DX2                !
 ! D148  D(21,22,30,59)       -106.4696         estimate D2E/DX2                !
 ! D149  D(21,22,30,60)        130.1133         estimate D2E/DX2                !
 ! D150  D(23,22,30,31)       -110.0063         estimate D2E/DX2                !
 ! D151  D(23,22,30,59)        133.3567         estimate D2E/DX2                !
 ! D152  D(23,22,30,60)          9.9396         estimate D2E/DX2                !
 ! D153  D(51,22,30,31)        127.9152         estimate D2E/DX2                !
 ! D154  D(51,22,30,59)         11.2783         estimate D2E/DX2                !
 ! D155  D(51,22,30,60)       -112.1388         estimate D2E/DX2                !
 ! D156  D(22,23,24,25)         83.9748         estimate D2E/DX2                !
 ! D157  D(22,23,24,29)        -93.5903         estimate D2E/DX2                !
 ! D158  D(52,23,24,25)        -37.4755         estimate D2E/DX2                !
 ! D159  D(52,23,24,29)        144.9594         estimate D2E/DX2                !
 ! D160  D(53,23,24,25)       -152.9773         estimate D2E/DX2                !
 ! D161  D(53,23,24,29)         29.4576         estimate D2E/DX2                !
 ! D162  D(23,24,25,26)       -176.949          estimate D2E/DX2                !
 ! D163  D(23,24,25,54)          2.1888         estimate D2E/DX2                !
 ! D164  D(29,24,25,26)          0.6525         estimate D2E/DX2                !
 ! D165  D(29,24,25,54)        179.7903         estimate D2E/DX2                !
 ! D166  D(23,24,29,28)        177.1532         estimate D2E/DX2                !
 ! D167  D(23,24,29,58)         -2.7463         estimate D2E/DX2                !
 ! D168  D(25,24,29,28)         -0.435          estimate D2E/DX2                !
 ! D169  D(25,24,29,58)        179.6654         estimate D2E/DX2                !
 ! D170  D(24,25,26,27)         -0.3954         estimate D2E/DX2                !
 ! D171  D(24,25,26,55)        179.4099         estimate D2E/DX2                !
 ! D172  D(54,25,26,27)       -179.5441         estimate D2E/DX2                !
 ! D173  D(54,25,26,55)          0.2612         estimate D2E/DX2                !
 ! D174  D(25,26,27,28)         -0.0858         estimate D2E/DX2                !
 ! D175  D(25,26,27,56)        179.9713         estimate D2E/DX2                !
 ! D176  D(55,26,27,28)       -179.891          estimate D2E/DX2                !
 ! D177  D(55,26,27,56)          0.1661         estimate D2E/DX2                !
 ! D178  D(26,27,28,29)          0.3028         estimate D2E/DX2                !
 ! D179  D(26,27,28,57)       -179.9083         estimate D2E/DX2                !
 ! D180  D(56,27,28,29)       -179.7543         estimate D2E/DX2                !
 ! D181  D(56,27,28,57)          0.0346         estimate D2E/DX2                !
 ! D182  D(27,28,29,24)         -0.0391         estimate D2E/DX2                !
 ! D183  D(27,28,29,58)        179.8619         estimate D2E/DX2                !
 ! D184  D(57,28,29,24)       -179.8279         estimate D2E/DX2                !
 ! D185  D(57,28,29,58)          0.073          estimate D2E/DX2                !
 ! D186  D(22,30,31,20)         -8.3902         estimate D2E/DX2                !
 ! D187  D(59,30,31,20)        108.9997         estimate D2E/DX2                !
 ! D188  D(60,30,31,20)       -130.7075         estimate D2E/DX2                !
 ! D189  D(15,32,63,21)       -151.0814         estimate D2E/DX2                !
 ! D190  D(15,32,63,33)          8.5665         estimate D2E/DX2                !
 ! D191  D(15,32,63,34)        -35.3628         estimate D2E/DX2                !
 ! D192  D(19,32,63,21)         -0.4669         estimate D2E/DX2                !
 ! D193  D(19,32,63,33)        159.181          estimate D2E/DX2                !
 ! D194  D(19,32,63,34)        115.2518         estimate D2E/DX2                !
 ! D195  D(10,33,63,21)       -102.7727         estimate D2E/DX2                !
 ! D196  D(10,33,63,32)       -160.1081         estimate D2E/DX2                !
 ! D197  D(10,33,63,34)          7.2704         estimate D2E/DX2                !
 ! D198  D(14,33,63,21)         48.1066         estimate D2E/DX2                !
 ! D199  D(14,33,63,32)         -9.2288         estimate D2E/DX2                !
 ! D200  D(14,33,63,34)        158.1496         estimate D2E/DX2                !
 ! D201  D(6,34,63,21)         -44.3598         estimate D2E/DX2                !
 ! D202  D(6,34,63,32)        -158.2768         estimate D2E/DX2                !
 ! D203  D(6,34,63,33)         158.8308         estimate D2E/DX2                !
 ! D204  D(9,34,63,21)         157.8706         estimate D2E/DX2                !
 ! D205  D(9,34,63,32)          43.9536         estimate D2E/DX2                !
 ! D206  D(9,34,63,33)           1.0612         estimate D2E/DX2                !
 ! D207  D(4,35,36,1)           -0.2753         estimate D2E/DX2                !
 ! D208  D(4,35,36,62)         179.5875         estimate D2E/DX2                !
 ! D209  D(61,35,36,1)        -179.6897         estimate D2E/DX2                !
 ! D210  D(61,35,36,62)          0.1732         estimate D2E/DX2                !
 --------------------------------------------------------------------------------
 Trust Radius=3.00D-01 FncErr=1.00D-07 GrdErr=1.00D-06 EigMax=2.50D+02 EigMin=1.00D-04
 Number of steps in this run=    378 maximum allowed number of steps=    378.
 GradGradGradGradGradGradGradGradGradGradGradGradGradGradGradGradGradGrad

 Leave Link  103 at Thu Mar  7 23:02:12 2024, MaxMem= 13421772800 cpu:               0.2 elap:               0.0
 (Enter /public/software/apps/Gaussian/g16/l202.exe)
 Symmetry turned off by external request.
 Stoichiometry    C30H26CuN4O2(2+,2)
 Framework group  C1[X(C30H26CuN4O2)]
 Deg. of freedom   183
 Full point group                 C1      NOp   1
                          Input orientation:                          
 ---------------------------------------------------------------------
 Center     Atomic      Atomic             Coordinates (Angstroms)
 Number     Number       Type             X           Y           Z
 ---------------------------------------------------------------------
      1          6           0       -4.760741   -1.892284    1.735754
      2          6           0       -5.173874   -0.717221    2.369439
      3          6           0       -4.226865    0.211543    2.812404
      4          6           0       -2.855574   -0.030076    2.623163
      5          6           0       -1.825920    0.986321    3.061210
      6          6           0       -1.378634    1.929468    1.923669
      7          6           0       -2.466215    2.943815    1.501678
      8          8           0       -2.703235    2.631549    0.142652
      9          6           0       -1.871166    1.599512   -0.233391
     10          6           0       -1.881321    0.983499   -1.563006
     11          6           0       -2.229695    1.628369   -2.754807
     12          6           0       -1.903218    1.003390   -3.976348
     13          6           0       -1.182221   -0.208766   -3.989938
     14          6           0       -0.883657   -0.819369   -2.763872
     15          6           0        0.211714   -1.770664   -2.506545
     16          6           0        1.139933   -2.232541   -3.449339
     17          6           0        2.388760   -2.694083   -2.988058
     18          6           0        2.726953   -2.593427   -1.623547
     19          6           0        1.765983   -2.106353   -0.729350
     20          6           0        2.077987   -1.544286    0.589585
     21          7           0        1.359318   -0.593424    1.117952
     22          6           0        2.042005   -0.139009    2.328693
     23          6           0        2.564623    1.306557    2.155135
     24          6           0        3.263931    1.533383    0.833033
     25          6           0        2.515468    1.838089   -0.318457
     26          6           0        3.150002    1.985956   -1.555017
     27          6           0        4.535953    1.839499   -1.652078
     28          6           0        5.289335    1.546704   -0.512070
     29          6           0        4.658058    1.393419    0.726443
     30          6           0        3.188320   -1.154311    2.532509
     31          8           0        3.186462   -1.896879    1.329494
     32          7           0        0.554117   -1.800379   -1.198754
     33          7           0       -1.302558   -0.217008   -1.630115
     34          7           0       -1.075043    1.178528    0.707295
     35          6           0       -2.449113   -1.219143    1.991328
     36          6           0       -3.399229   -2.143341    1.547837
     37          1           0       -5.495480   -2.608725    1.391611
     38          1           0       -6.228793   -0.525179    2.516549
     39          1           0       -4.563840    1.115618    3.303300
     40          1           0       -2.216419    1.589944    3.909555
     41          1           0       -0.935791    0.449029    3.450185
     42          1           0       -0.478291    2.488005    2.249607
     43          1           0       -2.086059    3.984915    1.581446
     44          1           0       -3.406725    2.848604    2.081885
     45          1           0       -2.686971    2.609392   -2.744489
     46          1           0       -2.136596    1.498232   -4.909985
     47          1           0       -0.822210   -0.616617   -4.924783
     48          1           0        0.938332   -2.180660   -4.510813
     49          1           0        3.128285   -3.038953   -3.698888
     50          1           0        3.732917   -2.817561   -1.292209
     51          1           0        1.344034   -0.179816    3.191451
     52          1           0        1.714369    2.010676    2.233901
     53          1           0        3.244827    1.559387    2.997701
     54          1           0        1.440127    1.947193   -0.260687
     55          1           0        2.566327    2.211005   -2.438409
     56          1           0        5.026366    1.953739   -2.610208
     57          1           0        6.363158    1.435011   -0.588647
     58          1           0        5.256590    1.164545    1.598728
     59          1           0        2.955114   -1.832884    3.381065
     60          1           0        4.180641   -0.686398    2.697840
     61          1           0       -1.397471   -1.424912    1.834206
     62          1           0       -3.079541   -3.053212    1.056423
     63         29           0       -0.280251   -0.498306    0.006202
 ---------------------------------------------------------------------
 Rotational constants (GHZ):           0.1529020           0.0965620           0.0848926
 Leave Link  202 at Thu Mar  7 23:02:12 2024, MaxMem= 13421772800 cpu:               0.4 elap:               0.0
 (Enter /public/software/apps/Gaussian/g16/l301.exe)
 Standard basis: def2SVPP (5D, 7F)
 Ernie: Thresh=  0.10000D-02 Tol=  0.10000D-05 Strict=F.
   580 basis functions,  1075 primitive gaussians,   618 cartesian basis functions
   139 alpha electrons      138 beta electrons
       nuclear repulsion energy      4953.8497976161 Hartrees.
 IExCor=  402 DFT=T Ex+Corr=B3LYP ExCW=0 ScaHFX=  0.200000
 ScaDFX=  0.800000  0.720000  1.000000  0.810000 ScalE2=  1.000000  1.000000
 IRadAn=      5 IRanWt=     -1 IRanGd=            0 ICorTp=0 IEmpDi=141
 NAtoms=   63 NActive=   63 NUniq=   63 SFac= 1.00D+00 NAtFMM=   60 NAOKFM=T Big=T
 Integral buffers will be    131072 words long.
 Raffenetti 2 integral format.
 Two-electron integral symmetry is turned off.
 R6Disp:  Grimme-D3(BJ) Dispersion energy=       -0.1765124793 Hartrees.
 Nuclear repulsion after empirical dispersion term =     4953.6732851367 Hartrees.
 Leave Link  301 at Thu Mar  7 23:02:12 2024, MaxMem= 13421772800 cpu:               1.6 elap:               0.1
 (Enter /public/software/apps/Gaussian/g16/l302.exe)
 NPDir=0 NMtPBC=     1 NCelOv=     1 NCel=       1 NClECP=     1 NCelD=      1
         NCelK=      1 NCelE2=     1 NClLst=     1 CellRange=     0.0.
 One-electron integrals computed using PRISM.
   1 Symmetry operations used in ECPInt.
 ECPInt:  NShTT=   38781 NPrTT=  159916 LenC2=   35013 LenP2D=   91524.
 LDataN:  DoStor=T MaxTD1= 4 Len=   56
 NBasis=   580 RedAO= T EigKep=  2.85D-04  NBF=   580
 NBsUse=   580 1.00D-06 EigRej= -1.00D+00 NBFU=   580
 Precomputing XC quadrature grid using
 IXCGrd= 4 IRadAn=           5 IRanWt=          -1 IRanGd=           0 AccXCQ= 0.00D+00.
 Generated NRdTot=       0 NPtTot=           0 NUsed=           0 NTot=          32
 NSgBfM=   607   607   607   607   607 MxSgAt=    63 MxSgA2=    63.
 Leave Link  302 at Thu Mar  7 23:02:13 2024, MaxMem= 13421772800 cpu:              20.3 elap:               0.7
 (Enter /public/software/apps/Gaussian/g16/l303.exe)
 DipDrv:  MaxL=1.
 Leave Link  303 at Thu Mar  7 23:02:13 2024, MaxMem= 13421772800 cpu:               2.5 elap:               0.1
 (Enter /public/software/apps/Gaussian/g16/l401.exe)
 ExpMin= 3.30D-02 ExpMax= 7.64D+04 ExpMxC= 1.15D+04 IAcc=3 IRadAn=         5 AccDes= 0.00D+00
 Harris functional with IExCor=  402 and IRadAn=       5 diagonalized for initial guess.
 HarFok:  IExCor=  402 AccDes= 0.00D+00 IRadAn=         5 IDoV= 1 UseB2=F ITyADJ=14
 ICtDFT=  3500011 ScaDFX=  1.000000  1.000000  1.000000  1.000000
 FoFCou: FMM=F IPFlag=           0 FMFlag=      100000 FMFlg1=        2001
         NFxFlg=           0 DoJE=T BraDBF=F KetDBF=T FulRan=T
         wScrn=  0.000000 ICntrl=       500 IOpCl=  0 I1Cent=   200000004 NGrid=           0
         NMat0=    1 NMatS0=      1 NMatT0=    0 NMatD0=    1 NMtDS0=    0 NMtDT0=    0
 Symmetry not used in FoFCou.
 Harris En= -3167.44607924639    
 JPrj=0 DoOrth=F DoCkMO=F.
 Initial guess <Sx>= 0.0000 <Sy>= 0.0000 <Sz>= 0.5000 <S**2>= 0.7500 S= 0.5000
 Leave Link  401 at Thu Mar  7 23:02:15 2024, MaxMem= 13421772800 cpu:              58.0 elap:               1.8
 (Enter /public/software/apps/Gaussian/g16/l502.exe)
 Two-electron integral symmetry not used.
 UHF open shell SCF:
 Using DIIS extrapolation, IDIIS=  1040.
 NGot= 13421772800 LenX= 13420982518 LenY= 13420599976
 Requested convergence on RMS density matrix=1.00D-08 within 128 cycles.
 Requested convergence on MAX density matrix=1.00D-06.
 Requested convergence on             energy=1.00D-06.
 No special actions if energy rises.
 Fock matrices will be formed incrementally for  20 cycles.

 Cycle   1  Pass 1  IDiag  1:
 FoFJK:  IHMeth= 1 ICntrl=       0 DoSepK=F KAlg= 0 I1Cent=           0 FoldK=F
 IRaf= 990000000 NMat=       1 IRICut=       1 DoRegI=T DoRafI=F ISym2E= 0 IDoP0=0 IntGTp=1.
 FoFCou: FMM=T IPFlag=           0 FMFlag=      100000 FMFlg1=        2001
         NFxFlg=           0 DoJE=F BraDBF=F KetDBF=F FulRan=T
         wScrn=  0.000000 ICntrl=         0 IOpCl=  1 I1Cent=           0 NGrid=           0
         NMat0=    1 NMatS0=      1 NMatT0=    0 NMatD0=    1 NMtDS0=    0 NMtDT0=    0
 Symmetry not used in FoFCou.
 FMM levels:  10  Number of levels for PrismC:   9
 E= -3151.18319208966    
 DIIS: error= 1.63D-01 at cycle   1 NSaved=   1.
 NSaved= 1 IEnMin= 1 EnMin= -3151.18319208966     IErMin= 1 ErrMin= 1.63D-01
 ErrMax= 1.63D-01  0.00D+00 EMaxC= 1.00D-01 BMatC= 8.20D+01 BMatP= 8.20D+01
 IDIUse=3 WtCom= 0.00D+00 WtEn= 1.00D+00
 Coeff-Com:  0.100D+01
 Coeff-En:   0.100D+01
 Coeff:      0.100D+01
 Gap=     0.736 Goal=   None    Shift=    0.000
 Gap=     1.156 Goal=   None    Shift=    0.000
 GapD=    0.736 DampG=2.000 DampE=0.125 DampFc=0.2500 IDamp=-1.
 Damping current iteration by 2.50D-01
 RMSDP=7.27D-02 MaxDP=1.32D+01              OVMax= 9.70D-01

 Cycle   2  Pass 1  IDiag  1:
 RMSU=  1.82D-02    CP:  1.01D+00
 E= -3155.82552447815     Delta-E=       -4.642332388488 Rises=F Damp=T
 DIIS: error= 5.90D-02 at cycle   2 NSaved=   2.
 NSaved= 2 IEnMin= 2 EnMin= -3155.82552447815     IErMin= 2 ErrMin= 5.90D-02
 ErrMax= 5.90D-02  0.00D+00 EMaxC= 1.00D-01 BMatC= 1.25D+01 BMatP= 8.20D+01
 IDIUse=3 WtCom= 4.10D-01 WtEn= 5.90D-01
 Coeff-Com: -0.180D+00 0.118D+01
 Coeff-En:   0.278D+00 0.722D+00
 Coeff:      0.897D-01 0.910D+00
 Gap=     0.361 Goal=   None    Shift=    0.000
 Gap=     0.047 Goal=   None    Shift=    0.000
 RMSDP=2.90D-02 MaxDP=3.01D+00 DE=-4.64D+00 OVMax= 9.69D-01

 Cycle   3  Pass 1  IDiag  1:
 RMSU=  2.61D-02    CP:  9.33D-01  3.07D-01
 E= -3122.47806597905     Delta-E=       33.347458499093 Rises=F Damp=F
 DIIS: error= 1.52D-01 at cycle   3 NSaved=   3.
 NSaved= 3 IEnMin= 2 EnMin= -3155.82552447815     IErMin= 2 ErrMin= 5.90D-02
 ErrMax= 1.52D-01  0.00D+00 EMaxC= 1.00D-01 BMatC= 1.02D+02 BMatP= 1.25D+01
 IDIUse=2 WtCom= 0.00D+00 WtEn= 1.00D+00
 EnCoef did     2 forward-backward iterations
 Coeff-En:   0.116D+00 0.688D+00 0.195D+00
 Coeff:      0.116D+00 0.688D+00 0.195D+00
 Gap=    -0.447 Goal=   None    Shift=    0.000
 Gap=    -0.150 Goal=   None    Shift=    0.000
 RMSDP=2.60D-02 MaxDP=3.06D+00 DE= 3.33D+01 OVMax= 9.41D-01

 Cycle   4  Pass 1  IDiag  1:
 RMSU=  1.00D-02    CP:  9.34D-01  2.99D-01  8.34D-02
 E= -3152.30587098971     Delta-E=      -29.827805010660 Rises=F Damp=F
 DIIS: error= 6.23D-02 at cycle   4 NSaved=   4.
 NSaved= 4 IEnMin= 2 EnMin= -3155.82552447815     IErMin= 2 ErrMin= 5.90D-02
 ErrMax= 6.23D-02  0.00D+00 EMaxC= 1.00D-01 BMatC= 3.62D+01 BMatP= 1.25D+01
 IDIUse=2 WtCom= 0.00D+00 WtEn= 1.00D+00
 EnCoef did   100 forward-backward iterations
 Coeff-En:   0.381D+00 0.141D-01 0.129D+00 0.476D+00
 Coeff:      0.381D+00 0.141D-01 0.129D+00 0.476D+00
 Gap=     0.015 Goal=   None    Shift=    0.000
 Gap=    -0.200 Goal=   None    Shift=    0.000
 RMSDP=1.76D-02 MaxDP=2.33D+00 DE=-2.98D+01 OVMax= 9.52D-01

 Cycle   5  Pass 1  IDiag  1:
 RMSU=  1.65D-02    CP:  9.43D-01  3.12D-01  9.66D-02  4.10D-01
 E= -3114.73925518148     Delta-E=       37.566615808229 Rises=F Damp=F
 DIIS: error= 1.15D-01 at cycle   5 NSaved=   5.
 NSaved= 5 IEnMin= 2 EnMin= -3155.82552447815     IErMin= 2 ErrMin= 5.90D-02
 ErrMax= 1.15D-01  0.00D+00 EMaxC= 1.00D-01 BMatC= 8.31D+01 BMatP= 1.25D+01
 IDIUse=2 WtCom= 0.00D+00 WtEn= 1.00D+00
 EnCoef did   100 forward-backward iterations
 Coeff-En:   0.376D+00 0.477D-02 0.457D-01 0.453D+00 0.121D+00
 Coeff:      0.376D+00 0.477D-02 0.457D-01 0.453D+00 0.121D+00
 Gap=    -0.145 Goal=   None    Shift=    0.000
 Gap=     0.143 Goal=   None    Shift=    0.000
 RMSDP=1.70D-02 MaxDP=2.93D+00 DE= 3.76D+01 OVMax= 9.73D-01

 Cycle   6  Pass 1  IDiag  1:
 RMSU=  4.84D-03    CP:  9.26D-01  4.91D-02  5.74D-02  2.07D-01  6.49D-02
 E= -3162.16429212361     Delta-E=      -47.425036942122 Rises=F Damp=F
 DIIS: error= 3.94D-02 at cycle   6 NSaved=   6.
 NSaved= 6 IEnMin= 6 EnMin= -3162.16429212361     IErMin= 6 ErrMin= 3.94D-02
 ErrMax= 3.94D-02  0.00D+00 EMaxC= 1.00D-01 BMatC= 1.38D+01 BMatP= 1.25D+01
 IDIUse=2 WtCom= 0.00D+00 WtEn= 1.00D+00
 EnCoef did   100 forward-backward iterations
 Coeff-En:   0.241D+00 0.391D-02 0.000D+00 0.253D+00 0.000D+00 0.502D+00
 Coeff:      0.241D+00 0.391D-02 0.000D+00 0.253D+00 0.000D+00 0.502D+00
 Gap=    -0.216 Goal=   None    Shift=    0.000
 Gap=     0.150 Goal=   None    Shift=    0.000
 RMSDP=5.87D-03 MaxDP=3.54D-01 DE=-4.74D+01 OVMax= 7.07D-01

 Cycle   7  Pass 1  IDiag  1:
 RMSU=  4.69D-03    CP:  9.28D-01  4.29D-02  1.77D-02  2.60D-01  2.24D-02
                    CP:  3.29D-01
 E= -3163.02999939329     Delta-E=       -0.865707269688 Rises=F Damp=F
 DIIS: error= 3.93D-02 at cycle   7 NSaved=   7.
 NSaved= 7 IEnMin= 7 EnMin= -3163.02999939329     IErMin= 7 ErrMin= 3.93D-02
 ErrMax= 3.93D-02  0.00D+00 EMaxC= 1.00D-01 BMatC= 1.08D+01 BMatP= 1.25D+01
 IDIUse=3 WtCom= 6.07D-01 WtEn= 3.93D-01
 EnCoef did     8 forward-backward iterations
 Coeff-Com: -0.123D-01 0.342D+00 0.210D-01-0.159D-01-0.575D-01 0.401D+00
 Coeff-Com:  0.322D+00
 Coeff-En:   0.163D+00 0.000D+00 0.000D+00 0.583D-01 0.000D+00 0.384D+00
 Coeff-En:   0.395D+00
 Coeff:      0.567D-01 0.207D+00 0.128D-01 0.133D-01-0.349D-01 0.394D+00
 Coeff:      0.350D+00
 Gap=    -0.105 Goal=   None    Shift=    0.000
 Gap=    -0.203 Goal=   None    Shift=    0.000
 RMSDP=5.01D-03 MaxDP=2.76D-01 DE=-8.66D-01 OVMax= 9.34D-01

 Cycle   8  Pass 1  IDiag  1:
 RMSU=  3.57D-03    CP:  9.26D-01  9.56D-03  2.37D-02  1.87D-01 -4.07D-03
                    CP:  4.04D-01  2.89D-01
 E= -3165.61944401779     Delta-E=       -2.589444624498 Rises=F Damp=F
 DIIS: error= 3.78D-02 at cycle   8 NSaved=   8.
 NSaved= 8 IEnMin= 8 EnMin= -3165.61944401779     IErMin= 8 ErrMin= 3.78D-02
 ErrMax= 3.78D-02  0.00D+00 EMaxC= 1.00D-01 BMatC= 4.18D+00 BMatP= 1.08D+01
 IDIUse=3 WtCom= 6.22D-01 WtEn= 3.78D-01
 EnCoef did     5 forward-backward iterations
 Coeff-Com: -0.472D-01 0.274D+00-0.591D-02-0.619D-01-0.284D-02 0.212D+00
 Coeff-Com:  0.189D+00 0.443D+00
 Coeff-En:   0.303D-01 0.000D+00 0.000D+00 0.000D+00 0.000D+00 0.192D+00
 Coeff-En:   0.256D+00 0.521D+00
 Coeff:     -0.179D-01 0.171D+00-0.368D-02-0.385D-01-0.177D-02 0.204D+00
 Coeff:      0.214D+00 0.473D+00
 Gap=     0.021 Goal=   None    Shift=    0.000
 Gap=     0.261 Goal=   None    Shift=    0.000
 RMSDP=3.46D-03 MaxDP=1.76D-01 DE=-2.59D+00 OVMax= 7.63D-01

 Cycle   9  Pass 1  IDiag  1:
 RMSU=  2.39D-03    CP:  9.23D-01  1.74D-02  2.20D-02  1.81D-01  2.94D-02
                    CP:  5.64D-01  4.09D-01  3.70D-01
 E= -3166.55802489125     Delta-E=       -0.938580873455 Rises=F Damp=F
 DIIS: error= 2.65D-02 at cycle   9 NSaved=   9.
 NSaved= 9 IEnMin= 9 EnMin= -3166.55802489125     IErMin= 9 ErrMin= 2.65D-02
 ErrMax= 2.65D-02  0.00D+00 EMaxC= 1.00D-01 BMatC= 2.15D+00 BMatP= 4.18D+00
 IDIUse=3 WtCom= 7.35D-01 WtEn= 2.65D-01
 EnCoef did     3 forward-backward iterations
 Coeff-Com: -0.110D-01 0.125D+00 0.372D-02-0.755D-01 0.396D-02 0.342D-01
 Coeff-Com:  0.125D+00 0.373D+00 0.422D+00
 Coeff-En:   0.291D-01 0.000D+00 0.000D+00 0.000D+00 0.000D+00 0.000D+00
 Coeff-En:   0.000D+00 0.250D+00 0.721D+00
 Coeff:     -0.320D-03 0.915D-01 0.273D-02-0.555D-01 0.291D-02 0.251D-01
 Coeff:      0.919D-01 0.340D+00 0.502D+00
 Gap=     0.198 Goal=   None    Shift=    0.000
 Gap=     0.020 Goal=   None    Shift=    0.000
 RMSDP=2.11D-03 MaxDP=2.20D-01 DE=-9.39D-01 OVMax= 7.31D-01

 Cycle  10  Pass 1  IDiag  1:
 RMSU=  1.66D-03    CP:  9.24D-01  1.24D-02  2.15D-02  1.59D-01  2.69D-02
                    CP:  4.93D-01  4.31D-01  4.70D-01  5.05D-01
 E= -3167.05311435030     Delta-E=       -0.495089459057 Rises=F Damp=F
 DIIS: error= 9.87D-03 at cycle  10 NSaved=  10.
 NSaved=10 IEnMin=10 EnMin= -3167.05311435030     IErMin=10 ErrMin= 9.87D-03
 ErrMax= 9.87D-03  0.00D+00 EMaxC= 1.00D-01 BMatC= 3.56D-01 BMatP= 2.15D+00
 IDIUse=3 WtCom= 9.01D-01 WtEn= 9.87D-02
 Coeff-Com: -0.379D-02 0.336D-01 0.147D-02-0.144D-01-0.320D-02-0.255D-01
 Coeff-Com:  0.384D-02 0.659D-01 0.314D+00 0.628D+00
 Coeff-En:   0.000D+00 0.000D+00 0.000D+00 0.000D+00 0.000D+00 0.000D+00
 Coeff-En:   0.000D+00 0.000D+00 0.199D+00 0.801D+00
 Coeff:     -0.342D-02 0.303D-01 0.132D-02-0.130D-01-0.289D-02-0.230D-01
 Coeff:      0.346D-02 0.594D-01 0.303D+00 0.645D+00
 Gap=     0.124 Goal=   None    Shift=    0.000
 Gap=     0.023 Goal=   None    Shift=    0.000
 RMSDP=7.95D-04 MaxDP=3.47D-02 DE=-4.95D-01 OVMax= 7.59D-02

 Cycle  11  Pass 1  IDiag  1:
 RMSU=  6.62D-04    CP:  9.22D-01  1.39D-02  2.09D-02  1.60D-01  2.65D-02
                    CP:  5.05D-01  4.20D-01  4.55D-01  6.13D-01  7.93D-01
 E= -3167.13227785131     Delta-E=       -0.079163501005 Rises=F Damp=F
 DIIS: error= 4.01D-03 at cycle  11 NSaved=  11.
 NSaved=11 IEnMin=11 EnMin= -3167.13227785131     IErMin=11 ErrMin= 4.01D-03
 ErrMax= 4.01D-03  0.00D+00 EMaxC= 1.00D-01 BMatC= 8.48D-02 BMatP= 3.56D-01
 IDIUse=3 WtCom= 9.60D-01 WtEn= 4.01D-02
 Coeff-Com: -0.510D-02 0.145D-01-0.431D-03 0.512D-02-0.125D-02-0.143D-01
 Coeff-Com:  0.160D-02 0.187D-01 0.156D+00 0.345D+00 0.480D+00
 Coeff-En:   0.000D+00 0.000D+00 0.000D+00 0.000D+00 0.000D+00 0.000D+00
 Coeff-En:   0.000D+00 0.000D+00 0.000D+00 0.000D+00 0.100D+01
 Coeff:     -0.490D-02 0.139D-01-0.414D-03 0.491D-02-0.120D-02-0.138D-01
 Coeff:      0.153D-02 0.180D-01 0.150D+00 0.331D+00 0.501D+00
 Gap=     0.070 Goal=   None    Shift=    0.000
 Gap=     0.047 Goal=   None    Shift=    0.000
 RMSDP=3.05D-04 MaxDP=1.46D-02 DE=-7.92D-02 OVMax= 3.01D-02

 Cycle  12  Pass 1  IDiag  1:
 RMSU=  2.71D-04    CP:  9.22D-01  1.43D-02  2.06D-02  1.64D-01  2.64D-02
                    CP:  4.99D-01  4.23D-01  4.56D-01  6.03D-01  8.15D-01
                    CP:  8.14D-01
 E= -3167.14645920055     Delta-E=       -0.014181349240 Rises=F Damp=F
 DIIS: error= 2.09D-03 at cycle  12 NSaved=  12.
 NSaved=12 IEnMin=12 EnMin= -3167.14645920055     IErMin=12 ErrMin= 2.09D-03
 ErrMax= 2.09D-03  0.00D+00 EMaxC= 1.00D-01 BMatC= 3.08D-02 BMatP= 8.48D-02
 IDIUse=3 WtCom= 9.79D-01 WtEn= 2.09D-02
 Coeff-Com: -0.526D-02 0.876D-02-0.317D-04 0.657D-02-0.348D-03-0.317D-02
 Coeff-Com:  0.926D-02 0.179D-01 0.798D-01 0.832D-01 0.254D+00 0.549D+00
 Coeff-En:   0.000D+00 0.000D+00 0.000D+00 0.000D+00 0.000D+00 0.000D+00
 Coeff-En:   0.000D+00 0.000D+00 0.000D+00 0.000D+00 0.379D-01 0.962D+00
 Coeff:     -0.515D-02 0.858D-02-0.310D-04 0.643D-02-0.341D-03-0.311D-02
 Coeff:      0.906D-02 0.175D-01 0.782D-01 0.815D-01 0.249D+00 0.558D+00
 Gap=     0.080 Goal=   None    Shift=    0.000
 Gap=     0.059 Goal=   None    Shift=    0.000
 RMSDP=1.58D-04 MaxDP=7.78D-03 DE=-1.42D-02 OVMax= 1.56D-02

 Cycle  13  Pass 1  IDiag  1:
 RMSU=  1.27D-04    CP:  9.22D-01  1.47D-02  2.05D-02  1.67D-01  2.58D-02
                    CP:  4.99D-01  4.23D-01  4.57D-01  6.04D-01  7.80D-01
                    CP:  9.09D-01  9.29D-01
 E= -3167.15152956400     Delta-E=       -0.005070363454 Rises=F Damp=F
 DIIS: error= 1.60D-03 at cycle  13 NSaved=  13.
 NSaved=13 IEnMin=13 EnMin= -3167.15152956400     IErMin=13 ErrMin= 1.60D-03
 ErrMax= 1.60D-03  0.00D+00 EMaxC= 1.00D-01 BMatC= 1.29D-02 BMatP= 3.08D-02
 IDIUse=3 WtCom= 9.84D-01 WtEn= 1.60D-02
 Coeff-Com: -0.265D-02 0.135D-02 0.295D-03 0.329D-02 0.447D-05 0.275D-02
 Coeff-Com:  0.118D-01 0.130D-01 0.341D-01-0.447D-01-0.840D-01 0.171D+00
 Coeff-Com:  0.894D+00
 Coeff-En:   0.000D+00 0.000D+00 0.000D+00 0.000D+00 0.000D+00 0.000D+00
 Coeff-En:   0.000D+00 0.000D+00 0.000D+00 0.000D+00 0.000D+00 0.000D+00
 Coeff-En:   0.100D+01
 Coeff:     -0.261D-02 0.133D-02 0.291D-03 0.324D-02 0.440D-05 0.271D-02
 Coeff:      0.117D-01 0.128D-01 0.336D-01-0.439D-01-0.826D-01 0.168D+00
 Coeff:      0.896D+00
 Gap=     0.087 Goal=   None    Shift=    0.000
 Gap=     0.068 Goal=   None    Shift=    0.000
 RMSDP=1.24D-04 MaxDP=1.01D-02 DE=-5.07D-03 OVMax= 1.41D-02

 Cycle  14  Pass 1  IDiag  1:
 RMSU=  7.90D-05    CP:  9.22D-01  1.54D-02  2.05D-02  1.70D-01  2.55D-02
                    CP:  4.98D-01  4.26D-01  4.56D-01  6.00D-01  7.61D-01
                    CP:  9.44D-01  1.19D+00  1.22D+00
 E= -3167.15361504099     Delta-E=       -0.002085476985 Rises=F Damp=F
 DIIS: error= 9.28D-04 at cycle  14 NSaved=  14.
 NSaved=14 IEnMin=14 EnMin= -3167.15361504099     IErMin=14 ErrMin= 9.28D-04
 ErrMax= 9.28D-04  0.00D+00 EMaxC= 1.00D-01 BMatC= 4.42D-03 BMatP= 1.29D-02
 IDIUse=3 WtCom= 9.91D-01 WtEn= 9.28D-03
 Coeff-Com:  0.229D-03-0.309D-02 0.492D-03 0.243D-03 0.221D-03 0.178D-02
 Coeff-Com:  0.428D-02 0.855D-03 0.185D-01-0.217D-01-0.169D+00-0.235D+00
 Coeff-Com:  0.568D+00 0.835D+00
 Coeff-En:   0.000D+00 0.000D+00 0.000D+00 0.000D+00 0.000D+00 0.000D+00
 Coeff-En:   0.000D+00 0.000D+00 0.000D+00 0.000D+00 0.000D+00 0.000D+00
 Coeff-En:   0.000D+00 0.100D+01
 Coeff:      0.227D-03-0.306D-02 0.487D-03 0.241D-03 0.219D-03 0.177D-02
 Coeff:      0.424D-02 0.847D-03 0.184D-01-0.215D-01-0.168D+00-0.233D+00
 Coeff:      0.563D+00 0.836D+00
 Gap=     0.088 Goal=   None    Shift=    0.000
 Gap=     0.070 Goal=   None    Shift=    0.000
 RMSDP=7.34D-05 MaxDP=4.55D-03 DE=-2.09D-03 OVMax= 8.16D-03

 Cycle  15  Pass 1  IDiag  1:
 RMSU=  4.17D-05    CP:  9.21D-01  1.58D-02  2.05D-02  1.72D-01  2.54D-02
                    CP:  4.97D-01  4.27D-01  4.55D-01  6.03D-01  7.49D-01
                    CP:  9.76D-01  1.27D+00  1.54D+00  7.99D-01
 E= -3167.15432465792     Delta-E=       -0.000709616927 Rises=F Damp=F
 DIIS: error= 4.66D-04 at cycle  15 NSaved=  15.
 NSaved=15 IEnMin=15 EnMin= -3167.15432465792     IErMin=15 ErrMin= 4.66D-04
 ErrMax= 4.66D-04  0.00D+00 EMaxC= 1.00D-01 BMatC= 1.34D-03 BMatP= 4.42D-03
 IDIUse=3 WtCom= 9.95D-01 WtEn= 4.66D-03
 Coeff-Com:  0.587D-03-0.307D-02 0.178D-03-0.198D-03 0.176D-03 0.194D-02
 Coeff-Com:  0.109D-02-0.956D-03 0.155D-01 0.588D-02-0.728D-01-0.163D+00
 Coeff-Com:  0.142D+00 0.518D+00 0.554D+00
 Coeff-En:   0.000D+00 0.000D+00 0.000D+00 0.000D+00 0.000D+00 0.000D+00
 Coeff-En:   0.000D+00 0.000D+00 0.000D+00 0.000D+00 0.000D+00 0.000D+00
 Coeff-En:   0.000D+00 0.000D+00 0.100D+01
 Coeff:      0.584D-03-0.305D-02 0.177D-03-0.197D-03 0.175D-03 0.193D-02
 Coeff:      0.108D-02-0.952D-03 0.155D-01 0.585D-02-0.725D-01-0.162D+00
 Coeff:      0.141D+00 0.516D+00 0.556D+00
 Gap=     0.087 Goal=   None    Shift=    0.000
 Gap=     0.069 Goal=   None    Shift=    0.000
 RMSDP=2.77D-05 MaxDP=1.54D-03 DE=-7.10D-04 OVMax= 3.60D-03

 Cycle  16  Pass 1  IDiag  1:
 RMSU=  2.08D-05    CP:  9.21D-01  1.57D-02  2.05D-02  1.72D-01  2.54D-02
                    CP:  4.98D-01  4.27D-01  4.54D-01  6.04D-01  7.48D-01
                    CP:  9.74D-01  1.27D+00  1.54D+00  8.76D-01  6.10D-01
 E= -3167.15446257754     Delta-E=       -0.000137919626 Rises=F Damp=F
 DIIS: error= 5.08D-04 at cycle  16 NSaved=  16.
 NSaved=16 IEnMin=16 EnMin= -3167.15446257754     IErMin=15 ErrMin= 4.66D-04
 ErrMax= 5.08D-04  0.00D+00 EMaxC= 1.00D-01 BMatC= 6.83D-04 BMatP= 1.34D-03
 IDIUse=3 WtCom= 9.95D-01 WtEn= 4.66D-03
 Coeff-Com:  0.137D-03-0.129D-02 0.146D-03-0.149D-03 0.198D-03 0.231D-02
 Coeff-Com: -0.207D-03 0.234D-03 0.873D-02 0.134D-01 0.627D-02-0.399D-01
 Coeff-Com: -0.131D+00 0.929D-01 0.379D+00 0.669D+00
 Coeff-En:   0.000D+00 0.000D+00 0.000D+00 0.000D+00 0.000D+00 0.000D+00
 Coeff-En:   0.000D+00 0.000D+00 0.000D+00 0.000D+00 0.000D+00 0.000D+00
 Coeff-En:   0.000D+00 0.000D+00 0.173D-01 0.983D+00
 Coeff:      0.136D-03-0.128D-02 0.146D-03-0.148D-03 0.197D-03 0.230D-02
 Coeff:     -0.206D-03 0.233D-03 0.869D-02 0.133D-01 0.624D-02-0.397D-01
 Coeff:     -0.130D+00 0.925D-01 0.377D+00 0.671D+00
 Gap=     0.086 Goal=   None    Shift=    0.000
 Gap=     0.068 Goal=   None    Shift=    0.000
 RMSDP=1.60D-05 MaxDP=9.20D-04 DE=-1.38D-04 OVMax= 1.48D-03

 Cycle  17  Pass 1  IDiag  1:
 RMSU=  1.34D-05    CP:  9.21D-01  1.58D-02  2.06D-02  1.72D-01  2.54D-02
                    CP:  4.98D-01  4.26D-01  4.55D-01  6.03D-01  7.47D-01
                    CP:  9.77D-01  1.28D+00  1.55D+00  8.82D-01  7.06D-01
                    CP:  7.26D-01
 E= -3167.15454943332     Delta-E=       -0.000086855775 Rises=F Damp=F
 DIIS: error= 2.13D-04 at cycle  17 NSaved=  17.
 NSaved=17 IEnMin=17 EnMin= -3167.15454943332     IErMin=17 ErrMin= 2.13D-04
 ErrMax= 2.13D-04  0.00D+00 EMaxC= 1.00D-01 BMatC= 1.96D-04 BMatP= 6.83D-04
 IDIUse=3 WtCom= 9.98D-01 WtEn= 2.13D-03
 Coeff-Com: -0.461D-04-0.328D-03 0.298D-04-0.485D-04 0.343D-04 0.139D-02
 Coeff-Com: -0.701D-03-0.724D-04 0.285D-03 0.805D-02 0.425D-01 0.558D-01
 Coeff-Com: -0.186D+00-0.200D+00-0.102D+00 0.299D+00 0.108D+01
 Coeff-En:   0.000D+00 0.000D+00 0.000D+00 0.000D+00 0.000D+00 0.000D+00
 Coeff-En:   0.000D+00 0.000D+00 0.000D+00 0.000D+00 0.000D+00 0.000D+00
 Coeff-En:   0.000D+00 0.000D+00 0.000D+00 0.000D+00 0.100D+01
 Coeff:     -0.460D-04-0.327D-03 0.297D-04-0.484D-04 0.342D-04 0.138D-02
 Coeff:     -0.700D-03-0.722D-04 0.285D-03 0.803D-02 0.424D-01 0.557D-01
 Coeff:     -0.185D+00-0.199D+00-0.101D+00 0.298D+00 0.108D+01
 Gap=     0.084 Goal=   None    Shift=    0.000
 Gap=     0.067 Goal=   None    Shift=    0.000
 RMSDP=1.62D-05 MaxDP=1.13D-03 DE=-8.69D-05 OVMax= 1.78D-03

 Cycle  18  Pass 1  IDiag  1:
 RMSU=  1.17D-05    CP:  9.21D-01  1.59D-02  2.06D-02  1.72D-01  2.55D-02
                    CP:  4.99D-01  4.26D-01  4.54D-01  6.05D-01  7.46D-01
                    CP:  9.86D-01  1.30D+00  1.53D+00  8.89D-01  7.77D-01
                    CP:  9.52D-01  1.18D+00
 E= -3167.15458306830     Delta-E=       -0.000033634986 Rises=F Damp=F
 DIIS: error= 7.63D-05 at cycle  18 NSaved=  18.
 NSaved=18 IEnMin=18 EnMin= -3167.15458306830     IErMin=18 ErrMin= 7.63D-05
 ErrMax= 7.63D-05  0.00D+00 EMaxC= 1.00D-01 BMatC= 3.48D-05 BMatP= 1.96D-04
 IDIUse=1 WtCom= 1.00D+00 WtEn= 0.00D+00
 Coeff-Com: -0.415D-04-0.172D-04 0.113D-04 0.120D-05 0.470D-05 0.394D-03
 Coeff-Com: -0.178D-03-0.130D-03-0.680D-03 0.798D-03 0.144D-01 0.321D-01
 Coeff-Com: -0.464D-01-0.957D-01-0.162D+00-0.640D-01 0.683D+00 0.638D+00
 Coeff:     -0.415D-04-0.172D-04 0.113D-04 0.120D-05 0.470D-05 0.394D-03
 Coeff:     -0.178D-03-0.130D-03-0.680D-03 0.798D-03 0.144D-01 0.321D-01
 Coeff:     -0.464D-01-0.957D-01-0.162D+00-0.640D-01 0.683D+00 0.638D+00
 Gap=     0.084 Goal=   None    Shift=    0.000
 Gap=     0.067 Goal=   None    Shift=    0.000
 RMSDP=7.01D-06 MaxDP=4.04D-04 DE=-3.36D-05 OVMax= 7.97D-04

 Cycle  19  Pass 1  IDiag  1:
 RMSU=  5.24D-06    CP:  9.21D-01  1.59D-02  2.06D-02  1.72D-01  2.56D-02
                    CP:  4.99D-01  4.26D-01  4.54D-01  6.05D-01  7.46D-01
                    CP:  9.86D-01  1.30D+00  1.52D+00  8.86D-01  7.66D-01
                    CP:  9.57D-01  1.40D+00  7.82D-01
 E= -3167.15459049204     Delta-E=       -0.000007423741 Rises=F Damp=F
 DIIS: error= 3.04D-05 at cycle  19 NSaved=  19.
 NSaved=19 IEnMin=19 EnMin= -3167.15459049204     IErMin=19 ErrMin= 3.04D-05
 ErrMax= 3.04D-05  0.00D+00 EMaxC= 1.00D-01 BMatC= 4.85D-06 BMatP= 3.48D-05
 IDIUse=1 WtCom= 1.00D+00 WtEn= 0.00D+00
 Coeff-Com:  0.400D-05-0.389D-04-0.304D-05-0.131D-05 0.866D-05 0.464D-04
 Coeff-Com:  0.386D-04-0.948D-04-0.876D-04-0.225D-03 0.132D-02 0.802D-02
 Coeff-Com:  0.254D-02-0.185D-01-0.738D-01-0.790D-01 0.239D+00 0.366D+00
 Coeff-Com:  0.554D+00
 Coeff:      0.400D-05-0.389D-04-0.304D-05-0.131D-05 0.866D-05 0.464D-04
 Coeff:      0.386D-04-0.948D-04-0.876D-04-0.225D-03 0.132D-02 0.802D-02
 Coeff:      0.254D-02-0.185D-01-0.738D-01-0.790D-01 0.239D+00 0.366D+00
 Coeff:      0.554D+00
 Gap=     0.085 Goal=   None    Shift=    0.000
 Gap=     0.068 Goal=   None    Shift=    0.000
 RMSDP=2.96D-06 MaxDP=1.57D-04 DE=-7.42D-06 OVMax= 2.81D-04

 Cycle  20  Pass 1  IDiag  1:
 RMSU=  1.99D-06    CP:  9.21D-01  1.58D-02  2.06D-02  1.72D-01  2.56D-02
                    CP:  4.99D-01  4.26D-01  4.54D-01  6.05D-01  7.47D-01
                    CP:  9.85D-01  1.30D+00  1.52D+00  8.77D-01  7.47D-01
                    CP:  9.54D-01  1.40D+00  8.32D-01  7.26D-01
 E= -3167.15459164128     Delta-E=       -0.000001149239 Rises=F Damp=F
 DIIS: error= 9.18D-06 at cycle  20 NSaved=  20.
 NSaved=20 IEnMin=20 EnMin= -3167.15459164128     IErMin=20 ErrMin= 9.18D-06
 ErrMax= 9.18D-06  0.00D+00 EMaxC= 1.00D-01 BMatC= 7.71D-07 BMatP= 4.85D-06
 IDIUse=1 WtCom= 1.00D+00 WtEn= 0.00D+00
 Coeff-Com:  0.634D-05-0.245D-04 0.535D-06 0.203D-05 0.423D-05-0.107D-04
 Coeff-Com:  0.546D-04-0.555D-04-0.760D-04-0.418D-04 0.416D-06 0.177D-02
 Coeff-Com:  0.313D-02-0.420D-02-0.249D-01-0.375D-01 0.703D-01 0.134D+00
 Coeff-Com:  0.317D+00 0.541D+00
 Coeff:      0.634D-05-0.245D-04 0.535D-06 0.203D-05 0.423D-05-0.107D-04
 Coeff:      0.546D-04-0.555D-04-0.760D-04-0.418D-04 0.416D-06 0.177D-02
 Coeff:      0.313D-02-0.420D-02-0.249D-01-0.375D-01 0.703D-01 0.134D+00
 Coeff:      0.317D+00 0.541D+00
 Gap=     0.085 Goal=   None    Shift=    0.000
 Gap=     0.068 Goal=   None    Shift=    0.000
 RMSDP=1.03D-06 MaxDP=6.96D-05 DE=-1.15D-06 OVMax= 1.36D-04

 Cycle  21  Pass 1  IDiag  1:
 Restarting incremental Fock formation.
 E= -3167.15459180487     Delta-E=       -0.000000163588 Rises=F Damp=F
[...]
 004828,0.00011389,0.00004570,0.00003367,-0.00001154,-0.00002694,-0.000
 02301,-0.00002973,-0.00000331,0.00000949,0.00000354,-0.00000239,-0.000
 01752,-0.00000726,-0.00001169,0.00004430,-0.00001139,0.00003054,-0.000
 03698,-0.00001637,-0.00002129,0.00000972,-0.00001414,0.00001202,-0.000
 00627,0.00000750,-0.00002128,-0.00002976,-0.00002888,0.00005823,0.0000
 8420,0.00001700,-0.00024106,0.00058207,0.00003008,0.00021916,-0.000231
 76,-0.00037289,-0.00019366,-0.00014020,0.00003451,-0.00002768,0.000002
 34,-0.00000795,-0.00000869,-0.00000117,0.00000412,0.00001920,0.0000154
 4,-0.00002068,0.00003129,0.00001677,0.00000645,-0.00000636,0.00000362,
 -0.00000146,0.00000353,-0.00000278,0.00001917,0.00000540,0.00000278,-0
 .00003171,0.00002572,0.00005358,-0.00014786,0.00043507,-0.00032482,0.0
 0022593,0.00001860,0.00000505,-0.00005931,0.00001185,0.00000841,-0.000
 03983,-0.00008957,0.00051212,-0.00041980,0.04050106,-0.05841957,0.0131
 4911,-0.01891370,0.00671879,-0.01173695,-0.00077685,0.00028782,-0.0006
 1793,-0.00025370,-0.00023517,0.00037186,0.00118408,0.00022626,0.000508
 72,-0.00018080,0.00040498,-0.00010863,-0.00019128,-0.00038460,-0.00077
 071,-0.00001892,-0.00010236,0.00004116,-0.00000081,0.00001326,0.000008
 26,0.00001218,0.00004260,0.00002526,0.00000734,0.00000155,-0.00000592,
 0.00000581,0.00000181,-0.00000109,-0.00000329,0.00000224,0.00000041,0.
 00000367,-0.00000202,-0.00000188,0.00000232,0.00000577,-0.00000318,0.0
 0000745,0.00000557,-0.00000803,-0.00008641,0.00000116,-0.00011556,-0.0
 0000410,-0.00002543,-0.00000598,0.00001113,-0.00000984,-0.00000788,-0.
 00000040,-0.00001382,0.00000729,-0.00000669,-0.00000470,-0.00000138,-0
 .00000163,-0.00000173,-0.00000134,0.00000027,-0.00000131,-0.00000147,-
 0.00000417,-0.00000247,0.00000252,0.00002104,-0.00000159,0.00003147,0.
 00000955,-0.00001900,0.00002460,-0.04236375,0.05564697,-0.00163903,-0.
 00583983,0.00107076,0.00058250,0.00028486,-0.00015158,-0.00095854,-0.0
 0305925,0.00267400,0.00614378,-0.00331687,0.00498656,0.00253163,0.0007
 0407,-0.00124009,-0.00000870,0.00037870,0.00064082,0.00007286,0.000025
 88,0.00006161,0.00033927,-0.00009197,-0.00019502,-0.00044940,-0.000022
 89,-0.00010279,-0.00003063,-0.00005425,0.00012098,0.00003689,-0.000044
 94,-0.00004051,-0.00002074,0.00004082,0.00002181,0.00006894,-0.0000439
 5,0.00005119,-0.00007966,-0.00004296,-0.00001546,-0.00014251,0.0001974
 1,-0.00002356,0.00012034,-0.00007961,0.00004412,-0.00007850,0.00002539
 ,-0.00011183,0.00005396,0.00007591,0.00018640,0.00006347,-0.00036319,-
 0.00020894,0.00126837,-0.00094544,-0.00044809,-0.00144077,-0.00017521,
 0.00094435,0.00013957,0.00033432,0.00051832,-0.00001924,-0.00001332,-0
 .00006125,0.00002016,0.00000088,-0.00000903,-0.00005858,-0.00000673,0.
 00004429,-0.00003453,-0.00001170,-0.00002439,0.00001807,-0.00001781,-0
 .00001456,-0.00000408,-0.00000559,-0.00005107,-0.00003397,-0.00003947,
 0.00004302,0.00000041,0.00013389,0.00027234,-0.00076702,0.00040013,-0.
 00052584,-0.00018004,-0.00009753,0.00015800,0.00006976,0.00002101,0.00
 001967,0.00023813,-0.00049949,0.00017253,-0.13590164,0.01459603,-0.132
 73146,-0.01812499,0.00501016,-0.00825423,-0.00090748,0.00017455,-0.000
 28882,0.00025697,0.00040740,-0.00044973,0.00019169,-0.00008061,0.00027
 280,0.00000686,-0.00033803,0.00001480,-0.00006152,0.00000853,0.0001246
 1,0.00002571,0.00013234,-0.00011288,-0.00001893,0.00000810,-0.00002455
 ,0.00000639,-0.00002981,-0.00001086,-0.00000320,-0.00000768,0.00001746
 ,-0.00000734,-0.00000934,0.00000317,-0.00000457,-0.00000234,0.00000068
 ,-0.00001291,0.00000401,0.00000971,0.00000053,-0.00000957,0.00000496,0
 .00001059,-0.00001524,-0.00000349,0.00003375,-0.00005795,-0.00010148,0
 .00001163,-0.00001123,0.00001240,-0.00000927,-0.00001000,0.00001181,-0
 .00000782,0.00000400,-0.00000148,0.00000359,-0.00000021,0.00000747,0.0
 0000288,0.00000383,0.00000274,0.00000395,0.00000585,-0.00000102,0.0000
 1919,0.00000943,-0.00000080,-0.00000594,-0.00002975,-0.00002271,-0.000
 01457,0.00000267,-0.00003212,0.14618611,-0.01154649,0.13600547,-0.0103
 4661,0.02206792,0.00547840,-0.00188657,0.00129565,-0.00584733,-0.00015
 459,-0.00080898,-0.00028322,0.00225424,0.00057113,-0.00335136,0.000180
 82,-0.00023957,-0.00021959,0.00005582,0.00002189,-0.00007409,0.0000005
 5,-0.00001746,-0.00000992,-0.00004604,0.00002788,0.00001946,0.00002052
 ,-0.00002844,-0.00000295,0.00001043,-0.00003001,0.00000125,-0.00000749
 ,-0.00000667,-0.00001468,-0.00000683,0.00001144,0.00001146,-0.00000954
 ,-0.00000079,0.00001273,0.00002037,0.00003708,0.00000690,-0.00001879,-
 0.00002511,-0.00011325,-0.00002738,0.00001364,-0.00001676,0.00004183,0
 .00000150,0.00004866,-0.00000875,0.00000668,-0.00004129,-0.00002684,-0
 .00002234,0.00003690,-0.00014137,0.00006116,0.00002224,0.00009414,0.00
 006705,0.00000444,-0.00001535,-0.00002877,-0.00004818,0.00000799,-0.00
 000473,0.00000864,-0.00000163,0.00001254,0.00000361,0.00001611,0.00000
 033,-0.00001050,-0.00000103,-0.00000025,0.00001162,0.00000667,0.000005
 88,0.00000571,0.00000029,0.00000329,0.00000315,0.00000604,0.00001055,-
 0.00000620,-0.00000970,-0.00001337,-0.00003779,0.00006537,-0.00000281,
 0.00004927,-0.00011945,-0.00018066,0.00012184,-0.00000008,0.00005704,-
 0.00004139,-0.00001200,0.00003038,0.00003505,0.00807813,-0.00746106,-0
 .00216528,-0.14932740,0.13504318,0.01808957,-0.00011980,-0.00157624,0.
 00184033,-0.00057340,0.00088414,0.00042559,-0.00024536,-0.00027104,0.0
 0046111,-0.00004165,-0.00006465,-0.00006303,-0.00000751,-0.00000729,0.
 00001071,0.00000779,0.00000675,0.00000270,0.00000206,-0.00000072,0.000
 00382,-0.00000302,-0.00000517,-0.00000118,-0.00000390,-0.00000561,0.00
 000100,0.00000102,0.00000252,0.00000292,0.00000450,0.00000425,-0.00000
 695,0.00000720,0.00001145,-0.00000933,0.00000563,0.00000453,-0.0000034
 3,-0.00000530,0.00000563,0.00000280,0.00000506,0.00000206,0.00000411,-
 0.00000080,0.00000192,-0.00000347,0.00000307,0.00000377,-0.00000346,0.
 00000418,-0.00000586,0.00000179,0.00000312,-0.00000101,-0.00000170,-0.
 00000067,-0.00000102,-0.00000144,-0.00000088,-0.00000154,-0.00000023,-
 0.00000340,-0.00000177,0.00000086,-0.00000520,0.00000502,-0.00000015,0
 .00000295,0.00000115,0.00000021,-0.00065252,-0.00106109,0.00188954,0.1
 5299210,0.00000899,0.00145623,-0.00195579,0.00171723,0.00299028,-0.001
 58566,-0.00071713,0.00024194,0.00027195,-0.00068417,0.00095489,-0.0047
 4948,0.00069005,-0.00027384,-0.00008679,0.00009106,0.00005221,-0.00030
 532,-0.00002046,-0.00000679,-0.00002569,-0.00009534,0.00004573,0.00010
 530,0.00008378,-0.00002102,-0.00012155,-0.00000989,0.00004430,-0.00012
 876,-0.00001804,0.00005803,0.00008035,0.00003525,-0.00006656,-0.000023
 30,-0.00006980,0.00008564,-0.00001899,0.00013129,-0.00008291,0.0001461
 4,0.00012871,-0.00006571,0.00041842,-0.00003955,0.00000267,0.00003638,
 -0.00001946,0.00000212,0.00003530,-0.00006323,-0.00000204,-0.00002266,
 -0.00048810,0.00022675,-0.00005203,-0.00023588,-0.00005200,-0.00020871
 ,-0.00003824,0.00010061,0.00015080,-0.00000991,-0.00001651,-0.00009518
 ,0.00003214,-0.00002001,0.00002289,-0.00000812,0.00001570,0.00000448,0
 .00002876,-0.00000563,-0.00002169,0.00000718,0.00000548,0.00001855,0.0
 0001652,0.00000966,0.00001528,-0.00000560,0.00001806,0.00000598,0.0000
 0414,0.00001655,-0.00001466,-0.00000778,-0.00002798,-0.00005085,0.0000
 5223,0.00005654,0.00011470,0.00046049,0.00009888,-0.00032167,-0.000042
 32,0.00001318,-0.00007362,-0.00010567,0.00000670,0.00019085,0.01332743
 ,-0.01224023,-0.00120873,0.13671263,-0.22842747,-0.04145406,-0.0010813
 7,-0.00060280,0.00174536,-0.00008563,-0.00010139,-0.00008689,-0.000204
 53,-0.00034946,0.00038600,-0.00010166,-0.00023110,-0.00011982,-0.00002
 693,-0.00002172,0.00001577,-0.00001325,-0.00003056,0.00004301,0.000004
 44,-0.00000919,0.00002082,-0.00001641,0.00002426,0.00000637,0.00000192
 ,0.00000300,-0.00001287,0.00000087,0.00000680,0.00000113,0.00000763,-0
 .00000038,0.00000901,0.00000733,-0.00000265,-0.00000195,0.00000300,0.0
 0000979,-0.00000134,0.00000458,0.00000818,-0.00000945,0.00001405,-0.00
 000157,0.00001603,-0.00000253,0.00001129,-0.00000351,0.00000340,0.0000
 1356,-0.00000460,0.00000418,0.00000246,0.00000458,-0.00000098,-0.00000
 387,-0.00000419,-0.00000456,-0.00000638,0.00000185,-0.00000603,-0.0000
 0457,0.00000061,-0.00000587,-0.00000383,0.00000074,-0.00000512,0.00000
 788,0.00000332,0.00000251,0.00000290,0.00000225,-0.00141860,-0.0002767
 6,0.00167602,-0.14827151,0.23695985,-0.00983292,0.01380210,0.00734785,
 -0.00504058,-0.00218952,0.00182997,-0.00045372,0.00018712,-0.00097524,
 -0.00409747,-0.00505316,0.00048456,0.00080431,-0.00069340,0.00014133,-
 0.00005395,-0.00000431,-0.00017027,-0.00002127,0.00002026,-0.00002505,
 0.00010938,-0.00000394,-0.00000222,-0.00016072,0.00003176,0.00004622,0
 .00000383,-0.00004140,0.00000291,0.00000907,0.00000163,-0.00001635,-0.
 00001936,0.00002242,0.00000370,0.00002291,-0.00002335,0.00001052,-0.00
 006610,0.00004254,-0.00006636,0.00000547,0.00001358,-0.00008144,-0.000
 07010,0.00002734,-0.00003919,0.00005463,-0.00004021,0.00003791,0.00002
 725,-0.00000974,-0.00003909,0.00001720,0.00005100,0.00006486,-0.000063
 79,-0.00001047,0.00024962,0.00008927,0.00003698,-0.00015302,-0.0000168
 0,-0.00001280,-0.00001185,0.00000119,-0.00000039,-0.00000118,0.0000051
 5,-0.00000093,0.00001537,-0.00000506,-0.00000472,0.00000235,-0.0000024
 0,-0.00000444,-0.00001293,-0.00001493,-0.00000474,-0.00001037,-0.00000
 129,-0.00000619,0.00000212,0.00000363,0.00000147,0.00000465,-0.0000105
 2,-0.00002249,0.00002839,-0.00004104,0.00001005,-0.00007664,0.00004125
 ,0.00001792,0.00003371,-0.00002231,-0.00001771,0.00007222,0.00003376,-
 0.00000441,0.00003265,0.01440813,-0.01736772,0.00071953,0.01687926,-0.
 04072902,-0.05681968,0.00211233,0.00147651,-0.00136574,-0.00046797,0.0
 0065338,0.00023921,0.00039123,0.00041184,-0.00046232,-0.00005664,-0.00
 019149,-0.00011503,-0.00003221,0.00009334,0.00000894,-0.00003550,-0.00
 004054,0.00003788,0.00000532,-0.00000481,-0.00000156,-0.00000418,0.000
 00459,-0.00000492,-0.00000443,-0.00000165,0.00000081,-0.00000279,-0.00
 000064,0.,0.00000004,0.00000421,-0.00001320,0.00000536,0.00000436,-0.0
 0001334,0.00000516,-0.00000353,-0.00000474,-0.00000801,-0.00000351,0.0
 0001330,-0.00000146,-0.00001260,-0.00000147,0.00000298,0.00000663,0.00
 000005,-0.00000175,0.00000150,-0.00000217,0.00000397,0.00000766,-0.000
 00041,0.00000142,0.00000616,-0.00000213,0.00000263,0.00000399,-0.00000
 130,0.00000259,0.00000176,0.00000026,-0.00000337,0.00000143,-0.0000004
 5,-0.00001445,-0.00000078,-0.00001432,0.00000105,0.00000360,-0.0000067
 2,0.00170776,0.00205422,-0.00111255,-0.01628897,0.04742636,0.05009207,
 0.00006149,-0.00068440,-0.00026404,-0.00001869,-0.00012417,0.00017121,
 0.00001021,0.00083577,0.00015516,-0.00297177,0.00218433,0.00081917,0.0
 0029575,0.00011559,0.00072867,0.00020856,-0.00119302,0.00469744,0.0007
 7027,0.00065453,0.00004848,0.00632916,-0.00209362,-0.00154857,-0.01638
 553,0.01106452,-0.00761407,-0.00922092,0.00709738,-0.00753718,0.001131
 90,0.00217862,0.00228542,0.00048148,-0.00110175,-0.00083436,-0.0004509
 3,0.00289293,0.00071833,0.00434120,-0.00632284,-0.00231057,0.00509440,
 -0.00477497,0.00216773,-0.00115483,0.00197911,-0.00242387,0.00077325,-
 0.00032512,0.00128192,0.00010168,0.00025446,-0.00341002,-0.00666992,0.
 01011272,0.00325003,-0.01616122,0.01617173,0.00309325,-0.02737660,0.00
 957650,-0.01748844,-0.00133509,-0.00383045,-0.00308613,0.00003394,-0.0
 0030175,-0.00060040,-0.00339530,0.00101412,-0.00152151,0.00372716,-0.0
 0055014,-0.00217992,-0.00005945,0.00046078,0.00376058,0.00024831,-0.00
 046588,0.00051963,-0.00006399,-0.00024982,-0.00013218,-0.00010448,0.00
 058569,-0.00063893,0.00066407,0.00019393,-0.00091665,0.00799167,-0.001
 77641,0.00124437,-0.02156467,0.01506839,0.01089445,-0.02905600,0.00498
 140,-0.02391812,-0.02181399,0.01598173,0.00465193,0.00418086,0.0007884
 6,0.00130511,-0.00068581,-0.00213372,-0.00293917,0.00013958,0.00007957
 ,0.00010717,0.00004498,0.00001786,-0.00000893,0.00001577,-0.00011774,0
 .00003852,0.00008320,-0.00014054,-0.00020866,-0.00020510,0.00013830,-0
 .00004475,0.00008257,-0.00037891,-0.00055229,0.00008451,-0.00017799,-0
 .00005284,0.00008242,-0.00008938,0.00000806,0.00004091,0.00005766,-0.0
 0008866,-0.00016908,0.00000945,0.00003884,0.00053639,0.00002181,0.0003
 5556,0.00045551,-0.00025477,-0.00032844,-0.00017845,-0.00001218,-0.000
 02426,0.00002968,0.00019644,0.00010857,0.00020152,0.00017585,0.0005823
 0,-0.00017292,0.00006425,-0.00010051,0.00018025,-0.00000211,0.00020252
 ,-0.00056626,-0.00138781,0.00030856,-0.00010531,0.00022227,-0.00037032
 ,0.00013011,-0.00002043,-0.00016989,0.00005271,0.00002467,-0.00002399,
 0.00000196,-0.00012141,0.00004821,0.00008999,-0.00008912,0.00016106,0.
 00010350,-0.00007122,0.00005065,-0.00043010,-0.00091496,0.00060865,-0.
 00006716,0.00034188,0.00015855,0.12158260,-0.00046255,-0.00035803,-0.0
 0078139,0.00049727,-0.00070645,0.00034177,0.00026369,-0.00048635,0.001
 16619,-0.00142147,0.00297464,0.00098264,0.00007823,0.00069632,0.000267
 25,-0.00027688,0.00134608,-0.00796456,-0.00144862,-0.00012503,-0.00021
 944,-0.00751198,0.00518564,0.00062284,0.01726440,-0.00884591,0.0109085
 2,0.00703066,-0.00243393,0.00762710,0.00126062,-0.00101817,-0.00261129
 ,-0.00072285,0.00094713,0.00079503,0.00271232,-0.00186570,-0.00117923,
 -0.00505591,0.00389563,-0.00475356,-0.00465171,0.00107234,-0.00925126,
 0.00174963,0.00058116,0.00155986,-0.00072338,-0.00007409,-0.00095876,0
 .00035783,0.00227797,0.00193512,0.01097606,-0.01084635,-0.00081395,0.0
 1296600,-0.00915786,0.00359435,0.00987053,-0.02246707,0.00171354,-0.00
 153757,0.00755783,0.00253324,-0.00041237,0.00082530,-0.00052510,-0.002
 37816,0.00089514,-0.00244350,0.00231376,0.00171238,-0.00028761,0.00019
 632,0.00004682,0.00258471,0.00001631,-0.00023586,0.00043682,0.00038703
 ,-0.00094905,-0.00020757,-0.00001238,-0.00084001,-0.00035951,-0.001475
 40,-0.00048660,-0.00051428,-0.00302020,0.00078611,-0.00288145,0.014717
 36,-0.04333646,-0.02271568,0.00481130,-0.01653303,0.00688342,0.0193232
 8,-0.03623754,-0.00973800,0.00257725,0.00107694,-0.00110292,0.00012031
 ,-0.00128415,-0.00195681,0.00009251,0.00002889,0.00009752,0.00012411,0
 .00002457,-0.00012003,0.00044060,-0.00004619,-0.00007129,-0.00017267,-
 0.00061130,-0.00005963,-0.00003010,-0.00021967,0.00003583,-0.00005306,
 -0.00034326,0.00049031,0.00010885,-0.00006516,0.00022917,-0.00043410,0
 .00060589,-0.00012177,0.00020930,0.00010535,0.00018424,-0.00001961,-0.
 00017320,-0.00000369,-0.00025536,0.00021719,-0.00037411,-0.00019411,0.
 00049601,0.00029168,-0.00002229,-0.00013915,0.00004273,0.00007837,0.00
 028164,0.00010108,-0.00015289,-0.00032651,-0.00025795,-0.00000583,-0.0
 0052134,-0.00013838,0.00006609,-0.00052679,0.00041148,-0.00157264,-0.0
 0348812,-0.00056058,-0.00006889,-0.00018959,0.00027981,0.00014702,-0.0
 0002674,-0.00015950,0.00017488,0.00012441,0.00000798,0.00039865,-0.000
 04994,-0.00001333,0.00000486,-0.00018210,-0.00007301,-0.00038634,0.000
 57032,-0.00021526,-0.00088613,-0.00106680,0.00225408,-0.00013386,-0.00
 059723,0.00007689,-0.07583608,0.13252906,-0.00041441,0.00038719,-0.000
 57020,-0.00019270,0.00010722,-0.00071830,0.00009971,-0.00008357,-0.000
 01929,0.00158594,-0.00081438,-0.00125885,0.00058835,-0.00072086,0.0003
 6675,0.00340512,-0.00396158,0.00088785,0.00030274,-0.00037617,-0.00164
 295,-0.00493400,0.00158257,-0.00213308,0.00137684,0.00413535,0.0102249
 8,-0.00864306,0.00836337,0.00011445,0.00146711,-0.00169330,0.00136210,
 -0.00005292,0.00014338,-0.00032137,0.00088495,-0.00110948,0.00133136,-
 0.00158430,-0.00613939,-0.01422579,0.00087629,-0.00772123,-0.01214952,
 -0.00242376,0.00144348,-0.00041414,0.00050864,-0.00030911,0.00040779,-
 0.00225898,0.00092785,-0.00090470,0.00402913,-0.00147696,0.00596523,-0
 .00713297,0.01071249,0.01029219,-0.02090945,0.00571576,-0.03695258,-0.
 00310001,-0.00110863,-0.00378234,-0.00040531,0.00043993,0.00050031,0.0
 0060388,-0.00141244,0.00120608,-0.00188133,-0.00013424,0.00067796,-0.0
 0057463,-0.00057208,-0.00095220,0.00038641,-0.00064902,-0.00087392,-0.
 00027783,0.00016992,-0.00042312,-0.00010813,0.00075662,0.00045743,0.00
 036479,-0.00077920,-0.00117575,0.00734080,-0.00459211,0.00061084,0.010
 89135,-0.02203840,-0.03306379,-0.02374954,0.00613432,-0.05226247,0.006
 58902,-0.01339915,-0.02863678,-0.00089204,-0.00073538,0.00086366,0.000
 57515,0.00147482,0.00101984,-0.00017633,-0.00009507,-0.00005959,-0.000
 10799,-0.00007824,0.00005682,-0.00011817,0.00004808,-0.00003261,-0.000
 22733,0.00034667,-0.00013197,-0.00010158,0.00014719,-0.00065706,0.0000
 4629,-0.00025036,-0.00005896,0.00005527,0.00006913,-0.00001096,0.00009
 050,-0.00021156,0.00011971,0.00016134,-0.00008086,0.00060755,0.0000266
 6,0.00000389,-0.00011022,0.00008580,-0.00002212,0.00030862,0.00002958,
 -0.00008439,0.00011011,0.00000388,0.00003082,-0.00013507,-0.00015531,0
 .00036957,0.00044128,-0.00001516,0.00048536,-0.00020867,0.00005560,-0.
 00029352,-0.00034759,0.00020767,0.00000874,-0.00031381,0.00020881,-0.0
 0013455,0.00036833,0.00005306,0.00045846,-0.00027727,0.00003921,0.0000
 5246,0.00000383,-0.00002908,-0.00000506,-0.00005148,-0.00023370,-0.000
 01213,-0.00001654,-0.00010292,0.00012952,0.00010138,0.00023629,-0.0001
 9870,0.00013446,0.00081051,0.00187668,-0.00214666,0.00004876,-0.000206
 81,0.00010028,0.03676751,0.02497920,0.15839840\\-0.00000658,0.00000536
 ,-0.00000179,-0.00000030,-0.00000248,-0.00000099,-0.00000048,0.0000002
 6,0.00000174,0.00000547,-0.00000042,-0.00000070,-0.00000262,-0.0000009
 2,-0.00000218,-0.00001269,0.00001925,-0.00000598,0.00001360,-0.0000047
 0,0.00002655,-0.00000431,-0.00000354,-0.00001715,0.00000135,0.00000058
 ,-0.00000516,-0.00000072,-0.00000731,0.00000509,-0.00000083,-0.0000007
 3,0.00000009,-0.00000283,-0.00000156,-0.00000027,-0.00000384,-0.000003
 31,0.00000029,0.00000163,-0.00000919,0.00000364,-0.00000481,0.00001003
 ,-0.00000141,0.00000139,-0.00000219,-0.00000153,-0.00000110,0.00000080
 ,-0.00000194,0.00000151,0.00000258,-0.00000011,0.00000133,0.00000190,0
 .00000214,-0.00000377,0.00000065,0.00000193,0.00000818,0.00002041,-0.0
 0000274,0.00000273,-0.00000644,-0.00000215,0.00000089,-0.00000141,-0.0
 0000241,-0.00000511,-0.00000432,0.00000035,0.00000155,-0.00000044,-0.0
 0000038,-0.00000117,-0.00000017,-0.00000088,-0.00000103,0.00000157,-0.
 00000128,0.00000213,-0.00000132,0.00000346,0.00000328,-0.00000077,-0.0
 0000608,-0.00000414,0.00002348,0.00001810,0.00000394,-0.00001459,-0.00
 001854,-0.00001339,-0.00002206,0.00001463,0.00001988,0.00003168,0.0000
 0119,0.00000142,-0.00000454,0.00000953,-0.00000476,-0.00000176,0.00000
 154,0.00000449,-0.00000024,0.00000513,0.00000201,-0.00000141,0.0000020
 2,-0.00000024,0.00000146,0.00000198,-0.00000013,0.00000055,-0.00000023
 ,0.00000028,-0.00000025,0.00000207,0.00000302,0.00000175,-0.00000078,-
 0.00000109,-0.00000184,0.00000316,0.00000122,0.00000085,-0.00000126,-0
 .00000092,0.00000302,0.00000034,-0.00000085,-0.00000102,0.00000036,-0.
 00000035,0.00000054,0.00000063,-0.00000004,-0.00000026,0.00000081,0.00
 000005,0.00000015,0.00000028,-0.00000071,-0.00000102,0.00000126,-0.000
 00111,-0.00000139,-0.00000089,0.00000131,-0.00000014,0.00000168,-0.000
 00002,0.00000060,0.00000044,0.00000035,0.00000005,0.00000085,0.0000001
 6,0.00000083,0.00000003,0.00000083,-0.00000094,-0.00000105,-0.00000039
 ,-0.00000039,-0.00000026,-0.00000070,-0.00000015,-0.00000146,-0.000000
 18,0.00000134,0.00000004,-0.00000208,0.00000003,-0.00000020,0.00000118
 ,-0.00000567,-0.00000080,0.00000319,0.00000199,-0.00000044,-0.00000225
 ,0.00000003,-0.00000023,-0.00000285,-0.00002283,-0.00003008\\\@
 The archive entry for this job was punched.


 A politician is a person who can make waves and then
 make you think he's the only one who can save the ship.
 -- Ivern Ball
 Job cpu time:       1 days  4 hours 31 minutes 52.7 seconds.
 Elapsed time:       0 days  0 hours 53 minutes 44.1 seconds.
 File lengths (MBytes):  RWF=   4890 Int=      0 D2E=      0 Chk=     42 Scr=      2
 Normal termination of Gaussian 16 at Fri Mar  8 01:00:42 2024.
