 Entering Gaussian System, Link 0=g16
 Initial command:
 /public/software/apps/Gaussian/g16/l1.exe "/tmp/Gau-21578.inp" -scrdir="/tmp/"
 Entering Link 1 = /public/software/apps/Gaussian/g16/l1.exe PID=     21579.
  
 Copyright (c) 1988-2019, Gaussian, Inc.  All Rights Reserved.
  
 This is part of the Gaussian(R) 16 program.  It is based on
 the Gaussian(R) 09 system (copyright 2009, Gaussian, Inc.),
 the Gaussian(R) 03 system (copyright 2003, Gaussian, Inc.),
 the Gaussian(R) 98 system (copyright 1998, Gaussian, Inc.),
 the Gaussian(R) 94 system (copyright 1995, Gaussian, Inc.),
 the Gaussian 92(TM) system (copyright 1992, Gaussian, Inc.),
 the Gaussian 90(TM) system (copyright 1990, Gaussian, Inc.),
 the Gaussian 88(TM) system (copyright 1988, Gaussian, Inc.),
 the Gaussian 86(TM) system (copyright 1986, Carnegie Mellon
 University), and the Gaussian 82(TM) system (copyright 1983,
 Carnegie Mellon University). Gaussian is a federally registered
 trademark of Gaussian, Inc.
  
 This software contains proprietary and confidential information,
 including trade secrets, belonging to Gaussian, Inc.
  
 This software is provided under written license and may be
 used, copied, transmitted, or stored only in accord with that
 written license.
  
 The following legend is applicable only to US Government
 contracts under FAR:
  
                    RESTRICTED RIGHTS LEGEND
  
 Use, reproduction and disclosure by the US Government is
 subject to restrictions as set forth in subparagraphs (a)
 and (c) of the Commercial Computer Software - Restricted
 Rights clause in FAR 52.227-19.
  
 Gaussian, Inc.
 340 Quinnipiac St., Bldg. 40, Wallingford CT 06492
  
  
 ---------------------------------------------------------------
 Warning -- This program may not be used in any manner that
 competes with the business of Gaussian, Inc. or will provide
 assistance to any competitor of Gaussian, Inc.  The licensee
 of this program is prohibited from giving any competitor of
 Gaussian, Inc. access to this program.  By using this program,
 the user acknowledges that Gaussian, Inc. is engaged in the
 business of creating and licensing software in the field of
 computational chemistry and represents and warrants to the
 licensee that it is not a competitor of Gaussian, Inc. and that
 it will not use this program in any manner prohibited above.
 ---------------------------------------------------------------
  

 Cite this work as:
 Gaussian 16, Revision C.01,
 M. J. Frisch, G. W. Trucks, H. B. Schlegel, G. E. Scuseria, 
 M. A. Robb, J. R. Cheeseman, G. Scalmani, V. Barone, 
 G. A. Petersson, H. Nakatsuji, X. Li, M. Caricato, A. V. Marenich, 
 J. Bloino, B. G. Janesko, R. Gomperts, B. Mennucci, H. P. Hratchian, 
 J. V. Ortiz, A. F. Izmaylov, J. L. Sonnenberg, D. Williams-Young, 
 F. Ding, F. Lipparini, F. Egidi, J. Goings, B. Peng, A. Petrone, 
 T. Henderson, D. Ranasinghe, V. G. Zakrzewski, J. Gao, N. Rega, 
 G. Zheng, W. Liang, M. Hada, M. Ehara, K. Toyota, R. Fukuda, 
 J. Hasegawa, M. Ishida, T. Nakajima, Y. Honda, O. Kitao, H. Nakai, 
 T. Vreven, K. Throssell, J. A. Montgomery, Jr., J. E. Peralta, 
 F. Ogliaro, M. J. Bearpark, J. J. Heyd, E. N. Brothers, K. N. Kudin, 
 V. N. Staroverov, T. A. Keith, R. Kobayashi, J. Normand, 
 K. Raghavachari, A. P. Rendell, J. C. Burant, S. S. Iyengar, 
 J. Tomasi, M. Cossi, J. M. Millam, M. Klene, C. Adamo, R. Cammi, 
 J. W. Ochterski, R. L. Martin, K. Morokuma, O. Farkas, 
 J. B. Foresman, and D. J. Fox, Gaussian, Inc., Wallingford CT, 2019.
 
 ******************************************
 Gaussian 16:  ES64L-G16RevC.01  3-Jul-2019
                 1-Aug-2024 
 ******************************************
 %nprocshared=32
 Will use up to   32 processors via shared memory.
 %mem=100GB
 ------------------------------------------
 #p opt freq b3lyp/def2svpp em=gd3bj nosymm
 ------------------------------------------
 1/18=20,19=15,26=3,38=1/1,3;
 2/9=110,12=2,15=1,17=6,18=5,40=1/2;
 3/5=43,7=202,11=2,25=1,30=1,71=1,74=-5,124=41/1,2,3;
 4//1;
 5/5=2,38=5/2;
 6/7=2,8=2,9=2,10=2,28=1/1;
 7/30=1/1,2,3,16;
 1/18=20,19=15,26=3/3(2);
 2/9=110,15=1/2;
 99//99;
 2/9=110,15=1/2;
 3/5=43,7=202,11=2,25=1,30=1,71=1,74=-5,124=41/1,2,3;
 4/5=5,16=3,69=1/1;
 5/5=2,38=5/2;
 7/30=1/1,2,3,16;
 1/18=20,19=15,26=3/3(-5);
 2/9=110,15=1/2;
 6/7=2,8=2,9=2,10=2,19=2,28=1/1;
 99/9=1/99;
 Leave Link    1 at Thu Aug  1 11:29:18 2024, MaxMem= 13421772800 cpu:               1.0 elap:               0.0
 (Enter /public/software/apps/Gaussian/g16/l101.exe)
 ------------------
 $$$$Title####2????
 ------------------
 Symbolic Z-matrix:
 Charge =  2 Multiplicity = 2
 C                     4.80635  -0.0083    2.45566 
 C                     5.24279  -0.28628   1.15826 
 C                     4.31492  -0.43863   0.12377 
 C                     2.93756  -0.32286   0.37996 
 C                     1.95323  -0.42188  -0.77156 
 N                     0.68448  -0.99134  -0.33048 
 C                    -0.27422  -0.18876  -0.64129 
 C                    -1.68155  -0.4714   -0.32473 
 C                    -2.68933   0.44134  -0.66981 
 C                    -4.01908   0.15333  -0.3551 
 C                    -4.33692  -1.0414    0.3017 
 C                    -5.66192  -1.362     0.63307 
 C                    -5.94587  -2.56395   1.2899 
 C                    -4.91276  -3.44821   1.61794 
 C                    -3.58922  -3.13606   1.29114 
 C                    -3.29529  -1.93594   0.63386 
 N                    -2.00958  -1.62847   0.31458 
 O                     0.14638   0.95994  -1.28368 
 C                     1.55704   0.93469  -1.42613 
 C                     2.18916   2.16505  -0.80583 
 C                     1.60031   2.81357   0.29656 
 C                     2.23403   3.90803   0.89225 
 C                     3.46063   4.36078   0.40039 
 C                     4.05765   3.71797  -0.68672 
 C                     3.42805   2.62302  -1.28586 
 C                     2.50908  -0.03086   1.68996 
 C                     3.44109   0.12109   2.72064 
 H                     5.52644   0.11289   3.2545 
 H                     6.30142  -0.37724   0.95232 
 H                     4.67073  -0.63583  -0.8799 
 H                     2.37205  -1.09215  -1.55513 
 H                    -2.4508    1.36812  -1.17667 
 H                    -4.79464   0.8608   -0.6232 
 H                    -6.47256  -0.68713   0.38562 
 H                    -6.96831  -2.81068   1.54529 
 H                    -5.1384   -4.37675   2.12624 
 H                    -2.79575  -3.82658   1.54908 
 H                     1.79317   0.90469  -2.51311 
 H                     0.66058   2.46551   0.70603 
 H                     1.77703   4.40105   1.74047 
 H                     3.9511    5.20627   0.86512 
 H                     5.01204   4.06429  -1.06167 
 H                     3.91132   2.12409  -2.11678 
 H                     1.45729   0.09533   1.91276 
 H                     3.10467   0.34676   3.72428 
 Cu                   -0.47062  -2.55867  -0.44011 
 
 ITRead=  0  0  0  0  0  0  0  0  0  0  0  0  0  0  0  0  0  0  0  0
 ITRead=  0  0  0  0  0  0  0  0  0  0  0  0  0  0  0  0  0  0  0  0
 ITRead=  0  0  0  0  0  0
 MicOpt= -1 -1 -1 -1 -1 -1 -1 -1 -1 -1 -1 -1 -1 -1 -1 -1 -1 -1 -1 -1
 MicOpt= -1 -1 -1 -1 -1 -1 -1 -1 -1 -1 -1 -1 -1 -1 -1 -1 -1 -1 -1 -1
 MicOpt= -1 -1 -1 -1 -1 -1
 NAtoms=     46 NQM=       46 NQMF=       0 NMMI=      0 NMMIF=      0
                NMic=       0 NMicF=      0.
                    Isotopes and Nuclear Properties:
 (Nuclear quadrupole moments (NQMom) in fm**2, nuclear magnetic moments (NMagM)
  in nuclear magnetons)

  Atom         1           2           3           4           5           6           7           8           9          10
 IAtWgt=          12          12          12          12          12          14          12          12          12          12
 AtmWgt=  12.0000000  12.0000000  12.0000000  12.0000000  12.0000000  14.0030740  12.0000000  12.0000000  12.0000000  12.0000000
 NucSpn=           0           0           0           0           0           2           0           0           0           0
 AtZEff=  -0.0000000  -0.0000000  -0.0000000  -0.0000000  -0.0000000  -0.0000000  -0.0000000  -0.0000000  -0.0000000  -0.0000000
 NQMom=    0.0000000   0.0000000   0.0000000   0.0000000   0.0000000   2.0440000   0.0000000   0.0000000   0.0000000   0.0000000
 NMagM=    0.0000000   0.0000000   0.0000000   0.0000000   0.0000000   0.4037610   0.0000000   0.0000000   0.0000000   0.0000000
 AtZNuc=   6.0000000   6.0000000   6.0000000   6.0000000   6.0000000   7.0000000   6.0000000   6.0000000   6.0000000   6.0000000

  Atom        11          12          13          14          15          16          17          18          19          20
 IAtWgt=          12          12          12          12          12          12          14          16          12          12
 AtmWgt=  12.0000000  12.0000000  12.0000000  12.0000000  12.0000000  12.0000000  14.0030740  15.9949146  12.0000000  12.0000000
 NucSpn=           0           0           0           0           0           0           2           0           0           0
 AtZEff=  -0.0000000  -0.0000000  -0.0000000  -0.0000000  -0.0000000  -0.0000000  -0.0000000  -0.0000000  -0.0000000  -0.0000000
 NQMom=    0.0000000   0.0000000   0.0000000   0.0000000   0.0000000   0.0000000   2.0440000   0.0000000   0.0000000   0.0000000
 NMagM=    0.0000000   0.0000000   0.0000000   0.0000000   0.0000000   0.0000000   0.4037610   0.0000000   0.0000000   0.0000000
 AtZNuc=   6.0000000   6.0000000   6.0000000   6.0000000   6.0000000   6.0000000   7.0000000   8.0000000   6.0000000   6.0000000

  Atom        21          22          23          24          25          26          27          28          29          30
 IAtWgt=          12          12          12          12          12          12          12           1           1           1
 AtmWgt=  12.0000000  12.0000000  12.0000000  12.0000000  12.0000000  12.0000000  12.0000000   1.0078250   1.0078250   1.0078250
 NucSpn=           0           0           0           0           0           0           0           1           1           1
 AtZEff=  -0.0000000  -0.0000000  -0.0000000  -0.0000000  -0.0000000  -0.0000000  -0.0000000  -0.0000000  -0.0000000  -0.0000000
 NQMom=    0.0000000   0.0000000   0.0000000   0.0000000   0.0000000   0.0000000   0.0000000   0.0000000   0.0000000   0.0000000
 NMagM=    0.0000000   0.0000000   0.0000000   0.0000000   0.0000000   0.0000000   0.0000000   2.7928460   2.7928460   2.7928460
 AtZNuc=   6.0000000   6.0000000   6.0000000   6.0000000   6.0000000   6.0000000   6.0000000   1.0000000   1.0000000   1.0000000

  Atom        31          32          33          34          35          36          37          38          39          40
 IAtWgt=           1           1           1           1           1           1           1           1           1           1
 AtmWgt=   1.0078250   1.0078250   1.0078250   1.0078250   1.0078250   1.0078250   1.0078250   1.0078250   1.0078250   1.0078250
 NucSpn=           1           1           1           1           1           1           1           1           1           1
 AtZEff=  -0.0000000  -0.0000000  -0.0000000  -0.0000000  -0.0000000  -0.0000000  -0.0000000  -0.0000000  -0.0000000  -0.0000000
 NQMom=    0.0000000   0.0000000   0.0000000   0.0000000   0.0000000   0.0000000   0.0000000   0.0000000   0.0000000   0.0000000
 NMagM=    2.7928460   2.7928460   2.7928460   2.7928460   2.7928460   2.7928460   2.7928460   2.7928460   2.7928460   2.7928460
 AtZNuc=   1.0000000   1.0000000   1.0000000   1.0000000   1.0000000   1.0000000   1.0000000   1.0000000   1.0000000   1.0000000

  Atom        41          42          43          44          45          46
 IAtWgt=           1           1           1           1           1          63
 AtmWgt=   1.0078250   1.0078250   1.0078250   1.0078250   1.0078250  62.9295992
 NucSpn=           1           1           1           1           1           3
 AtZEff=  -0.0000000  -0.0000000  -0.0000000  -0.0000000  -0.0000000  -0.0000000
 NQMom=    0.0000000   0.0000000   0.0000000   0.0000000   0.0000000 -22.0000000
 NMagM=    2.7928460   2.7928460   2.7928460   2.7928460   2.7928460   2.2233000
 AtZNuc=   1.0000000   1.0000000   1.0000000   1.0000000   1.0000000  29.0000000
 Leave Link  101 at Thu Aug  1 11:29:19 2024, MaxMem= 13421772800 cpu:               6.4 elap:               0.2
 (Enter /public/software/apps/Gaussian/g16/l103.exe)

 GradGradGradGradGradGradGradGradGradGradGradGradGradGradGradGradGradGrad
 Berny optimization.
 Initialization pass.
                           ----------------------------
                           !    Initial Parameters    !
                           ! (Angstroms and Degrees)  !
 --------------------------                            --------------------------
 ! Name  Definition              Value          Derivative Info.                !
 --------------------------------------------------------------------------------
 ! R1    R(1,2)                  1.3968         estimate D2E/DX2                !
 ! R2    R(1,27)                 1.3967         estimate D2E/DX2                !
 ! R3    R(1,28)                 1.0823         estimate D2E/DX2                !
 ! R4    R(2,3)                  1.398          estimate D2E/DX2                !
 ! R5    R(2,29)                 1.0823         estimate D2E/DX2                !
 ! R6    R(3,4)                  1.4058         estimate D2E/DX2                !
 ! R7    R(3,30)                 1.083          estimate D2E/DX2                !
 ! R8    R(4,5)                  1.5181         estimate D2E/DX2                !
 ! R9    R(4,26)                 1.4089         estimate D2E/DX2                !
 ! R10   R(5,6)                  1.459          estimate D2E/DX2                !
 ! R11   R(5,19)                 1.5575         estimate D2E/DX2                !
 ! R12   R(5,31)                 1.1129         estimate D2E/DX2                !
 ! R13   R(6,7)                  1.2884         estimate D2E/DX2                !
 ! R14   R(6,46)                 1.9501         estimate D2E/DX2                !
 ! R15   R(7,8)                  1.4699         estimate D2E/DX2                !
 ! R16   R(7,18)                 1.3817         estimate D2E/DX2                !
 ! R17   R(8,9)                  1.4028         estimate D2E/DX2                !
 ! R18   R(8,17)                 1.362          estimate D2E/DX2                !
 ! R19   R(9,10)                 1.3965         estimate D2E/DX2                !
 ! R20   R(9,32)                 1.0829         estimate D2E/DX2                !
 ! R21   R(10,11)                1.3999         estimate D2E/DX2                !
 ! R22   R(10,33)                1.0835         estimate D2E/DX2                !
 ! R23   R(11,12)                1.4029         estimate D2E/DX2                !
 ! R24   R(11,16)                1.4126         estimate D2E/DX2                !
 ! R25   R(12,13)                1.3988         estimate D2E/DX2                !
 ! R26   R(12,34)                1.0834         estimate D2E/DX2                !
 ! R27   R(13,14)                1.3989         estimate D2E/DX2                !
 ! R28   R(13,35)                1.0824         estimate D2E/DX2                !
 ! R29   R(14,15)                1.3986         estimate D2E/DX2                !
 ! R30   R(14,36)                1.0823         estimate D2E/DX2                !
 ! R31   R(15,16)                1.3995         estimate D2E/DX2                !
 ! R32   R(15,37)                1.083          estimate D2E/DX2                !
 ! R33   R(16,17)                1.36           estimate D2E/DX2                !
 ! R34   R(17,46)                1.9502         estimate D2E/DX2                !
 ! R35   R(18,19)                1.4181         estimate D2E/DX2                !
 ! R36   R(19,20)                1.516          estimate D2E/DX2                !
 ! R37   R(19,38)                1.1127         estimate D2E/DX2                !
 ! R38   R(20,21)                1.408          estimate D2E/DX2                !
 ! R39   R(20,25)                1.4054         estimate D2E/DX2                !
 ! R40   R(21,22)                1.398          estimate D2E/DX2                !
 ! R41   R(21,39)                1.0825         estimate D2E/DX2                !
 ! R42   R(22,23)                1.3969         estimate D2E/DX2                !
 ! R43   R(22,40)                1.0823         estimate D2E/DX2                !
 ! R44   R(23,24)                1.3969         estimate D2E/DX2                !
 ! R45   R(23,41)                1.0823         estimate D2E/DX2                !
 ! R46   R(24,25)                1.398          estimate D2E/DX2                !
 ! R47   R(24,42)                1.0823         estimate D2E/DX2                !
 ! R48   R(25,43)                1.083          estimate D2E/DX2                !
 ! R49   R(26,27)                1.3979         estimate D2E/DX2                !
 ! R50   R(26,44)                1.0825         estimate D2E/DX2                !
 ! R51   R(27,45)                1.0823         estimate D2E/DX2                !
 ! A1    A(2,1,27)             120.0044         estimate D2E/DX2                !
 ! A2    A(2,1,28)             119.9981         estimate D2E/DX2                !
 ! A3    A(27,1,28)            119.9965         estimate D2E/DX2                !
 ! A4    A(1,2,3)              120.109          estimate D2E/DX2                !
 ! A5    A(1,2,29)             119.94           estimate D2E/DX2                !
 ! A6    A(3,2,29)             119.9497         estimate D2E/DX2                !
 ! A7    A(2,3,4)              120.4294         estimate D2E/DX2                !
 ! A8    A(2,3,30)             119.1819         estimate D2E/DX2                !
 ! A9    A(4,3,30)             120.3851         estimate D2E/DX2                !
 ! A10   A(3,4,5)              119.451          estimate D2E/DX2                !
 ! A11   A(3,4,26)             118.9806         estimate D2E/DX2                !
 ! A12   A(5,4,26)             121.4394         estimate D2E/DX2                !
 ! A13   A(4,5,6)              111.0998         estimate D2E/DX2                !
 ! A14   A(4,5,19)             115.2715         estimate D2E/DX2                !
 ! A15   A(4,5,31)             109.2272         estimate D2E/DX2                !
 ! A16   A(6,5,19)             104.2302         estimate D2E/DX2                !
 ! A17   A(6,5,31)             107.7603         estimate D2E/DX2                !
 ! A18   A(19,5,31)            108.929          estimate D2E/DX2                !
 ! A19   A(5,6,7)              109.3312         estimate D2E/DX2                !
 ! A20   A(5,6,46)             144.2746         estimate D2E/DX2                !
 ! A21   A(7,6,46)              92.6566         estimate D2E/DX2                !
 ! A22   A(6,7,8)              122.7314         estimate D2E/DX2                !
 ! A23   A(6,7,18)             113.8            estimate D2E/DX2                !
 ! A24   A(8,7,18)             123.4656         estimate D2E/DX2                !
 ! A25   A(7,8,9)              120.6461         estimate D2E/DX2                !
 ! A26   A(7,8,17)             119.6711         estimate D2E/DX2                !
 ! A27   A(9,8,17)             119.6822         estimate D2E/DX2                !
 ! A28   A(8,9,10)             119.6337         estimate D2E/DX2                !
 ! A29   A(8,9,32)             120.913          estimate D2E/DX2                !
 ! A30   A(10,9,32)            119.4532         estimate D2E/DX2                !
 ! A31   A(9,10,11)            119.8624         estimate D2E/DX2                !
 ! A32   A(9,10,33)            119.4177         estimate D2E/DX2                !
 ! A33   A(11,10,33)           120.7199         estimate D2E/DX2                !
 ! A34   A(10,11,12)           121.3503         estimate D2E/DX2                !
 ! A35   A(10,11,16)           118.9032         estimate D2E/DX2                !
 ! A36   A(12,11,16)           119.7465         estimate D2E/DX2                !
 ! A37   A(11,12,13)           119.9324         estimate D2E/DX2                !
 ! A38   A(11,12,34)           120.688          estimate D2E/DX2                !
 ! A39   A(13,12,34)           119.3795         estimate D2E/DX2                !
 ! A40   A(12,13,14)           120.2223         estimate D2E/DX2                !
 ! A41   A(12,13,35)           119.8956         estimate D2E/DX2                !
 ! A42   A(14,13,35)           119.8821         estimate D2E/DX2                !
 ! A43   A(13,14,15)           120.2003         estimate D2E/DX2                !
 ! A44   A(13,14,36)           119.8983         estimate D2E/DX2                !
 ! A45   A(15,14,36)           119.9014         estimate D2E/DX2                !
 ! A46   A(14,15,16)           119.9923         estimate D2E/DX2                !
 ! A47   A(14,15,37)           119.6947         estimate D2E/DX2                !
 ! A48   A(16,15,37)           120.313          estimate D2E/DX2                !
 ! A49   A(11,16,15)           119.9063         estimate D2E/DX2                !
 ! A50   A(11,16,17)           119.9163         estimate D2E/DX2                !
 ! A51   A(15,16,17)           120.1774         estimate D2E/DX2                !
 ! A52   A(8,17,16)            122.0021         estimate D2E/DX2                !
 ! A53   A(8,17,46)             91.9204         estimate D2E/DX2                !
 ! A54   A(16,17,46)           136.8072         estimate D2E/DX2                !
 ! A55   A(7,18,19)            109.5558         estimate D2E/DX2                !
 ! A56   A(5,19,18)            103.0817         estimate D2E/DX2                !
 ! A57   A(5,19,20)            115.3963         estimate D2E/DX2                !
 ! A58   A(5,19,38)            109.4565         estimate D2E/DX2                !
 ! A59   A(18,19,20)           111.0539         estimate D2E/DX2                !
 ! A60   A(18,19,38)           108.0413         estimate D2E/DX2                !
 ! A61   A(20,19,38)           109.4574         estimate D2E/DX2                !
 ! A62   A(19,20,21)           121.3176         estimate D2E/DX2                !
 ! A63   A(19,20,25)           119.4922         estimate D2E/DX2                !
 ! A64   A(21,20,25)           119.0784         estimate D2E/DX2                !
 ! A65   A(20,21,22)           120.3059         estimate D2E/DX2                !
 ! A66   A(20,21,39)           120.7368         estimate D2E/DX2                !
 ! A67   A(22,21,39)           118.9504         estimate D2E/DX2                !
 ! A68   A(21,22,23)           120.1161         estimate D2E/DX2                !
 ! A69   A(21,22,40)           119.9445         estimate D2E/DX2                !
 ! A70   A(23,22,40)           119.938          estimate D2E/DX2                !
 ! A71   A(22,23,24)           120.0081         estimate D2E/DX2                !
 ! A72   A(22,23,41)           119.9947         estimate D2E/DX2                !
 ! A73   A(24,23,41)           119.9963         estimate D2E/DX2                !
 ! A74   A(23,24,25)           120.0972         estimate D2E/DX2                !
 ! A75   A(23,24,42)           119.9487         estimate D2E/DX2                !
 ! A76   A(25,24,42)           119.953          estimate D2E/DX2                !
 ! A77   A(20,25,24)           120.3895         estimate D2E/DX2                !
 ! A78   A(20,25,43)           120.3515         estimate D2E/DX2                !
 ! A79   A(24,25,43)           119.255          estimate D2E/DX2                !
 ! A80   A(4,26,27)            120.3528         estimate D2E/DX2                !
 ! A81   A(4,26,44)            120.7327         estimate D2E/DX2                !
 ! A82   A(27,26,44)           118.9071         estimate D2E/DX2                !
 ! A83   A(1,27,26)            120.1167         estimate D2E/DX2                !
 ! A84   A(1,27,45)            119.9379         estimate D2E/DX2                !
 ! A85   A(26,27,45)           119.9438         estimate D2E/DX2                !
 ! A86   A(6,46,17)             93.5725         estimate D2E/DX2                !
 ! D1    D(27,1,2,3)            -0.1537         estimate D2E/DX2                !
 ! D2    D(27,1,2,29)          179.4334         estimate D2E/DX2                !
 ! D3    D(28,1,2,3)          -179.7764         estimate D2E/DX2                !
 ! D4    D(28,1,2,29)           -0.1893         estimate D2E/DX2                !
 ! D5    D(2,1,27,26)            0.1805         estimate D2E/DX2                !
 ! D6    D(2,1,27,45)         -179.3594         estimate D2E/DX2                !
 ! D7    D(28,1,27,26)         179.8032         estimate D2E/DX2                !
 ! D8    D(28,1,27,45)           0.2633         estimate D2E/DX2                !
 ! D9    D(1,2,3,4)             -0.428          estimate D2E/DX2                !
 ! D10   D(1,2,3,30)           178.8815         estimate D2E/DX2                !
 ! D11   D(29,2,3,4)           179.9849         estimate D2E/DX2                !
 ! D12   D(29,2,3,30)           -0.7056         estimate D2E/DX2                !
 ! D13   D(2,3,4,5)            176.8973         estimate D2E/DX2                !
 ! D14   D(2,3,4,26)             0.9671         estimate D2E/DX2                !
 ! D15   D(30,3,4,5)            -2.4039         estimate D2E/DX2                !
 ! D16   D(30,3,4,26)         -178.334          estimate D2E/DX2                !
 ! D17   D(3,4,5,6)            149.2267         estimate D2E/DX2                !
 ! D18   D(3,4,5,19)           -92.5094         estimate D2E/DX2                !
 ! D19   D(3,4,5,31)            30.4859         estimate D2E/DX2                !
 ! D20   D(26,4,5,6)           -34.9463         estimate D2E/DX2                !
 ! D21   D(26,4,5,19)           83.3175         estimate D2E/DX2                !
 ! D22   D(26,4,5,31)         -153.6872         estimate D2E/DX2                !
 ! D23   D(3,4,26,27)           -0.9397         estimate D2E/DX2                !
 ! D24   D(3,4,26,44)          178.0649         estimate D2E/DX2                !
 ! D25   D(5,4,26,27)         -176.7858         estimate D2E/DX2                !
 ! D26   D(5,4,26,44)            2.2188         estimate D2E/DX2                !
 ! D27   D(4,5,6,7)            125.0571         estimate D2E/DX2                !
 ! D28   D(4,5,6,46)          -110.0625         estimate D2E/DX2                !
 ! D29   D(19,5,6,7)             0.312          estimate D2E/DX2                !
 ! D30   D(19,5,6,46)          125.1923         estimate D2E/DX2                !
 ! D31   D(31,5,6,7)          -115.3233         estimate D2E/DX2                !
 ! D32   D(31,5,6,46)            9.557          estimate D2E/DX2                !
 ! D33   D(4,5,19,18)         -122.3267         estimate D2E/DX2                !
 ! D34   D(4,5,19,20)           -1.0889         estimate D2E/DX2                !
 ! D35   D(4,5,19,38)          122.8829         estimate D2E/DX2                !
 ! D36   D(6,5,19,18)           -0.2931         estimate D2E/DX2                !
 ! D37   D(6,5,19,20)          120.9448         estimate D2E/DX2                !
 ! D38   D(6,5,19,38)         -115.0834         estimate D2E/DX2                !
 ! D39   D(31,5,19,18)         114.5196         estimate D2E/DX2                !
 ! D40   D(31,5,19,20)        -124.2426         estimate D2E/DX2                !
 ! D41   D(31,5,19,38)          -0.2707         estimate D2E/DX2                !
 ! D42   D(5,6,7,8)           -179.6062         estimate D2E/DX2                !
 ! D43   D(5,6,7,18)            -0.213          estimate D2E/DX2                !
 ! D44   D(46,6,7,8)            29.0477         estimate D2E/DX2                !
 ! D45   D(46,6,7,18)         -151.5591         estimate D2E/DX2                !
 ! D46   D(5,6,46,17)         -166.4241         estimate D2E/DX2                !
 ! D47   D(7,6,46,17)          -37.2228         estimate D2E/DX2                !
 ! D48   D(6,7,8,9)            179.2411         estimate D2E/DX2                !
 ! D49   D(6,7,8,17)            -0.5002         estimate D2E/DX2                !
 ! D50   D(18,7,8,9)            -0.0935         estimate D2E/DX2                !
 ! D51   D(18,7,8,17)         -179.8348         estimate D2E/DX2                !
 ! D52   D(6,7,18,19)            0.0042         estimate D2E/DX2                !
 ! D53   D(8,7,18,19)          179.3923         estimate D2E/DX2                !
 ! D54   D(7,8,9,10)          -179.7973         estimate D2E/DX2                !
 ! D55   D(7,8,9,32)             0.1413         estimate D2E/DX2                !
 ! D56   D(17,8,9,10)           -0.056          estimate D2E/DX2                !
 ! D57   D(17,8,9,32)          179.8826         estimate D2E/DX2                !
 ! D58   D(7,8,17,16)          179.8            estimate D2E/DX2                !
 ! D59   D(7,8,17,46)          -28.4195         estimate D2E/DX2                !
 ! D60   D(9,8,17,16)            0.0562         estimate D2E/DX2                !
 ! D61   D(9,8,17,46)          151.8366         estimate D2E/DX2                !
 ! D62   D(8,9,10,11)            0.0271         estimate D2E/DX2                !
 ! D63   D(8,9,10,33)          179.9958         estimate D2E/DX2                !
 ! D64   D(32,9,10,11)        -179.9124         estimate D2E/DX2                !
 ! D65   D(32,9,10,33)           0.0563         estimate D2E/DX2                !
 ! D66   D(9,10,11,12)         179.9824         estimate D2E/DX2                !
 ! D67   D(9,10,11,16)           0.0023         estimate D2E/DX2                !
 ! D68   D(33,10,11,12)          0.0141         estimate D2E/DX2                !
 ! D69   D(33,10,11,16)       -179.966          estimate D2E/DX2                !
 ! D70   D(10,11,12,13)       -179.9774         estimate D2E/DX2                !
 ! D71   D(10,11,12,34)          0.0172         estimate D2E/DX2                !
 ! D72   D(16,11,12,13)          0.0026         estimate D2E/DX2                !
 ! D73   D(16,11,12,34)        179.9971         estimate D2E/DX2                !
 ! D74   D(10,11,16,15)        179.9724         estimate D2E/DX2                !
 ! D75   D(10,11,16,17)         -0.0034         estimate D2E/DX2                !
 ! D76   D(12,11,16,15)         -0.008          estimate D2E/DX2                !
 ! D77   D(12,11,16,17)       -179.9838         estimate D2E/DX2                !
 ! D78   D(11,12,13,14)          0.0027         estimate D2E/DX2                !
 ! D79   D(11,12,13,35)        179.9984         estimate D2E/DX2                !
 ! D80   D(34,12,13,14)       -179.9919         estimate D2E/DX2                !
 ! D81   D(34,12,13,35)          0.0038         estimate D2E/DX2                !
 ! D82   D(12,13,14,15)         -0.0026         estimate D2E/DX2                !
 ! D83   D(12,13,14,36)        179.9951         estimate D2E/DX2                !
 ! D84   D(35,13,14,15)       -179.9983         estimate D2E/DX2                !
 ! D85   D(35,13,14,36)         -0.0006         estimate D2E/DX2                !
 ! D86   D(13,14,15,16)         -0.0029         estimate D2E/DX2                !
 ! D87   D(13,14,15,37)        179.9936         estimate D2E/DX2                !
 ! D88   D(36,14,15,16)        179.9995         estimate D2E/DX2                !
 ! D89   D(36,14,15,37)         -0.0041         estimate D2E/DX2                !
 ! D90   D(14,15,16,11)          0.0082         estimate D2E/DX2                !
 ! D91   D(14,15,16,17)        179.9839         estimate D2E/DX2                !
 ! D92   D(37,15,16,11)       -179.9883         estimate D2E/DX2                !
 ! D93   D(37,15,16,17)         -0.0125         estimate D2E/DX2                !
 ! D94   D(11,16,17,8)          -0.0264         estimate D2E/DX2                !
 ! D95   D(11,16,17,46)       -136.3601         estimate D2E/DX2                !
 ! D96   D(15,16,17,8)         179.9978         estimate D2E/DX2                !
 ! D97   D(15,16,17,46)         43.6641         estimate D2E/DX2                !
 ! D98   D(8,17,46,6)           36.5679         estimate D2E/DX2                !
 ! D99   D(16,17,46,6)        -179.2956         estimate D2E/DX2                !
 ! D100  D(7,18,19,5)            0.1873         estimate D2E/DX2                !
 ! D101  D(7,18,19,20)        -123.9549         estimate D2E/DX2                !
 ! D102  D(7,18,19,38)         115.9939         estimate D2E/DX2                !
 ! D103  D(5,19,20,21)         -86.701          estimate D2E/DX2                !
 ! D104  D(5,19,20,25)          89.4182         estimate D2E/DX2                !
 ! D105  D(18,19,20,21)         30.1216         estimate D2E/DX2                !
 ! D106  D(18,19,20,25)       -153.7592         estimate D2E/DX2                !
 ! D107  D(38,19,20,21)        149.3276         estimate D2E/DX2                !
 ! D108  D(38,19,20,25)        -34.5532         estimate D2E/DX2                !
 ! D109  D(19,20,21,22)        176.928          estimate D2E/DX2                !
 ! D110  D(19,20,21,39)         -2.1061         estimate D2E/DX2                !
 ! D111  D(25,20,21,22)          0.7931         estimate D2E/DX2                !
 ! D112  D(25,20,21,39)       -178.2411         estimate D2E/DX2                !
 ! D113  D(19,20,25,24)       -177.0056         estimate D2E/DX2                !
 ! D114  D(19,20,25,43)          2.2646         estimate D2E/DX2                !
 ! D115  D(21,20,25,24)         -0.799          estimate D2E/DX2                !
 ! D116  D(21,20,25,43)        178.4712         estimate D2E/DX2                !
 ! D117  D(20,21,22,23)         -0.3296         estimate D2E/DX2                !
 ! D118  D(20,21,22,40)       -179.8899         estimate D2E/DX2                !
 ! D119  D(39,21,22,23)        178.7217         estimate D2E/DX2                !
 ! D120  D(39,21,22,40)         -0.8386         estimate D2E/DX2                !
 ! D121  D(21,22,23,24)         -0.139          estimate D2E/DX2                !
 ! D122  D(21,22,23,41)       -179.7999         estimate D2E/DX2                !
 ! D123  D(40,22,23,24)        179.4213         estimate D2E/DX2                !
 ! D124  D(40,22,23,41)         -0.2395         estimate D2E/DX2                !
 ! D125  D(22,23,24,25)          0.1338         estimate D2E/DX2                !
 ! D126  D(22,23,24,42)       -179.4795         estimate D2E/DX2                !
 ! D127  D(41,23,24,25)        179.7947         estimate D2E/DX2                !
 ! D128  D(41,23,24,42)          0.1813         estimate D2E/DX2                !
 ! D129  D(23,24,25,20)          0.3411         estimate D2E/DX2                !
 ! D130  D(23,24,25,43)       -178.937          estimate D2E/DX2                !
 ! D131  D(42,24,25,20)        179.9545         estimate D2E/DX2                !
 ! D132  D(42,24,25,43)          0.6763         estimate D2E/DX2                !
 ! D133  D(4,26,27,1)            0.373          estimate D2E/DX2                !
 ! D134  D(4,26,27,45)         179.9128         estimate D2E/DX2                !
 ! D135  D(44,26,27,1)        -178.6496         estimate D2E/DX2                !
 ! D136  D(44,26,27,45)          0.8903         estimate D2E/DX2                !
 --------------------------------------------------------------------------------
 Trust Radius=3.00D-01 FncErr=1.00D-07 GrdErr=1.00D-06 EigMax=2.50D+02 EigMin=1.00D-04
 Number of steps in this run=    276 maximum allowed number of steps=    276.
 GradGradGradGradGradGradGradGradGradGradGradGradGradGradGradGradGradGrad

 Leave Link  103 at Thu Aug  1 11:29:19 2024, MaxMem= 13421772800 cpu:               0.9 elap:               0.0
 (Enter /public/software/apps/Gaussian/g16/l202.exe)
                          Input orientation:                          
 ---------------------------------------------------------------------
 Center     Atomic      Atomic             Coordinates (Angstroms)
 Number     Number       Type             X           Y           Z
 ---------------------------------------------------------------------
      1          6           0        4.806345   -0.008296    2.455662
      2          6           0        5.242787   -0.286276    1.158258
      3          6           0        4.314923   -0.438634    0.123766
      4          6           0        2.937564   -0.322859    0.379962
      5          6           0        1.953228   -0.421881   -0.771560
      6          7           0        0.684479   -0.991339   -0.330478
      7          6           0       -0.274221   -0.188755   -0.641288
      8          6           0       -1.681547   -0.471402   -0.324729
      9          6           0       -2.689331    0.441337   -0.669805
     10          6           0       -4.019080    0.153330   -0.355104
     11          6           0       -4.336917   -1.041398    0.301702
     12          6           0       -5.661920   -1.362001    0.633065
     13          6           0       -5.945867   -2.563947    1.289901
     14          6           0       -4.912760   -3.448213    1.617943
     15          6           0       -3.589215   -3.136062    1.291135
     16          6           0       -3.295286   -1.935935    0.633861
     17          7           0       -2.009579   -1.628466    0.314576
     18          8           0        0.146382    0.959939   -1.283677
     19          6           0        1.557043    0.934690   -1.426128
     20          6           0        2.189164    2.165048   -0.805826
     21          6           0        1.600307    2.813565    0.296557
     22          6           0        2.234034    3.908029    0.892246
     23          6           0        3.460631    4.360785    0.400394
     24          6           0        4.057651    3.717972   -0.686717
     25          6           0        3.428053    2.623023   -1.285859
     26          6           0        2.509076   -0.030859    1.689958
     27          6           0        3.441086    0.121094    2.720636
     28          1           0        5.526444    0.112893    3.254505
     29          1           0        6.301422   -0.377235    0.952317
     30          1           0        4.670734   -0.635831   -0.879903
     31          1           0        2.372046   -1.092155   -1.555130
     32          1           0       -2.450796    1.368116   -1.176672
     33          1           0       -4.794635    0.860803   -0.623195
     34          1           0       -6.472563   -0.687125    0.385623
     35          1           0       -6.968310   -2.810680    1.545286
     36          1           0       -5.138404   -4.376748    2.126243
     37          1           0       -2.795745   -3.826582    1.549081
     38          1           0        1.793166    0.904694   -2.513107
     39          1           0        0.660579    2.465514    0.706028
     40          1           0        1.777027    4.401046    1.740465
     41          1           0        3.951101    5.206272    0.865115
     42          1           0        5.012037    4.064291   -1.061672
     43          1           0        3.911315    2.124088   -2.116782
     44          1           0        1.457292    0.095326    1.912757
     45          1           0        3.104668    0.346764    3.724277
     46         29           0       -0.470623   -2.558673   -0.440105
 ---------------------------------------------------------------------
                    Distance matrix (angstroms):
                    1          2          3          4          5
     1  C    0.000000
     2  C    1.396786   0.000000
     3  C    2.421658   1.397969   0.000000
     4  C    2.810662   2.433338   1.405759   0.000000
     5  C    4.327388   3.816253   2.525766   1.518132   0.000000
     6  N    5.071364   4.846816   3.700263   2.455195   1.458958
     7  C    5.952799   5.803900   4.659183   3.372907   2.243401
     8  C    7.073739   7.083779   6.013308   4.674916   3.662472
     9  C    8.133626   8.172498   7.103779   5.774769   4.723225
    10  C    9.263620   9.394983   8.368712   7.011560   6.014380
    11  C    9.450190   9.647519   8.674637   7.310301   6.411054
    12  C   10.711627  10.970216  10.032417   8.665737   7.800466
    13  C   11.113074  11.418892  10.543275   9.206835   8.440010
    14  C   10.343878  10.646328   9.820400   8.539790   7.874656
    15  C    9.034626   9.281336   8.432927   7.165416   6.506932
    16  C    8.524739   8.711777   7.772862   6.443206   5.640431
    17  N    7.325710   7.423617   6.438279   5.116943   4.282450
    18  O    6.052718   5.787006   4.616669   3.493417   2.331605
    19  C    5.149318   4.664174   3.448781   2.597928   1.557468
    20  C    4.712787   4.380779   3.487428   2.855850   2.597892
    21  C    4.785741   4.859959   4.239787   3.410626   3.425425
    22  C    4.939499   5.168709   4.879973   4.319468   4.647066
    23  C    5.012379   5.034443   4.882700   4.712806   5.149722
    24  C    4.931548   4.565357   4.242693   4.326744   4.644801
    25  C    4.777291   4.210818   3.485301   3.419614   3.422142
    26  C    2.421623   2.796626   2.424937   1.408884   2.553612
    27  C    1.396741   2.419318   2.796537   2.435033   3.834576
    28  H    1.082303   2.152684   3.401984   3.892965   5.409534
    29  H    2.152073   1.082309   2.153241   3.412636   4.677664
    30  H    3.396790   2.145585   1.082977   2.165431   2.728067
    31  H    4.815290   4.031510   2.649633   2.157825   1.112950
    32  H    8.231309   8.208540   7.122530   5.858065   4.771125
    33  H   10.119956  10.258616   9.232038   7.886335   6.870294
    34  H   11.487369  11.747641  10.793524   9.417176   8.509018
    35  H   12.137736  12.475307  11.617171  10.279765   9.521973
    36  H   10.866919  11.199914  10.434752   9.203520   8.621455
    37  H    8.555289   8.792298   8.004456   6.820099   6.287297
    38  H    5.882301   5.176603   3.888044   3.344605   2.195087
    39  H    5.135010   5.364093   4.703970   3.614693   3.491598
    40  H    5.397274   5.858451   5.698871   5.051049   5.440767
    41  H    5.518424   5.649997   5.704992   5.642156   6.192440
    42  H    5.385157   4.889659   4.708244   5.062493   5.437483
    43  H    5.124001   4.278850   3.427900   3.628977   3.482195
    44  H    3.394354   3.878771   3.413452   2.171530   2.778311
    45  H    2.152012   3.399521   3.878820   3.414786   4.704166
    46  Cu   6.537299   6.353078   5.264406   4.157777   3.248199
                    6          7          8          9         10
     6  N    0.000000
     7  C    1.288352   0.000000
     8  C    2.422488   1.469920   0.000000
     9  C    3.681073   2.496114   1.402782   0.000000
    10  C    4.840903   3.771325   2.419767   1.396502   0.000000
    11  C    5.061282   4.256962   2.787167   2.420097   1.399925
    12  C    6.429820   5.659309   4.189738   3.712921   2.443692
    13  C    7.004300   6.445044   5.016991   4.845328   3.715124
    14  C    6.415735   6.102806   4.803761   5.030510   4.202700
    15  C    5.049151   4.838395   3.653851   4.177662   3.703375
    16  C    4.202468   3.715572   2.380736   2.778156   2.422180
    17  N    2.842530   2.449063   1.362025   2.390639   2.767917
    18  O    2.237325   1.381690   2.511900   2.947381   4.343264
    19  C    2.381471   2.287276   3.698465   4.341326   5.731559
    20  C    3.528854   3.411118   4.707943   5.175847   6.541594
    21  C    3.963484   3.661603   4.684823   4.996230   6.251322
    22  C    5.282043   5.042490   5.999352   6.220730   7.399668
    23  C    6.073420   5.977670   7.093506   7.370850   8.615076
    24  C    5.803689   5.833498   7.114793   7.500559   8.834604
    25  C    4.637194   4.693442   6.050392   6.523930   7.900980
    26  C    2.886839   3.634059   4.670585   5.728428   6.843466
    27  C    4.259775   5.020164   5.988879   7.012821   8.069405
    28  H    6.125035   6.993991   8.068919   9.110820  10.205290
    29  H    5.794198   6.768617   8.085017   9.172512  10.416507
    30  H    4.039614   4.970854   6.378615   7.441437   8.741342
    31  H    2.087539   2.941763   4.281453   5.362176   6.621011
    32  H    4.014103   2.729095   2.168266   1.082928   2.147136
    33  H    5.791097   4.640694   3.399289   2.147191   1.083456
    34  H    7.199208   6.302568   4.848193   4.086588   2.697150
    35  H    8.086635   7.514414   6.076104   5.813080   4.592907
    36  H    7.169549   6.989906   5.762712   6.085210   5.285033
    37  H    4.866549   4.938581   4.001229   4.811436   4.578446
    38  H    3.096449   2.995568   4.330851   4.868803   6.245297
    39  H    3.608982   3.119977   3.895316   4.148748   5.326481
    40  H    5.878799   5.562970   6.321986   6.437162   7.485276
    41  H    7.107084   7.016332   8.085693   8.316004   9.515511
    42  H    6.694908   6.797768   8.119092   8.520001   9.866911
    43  H    4.827964   5.004502   6.420913   6.963758   8.359340
    44  H    2.609633   3.098707   3.896131   4.897329   5.927665
    45  H    4.908042   5.546335   6.322318   7.272367   8.211367
    46  Cu   1.950081   2.386537   2.415854   3.738380   4.466960
                   11         12         13         14         15
    11  C    0.000000
    12  C    1.402933   0.000000
    13  C    2.425575   1.398833   0.000000
    14  C    2.803006   2.425594   1.398874   0.000000
    15  C    2.434266   2.806502   2.425103   1.398575   0.000000
    16  C    1.412629   2.435233   2.801851   2.423143   1.399539
    17  N    2.400274   3.675872   4.161820   3.665884   2.392021
    18  O    5.159336   6.542299   7.493769   7.310685   6.112411
    19  C    6.452061   7.850382   8.712688   8.386570   7.102008
    20  C    7.355110   8.726397   9.640238   9.371269   8.117184
    21  C    7.078940   8.383826   9.319287   9.131044   7.957285
    22  C    8.247604   9.496656  10.438170  10.281906   9.148145
    23  C    9.486573  10.771506  11.714322  11.514189  10.329398
    24  C    9.700379  11.046176  11.976640  11.710420  10.457736
    25  C    8.731729  10.108922  11.018601  10.717329   9.436631
    26  C    7.058050   8.345905   8.835307   8.171116   6.854962
    27  C    8.227999   9.456333   9.867691   9.151100   7.878938
    28  H   10.360373  11.585627  11.943160  11.150641   9.874501
    29  H   10.678889  12.008049  12.445552  11.646108  10.273783
    30  H    9.093869  10.468053  11.006266  10.295246   8.898950
    31  H    6.961364   8.331004   8.913364   8.287810   6.914869
    32  H    3.398353   4.586938   5.810389   6.088363   5.260579
    33  H    2.164095   2.696522   4.088298   4.858423   4.592671
    34  H    2.166457   1.083433   2.148857   3.402235   3.889851
    35  H    3.406037   2.153479   1.082353   2.153373   3.404225
    36  H    3.885343   3.404754   2.153535   1.082341   2.153298
    37  H    3.418832   3.889499   3.403629   2.151664   1.083028
    38  H    7.020566   8.403250   9.294459   8.999045   7.731105
    39  H    6.118568   7.391156   8.323552   8.177155   7.055548
    40  H    8.310869   9.475071  10.409478  10.314026   9.263177
    41  H   10.394328  11.645009  12.589945  12.411079  11.253106
    42  H   10.739171  12.093392  13.020718  12.732621  11.461340
    43  H    9.159842  10.552787  11.434474  11.084359   9.774509
    44  H    6.120498   7.378658   7.890909   7.295282   6.024576
    45  H    8.307719   9.451377   9.813797   9.116888   7.928324
    46  Cu   4.219079   5.434453   5.742059   4.975884   3.613334
                   16         17         18         19         20
    16  C    0.000000
    17  N    1.359972   0.000000
    18  O    4.889593   3.728595   0.000000
    19  C    6.002428   4.724469   1.418060   0.000000
    20  C    6.997853   5.768491   2.419419   1.515959   0.000000
    21  C    6.829228   5.723918   2.836718   2.549448   1.408039
    22  C    8.049351   6.999624   4.217128   3.830655   2.433813
    23  C    9.238268   8.111824   5.038462   4.324113   2.809423
    24  C    9.368899   8.148513   4.822980   3.813978   2.432489
    25  C    8.347018   7.085506   3.679024   2.524049   1.405354
    26  C    6.199619   4.986208   3.925113   3.398330   3.339654
    27  C    7.346067   6.209657   5.252929   4.626792   4.263917
    28  H    9.428064   8.274488   7.089263   6.191916   5.642257
    29  H    9.727680   8.428821   6.683728   5.466926   5.144408
    30  H    8.212139   6.858475   4.814486   3.529868   3.742806
    31  H    6.133702   4.793962   3.039467   2.188372   3.347279
    32  H    3.861081   3.376092   2.631234   4.038918   4.722484
    33  H    3.413207   3.851287   4.985952   6.402654   7.106888
    34  H    3.422899   4.561732   7.022095   8.389714   9.196736
    35  H    3.884196   5.244167   8.534603   9.774392  10.683863
    36  H    3.403213   4.541447   8.248439   9.255254  10.251116
    37  H    2.159100   2.640790   6.292171   7.104107   8.142146
    38  H    6.623060   5.373412   2.055833   1.112734   2.158730
    39  H    5.918347   4.903433   2.547564   2.773654   2.170842
    40  H    8.192085   7.261306   4.862680   4.700141   3.413670
    41  H   10.177167   9.085507   6.092991   5.406267   3.891723
    42  H   10.386971   9.143557   5.775888   4.675919   3.411919
    43  H    8.716933   7.419579   4.027906   2.726585   2.164737
    44  H    5.324340   4.188656   3.561352   3.444218   3.494292
    45  H    7.464636   6.456246   5.848679   5.409942   4.966502
    46  Cu   3.085438   1.950183   3.670550   4.157795   5.433393
                   21         22         23         24         25
    21  C    0.000000
    22  C    1.397965   0.000000
    23  C    2.421875   1.396942   0.000000
    24  C    2.797020   2.419675   1.396944   0.000000
    25  C    2.425078   2.796616   2.421637   1.397955   0.000000
    26  C    3.295175   4.028254   4.674930   4.701107   4.091833
    27  C    4.063745   4.375027   4.833103   4.992769   4.723539
    28  H    5.608711   5.551873   5.518888   5.539601   5.596329
    29  H    5.719415   5.908531   5.551896   4.948905   4.718817
    30  H    4.765492   5.452035   5.298083   4.400999   3.511294
    31  H    4.390783   5.568710   5.894374   5.170370   3.871719
    32  H    4.546555   5.716573   6.810886   6.936985   6.012286
    33  H    6.749408   7.809247   9.024801   9.302173   8.435469
    34  H    8.799659   9.857836  11.142260  11.464737  10.572281
    35  H   10.325340  11.412741  12.708403  13.006804  12.067513
    36  H   10.022903  11.158545  12.380082  12.569991  11.576848
    37  H    8.061367   9.249558  10.367965  10.434947   9.400529
    38  H    3.402234   4.561887   4.818038   4.046990   2.670515
    39  H    1.082541   2.142729   3.394960   3.879238   3.413405
    40  H    2.153183   1.082311   2.152193   3.399860   3.878903
    41  H    3.402137   2.152787   1.082301   2.152806   3.401976
    42  H    3.879304   3.399929   2.152303   1.082303   2.153258
    43  H    3.411794   3.879429   3.397367   2.146384   1.083010
    44  H    3.165656   4.022620   4.949217   5.161656   4.528167
    45  H    4.483021   4.632603   5.223722   5.632947   5.512476
    46  Cu   5.804512   7.135024   8.002506   7.743536   6.539491
                   26         27         28         29         30
    26  C    0.000000
    27  C    1.397866   0.000000
    28  H    3.401909   2.152627   0.000000
    29  H    3.878915   3.399530   2.478081   0.000000
    30  H    3.412176   3.879285   4.287908   2.466383   0.000000
    31  H    3.416976   4.571323   5.876645   4.715760   2.438879
    32  H    5.897036   7.173447   9.211258   9.174975   7.404057
    33  H    7.712972   8.919388  11.050819  11.275525   9.586398
    34  H    9.099550  10.216944  12.363118  12.790304  11.215046
    35  H    9.877711  10.878064  12.945562  13.504038  12.086309
    36  H    8.806875   9.705232  11.626213  12.175542  10.920191
    37  H    6.524453   7.473603   9.364121   9.747439   8.475209
    38  H    4.365036   5.542719   6.915899   5.828969   3.649790
    39  H    3.258364   4.157664   5.975467   6.321471   5.311766
    40  H    4.492241   4.695510   5.893955   6.627465   6.372597
    41  H    5.494301   5.437105   5.842380   6.058644   6.139473
    42  H    5.532317   5.685292   5.874312   5.044385   4.716002
    43  H    4.593620   5.256778   5.958546   4.624781   3.118291
    44  H    1.082502   2.142142   4.284693   4.960983   4.319693
    45  H    2.153087   1.082312   2.477979   4.292688   4.961505
    46  Cu   4.450350   5.698500   7.533407   7.249697   5.506750
                   31         32         33         34         35
    31  H    0.000000
    32  H    5.427335   0.000000
    33  H    7.486245   2.461155   0.000000
    34  H    9.064087   4.779058   2.495844   0.000000
    35  H    9.990403   6.728991   4.786122   2.469832   0.000000
    36  H    8.985985   7.150940   5.925329   4.292209   2.477627
    37  H    6.619613   5.876530   5.539488   4.972808   4.294458
    38  H    2.289154   4.473481   6.853672   8.902741  10.345918
    39  H    4.549611   3.798618   5.839631   7.805351   9.313567
    40  H    6.433526   5.965135   7.829876   9.786767  11.337019
    41  H    6.929732   7.738515   9.878566  11.983940  13.563469
    42  H    5.813948   7.935771  10.325958  12.512660  14.056677
    43  H    3.609574   6.475473   8.923018  11.044903  12.495156
    44  H    3.777979   5.141762   6.789963   8.113382   8.920240
    45  H    5.520812   7.478345   9.031264  10.195042  10.778791
    46  Cu   3.387436   4.459068   5.515743   6.340962   6.798913
                   36         37         38         39         40
    36  H    0.000000
    37  H    2.474641   0.000000
    38  H    9.872379   7.742380   0.000000
    39  H    9.080846   7.228235   3.752565   0.000000
    40  H   11.181309   9.414921   5.506143   2.462275   0.000000
    41  H   13.268150  11.295140   5.879850   4.285394   2.478149
    42  H   13.581067  11.403656   4.738233   4.961455   4.293095
    43  H   11.923152   9.686779   2.475995   4.318809   4.961661
    44  H    7.971714   5.796719   4.511780   2.776461   4.321011
    45  H    9.633977   7.547395   6.398147   4.424082   4.704821
    46  Cu   5.628474   3.312197   4.627849   5.275954   7.631809
                   41         42         43         44         45
    41  H    0.000000
    42  H    2.478349   0.000000
    43  H    4.288724   2.467637   0.000000
    44  H    5.782595   6.102141   5.135688   0.000000
    45  H    5.701410   6.353217   6.158533   2.461437   0.000000
    46  Cu   9.030482   8.620299   6.628792   4.036896   6.210181
                   46
    46  Cu   0.000000
 Symmetry turned off by external request.
 Stoichiometry    C24H18CuN2O(2+,2)
 Framework group  C1[X(C24H18CuN2O)]
 Deg. of freedom   132
 Full point group                 C1      NOp   1
 Rotational constants (GHZ):           0.3407594           0.0929702           0.0835779
 Leave Link  202 at Thu Aug  1 11:29:19 2024, MaxMem= 13421772800 cpu:               1.5 elap:               0.1
 (Enter /public/software/apps/Gaussian/g16/l301.exe)
 Standard basis: def2SVPP (5D, 7F)
 Ernie: Thresh=  0.10000D-02 Tol=  0.10000D-05 Strict=F.
   438 basis functions,   818 primitive gaussians,   467 cartesian basis functions
   106 alpha electrons      105 beta electrons
       nuclear repulsion energy      2900.8478350146 Hartrees.
 IExCor=  402 DFT=T Ex+Corr=B3LYP ExCW=0 ScaHFX=  0.200000
 ScaDFX=  0.800000  0.720000  1.000000  0.810000 ScalE2=  1.000000  1.000000
 IRadAn=      5 IRanWt=     -1 IRanGd=            0 ICorTp=0 IEmpDi=141
 NAtoms=   46 NActive=   46 NUniq=   46 SFac= 1.00D+00 NAtFMM=   60 NAOKFM=F Big=F
 Integral buffers will be    131072 words long.
 Raffenetti 2 integral format.
 Two-electron integral symmetry is turned off.
 R6Disp:  Grimme-D3(BJ) Dispersion energy=       -0.1190374719 Hartrees.
 Nuclear repulsion after empirical dispersion term =     2900.7287975427 Hartrees.
 Leave Link  301 at Thu Aug  1 11:29:19 2024, MaxMem= 13421772800 cpu:               1.3 elap:               0.1
 (Enter /public/software/apps/Gaussian/g16/l302.exe)
 NPDir=0 NMtPBC=     1 NCelOv=     1 NCel=       1 NClECP=     1 NCelD=      1
         NCelK=      1 NCelE2=     1 NClLst=     1 CellRange=     0.0.
 One-electron integrals computed using PRISM.
   1 Symmetry operations used in ECPInt.
 ECPInt:  NShTT=   21736 NPrTT=   90545 LenC2=   19002 LenP2D=   51652.
 LDataN:  DoStor=T MaxTD1= 4 Len=   56
 NBasis=   438 RedAO= T EigKep=  2.22D-04  NBF=   438
 NBsUse=   438 1.00D-06 EigRej= -1.00D+00 NBFU=   438
 Precomputing XC quadrature grid using
 IXCGrd= 4 IRadAn=           5 IRanWt=          -1 IRanGd=           0 AccXCQ= 0.00D+00.
 Generated NRdTot=       0 NPtTot=           0 NUsed=           0 NTot=          32
 NSgBfM=   460   460   460   460   460 MxSgAt=    46 MxSgA2=    46.
 Leave Link  302 at Thu Aug  1 11:29:19 2024, MaxMem= 13421772800 cpu:              15.3 elap:               0.5
 (Enter /public/software/apps/Gaussian/g16/l303.exe)
 DipDrv:  MaxL=1.
 Leave Link  303 at Thu Aug  1 11:29:19 2024, MaxMem= 13421772800 cpu:               2.2 elap:               0.1
 (Enter /public/software/apps/Gaussian/g16/l401.exe)
 ExpMin= 3.30D-02 ExpMax= 7.64D+04 ExpMxC= 1.15D+04 IAcc=3 IRadAn=         5 AccDes= 0.00D+00
 Harris functional with IExCor=  402 and IRadAn=       5 diagonalized for initial guess.
 HarFok:  IExCor=  402 AccDes= 0.00D+00 IRadAn=         5 IDoV= 1 UseB2=F ITyADJ=14
 ICtDFT=  3500011 ScaDFX=  1.000000  1.000000  1.000000  1.000000
 FoFCou: FMM=F IPFlag=           0 FMFlag=      100000 FMFlg1=           0
         NFxFlg=           0 DoJE=T BraDBF=F KetDBF=T FulRan=T
         wScrn=  0.000000 ICntrl=       500 IOpCl=  0 I1Cent=   200000004 NGrid=           0
         NMat0=    1 NMatS0=      1 NMatT0=    0 NMatD0=    1 NMtDS0=    0 NMtDT0=    0
 Symmetry not used in FoFCou.
 Harris En= -2749.47903606431    
 JPrj=0 DoOrth=F DoCkMO=F.
 Initial guess <Sx>= 0.0000 <Sy>= 0.0000 <Sz>= 0.5000 <S**2>= 0.7500 S= 0.5000
 Leave Link  401 at Thu Aug  1 11:29:20 2024, MaxMem= 13421772800 cpu:              30.3 elap:               1.0
 (Enter /public/software/apps/Gaussian/g16/l502.exe)
 Two-electron integral symmetry not used.
 UHF open shell SCF:
 Using DIIS extrapolation, IDIIS=  1040.
 NGot= 13421772800 LenX= 13421316693 LenY= 13421098137
 Requested convergence on RMS density matrix=1.00D-08 within 128 cycles.
 Requested convergence on MAX density matrix=1.00D-06.
 Requested convergence on             energy=1.00D-06.
 No special actions if energy rises.
 Fock matrices will be formed incrementally for  20 cycles.

 Cycle   1  Pass 1  IDiag  1:
 FoFJK:  IHMeth= 1 ICntrl=       0 DoSepK=F KAlg= 0 I1Cent=           0 FoldK=F
 IRaf= 800000000 NMat=       1 IRICut=       1 DoRegI=T DoRafI=F ISym2E= 0 IDoP0=0 IntGTp=1.
 FoFCou: FMM=F IPFlag=           0 FMFlag=      100000 FMFlg1=           0
         NFxFlg=           0 DoJE=F BraDBF=F KetDBF=F FulRan=T
         wScrn=  0.000000 ICntrl=         0 IOpCl=  1 I1Cent=           0 NGrid=           0
         NMat0=    1 NMatS0=      1 NMatT0=    0 NMatD0=    1 NMtDS0=    0 NMtDT0=    0
 Symmetry not used in FoFCou.
 E= -2733.13952249982    
 DIIS: error= 2.34D-01 at cycle   1 NSaved=   1.
 NSaved= 1 IEnMin= 1 EnMin= -2733.13952249982     IErMin= 1 ErrMin= 2.34D-01
 ErrMax= 2.34D-01  0.00D+00 EMaxC= 1.00D-01 BMatC= 8.11D+01 BMatP= 8.11D+01
 IDIUse=3 WtCom= 0.00D+00 WtEn= 1.00D+00
 Coeff-Com:  0.100D+01
 Coeff-En:   0.100D+01
 Coeff:      0.100D+01
 Gap=    -3.377 Goal=   None    Shift=    0.000
 Gap=     1.624 Goal=   None    Shift=    0.000
 GapD=   -3.377 DampG=0.250 DampE=0.125 DampFc=0.1250 IDamp=-1.
 Damping current iteration by 1.25D-01
 RMSDP=1.45D-01 MaxDP=2.83D+01              OVMax= 9.74D-01

 Cycle   2  Pass 1  IDiag  1:
 RMSU=  1.81D-02    CP:  1.03D+00
 E= -2738.26531190527     Delta-E=       -5.125789405458 Rises=F Damp=T
 DIIS: error= 1.37D-01 at cycle   2 NSaved=   2.
 NSaved= 2 IEnMin= 2 EnMin= -2738.26531190527     IErMin= 2 ErrMin= 1.37D-01
 ErrMax= 1.37D-01  0.00D+00 EMaxC= 1.00D-01 BMatC= 2.96D+01 BMatP= 8.11D+01
 IDIUse=3 WtCom= 0.00D+00 WtEn= 1.00D+00
 Coeff-Com: -0.116D+01 0.216D+01
 Coeff-En:   0.000D+00 0.100D+01
 Coeff:      0.000D+00 0.100D+01
 Gap=    -0.030 Goal=   None    Shift=    0.000
 Gap=    -0.194 Goal=   None    Shift=    0.000
 RMSDP=2.14D-02 MaxDP=3.22D+00 DE=-5.13D+00 OVMax= 9.50D-01

 Cycle   3  Pass 1  IDiag  1:
 RMSU=  1.96D-02    CP:  9.19D-01  5.44D-01
 E= -2721.25098903928     Delta-E=       17.014322865989 Rises=F Damp=F
 DIIS: error= 1.64D-01 at cycle   3 NSaved=   3.
 NSaved= 3 IEnMin= 2 EnMin= -2738.26531190527     IErMin= 2 ErrMin= 1.37D-01
 ErrMax= 1.64D-01  0.00D+00 EMaxC= 1.00D-01 BMatC= 7.99D+01 BMatP= 2.96D+01
 IDIUse=2 WtCom= 0.00D+00 WtEn= 1.00D+00
 EnCoef did   100 forward-backward iterations
 Coeff-En:   0.564D+00 0.371D-01 0.399D+00
 Coeff:      0.564D+00 0.371D-01 0.399D+00
 Gap=     0.059 Goal=   None    Shift=    0.000
 Gap=     0.108 Goal=   None    Shift=    0.000
 RMSDP=2.17D-02 MaxDP=4.20D+00 DE= 1.70D+01 OVMax= 9.76D-01

 Cycle   4  Pass 1  IDiag  1:
 RMSU=  9.60D-03    CP:  9.07D-01  1.02D-01  9.91D-02
 E= -2733.04728802693     Delta-E=      -11.796298987643 Rises=F Damp=F
 DIIS: error= 1.16D-01 at cycle   4 NSaved=   4.
 NSaved= 4 IEnMin= 2 EnMin= -2738.26531190527     IErMin= 4 ErrMin= 1.16D-01
 ErrMax= 1.16D-01  0.00D+00 EMaxC= 1.00D-01 BMatC= 3.67D+01 BMatP= 2.96D+01
 IDIUse=2 WtCom= 0.00D+00 WtEn= 1.00D+00
 EnCoef did   100 forward-backward iterations
 Coeff-En:   0.471D+00 0.120D-01 0.267D+00 0.250D+00
 Coeff:      0.471D+00 0.120D-01 0.267D+00 0.250D+00
 Gap=     0.231 Goal=   None    Shift=    0.000
 Gap=    -0.351 Goal=   None    Shift=    0.000
 RMSDP=1.02D-02 MaxDP=4.20D-01 DE=-1.18D+01 OVMax= 8.89D-01

 Cycle   5  Pass 1  IDiag  1:
 RMSU=  6.89D-03    CP:  8.99D-01  1.97D-02  1.57D-01  2.39D-01
 E= -2741.09935085353     Delta-E=       -8.052062826606 Rises=F Damp=F
 DIIS: error= 8.48D-02 at cycle   5 NSaved=   5.
 NSaved= 5 IEnMin= 5 EnMin= -2741.09935085353     IErMin= 5 ErrMin= 8.48D-02
 ErrMax= 8.48D-02  0.00D+00 EMaxC= 1.00D-01 BMatC= 1.64D+01 BMatP= 2.96D+01
 IDIUse=3 WtCom= 1.52D-01 WtEn= 8.48D-01
 EnCoef did   100 forward-backward iterations
 Coeff-Com: -0.572D+00 0.113D+01-0.400D-02 0.637D-01 0.384D+00
 Coeff-En:   0.225D+00 0.692D-02 0.000D+00 0.302D+00 0.466D+00
 Coeff:      0.104D+00 0.178D+00-0.610D-03 0.265D+00 0.454D+00
 Gap=     0.112 Goal=   None    Shift=    0.000
 Gap=    -0.017 Goal=   None    Shift=    0.000
 RMSDP=9.07D-03 MaxDP=6.22D-01 DE=-8.05D+00 OVMax= 9.17D-01

 Cycle   6  Pass 1  IDiag  1:
 RMSU=  7.37D-03    CP:  8.93D-01  5.66D-02  1.59D-01  2.46D-01  2.39D-01
 E= -2737.99118000323     Delta-E=        3.108170850303 Rises=F Damp=F
 DIIS: error= 6.91D-02 at cycle   6 NSaved=   6.
 NSaved= 6 IEnMin= 5 EnMin= -2741.09935085353     IErMin= 6 ErrMin= 6.91D-02
 ErrMax= 6.91D-02  0.00D+00 EMaxC= 1.00D-01 BMatC= 2.00D+01 BMatP= 1.64D+01
 IDIUse=2 WtCom= 0.00D+00 WtEn= 1.00D+00
 EnCoef did   100 forward-backward iterations
 Coeff-En:   0.191D+00 0.305D-02 0.000D+00 0.189D+00 0.429D+00 0.187D+00
 Coeff:      0.191D+00 0.305D-02 0.000D+00 0.189D+00 0.429D+00 0.187D+00
 Gap=    -0.047 Goal=   None    Shift=    0.000
 Gap=     0.126 Goal=   None    Shift=    0.000
 RMSDP=7.73D-03 MaxDP=9.44D-01 DE= 3.11D+00 OVMax= 9.63D-01

 Cycle   7  Pass 1  IDiag  1:
 RMSU=  4.13D-03    CP:  8.95D-01  2.01D-02  7.86D-02  3.40D-01  3.64D-01
                    CP:  1.62D-01
 E= -2748.67793603497     Delta-E=      -10.686756031743 Rises=F Damp=F
 DIIS: error= 2.58D-02 at cycle   7 NSaved=   7.
 NSaved= 7 IEnMin= 7 EnMin= -2748.67793603497     IErMin= 7 ErrMin= 2.58D-02
 ErrMax= 2.58D-02  0.00D+00 EMaxC= 1.00D-01 BMatC= 1.25D+00 BMatP= 1.64D+01
 IDIUse=3 WtCom= 7.42D-01 WtEn= 2.58D-01
 EnCoef did     1 forward-backward iterations
 Coeff-Com:  0.226D-01 0.173D-01-0.166D-01-0.270D-01 0.142D+00 0.107D+00
 Coeff-Com:  0.754D+00
 Coeff-En:   0.272D-01 0.000D+00 0.000D+00 0.000D+00 0.112D-02 0.000D+00
 Coeff-En:   0.972D+00
 Coeff:      0.238D-01 0.129D-01-0.123D-01-0.201D-01 0.106D+00 0.794D-01
 Coeff:      0.811D+00
 Gap=     0.281 Goal=   None    Shift=    0.000
 Gap=    -0.002 Goal=   None    Shift=    0.000
 RMSDP=4.09D-03 MaxDP=3.28D-01 DE=-1.07D+01 OVMax= 6.94D-01

 Cycle   8  Pass 1  IDiag  1:
 RMSU=  3.28D-03    CP:  9.08D-01 -3.04D-03  6.44D-02  2.19D-01  4.12D-01
                    CP:  1.69D-01  5.06D-01
 E= -2748.44541386365     Delta-E=        0.232522171325 Rises=F Damp=F
 DIIS: error= 2.77D-02 at cycle   8 NSaved=   8.
 NSaved= 8 IEnMin= 7 EnMin= -2748.67793603497     IErMin= 7 ErrMin= 2.58D-02
 ErrMax= 2.77D-02  0.00D+00 EMaxC= 1.00D-01 BMatC= 2.28D+00 BMatP= 1.25D+00
 IDIUse=2 WtCom= 0.00D+00 WtEn= 1.00D+00
 Coeff-En:   0.000D+00 0.000D+00 0.000D+00 0.000D+00 0.000D+00 0.000D+00
 Coeff-En:   0.572D+00 0.428D+00
 Coeff:      0.000D+00 0.000D+00 0.000D+00 0.000D+00 0.000D+00 0.000D+00
 Coeff:      0.572D+00 0.428D+00
 Gap=     0.289 Goal=   None    Shift=    0.000
 Gap=    -0.009 Goal=   None    Shift=    0.000
 RMSDP=2.80D-03 MaxDP=3.86D-01 DE= 2.33D-01 OVMax= 6.41D-01

 Cycle   9  Pass 1  IDiag  1:
 RMSU=  1.80D-03    CP:  8.95D-01  1.30D-03  8.76D-02  2.76D-01  4.57D-01
                    CP:  2.08D-01  6.68D-01  4.40D-01
 E= -2748.86345329244     Delta-E=       -0.418039428791 Rises=F Damp=F
 DIIS: error= 3.05D-02 at cycle   9 NSaved=   9.
 NSaved= 9 IEnMin= 9 EnMin= -2748.86345329244     IErMin= 7 ErrMin= 2.58D-02
 ErrMax= 3.05D-02  0.00D+00 EMaxC= 1.00D-01 BMatC= 1.35D+00 BMatP= 1.25D+00
 IDIUse=3 WtCom= 7.42D-01 WtEn= 2.58D-01
 EnCoef did     4 forward-backward iterations
 Coeff-Com: -0.118D-02 0.121D-02-0.387D-02-0.628D-02-0.940D-03-0.212D-02
 Coeff-Com:  0.423D+00 0.299D+00 0.292D+00
 Coeff-En:   0.000D+00 0.000D+00 0.000D+00 0.000D+00 0.000D+00 0.000D+00
 Coeff-En:   0.362D+00 0.277D+00 0.362D+00
 Coeff:     -0.874D-03 0.897D-03-0.287D-02-0.466D-02-0.697D-03-0.157D-02
 Coeff:      0.407D+00 0.293D+00 0.310D+00
 Gap=     0.153 Goal=   None    Shift=    0.000
 Gap=     0.014 Goal=   None    Shift=    0.000
 RMSDP=1.85D-03 MaxDP=1.11D-01 DE=-4.18D-01 OVMax= 7.13D-01

 Cycle  10  Pass 1  IDiag  1:
 RMSU=  1.12D-03    CP:  8.97D-01  2.20D-03  7.13D-02  2.76D-01  4.07D-01
                    CP:  1.73D-01  7.80D-01  4.73D-01  2.92D-01
 E= -2749.12904126709     Delta-E=       -0.265587974648 Rises=F Damp=F
 DIIS: error= 5.27D-03 at cycle  10 NSaved=  10.
 NSaved=10 IEnMin=10 EnMin= -2749.12904126709     IErMin=10 ErrMin= 5.27D-03
 ErrMax= 5.27D-03  0.00D+00 EMaxC= 1.00D-01 BMatC= 5.24D-02 BMatP= 1.25D+00
 IDIUse=3 WtCom= 9.47D-01 WtEn= 5.27D-02
 Coeff-Com: -0.184D-01 0.315D-01-0.179D-02-0.597D-02-0.253D-02-0.985D-02
 Coeff-Com:  0.131D+00 0.126D+00 0.164D+00 0.586D+00
 Coeff-En:   0.000D+00 0.000D+00 0.000D+00 0.000D+00 0.000D+00 0.000D+00
 Coeff-En:   0.000D+00 0.000D+00 0.263D-01 0.974D+00
 Coeff:     -0.175D-01 0.299D-01-0.170D-02-0.565D-02-0.239D-02-0.933D-02
 Coeff:      0.124D+00 0.119D+00 0.157D+00 0.606D+00
 Gap=     0.121 Goal=   None    Shift=    0.000
 Gap=     0.014 Goal=   None    Shift=    0.000
 RMSDP=1.17D-03 MaxDP=7.54D-02 DE=-2.66D-01 OVMax= 5.33D-01

 Cycle  11  Pass 1  IDiag  1:
 RMSU=  7.63D-04    CP:  8.96D-01  2.79D-03  7.38D-02  2.77D-01  4.21D-01
                    CP:  1.76D-01  7.56D-01  4.74D-01  6.41D-01  4.70D-01
 E= -2749.10001648338     Delta-E=        0.029024783703 Rises=F Damp=F
 DIIS: error= 8.88D-03 at cycle  11 NSaved=  11.
 NSaved=11 IEnMin=10 EnMin= -2749.12904126709     IErMin=10 ErrMin= 5.27D-03
 ErrMax= 8.88D-03  0.00D+00 EMaxC= 1.00D-01 BMatC= 1.66D-01 BMatP= 5.24D-02
 IDIUse=3 WtCom= 9.47D-01 WtEn= 5.27D-02
 Coeff-Com: -0.220D-01 0.397D-01-0.783D-03-0.646D-02-0.194D-02-0.629D-02
 Coeff-Com:  0.108D-01 0.375D-01 0.670D-03 0.596D+00 0.353D+00
 Coeff-En:   0.000D+00 0.000D+00 0.000D+00 0.000D+00 0.000D+00 0.000D+00
 Coeff-En:   0.000D+00 0.000D+00 0.000D+00 0.653D+00 0.347D+00
 Coeff:     -0.208D-01 0.376D-01-0.742D-03-0.612D-02-0.183D-02-0.596D-02
 Coeff:      0.102D-01 0.356D-01 0.635D-03 0.599D+00 0.352D+00
 Gap=     0.147 Goal=   None    Shift=    0.000
 Gap=     0.020 Goal=   None    Shift=    0.000
 RMSDP=7.28D-04 MaxDP=4.37D-02 DE= 2.90D-02 OVMax= 2.83D-01

 Cycle  12  Pass 1  IDiag  1:
 RMSU=  3.19D-04    CP:  8.97D-01  2.29D-03  7.19D-02  2.75D-01  4.19D-01
                    CP:  1.69D-01  7.64D-01  4.75D-01  4.78D-01  8.71D-01
                    CP:  5.21D-01
 E= -2749.14647903256     Delta-E=       -0.046462549178 Rises=F Damp=F
 DIIS: error= 5.08D-03 at cycle  12 NSaved=  12.
 NSaved=12 IEnMin=12 EnMin= -2749.14647903256     IErMin=12 ErrMin= 5.08D-03
 ErrMax= 5.08D-03  0.00D+00 EMaxC= 1.00D-01 BMatC= 3.01D-02 BMatP= 5.24D-02
 IDIUse=3 WtCom= 9.49D-01 WtEn= 5.08D-02
 Coeff-Com: -0.113D-01 0.217D-01-0.244D-04-0.493D-02-0.182D-02-0.193D-02
 Coeff-Com:  0.462D-02 0.238D-01-0.892D-01 0.221D+00 0.170D+00 0.669D+00
 Coeff-En:   0.000D+00 0.000D+00 0.000D+00 0.000D+00 0.000D+00 0.000D+00
 Coeff-En:   0.000D+00 0.000D+00 0.000D+00 0.660D-01 0.000D+00 0.934D+00
 Coeff:     -0.107D-01 0.206D-01-0.232D-04-0.468D-02-0.173D-02-0.183D-02
 Coeff:      0.438D-02 0.226D-01-0.847D-01 0.213D+00 0.161D+00 0.682D+00
 Gap=     0.122 Goal=   None    Shift=    0.000
 Gap=     0.011 Goal=   None    Shift=    0.000
 RMSDP=1.94D-04 MaxDP=1.48D-02 DE=-4.65D-02 OVMax= 5.25D-02

 Cycle  13  Pass 1  IDiag  1:
 RMSU=  1.53D-04    CP:  8.98D-01  3.06D-03  7.06D-02  2.72D-01  4.15D-01
                    CP:  1.65D-01  7.67D-01  4.84D-01  4.48D-01  8.99D-01
                    CP:  6.20D-01  1.00D+00
 E= -2749.15058771522     Delta-E=       -0.004108682660 Rises=F Damp=F
 DIIS: error= 1.75D-03 at cycle  13 NSaved=  13.
 NSaved=13 IEnMin=13 EnMin= -2749.15058771522     IErMin=13 ErrMin= 1.75D-03
 ErrMax= 1.75D-03  0.00D+00 EMaxC= 1.00D-01 BMatC= 5.52D-03 BMatP= 3.01D-02
 IDIUse=3 WtCom= 9.82D-01 WtEn= 1.75D-02
 Coeff-Com: -0.596D-02 0.105D-01 0.369D-03-0.901D-03-0.171D-02 0.118D-02
 Coeff-Com:  0.658D-02 0.182D-01-0.613D-01 0.230D-02-0.384D-01 0.348D+00
 Coeff-Com:  0.721D+00
 Coeff-En:   0.000D+00 0.000D+00 0.000D+00 0.000D+00 0.000D+00 0.000D+00
 Coeff-En:   0.000D+00 0.000D+00 0.000D+00 0.000D+00 0.000D+00 0.000D+00
 Coeff-En:   0.100D+01
 Coeff:     -0.585D-02 0.103D-01 0.362D-03-0.885D-03-0.168D-02 0.116D-02
 Coeff:      0.646D-02 0.179D-01-0.602D-01 0.226D-02-0.378D-01 0.342D+00
 Coeff:      0.726D+00
 Gap=     0.122 Goal=   None    Shift=    0.000
 Gap=     0.012 Goal=   None    Shift=    0.000
 RMSDP=1.69D-04 MaxDP=8.74D-03 DE=-4.11D-03 OVMax= 9.70D-02

 Cycle  14  Pass 1  IDiag  1:
 RMSU=  1.37D-04    CP:  8.97D-01  3.17D-03  7.06D-02  2.72D-01  4.13D-01
                    CP:  1.65D-01  7.67D-01  4.87D-01  4.19D-01  9.08D-01
                    CP:  5.61D-01  1.17D+00  1.29D+00
 E= -2749.15134006682     Delta-E=       -0.000752351596 Rises=F Damp=F
 DIIS: error= 8.71D-04 at cycle  14 NSaved=  14.
 NSaved=14 IEnMin=14 EnMin= -2749.15134006682     IErMin=14 ErrMin= 8.71D-04
 ErrMax= 8.71D-04  0.00D+00 EMaxC= 1.00D-01 BMatC= 2.24D-03 BMatP= 5.52D-03
 IDIUse=3 WtCom= 9.91D-01 WtEn= 8.71D-03
 Coeff-Com: -0.421D-02 0.735D-02 0.130D-03 0.146D-03-0.382D-02 0.137D-02
 Coeff-Com:  0.455D-02 0.723D-02-0.165D-01 0.212D-01-0.449D-01 0.390D-01
 Coeff-Com:  0.432D+00 0.556D+00
 Coeff-En:   0.000D+00 0.000D+00 0.000D+00 0.000D+00 0.000D+00 0.000D+00
 Coeff-En:   0.000D+00 0.000D+00 0.000D+00 0.000D+00 0.000D+00 0.000D+00
 Coeff-En:   0.103D+00 0.897D+00
 Coeff:     -0.418D-02 0.728D-02 0.129D-03 0.144D-03-0.378D-02 0.135D-02
 Coeff:      0.451D-02 0.717D-02-0.163D-01 0.210D-01-0.445D-01 0.387D-01
 Coeff:      0.429D+00 0.559D+00
 Gap=     0.123 Goal=   None    Shift=    0.000
 Gap=     0.013 Goal=   None    Shift=    0.000
 RMSDP=6.55D-05 MaxDP=2.46D-03 DE=-7.52D-04 OVMax= 3.09D-02

 Cycle  15  Pass 1  IDiag  1:
 RMSU=  4.77D-05    CP:  8.98D-01  3.21D-03  7.06D-02  2.73D-01  4.13D-01
                    CP:  1.65D-01  7.68D-01  4.86D-01  4.16D-01  9.03D-01
                    CP:  5.42D-01  1.21D+00  1.50D+00  1.15D+00
 E= -2749.15149711727     Delta-E=       -0.000157050456 Rises=F Damp=F
 DIIS: error= 7.36D-04 at cycle  15 NSaved=  15.
 NSaved=15 IEnMin=15 EnMin= -2749.15149711727     IErMin=15 ErrMin= 7.36D-04
 ErrMax= 7.36D-04  0.00D+00 EMaxC= 1.00D-01 BMatC= 1.49D-03 BMatP= 2.24D-03
 IDIUse=3 WtCom= 9.93D-01 WtEn= 7.36D-03
 Coeff-Com: -0.375D-02 0.668D-02 0.702D-04 0.105D-03-0.429D-02 0.137D-02
 Coeff-Com:  0.316D-02 0.442D-02-0.871D-02 0.370D-01-0.269D-01-0.139D-02
 Coeff-Com:  0.268D+00 0.333D+00 0.391D+00
 Coeff-En:   0.000D+00 0.000D+00 0.000D+00 0.000D+00 0.000D+00 0.000D+00
 Coeff-En:   0.000D+00 0.000D+00 0.000D+00 0.000D+00 0.000D+00 0.000D+00
 Coeff-En:   0.000D+00 0.000D+00 0.100D+01
 Coeff:     -0.372D-02 0.664D-02 0.697D-04 0.104D-03-0.426D-02 0.136D-02
 Coeff:      0.314D-02 0.438D-02-0.864D-02 0.367D-01-0.267D-01-0.138D-02
 Coeff:      0.266D+00 0.331D+00 0.396D+00
 Gap=     0.124 Goal=   None    Shift=    0.000
 Gap=     0.014 Goal=   None    Shift=    0.000
 RMSDP=2.80D-05 MaxDP=1.29D-03 DE=-1.57D-04 OVMax= 5.12D-03

 Cycle  16  Pass 1  IDiag  1:
 RMSU=  2.32D-05    CP:  8.97D-01  3.25D-03  7.06D-02  2.73D-01  4.12D-01
                    CP:  1.66D-01  7.69D-01  4.85D-01  4.18D-01  8.99D-01
                    CP:  5.42D-01  1.19D+00  1.46D+00  1.19D+00  1.06D+00
 E= -2749.15164348315     Delta-E=       -0.000146365874 Rises=F Damp=F
 DIIS: error= 8.65D-04 at cycle  16 NSaved=  16.
 NSaved=16 IEnMin=16 EnMin= -2749.15164348315     IErMin=15 ErrMin= 7.36D-04
 ErrMax= 8.65D-04  0.00D+00 EMaxC= 1.00D-01 BMatC= 1.28D-03 BMatP= 1.49D-03
 IDIUse=3 WtCom= 9.93D-01 WtEn= 7.36D-03
 Coeff-Com: -0.256D-02 0.476D-02 0.399D-04-0.677D-04-0.368D-02 0.113D-02
 Coeff-Com:  0.230D-02 0.370D-02-0.848D-02 0.124D-01-0.210D-01-0.115D-01
 Coeff-Com:  0.845D-01-0.214D+00-0.232D+00 0.138D+01
 Coeff-En:   0.000D+00 0.000D+00 0.000D+00 0.000D+00 0.000D+00 0.000D+00
 Coeff-En:   0.000D+00 0.000D+00 0.000D+00 0.000D+00 0.000D+00 0.000D+00
 Coeff-En:   0.000D+00 0.000D+00 0.000D+00 0.100D+01
 Coeff:     -0.254D-02 0.472D-02 0.396D-04-0.672D-04-0.365D-02 0.113D-02
 Coeff:      0.228D-02 0.367D-02-0.842D-02 0.123D-01-0.209D-01-0.114D-01
 Coeff:      0.838D-01-0.212D+00-0.231D+00 0.138D+01
 Gap=     0.125 Goal=   None    Shift=    0.000
 Gap=     0.016 Goal=   None    Shift=    0.000
 RMSDP=6.25D-05 MaxDP=3.80D-03 DE=-1.46D-04 OVMax= 2.04D-02

 Cycle  17  Pass 1  IDiag  1:
 RMSU=  2.94D-05    CP:  8.97D-01  3.33D-03  7.05D-02  2.74D-01  4.10D-01
                    CP:  1.67D-01  7.71D-01  4.82D-01  4.22D-01  8.99D-01
                    CP:  5.50D-01  1.15D+00  1.32D+00  1.12D+00  1.52D+00
                    CP:  2.52D+00
 E= -2749.15188566305     Delta-E=       -0.000242179900 Rises=F Damp=F
 DIIS: error= 9.69D-04 at cycle  17 NSaved=  17.
 NSaved=17 IEnMin=17 EnMin= -2749.15188566305     IErMin=15 ErrMin= 7.36D-04
 ErrMax= 9.69D-04  0.00D+00 EMaxC= 1.00D-01 BMatC= 1.03D-03 BMatP= 1.28D-03
 IDIUse=3 WtCom= 9.93D-01 WtEn= 7.36D-03
 Coeff-Com: -0.150D-02 0.276D-02 0.230D-04-0.471D-04-0.172D-02 0.287D-03
 Coeff-Com:  0.166D-02 0.344D-02-0.376D-02-0.225D-01-0.377D-01-0.853D-01
 Coeff-Com:  0.335D-01-0.122D+00-0.247D+00 0.560D+00 0.920D+00
 Coeff-En:   0.000D+00 0.000D+00 0.000D+00 0.000D+00 0.000D+00 0.000D+00
 Coeff-En:   0.000D+00 0.000D+00 0.000D+00 0.000D+00 0.000D+00 0.000D+00
 Coeff-En:   0.000D+00 0.000D+00 0.000D+00 0.000D+00 0.100D+01
 Coeff:     -0.149D-02 0.274D-02 0.229D-04-0.468D-04-0.170D-02 0.285D-03
 Coeff:      0.165D-02 0.341D-02-0.374D-02-0.223D-01-0.374D-01-0.847D-01
 Coeff:      0.332D-01-0.121D+00-0.245D+00 0.556D+00 0.920D+00
 Gap=     0.125 Goal=   None    Shift=    0.000
 Gap=     0.017 Goal=   None    Shift=    0.000
 RMSDP=5.21D-05 MaxDP=2.46D-03 DE=-2.42D-04 OVMax= 1.81D-02

 Cycle  18  Pass 1  IDiag  1:
 RMSU=  2.86D-05    CP:  8.97D-01  3.54D-03  7.03D-02  2.74D-01  4.09D-01
                    CP:  1.68D-01  7.73D-01  4.82D-01  4.20D-01  9.05D-01
                    CP:  5.62D-01  1.13D+00  1.20D+00  1.03D+00  1.67D+00
                    CP:  3.00D+00  1.69D+00
 E= -2749.15196770345     Delta-E=       -0.000082040402 Rises=F Damp=F
 DIIS: error= 7.61D-04 at cycle  18 NSaved=  18.
 NSaved=18 IEnMin=18 EnMin= -2749.15196770345     IErMin=15 ErrMin= 7.36D-04
 ErrMax= 7.61D-04  0.00D+00 EMaxC= 1.00D-01 BMatC= 6.83D-04 BMatP= 1.03D-03
 IDIUse=3 WtCom= 9.93D-01 WtEn= 7.36D-03
 Coeff-Com: -0.473D-03 0.911D-03-0.554D-04-0.369D-04-0.402D-03-0.187D-03
 Coeff-Com:  0.214D-02 0.162D-02 0.398D-02-0.271D-01-0.380D-01-0.133D+00
 Coeff-Com:  0.496D-01 0.241D+00 0.378D+00-0.672D+00 0.389D+00 0.805D+00
 Coeff-En:   0.000D+00 0.000D+00 0.000D+00 0.000D+00 0.000D+00 0.000D+00
 Coeff-En:   0.000D+00 0.000D+00 0.000D+00 0.000D+00 0.000D+00 0.000D+00
 Coeff-En:   0.000D+00 0.000D+00 0.000D+00 0.000D+00 0.000D+00 0.100D+01
 Coeff:     -0.469D-03 0.904D-03-0.550D-04-0.366D-04-0.399D-03-0.186D-03
 Coeff:      0.213D-02 0.161D-02 0.395D-02-0.269D-01-0.377D-01-0.132D+00
 Coeff:      0.492D-01 0.239D+00 0.375D+00-0.667D+00 0.386D+00 0.807D+00
 Gap=     0.125 Goal=   None    Shift=    0.000
 Gap=     0.017 Goal=   None    Shift=    0.000
 RMSDP=3.19D-05 MaxDP=9.85D-04 DE=-8.20D-05 OVMax= 1.08D-02

 Cycle  19  Pass 1  IDiag  1:
 RMSU=  1.55D-05    CP:  8.98D-01  3.56D-03  7.01D-02  2.73D-01  4.08D-01
                    CP:  1.67D-01  7.74D-01  4.83D-01  4.17D-01  9.14D-01
                    CP:  5.71D-01  1.13D+00  1.16D+00  9.32D-01  1.54D+00
                    CP:  3.00D+00  2.22D+00  1.18D+00
 E= -2749.15204027043     Delta-E=       -0.000072566978 Rises=F Damp=F
 DIIS: error= 3.81D-04 at cycle  19 NSaved=  19.
 NSaved=19 IEnMin=19 EnMin= -2749.15204027043     IErMin=19 ErrMin= 3.81D-04
 ErrMax= 3.81D-04  0.00D+00 EMaxC= 1.00D-01 BMatC= 2.42D-04 BMatP= 6.83D-04
 IDIUse=3 WtCom= 9.96D-01 WtEn= 3.81D-03
 Coeff-Com: -0.564D-04 0.140D-03-0.176D-04 0.753D-06-0.150D-03-0.354D-04
 Coeff-Com:  0.102D-02-0.381D-03 0.314D-02-0.269D-02-0.991D-02-0.685D-01
 Coeff-Com:  0.890D-01 0.366D+00 0.641D+00-0.791D+00-0.571D+00 0.331D+00
 Coeff-Com:  0.101D+01
 Coeff-En:   0.000D+00 0.000D+00 0.000D+00 0.000D+00 0.000D+00 0.000D+00
 Coeff-En:   0.000D+00 0.000D+00 0.000D+00 0.000D+00 0.000D+00 0.000D+00
 Coeff-En:   0.000D+00 0.000D+00 0.000D+00 0.000D+00 0.000D+00 0.000D+00
 Coeff-En:   0.100D+01
 Coeff:     -0.561D-04 0.139D-03-0.175D-04 0.750D-06-0.149D-03-0.352D-04
 Coeff:      0.102D-02-0.380D-03 0.313D-02-0.268D-02-0.987D-02-0.682D-01
 Coeff:      0.886D-01 0.365D+00 0.639D+00-0.788D+00-0.569D+00 0.330D+00
 Coeff:      0.101D+01
 Gap=     0.124 Goal=   None    Shift=    0.000
 Gap=     0.015 Goal=   None    Shift=    0.000
 RMSDP=5.71D-05 MaxDP=5.17D-03 DE=-7.26D-05 OVMax= 1.70D-02

 Cycle  20  Pass 1  IDiag  1:
 RMSU=  2.11D-05    CP:  8.98D-01  3.62D-03  6.99D-02  2.72D-01  4.09D-01
                    CP:  1.65D-01  7.72D-01  4.86D-01  4.08D-01  9.24D-01
                    CP:  5.71D-01  1.16D+00  1.32D+00  9.71D-01  1.15D+00
                    CP:  2.39D+00  1.90D+00  1.12D+00  1.79D+00
 E= -2749.15207145136     Delta-E=       -0.000031180936 Rises=F Damp=F
 DIIS: error= 2.25D-04 at cycle  20 NSaved=  20.
 NSaved=20 IEnMin=20 EnMin= -2749.15207145136     IErMin=20 ErrMin= 2.25D-04
 ErrMax= 2.25D-04  0.00D+00 EMaxC= 1.00D-01 BMatC= 1.18D-04 BMatP= 2.42D-04
 IDIUse=3 WtCom= 9.98D-01 WtEn= 2.25D-03
 Coeff-Com: -0.165D-03 0.285D-03 0.143D-05-0.154D-04-0.267D-04 0.193D-04
 Coeff-Com:  0.188D-03-0.131D-05 0.785D-03 0.137D-02 0.173D-02-0.280D-01
 Coeff-Com:  0.268D-01 0.963D-01 0.204D+00-0.204D+00-0.252D+00 0.118D+00
 Coeff-Com:  0.650D+00 0.385D+00
 Coeff-En:   0.000D+00 0.000D+00 0.000D+00 0.000D+00 0.000D+00 0.000D+00
 Coeff-En:   0.000D+00 0.000D+00 0.000D+00 0.000D+00 0.000D+00 0.000D+00
 Coeff-En:   0.000D+00 0.000D+00 0.000D+00 0.000D+00 0.000D+00 0.000D+00
 Coeff-En:   0.394D+00 0.606D+00
[...]
 015283,-0.00011969,0.00013066,0.00000304,0.00007887,0.00000182,0.00000
 155,-0.00000316,-0.00000676,0.00000541,-0.00002204,0.00006883,0.000022
 16,0.00000357,0.00003650,-0.00000050,-0.00005369,-0.00001500,0.0000065
 9,0.00000943,0.00000088,-0.00000049,0.00000034,-0.00000065,0.00000028,
 0.00000411,-0.00000089,0.00000074,0.00000040,0.00000038,0.00000014,0.0
 0000051,-0.00000007,0.00000870,-0.00000276,-0.00033492,-0.00049788,-0.
 00078813,-0.00014821,0.00047328,0.00112048,-0.00018623,0.00041873,-0.0
 0030941,0.00033898,-0.00028887,-0.00071284,-0.00024780,0.00191121,-0.0
 0109361,0.08684935,0.00004331,-0.00004574,-0.00007021,0.00005282,0.000
 04665,0.00008735,-0.00007347,0.00004177,0.00003508,-0.00000224,0.00013
 166,-0.00002421,-0.00014281,-0.00023692,-0.00002763,0.00001415,-0.0000
 9898,-0.00003404,-0.00004299,-0.00004813,0.00004975,0.00001927,0.00007
 508,-0.00002948,0.00002749,0.00000617,-0.00001134,-0.00001723,-0.00001
 173,0.00000754,-0.00000830,0.00002509,-0.00000223,0.00000317,0.0000095
 5,-0.00000492,-0.00000428,-0.00000156,0.00000276,0.00000830,-0.0000055
 4,0.00000304,-0.00000023,-0.00000284,-0.00000281,0.00002567,-0.0000247
 2,0.00001383,0.00001580,-0.00004086,-0.00000550,0.00057024,0.00019830,
 -0.00015599,0.00044619,-0.00171537,0.00201235,-0.00335647,0.00740119,0
 .00795960,-0.00404828,0.00239176,-0.00167058,0.00015179,-0.00032175,0.
 00051100,-0.00538548,0.00100397,-0.00371300,0.00855985,-0.00496016,-0.
 01921494,0.03362432,-0.09858984,-0.10605187,-0.00004877,0.00005046,-0.
 00004143,0.00001611,0.00001611,-0.00001755,0.00000508,-0.00000133,-0.0
 0000669,0.00000149,-0.00000478,0.00000187,0.00004317,-0.00006081,-0.00
 001919,-0.00005276,-0.00017155,0.00006128,-0.00000141,0.00000711,-0.00
 000220,0.00000243,0.00000320,-0.00000090,0.00000040,-0.00000068,-0.000
 00271,-0.00000055,-0.00000022,-0.00000008,-0.00000013,-0.00000048,-0.0
 0000005,-0.00000157,-0.00000605,0.00000222,-0.00030313,0.00030261,0.00
 026086,-0.00038586,0.00055289,0.00029413,0.00040017,-0.00051584,0.0004
 2566,0.00050069,-0.00027741,-0.00072102,0.00185842,-0.00145101,0.00211
 135,-0.03249132,0.09632623,-0.00035713,0.00018228,0.00041861,0.0000311
 9,-0.00017095,-0.00025547,-0.00023637,-0.00025538,-0.00016932,0.000414
 84,-0.00029380,-0.00035275,0.00019471,0.00035291,-0.00000084,0.0000270
 5,-0.00009776,0.00013711,-0.00010764,0.00032505,-0.00009329,0.00000605
 ,-0.00003281,0.00000609,-0.00000504,-0.00001661,0.00000044,0.00000589,
 0.00000301,-0.00000091,0.00000806,-0.00000422,0.00001296,0.00000845,0.
 00000491,-0.00000465,0.00000251,-0.00001440,0.00000824,-0.00000949,0.0
 0000012,0.00000468,-0.00000569,0.00000442,-0.00000872,-0.00001291,-0.0
 0000861,0.00001892,-0.00002439,0.00000577,-0.00002843,-0.00040369,-0.0
 0053043,0.00030331,-0.00126549,0.00102749,-0.00079304,0.00175396,-0.00
 451593,-0.00494793,0.00299310,-0.00136550,0.00225020,-0.00031887,0.000
 54502,0.00016094,-0.00013662,-0.00402722,0.00221603,0.00594873,-0.0045
 8735,-0.00649809,0.08700880,-0.10724740,-0.25163979,-0.00013914,0.0000
 4640,0.00011708,0.00031665,0.00004607,0.00025780,-0.00000777,0.0000054
 7,0.00000829,0.00000118,0.00003134,-0.00001993,-0.00007297,0.00022504,
 0.00011176,0.00001308,0.00016168,0.00003811,0.00001071,-0.00000297,0.0
 0000116,-0.00000107,0.00000031,0.00000165,-0.00000027,-0.00000094,-0.0
 0000326,0.00000033,-0.00000065,-0.00000018,-0.00000045,0.00000012,-0.0
 0000001,0.00000020,-0.00000489,0.00000083,0.00036553,0.00026419,0.0001
 5650,0.00002616,-0.00047372,-0.00013743,-0.00025824,0.00039373,-0.0003
 7093,0.00028996,-0.00002371,-0.00039416,-0.00118254,0.00198468,-0.0006
 1234,-0.09491370,0.11799370,0.26011994,0.00005517,-0.00072778,-0.00445
 174,0.00058332,0.00002628,0.00061423,0.00105249,0.00077895,0.00173682,
 -0.00703479,0.00112359,0.00162538,-0.00137128,-0.00092412,-0.00032206,
 -0.00038251,0.00022472,-0.00246666,0.00063258,-0.00103046,-0.00078707,
 0.00007293,0.00004220,-0.00007815,-0.00000443,0.00000020,0.00004989,-0
 .00000976,-0.00001375,0.00000265,0.00002517,-0.00000960,-0.00002987,-0
 .00001901,-0.00004467,0.00002792,0.00000213,0.00002077,-0.00001439,-0.
 00002626,0.00001240,-0.00001092,0.00003183,0.00004695,0.00000060,-0.00
 008602,-0.00010122,0.00000564,0.00014890,0.00006702,0.00013341,0.00016
 292,0.00029331,0.00006981,-0.00019467,0.00032738,0.00036503,0.00030410
 ,-0.00032564,-0.00071468,-0.00093074,0.00089465,0.00019166,0.00062415,
 0.00043889,-0.00000133,-0.00054706,0.00010721,0.00068317,0.00022689,-0
 .00013087,-0.00036554,-0.00030662,-0.00025997,-0.00006062,-0.32852772,
 0.03895520,0.03544119,-0.01433876,0.00358770,0.00495451,-0.00065969,0.
 00012348,0.00038872,-0.00006276,-0.00003169,0.00002106,-0.00031150,0.0
 0000914,-0.00022869,0.00005394,0.00003182,0.00006151,0.00000894,-0.000
 01346,-0.00000291,-0.00000285,-0.00000253,-0.00000278,0.00000198,0.000
 00400,0.00000580,0.00000138,0.00000113,0.00000091,0.00000137,-0.000000
 23,0.00000044,-0.00000173,0.00000118,0.00000333,0.00003637,-0.00006441
 ,0.00000712,0.00075263,0.00053609,-0.00040037,-0.00001086,-0.00002274,
 -0.00002675,0.00000278,0.00001890,-0.00001254,0.00001503,0.00000151,-0
 .00000599,0.00000510,0.00000862,0.00000081,0.34910557,-0.00014331,0.00
 567338,-0.00178902,-0.00000197,-0.00052552,0.00096974,-0.00073556,0.00
 393491,-0.00374143,0.00959963,0.00241338,-0.00116398,-0.00096472,-0.00
 269495,0.00027699,0.00056484,0.00024587,-0.00013222,-0.00005066,-0.000
 10911,-0.00012263,-0.00025391,-0.00018536,0.00013238,-0.00005371,0.000
 09410,-0.00001623,0.00002549,0.00002331,-0.00003140,-0.00002031,-0.000
 09006,-0.00004679,-0.00005036,-0.00002391,0.00002598,0.00000289,0.0000
 5289,-0.00003545,0.00002086,0.00001587,-0.00002590,-0.00000098,-0.0000
 3718,0.00009366,-0.00000983,0.00024681,-0.00017610,-0.00010946,0.00009
 809,0.00032135,0.00046789,0.00013341,0.00003686,0.00028955,0.00008849,
 0.00038455,0.00104330,0.00027482,-0.00121379,-0.00116364,-0.00324407,0
 .00100319,0.00256091,0.00159913,0.00038590,-0.00128453,0.00005555,0.00
 101781,0.00020817,0.00046087,0.00041915,-0.00157720,-0.00105013,-0.000
 25386,0.03882409,-0.04136792,-0.01143609,-0.00275088,0.00646882,0.0009
 6078,-0.00027341,-0.00039061,0.00016985,-0.00000280,-0.00037846,0.0001
 3000,0.00039815,0.00019315,-0.00004858,-0.00003322,-0.00000139,0.00000
 616,-0.00002971,0.00000060,0.00000506,0.00000309,-0.00000277,-0.000000
 44,-0.00000291,0.00000336,0.00002011,-0.00000130,0.00000381,0.00000006
 ,-0.00000273,-0.00000013,-0.00000342,0.00001798,0.00004994,-0.00004604
 ,0.00003861,-0.00009585,0.00003796,-0.00002446,-0.00061112,0.00028183,
 -0.00001323,-0.00004642,-0.00001252,-0.00004856,0.00003763,-0.00005201
 ,0.00005807,-0.00001295,-0.00000043,0.00000136,-0.00000101,-0.00000093
 ,-0.04363029,0.03328502,-0.00335871,-0.00192819,-0.00277577,-0.0001935
 7,-0.00021923,-0.00176873,0.00072106,-0.00258826,-0.00448295,0.0269954
 1,-0.00316106,0.00133477,0.00069037,0.00088529,0.00051949,0.00022184,-
 0.00011223,0.00047166,-0.00178783,0.00052064,-0.00126078,0.00001243,0.
 00008070,-0.00001351,0.00006323,0.00008724,-0.00001413,-0.00003603,-0.
 00002687,-0.00000204,-0.00007445,0.00008470,-0.00001647,-0.00000326,0.
 00003677,-0.00001999,-0.00001528,0.00003854,-0.00001723,0.00007877,-0.
 00002687,-0.00000732,-0.00000266,-0.00005916,0.00001541,0.00016439,0.0
 0000272,-0.00001330,-0.00003004,-0.00011380,0.00000377,-0.00026508,-0.
 00018875,0.00014280,0.00028626,-0.00017176,-0.00076034,0.00003989,0.00
 024192,0.00037427,0.00042672,0.00052806,-0.00036814,-0.00055027,-0.000
 25949,-0.00001316,0.00024084,-0.00004417,-0.00023961,-0.00005164,-0.00
 005409,-0.00002476,0.00026190,0.00011294,-0.00000274,0.03727220,-0.010
 62008,-0.06212837,-0.02511709,0.00288087,0.00799852,-0.00100533,0.0004
 5311,0.00022227,0.00001556,0.00005791,0.00006994,0.00129556,-0.0003436
 8,0.00008800,0.00011311,0.00000538,0.00021751,-0.00002249,0.00000301,0
 .00000374,0.00000947,0.00000381,-0.00000109,0.00000309,0.00000056,0.00
 000580,-0.00000213,0.00000242,0.00000298,0.00000396,0.00000231,0.00000
 453,-0.00001024,0.00000545,0.00000849,-0.00003907,0.00003512,0.0000303
 1,-0.00008452,0.00037385,0.00011603,-0.00002417,-0.00003309,0.00000173
 ,0.00000250,-0.00001000,0.00001866,-0.00001518,-0.00000070,-0.00001200
 ,0.00000444,-0.00000589,0.00001077,-0.03680009,0.01275133,0.06136244,-
 0.00561956,0.00918264,0.02778705,-0.00557759,0.00161771,-0.00054042,-0
 .00039558,-0.00017100,-0.00029696,-0.00244042,0.00035817,-0.00308567,0
 .00070362,-0.00024737,-0.00080826,-0.00003055,0.00007420,0.00001533,0.
 00004037,-0.00009233,0.00003082,0.00000920,0.00002330,-0.00001062,-0.0
 0000085,-0.00000697,0.00000382,-0.00000497,0.00000114,0.00000046,-0.00
 000035,-0.00000446,0.00000236,0.00000330,0.00000498,-0.00000151,-0.000
 00174,-0.00000932,0.00000561,-0.00001114,-0.00000024,0.00000487,0.0000
 0570,0.00000950,-0.00000363,-0.00002120,-0.00001729,0.00000923,0.00001
 388,0.00000473,0.00001741,-0.00003085,0.00008758,-0.00003231,0.0000101
 6,-0.00005671,0.00007089,-0.00005713,-0.00021951,-0.00007180,0.0000629
 1,0.00023529,0.00020395,-0.00019051,-0.00009206,-0.00000608,0.00002288
 ,0.00005667,0.00001048,-0.00004115,-0.00011295,-0.00013554,0.00018173,
 0.00013438,-0.00000540,0.01057664,-0.00637018,-0.01947921,-0.09671367,
 0.03219331,0.09157679,0.00119111,-0.00075940,-0.00002472,-0.00021741,0
 .00035168,0.00124382,0.00006004,-0.00010668,0.00006827,-0.00020289,-0.
 00006682,-0.00023107,0.00000215,-0.00000322,-0.00000525,-0.00000220,-0
 .00000008,-0.00000148,-0.00000139,-0.00000126,-0.00000292,-0.00000048,
 -0.00000117,-0.00000115,-0.00000086,-0.00000161,-0.00000127,0.00000027
 ,-0.00000569,-0.00000266,0.00000486,0.00002612,-0.00000953,-0.00001374
 ,-0.00001658,-0.00003526,0.00003992,0.00000148,0.00000423,-0.00000138,
 -0.00000828,0.00001426,0.00000194,-0.00000090,0.00000591,-0.00000939,-
 0.00000361,0.00000644,0.00094771,-0.00039486,0.00060722,0.09767548,0.0
 0164223,0.00430507,-0.00509138,0.00184653,0.00720122,-0.00089939,-0.00
 069928,-0.00047949,0.00027956,0.00020203,0.00583462,-0.00197216,0.0004
 2190,0.00047689,-0.00008775,-0.00004254,-0.00002155,-0.00003585,0.0000
 5188,-0.00002194,0.00004446,-0.00003062,-0.00002898,0.00000641,-0.0000
 1690,0.00000820,-0.00000632,0.00001262,0.00001807,-0.00000965,0.000003
 39,-0.00002892,0.00001444,0.00000233,0.00000970,-0.00000615,0.00000112
 ,-0.00001001,0.00000478,-0.00000180,0.00000286,0.00000204,-0.00001260,
 -0.00001047,0.00000754,-0.00000708,0.00006934,-0.00002395,-0.00002272,
 -0.00002323,0.00003658,-0.00000770,0.00005368,-0.00005829,0.00003003,0
 .00002776,0.00013121,0.00011257,0.00000797,-0.00024993,-0.00000802,-0.
 00001589,-0.00004940,0.00023594,0.00026324,0.00000317,-0.00023639,0.00
 003745,0.00015088,0.00004809,0.00002492,0.00001971,-0.00023331,-0.0001
 6170,-0.00005549,0.00146128,0.00252248,-0.00276852,0.03211138,-0.06589
 123,-0.07784402,-0.00068137,-0.00399199,0.00131764,-0.00008324,-0.0004
 9175,-0.00000988,-0.00013431,-0.00090122,0.00024677,-0.00003124,-0.000
 15631,0.00005183,-0.00000313,0.00000157,0.00000280,0.00000058,0.000000
 48,0.00000062,-0.00000151,-0.00000108,-0.00000029,-0.00000050,-0.00000
 008,-0.00000096,-0.00000288,-0.00000047,-0.00000171,0.00000678,0.00000
 630,-0.00001007,0.00001043,-0.00000539,-0.00001678,0.00000103,-0.00001
 438,0.00003951,0.00003886,-0.00007798,0.00002284,-0.00000829,-0.000013
 75,0.00001031,0.00000824,-0.00000211,-0.00000268,-0.00000008,-0.000002
 87,-0.00000151,-0.00033147,-0.00334406,0.00114102,-0.03562046,0.054839
 47,-0.00150543,-0.00061552,0.00269565,-0.00034809,-0.00186177,0.000658
 21,0.00050154,0.00036450,0.00091882,-0.00396298,-0.00108067,-0.0009480
 2,0.00043672,-0.00037117,-0.00076532,0.00013623,0.00001246,0.00013655,
 0.00000914,-0.00001387,0.00002564,0.00000166,0.00000530,-0.00000048,-0
 .00000091,-0.00000273,-0.00000197,-0.00000298,0.00000047,0.00000041,-0
 .00000726,0.00000010,0.00000579,0.00000449,0.00000990,-0.00000534,-0.0
 0000095,-0.00000790,0.00000481,-0.00000218,-0.00000215,0.00000398,-0.0
 0000121,-0.00000017,-0.00000282,-0.00000113,0.00000232,0.00000284,-0.0
 0002320,-0.00000055,0.00000786,-0.00000881,-0.00001203,-0.00001631,0.0
 0003997,-0.00024318,-0.00004052,-0.00023184,-0.00008166,0.00041934,0.0
 0015500,0.00006131,0.00003113,-0.00041089,-0.00037858,-0.00003850,0.00
 037769,-0.00006180,-0.00031441,-0.00011536,-0.00004371,0.00001758,0.00
 041286,0.00032919,0.00006083,0.01010826,-0.00650163,-0.01489260,0.0911
 0185,-0.07826474,-0.28182586,0.00024842,0.00124753,0.00029053,-0.00014
 456,0.00016943,-0.00001577,0.00006327,0.00022245,-0.00009421,-0.000189
 78,0.00001454,-0.00023098,0.00000175,-0.00000054,-0.00000321,-0.000000
 80,0.00000046,0.00000016,-0.00000089,-0.00000123,-0.00000183,-0.000000
 20,-0.00000054,-0.00000021,-0.00000056,-0.00000028,-0.00000002,0.00000
 078,-0.00000271,-0.00000171,-0.00001789,0.00004346,0.00000086,-0.00004
 161,0.00000686,-0.00005379,-0.00002846,0.00009228,0.00000773,0.0000026
 3,0.00001664,-0.00000558,-0.00000953,0.00000010,0.00000680,-0.00000420
 ,-0.00000128,-0.00000431,0.00027550,0.00120316,0.00072783,-0.09684092,
 0.08574128,0.29328456,0.00001778,-0.00002562,0.00011068,0.00044751,0.0
 0026779,0.00117604,-0.00166701,0.00018026,-0.00066707,0.00103132,0.000
 54969,0.00056091,-0.00239803,-0.00226874,0.00118761,-0.01867424,-0.014
 48939,0.00935433,0.01411083,-0.00315411,-0.00129280,-0.00183888,0.0115
 7219,-0.00505739,0.00246503,-0.00241215,0.00099390,-0.00163617,-0.0010
 2406,0.00063272,0.00133720,-0.00020238,-0.00013975,-0.00035317,-0.0007
 6282,0.00033665,-0.00004211,0.00034001,-0.00021137,-0.00072643,-0.0000
 0135,0.00007875,-0.00031984,0.00310364,-0.00133498,-0.01117591,-0.0022
 8021,0.00273457,-0.04060166,0.02015927,-0.00308246,-0.00186677,0.00511
 148,-0.00117008,-0.00062603,0.00054105,0.00011319,-0.00021712,-0.00006
 314,-0.00033178,0.00003053,-0.00024840,-0.00006843,0.00039257,0.000294
 92,0.00000360,-0.00018231,-0.00000392,0.00015049,-0.00000526,0.0000255
 1,0.00009758,-0.00019015,-0.00016497,0.00012938,0.00050302,0.00029626,
 -0.00120518,0.00077256,0.00031450,0.00015133,-0.00001464,-0.00004264,-
 0.00002017,0.00000689,-0.00002559,0.00002649,-0.00003587,-0.00004617,0
 .00002068,-0.00003072,-0.00027525,0.00011406,0.00056903,-0.00026305,0.
 00016513,-0.00006957,-0.00002520,-0.00006414,0.00008752,0.00004860,0.0
 0012121,0.00005571,-0.00005027,0.00000234,0.00008870,-0.00001833,0.000
 02888,0.00037209,-0.00139612,0.00056773,-0.00002127,0.00003940,-0.0000
 3282,0.00006210,-0.00004709,-0.00006664,0.00002970,-0.00000437,0.00001
 020,0.00000068,-0.00002548,0.00000809,-0.00000289,0.00001265,0.0000002
 7,-0.00001702,-0.00002804,0.00002512,-0.00002638,-0.00049639,-0.000041
 09,0.00003312,-0.00003179,0.00002486,0.06032555,-0.00169087,0.00082048
 ,0.00246343,0.00067244,-0.00067203,-0.00184381,-0.00050206,-0.00058792
 ,0.00003305,0.00195516,0.00113653,-0.00369079,-0.00766003,0.00023816,-
 0.00069426,-0.01961859,-0.04135106,0.02126942,0.00555806,-0.02760986,0
 .01197736,0.00767293,-0.01395332,0.00527027,-0.00306265,0.00043561,0.0
 0076546,0.00185630,0.00126353,-0.00087441,0.00001651,-0.00157347,0.001
 47107,0.00009983,-0.00001647,-0.00002287,0.00024991,-0.00030695,0.0001
 3439,0.00016674,-0.00049421,0.00017865,-0.00276342,0.00073427,-0.00040
 575,0.00181904,0.00592192,-0.00267011,0.02316293,-0.01810605,0.0008804
 7,0.00464479,0.00847059,-0.00272023,-0.00291180,-0.00143273,0.00019206
 ,0.00229823,-0.00143643,-0.00227694,-0.00102273,0.00005775,0.00223830,
 0.00185567,0.00119705,0.00065082,-0.00184605,0.00088389,0.00260631,0.0
 0052919,-0.00089634,-0.00154977,-0.00068493,-0.00033510,-0.00019185,-0
 .00101840,0.00249889,0.00168426,0.00157229,0.00065965,0.00068643,0.000
 02704,-0.00010095,0.00005636,0.00013808,0.00019147,-0.00000817,-0.0000
 8126,0.00005499,0.00002748,0.00086040,0.00019618,-0.00011736,-0.000097
 74,-0.00000083,0.00002733,-0.00005284,-0.00010790,-0.00004560,-0.00011
 872,-0.00006278,0.00000894,0.00006282,-0.00007752,0.00002351,-0.000143
 40,0.00002774,0.00005238,0.00089299,-0.00058386,0.00024544,0.00031120,
 0.00041436,-0.00009586,-0.00014912,-0.00000126,-0.00042349,0.00001059,
 0.00002034,-0.00002118,-0.00003298,0.00008104,-0.00002029,0.00012804,0
 .00000185,0.00002761,-0.00013316,0.00000840,0.00007397,-0.00001839,-0.
 00124025,-0.00036826,0.00002811,-0.00001442,0.00000669,-0.01298017,0.0
 8564700,0.00027079,-0.00016966,-0.00049575,0.00032577,0.00034668,0.001
 24858,-0.00124997,0.00033971,-0.00078854,0.00046946,-0.00059014,0.0013
 3120,0.00400314,-0.00028307,-0.00029018,0.01103177,0.02084969,-0.01805
 867,-0.00452555,0.01230354,-0.00401276,-0.00319109,0.00425455,-0.00068
 300,0.00106161,0.00087813,0.00083462,-0.00057670,-0.00056118,0.0001060
 3,-0.00005023,0.00148273,0.00066218,-0.00034827,-0.00055355,0.00014461
 ,-0.00023383,0.00078991,-0.00040682,0.00033818,0.00012480,-0.00043154,
 0.00106369,-0.00101125,-0.00052174,0.00090910,-0.00230815,0.00145564,-
 0.00478254,0.00193074,-0.00763209,-0.00125432,-0.00381097,0.00323099,0
 .00114922,0.00030868,-0.00025928,-0.00032044,0.00038617,0.00073845,0.0
 0025330,-0.00059155,-0.00080049,-0.00002522,0.00003681,-0.00016808,0.0
 0035764,-0.00033590,-0.00070696,-0.00010537,0.00048893,0.00072529,-0.0
 0026540,-0.00027700,0.00007256,-0.00011036,0.00001772,-0.00103365,0.00
 036060,0.00003882,-0.00001118,-0.00000297,-0.00000320,-0.00003485,-0.0
 0003701,-0.00012040,0.00002741,0.00010524,-0.00001785,-0.00002764,-0.0
 0013177,0.00042732,-0.00008025,-0.00002680,0.00020019,0.00027443,-0.00
 001053,-0.00010409,-0.00027841,0.00007137,0.00009654,0.00015139,-0.000
 02487,0.00007146,0.00003061,0.00007246,0.00004403,0.00011201,-0.000368
 86,0.00067197,0.00017392,-0.00013575,0.00000676,0.00001273,0.00000910,
 0.00004931,0.00014788,-0.00001498,-0.00002305,0.00000785,0.00000522,-0
 .00003581,0.00000802,-0.00004479,0.00001557,-0.00002061,0.00006014,0.0
 0000436,-0.00002563,0.00011601,-0.00028459,0.00019070,-0.00005556,-0.0
 0007325,-0.00004413,-0.00414063,-0.03501046,0.02512516\\-0.00000015,0.
 00000011,0.00000107,0.00000076,-0.00000190,0.00000126,-0.00000155,0.00
 000199,-0.00000062,0.00000031,-0.00000205,-0.00000550,0.00000099,-0.00
 001184,0.00001013,0.00000340,-0.00000535,0.00000005,0.00000107,0.00000
 491,-0.00000233,-0.00000372,-0.00000082,0.00000057,-0.00000037,0.00000
 020,-0.00000018,0.00000004,-0.00000054,0.00000024,0.00000062,0.0000027
 1,-0.00000183,-0.00000100,-0.00000323,0.00000195,-0.00000209,0.0000039
 8,-0.00000201,0.00000492,-0.00000175,-0.00000006,-0.00000481,-0.000001
 65,0.00000174,0.00000202,0.00000078,-0.00000178,0.00000395,-0.00000034
 ,0.00000203,0.00000758,-0.00000418,-0.00000170,-0.00001101,0.00001615,
 -0.00000148,-0.00000321,-0.00000345,-0.00000254,-0.00000031,-0.0000000
 1,0.00000176,0.00000299,0.00000121,0.00000011,-0.00000195,0.00000111,0
 .00000285,-0.00000008,-0.00000057,-0.00000231,0.00000167,0.00000176,0.
 00000153,-0.00000040,0.00000130,0.00000449,0.00000049,0.00000002,-0.00
 000101,0.00000046,-0.00000043,-0.00000065,-0.00000003,0.00000065,0.000
 00046,0.00000008,-0.00000037,0.,-0.00000116,0.00000115,-0.00000187,0.0
 0000077,-0.00000039,0.00000014,-0.00000036,-0.00000058,-0.00000020,0.0
 0000024,0.00000047,-0.00000046,0.00000019,-0.00000027,-0.00000022,-0.0
 0000066,0.00000012,-0.00000074,0.00000125,0.00000073,-0.00000104,0.000
 00079,-0.00000109,0.00000085,-0.00000025,0.00000022,-0.00000162,0.0000
 0017,0.00000002,0.00000040,0.00000076,-0.00000040,-0.00000033,0.000000
 33,0.00000083,0.00000193,-0.00000098,-0.00000016,0.00000014,0.00000047
 ,-0.00000205,-0.00000101,0.00000003,-0.00000015,0.00000014,-0.00000226
 ,0.00000317,-0.00000232\\\@
 The archive entry for this job was punched.


 A true friend is someone who is there for
 you when he'd rather be anywhere else.
                               -- Len Wein
 Job cpu time:       0 days  6 hours 29 minutes 47.5 seconds.
 Elapsed time:       0 days  0 hours 12 minutes 14.7 seconds.
 File lengths (MBytes):  RWF=   2135 Int=      0 D2E=      0 Chk=     24 Scr=      1
 Normal termination of Gaussian 16 at Thu Aug  1 12:04:29 2024.
