 Entering Gaussian System, Link 0=g16
 Initial command:
 /public/software/apps/Gaussian/g16/l1.exe "/public/home/LJQ_HG/tmp/Gau-127617.inp" -scrdir="/public/home/LJQ_HG/tmp/"
 Entering Link 1 = /public/software/apps/Gaussian/g16/l1.exe PID=    127619.
  
 Copyright (c) 1988-2019, Gaussian, Inc.  All Rights Reserved.
  
 This is part of the Gaussian(R) 16 program.  It is based on
 the Gaussian(R) 09 system (copyright 2009, Gaussian, Inc.),
 the Gaussian(R) 03 system (copyright 2003, Gaussian, Inc.),
 the Gaussian(R) 98 system (copyright 1998, Gaussian, Inc.),
 the Gaussian(R) 94 system (copyright 1995, Gaussian, Inc.),
 the Gaussian 92(TM) system (copyright 1992, Gaussian, Inc.),
 the Gaussian 90(TM) system (copyright 1990, Gaussian, Inc.),
 the Gaussian 88(TM) system (copyright 1988, Gaussian, Inc.),
 the Gaussian 86(TM) system (copyright 1986, Carnegie Mellon
 University), and the Gaussian 82(TM) system (copyright 1983,
 Carnegie Mellon University). Gaussian is a federally registered
 trademark of Gaussian, Inc.
  
 This software contains proprietary and confidential information,
 including trade secrets, belonging to Gaussian, Inc.
  
 This software is provided under written license and may be
 used, copied, transmitted, or stored only in accord with that
 written license.
  
 The following legend is applicable only to US Government
 contracts under FAR:
  
                    RESTRICTED RIGHTS LEGEND
  
 Use, reproduction and disclosure by the US Government is
 subject to restrictions as set forth in subparagraphs (a)
 and (c) of the Commercial Computer Software - Restricted
 Rights clause in FAR 52.227-19.
  
 Gaussian, Inc.
 340 Quinnipiac St., Bldg. 40, Wallingford CT 06492
  
  
 ---------------------------------------------------------------
 Warning -- This program may not be used in any manner that
 competes with the business of Gaussian, Inc. or will provide
 assistance to any competitor of Gaussian, Inc.  The licensee
 of this program is prohibited from giving any competitor of
 Gaussian, Inc. access to this program.  By using this program,
 the user acknowledges that Gaussian, Inc. is engaged in the
 business of creating and licensing software in the field of
 computational chemistry and represents and warrants to the
 licensee that it is not a competitor of Gaussian, Inc. and that
 it will not use this program in any manner prohibited above.
 ---------------------------------------------------------------
  

 Cite this work as:
 Gaussian 16, Revision C.01,
 M. J. Frisch, G. W. Trucks, H. B. Schlegel, G. E. Scuseria, 
 M. A. Robb, J. R. Cheeseman, G. Scalmani, V. Barone, 
 G. A. Petersson, H. Nakatsuji, X. Li, M. Caricato, A. V. Marenich, 
 J. Bloino, B. G. Janesko, R. Gomperts, B. Mennucci, H. P. Hratchian, 
 J. V. Ortiz, A. F. Izmaylov, J. L. Sonnenberg, D. Williams-Young, 
 F. Ding, F. Lipparini, F. Egidi, J. Goings, B. Peng, A. Petrone, 
 T. Henderson, D. Ranasinghe, V. G. Zakrzewski, J. Gao, N. Rega, 
 G. Zheng, W. Liang, M. Hada, M. Ehara, K. Toyota, R. Fukuda, 
 J. Hasegawa, M. Ishida, T. Nakajima, Y. Honda, O. Kitao, H. Nakai, 
 T. Vreven, K. Throssell, J. A. Montgomery, Jr., J. E. Peralta, 
 F. Ogliaro, M. J. Bearpark, J. J. Heyd, E. N. Brothers, K. N. Kudin, 
 V. N. Staroverov, T. A. Keith, R. Kobayashi, J. Normand, 
 K. Raghavachari, A. P. Rendell, J. C. Burant, S. S. Iyengar, 
 J. Tomasi, M. Cossi, J. M. Millam, M. Klene, C. Adamo, R. Cammi, 
 J. W. Ochterski, R. L. Martin, K. Morokuma, O. Farkas, 
 J. B. Foresman, and D. J. Fox, Gaussian, Inc., Wallingford CT, 2019.
 
 ******************************************
 Gaussian 16:  ES64L-G16RevC.01  3-Jul-2019
                 7-Mar-2024 
 ******************************************
 %nprocshared=32
 Will use up to   32 processors via shared memory.
 %mem=100GB
 ------------------------------------------
 #p opt freq b3lyp/def2svpp em=gd3bj nosymm
 ------------------------------------------
 1/18=20,19=15,26=3,38=1/1,3;
 2/9=110,12=2,15=1,17=6,18=5,40=1/2;
 3/5=43,7=202,11=2,25=1,30=1,71=1,74=-5,124=41/1,2,3;
 4//1;
 5/5=2,38=5/2;
 6/7=2,8=2,9=2,10=2,28=1/1;
 7/30=1/1,2,3,16;
 1/18=20,19=15,26=3/3(2);
 2/9=110,15=1/2;
 99//99;
 2/9=110,15=1/2;
 3/5=43,7=202,11=2,25=1,30=1,71=1,74=-5,124=41/1,2,3;
 4/5=5,16=3,69=1/1;
 5/5=2,38=5/2;
 7/30=1/1,2,3,16;
 1/18=20,19=15,26=3/3(-5);
 2/9=110,15=1/2;
 6/7=2,8=2,9=2,10=2,19=2,28=1/1;
 99/9=1/99;
 Leave Link    1 at Thu Mar  7 23:58:28 2024, MaxMem= 13421772800 cpu:               2.8 elap:               0.1
 (Enter /public/software/apps/Gaussian/g16/l101.exe)
 ------------------
 $$$$Title####2????
 ------------------
 Symbolic Z-matrix:
 Charge =  2 Multiplicity = 2
 C                    -3.31453   1.32959   3.30777 
 C                    -2.06636   1.95628   2.68796 
 C                    -2.3639    2.71585   1.38023 
 O                    -1.48628   2.11402   0.44745 
 C                    -0.79929   1.08172   1.0589 
 C                     0.17762   0.17608   0.32269 
 C                     0.7258    0.93132  -0.9327 
 C                     1.98174   0.33262  -1.53771 
 C                     1.91148  -0.67828  -2.51163 
 C                     3.08075  -1.2413   -3.03236 
 C                     4.32965  -0.79754  -2.59167 
 C                     4.41172   0.21895  -1.63781 
 C                     3.24517   0.78705  -1.11862 
 C                    -0.55162  -1.15077  -0.07071 
 C                    -1.9379   -0.9642   -0.65829 
 C                    -3.06248  -0.97993   0.18637 
 C                    -4.34301  -0.77123  -0.33283 
 C                    -4.51611  -0.56057  -1.70245 
 C                    -3.40919  -0.56525  -2.55455 
 C                    -2.12591  -0.76841  -2.03747 
 C                     1.33708  -0.15223   1.25241 
 N                     1.87304   0.71017   2.04869 
 C                     2.95186   0.07061   2.79128 
 C                     4.25196   0.85925   2.63971 
 C                     3.0399   -1.34829   2.196 
 O                     1.95969  -1.38619   1.2827 
 N                    -1.11191   0.92515   2.30093 
 H                    -3.8218    0.65891   2.58339 
 H                    -3.03301   0.74096   4.20638 
 H                    -4.02325   2.12763   3.6143 
 H                    -1.58578   2.63781   3.42387 
 H                    -3.41388   2.58619   1.03774 
 H                    -2.1258    3.79636   1.48084 
 H                    -0.05901   1.0113   -1.71206 
 H                     0.95538   1.98339  -0.64977 
 H                     0.95875  -1.03343  -2.87246 
 H                     3.01826  -2.02314  -3.77812 
 H                     5.23334  -1.23714  -2.99353 
 H                     5.37916   0.56699  -1.29979 
 H                     3.32511   1.57936  -0.38572 
 H                    -0.65232  -1.7898    0.83555 
 H                     0.07066  -1.74487  -0.77067 
 H                    -2.9454   -1.15127   1.24853 
 H                    -5.20112  -0.77477   0.32709 
 H                    -5.50823  -0.40083  -2.10425 
 H                    -3.54546  -0.41274  -3.61734 
 H                    -1.28735  -0.77496  -2.71624 
 H                     2.6714    0.01647   3.86629 
 H                     4.11273   1.89238   3.02289 
 H                     4.56267   0.90907   1.57558 
 H                     5.0589    0.3699    3.22514 
 H                     2.89975  -2.12216   2.98069 
 H                     3.99191  -1.52634   1.65002 
 Cu                    0.51006   1.22576   3.35987 
 
 ITRead=  0  0  0  0  0  0  0  0  0  0  0  0  0  0  0  0  0  0  0  0
 ITRead=  0  0  0  0  0  0  0  0  0  0  0  0  0  0  0  0  0  0  0  0
 ITRead=  0  0  0  0  0  0  0  0  0  0  0  0  0  0
 MicOpt= -1 -1 -1 -1 -1 -1 -1 -1 -1 -1 -1 -1 -1 -1 -1 -1 -1 -1 -1 -1
 MicOpt= -1 -1 -1 -1 -1 -1 -1 -1 -1 -1 -1 -1 -1 -1 -1 -1 -1 -1 -1 -1
 MicOpt= -1 -1 -1 -1 -1 -1 -1 -1 -1 -1 -1 -1 -1 -1
 NAtoms=     54 NQM=       54 NQMF=       0 NMMI=      0 NMMIF=      0
                NMic=       0 NMicF=      0.
                    Isotopes and Nuclear Properties:
 (Nuclear quadrupole moments (NQMom) in fm**2, nuclear magnetic moments (NMagM)
  in nuclear magnetons)

  Atom         1           2           3           4           5           6           7           8           9          10
 IAtWgt=          12          12          12          16          12          12          12          12          12          12
 AtmWgt=  12.0000000  12.0000000  12.0000000  15.9949146  12.0000000  12.0000000  12.0000000  12.0000000  12.0000000  12.0000000
 NucSpn=           0           0           0           0           0           0           0           0           0           0
 AtZEff=  -0.0000000  -0.0000000  -0.0000000  -0.0000000  -0.0000000  -0.0000000  -0.0000000  -0.0000000  -0.0000000  -0.0000000
 NQMom=    0.0000000   0.0000000   0.0000000   0.0000000   0.0000000   0.0000000   0.0000000   0.0000000   0.0000000   0.0000000
 NMagM=    0.0000000   0.0000000   0.0000000   0.0000000   0.0000000   0.0000000   0.0000000   0.0000000   0.0000000   0.0000000
 AtZNuc=   6.0000000   6.0000000   6.0000000   8.0000000   6.0000000   6.0000000   6.0000000   6.0000000   6.0000000   6.0000000

  Atom        11          12          13          14          15          16          17          18          19          20
 IAtWgt=          12          12          12          12          12          12          12          12          12          12
 AtmWgt=  12.0000000  12.0000000  12.0000000  12.0000000  12.0000000  12.0000000  12.0000000  12.0000000  12.0000000  12.0000000
 NucSpn=           0           0           0           0           0           0           0           0           0           0
 AtZEff=  -0.0000000  -0.0000000  -0.0000000  -0.0000000  -0.0000000  -0.0000000  -0.0000000  -0.0000000  -0.0000000  -0.0000000
 NQMom=    0.0000000   0.0000000   0.0000000   0.0000000   0.0000000   0.0000000   0.0000000   0.0000000   0.0000000   0.0000000
 NMagM=    0.0000000   0.0000000   0.0000000   0.0000000   0.0000000   0.0000000   0.0000000   0.0000000   0.0000000   0.0000000
 AtZNuc=   6.0000000   6.0000000   6.0000000   6.0000000   6.0000000   6.0000000   6.0000000   6.0000000   6.0000000   6.0000000

  Atom        21          22          23          24          25          26          27          28          29          30
 IAtWgt=          12          14          12          12          12          16          14           1           1           1
 AtmWgt=  12.0000000  14.0030740  12.0000000  12.0000000  12.0000000  15.9949146  14.0030740   1.0078250   1.0078250   1.0078250
 NucSpn=           0           2           0           0           0           0           2           1           1           1
 AtZEff=  -0.0000000  -0.0000000  -0.0000000  -0.0000000  -0.0000000  -0.0000000  -0.0000000  -0.0000000  -0.0000000  -0.0000000
 NQMom=    0.0000000   2.0440000   0.0000000   0.0000000   0.0000000   0.0000000   2.0440000   0.0000000   0.0000000   0.0000000
 NMagM=    0.0000000   0.4037610   0.0000000   0.0000000   0.0000000   0.0000000   0.4037610   2.7928460   2.7928460   2.7928460
 AtZNuc=   6.0000000   7.0000000   6.0000000   6.0000000   6.0000000   8.0000000   7.0000000   1.0000000   1.0000000   1.0000000

  Atom        31          32          33          34          35          36          37          38          39          40
 IAtWgt=           1           1           1           1           1           1           1           1           1           1
 AtmWgt=   1.0078250   1.0078250   1.0078250   1.0078250   1.0078250   1.0078250   1.0078250   1.0078250   1.0078250   1.0078250
 NucSpn=           1           1           1           1           1           1           1           1           1           1
 AtZEff=  -0.0000000  -0.0000000  -0.0000000  -0.0000000  -0.0000000  -0.0000000  -0.0000000  -0.0000000  -0.0000000  -0.0000000
 NQMom=    0.0000000   0.0000000   0.0000000   0.0000000   0.0000000   0.0000000   0.0000000   0.0000000   0.0000000   0.0000000
 NMagM=    2.7928460   2.7928460   2.7928460   2.7928460   2.7928460   2.7928460   2.7928460   2.7928460   2.7928460   2.7928460
 AtZNuc=   1.0000000   1.0000000   1.0000000   1.0000000   1.0000000   1.0000000   1.0000000   1.0000000   1.0000000   1.0000000

  Atom        41          42          43          44          45          46          47          48          49          50
 IAtWgt=           1           1           1           1           1           1           1           1           1           1
 AtmWgt=   1.0078250   1.0078250   1.0078250   1.0078250   1.0078250   1.0078250   1.0078250   1.0078250   1.0078250   1.0078250
 NucSpn=           1           1           1           1           1           1           1           1           1           1
 AtZEff=  -0.0000000  -0.0000000  -0.0000000  -0.0000000  -0.0000000  -0.0000000  -0.0000000  -0.0000000  -0.0000000  -0.0000000
 NQMom=    0.0000000   0.0000000   0.0000000   0.0000000   0.0000000   0.0000000   0.0000000   0.0000000   0.0000000   0.0000000
 NMagM=    2.7928460   2.7928460   2.7928460   2.7928460   2.7928460   2.7928460   2.7928460   2.7928460   2.7928460   2.7928460
 AtZNuc=   1.0000000   1.0000000   1.0000000   1.0000000   1.0000000   1.0000000   1.0000000   1.0000000   1.0000000   1.0000000

  Atom        51          52          53          54
 IAtWgt=           1           1           1          63
 AtmWgt=   1.0078250   1.0078250   1.0078250  62.9295992
 NucSpn=           1           1           1           3
 AtZEff=  -0.0000000  -0.0000000  -0.0000000  -0.0000000
 NQMom=    0.0000000   0.0000000   0.0000000 -22.0000000
 NMagM=    2.7928460   2.7928460   2.7928460   2.2233000
 AtZNuc=   1.0000000   1.0000000   1.0000000  29.0000000
 Leave Link  101 at Thu Mar  7 23:58:28 2024, MaxMem= 13421772800 cpu:               3.3 elap:               0.1
 (Enter /public/software/apps/Gaussian/g16/l103.exe)

 GradGradGradGradGradGradGradGradGradGradGradGradGradGradGradGradGradGrad
 Berny optimization.
 Initialization pass.
                           ----------------------------
                           !    Initial Parameters    !
                           ! (Angstroms and Degrees)  !
 --------------------------                            --------------------------
 ! Name  Definition              Value          Derivative Info.                !
 --------------------------------------------------------------------------------
 ! R1    R(1,2)                  1.528          estimate D2E/DX2                !
 ! R2    R(1,28)                 1.1099         estimate D2E/DX2                !
 ! R3    R(1,29)                 1.1105         estimate D2E/DX2                !
 ! R4    R(1,30)                 1.1105         estimate D2E/DX2                !
 ! R5    R(2,3)                  1.5413         estimate D2E/DX2                !
 ! R6    R(2,27)                 1.4574         estimate D2E/DX2                !
 ! R7    R(2,31)                 1.1122         estimate D2E/DX2                !
 ! R8    R(3,4)                  1.4151         estimate D2E/DX2                !
 ! R9    R(3,32)                 1.112          estimate D2E/DX2                !
 ! R10   R(3,33)                 1.111          estimate D2E/DX2                !
 ! R11   R(4,5)                  1.3826         estimate D2E/DX2                !
 ! R12   R(5,6)                  1.522          estimate D2E/DX2                !
 ! R13   R(5,27)                 1.2903         estimate D2E/DX2                !
 ! R14   R(6,7)                  1.5643         estimate D2E/DX2                !
 ! R15   R(6,14)                 1.5643         estimate D2E/DX2                !
 ! R16   R(6,21)                 1.522          estimate D2E/DX2                !
 ! R17   R(7,8)                  1.5172         estimate D2E/DX2                !
 ! R18   R(7,34)                 1.1089         estimate D2E/DX2                !
 ! R19   R(7,35)                 1.1134         estimate D2E/DX2                !
 ! R20   R(8,9)                  1.4055         estimate D2E/DX2                !
 ! R21   R(8,13)                 1.4066         estimate D2E/DX2                !
 ! R22   R(9,10)                 1.3983         estimate D2E/DX2                !
 ! R23   R(9,36)                 1.0789         estimate D2E/DX2                !
 ! R24   R(10,11)                1.3967         estimate D2E/DX2                !
 ! R25   R(10,37)                1.0823         estimate D2E/DX2                !
 ! R26   R(11,12)                1.3964         estimate D2E/DX2                !
 ! R27   R(11,38)                1.0823         estimate D2E/DX2                !
 ! R28   R(12,13)                1.3976         estimate D2E/DX2                !
 ! R29   R(12,39)                1.0823         estimate D2E/DX2                !
 ! R30   R(13,40)                1.0823         estimate D2E/DX2                !
 ! R31   R(14,15)                1.5172         estimate D2E/DX2                !
 ! R32   R(14,41)                1.1135         estimate D2E/DX2                !
 ! R33   R(14,42)                1.1091         estimate D2E/DX2                !
 ! R34   R(15,16)                1.4065         estimate D2E/DX2                !
 ! R35   R(15,20)                1.4056         estimate D2E/DX2                !
 ! R36   R(16,17)                1.3975         estimate D2E/DX2                !
 ! R37   R(16,43)                1.0822         estimate D2E/DX2                !
 ! R38   R(17,18)                1.3965         estimate D2E/DX2                !
 ! R39   R(17,44)                1.0825         estimate D2E/DX2                !
 ! R40   R(18,19)                1.3969         estimate D2E/DX2                !
 ! R41   R(18,45)                1.0823         estimate D2E/DX2                !
 ! R42   R(19,20)                1.3984         estimate D2E/DX2                !
 ! R43   R(19,46)                1.0823         estimate D2E/DX2                !
 ! R44   R(20,47)                1.0789         estimate D2E/DX2                !
 ! R45   R(21,22)                1.2904         estimate D2E/DX2                !
 ! R46   R(21,26)                1.3825         estimate D2E/DX2                !
 ! R47   R(22,23)                1.4575         estimate D2E/DX2                !
 ! R48   R(22,54)                1.9603         estimate D2E/DX2                !
 ! R49   R(23,24)                1.5281         estimate D2E/DX2                !
 ! R50   R(23,25)                1.5412         estimate D2E/DX2                !
 ! R51   R(23,48)                1.1123         estimate D2E/DX2                !
 ! R52   R(24,49)                1.1107         estimate D2E/DX2                !
 ! R53   R(24,50)                1.1097         estimate D2E/DX2                !
 ! R54   R(24,51)                1.1106         estimate D2E/DX2                !
 ! R55   R(25,26)                1.4151         estimate D2E/DX2                !
 ! R56   R(25,52)                1.111          estimate D2E/DX2                !
 ! R57   R(25,53)                1.1118         estimate D2E/DX2                !
 ! R58   R(27,54)                1.9602         estimate D2E/DX2                !
 ! A1    A(2,1,28)             110.8817         estimate D2E/DX2                !
 ! A2    A(2,1,29)             109.7884         estimate D2E/DX2                !
 ! A3    A(2,1,30)             109.7897         estimate D2E/DX2                !
 ! A4    A(28,1,29)            108.8855         estimate D2E/DX2                !
 ! A5    A(28,1,30)            108.8278         estimate D2E/DX2                !
 ! A6    A(29,1,30)            108.6237         estimate D2E/DX2                !
 ! A7    A(1,2,3)              112.8662         estimate D2E/DX2                !
 ! A8    A(1,2,27)             110.6408         estimate D2E/DX2                !
 ! A9    A(1,2,31)             109.626          estimate D2E/DX2                !
 ! A10   A(3,2,27)             104.4646         estimate D2E/DX2                !
 ! A11   A(3,2,31)             110.0492         estimate D2E/DX2                !
 ! A12   A(27,2,31)            109.0436         estimate D2E/DX2                !
 ! A13   A(2,3,4)              103.2943         estimate D2E/DX2                !
 ! A14   A(2,3,32)             112.7141         estimate D2E/DX2                !
 ! A15   A(2,3,33)             111.1663         estimate D2E/DX2                !
 ! A16   A(4,3,32)             109.4501         estimate D2E/DX2                !
 ! A17   A(4,3,33)             109.9014         estimate D2E/DX2                !
 ! A18   A(32,3,33)            110.0995         estimate D2E/DX2                !
 ! A19   A(3,4,5)              109.5234         estimate D2E/DX2                !
 ! A20   A(4,5,6)              123.3181         estimate D2E/DX2                !
 ! A21   A(4,5,27)             113.3241         estimate D2E/DX2                !
 ! A22   A(6,5,27)             123.2927         estimate D2E/DX2                !
 ! A23   A(5,6,7)              109.0166         estimate D2E/DX2                !
 ! A24   A(5,6,14)             109.095          estimate D2E/DX2                !
 ! A25   A(5,6,21)             108.7741         estimate D2E/DX2                !
 ! A26   A(7,6,14)             111.7809         estimate D2E/DX2                !
 ! A27   A(7,6,21)             109.1121         estimate D2E/DX2                !
 ! A28   A(14,6,21)            109.013          estimate D2E/DX2                !
 ! A29   A(6,7,8)              114.8097         estimate D2E/DX2                !
 ! A30   A(6,7,34)             110.5389         estimate D2E/DX2                !
 ! A31   A(6,7,35)             108.9387         estimate D2E/DX2                !
 ! A32   A(8,7,34)             109.5148         estimate D2E/DX2                !
 ! A33   A(8,7,35)             107.6691         estimate D2E/DX2                !
 ! A34   A(34,7,35)            104.8552         estimate D2E/DX2                !
 ! A35   A(7,8,9)              121.2503         estimate D2E/DX2                !
 ! A36   A(7,8,13)             119.8188         estimate D2E/DX2                !
 ! A37   A(9,8,13)             118.9304         estimate D2E/DX2                !
 ! A38   A(8,9,10)             120.388          estimate D2E/DX2                !
 ! A39   A(8,9,36)             120.8409         estimate D2E/DX2                !
 ! A40   A(10,9,36)            118.7711         estimate D2E/DX2                !
 ! A41   A(9,10,11)            120.1492         estimate D2E/DX2                !
 ! A42   A(9,10,37)            119.9465         estimate D2E/DX2                !
 ! A43   A(11,10,37)           119.9043         estimate D2E/DX2                !
 ! A44   A(10,11,12)           119.958          estimate D2E/DX2                !
 ! A45   A(10,11,38)           120.0254         estimate D2E/DX2                !
 ! A46   A(12,11,38)           120.0156         estimate D2E/DX2                !
 ! A47   A(11,12,13)           120.0417         estimate D2E/DX2                !
 ! A48   A(11,12,39)           119.9988         estimate D2E/DX2                !
 ! A49   A(13,12,39)           119.9594         estimate D2E/DX2                !
 ! A50   A(8,13,12)            120.5138         estimate D2E/DX2                !
 ! A51   A(8,13,40)            120.308          estimate D2E/DX2                !
 ! A52   A(12,13,40)           119.1777         estimate D2E/DX2                !
 ! A53   A(6,14,15)            114.7741         estimate D2E/DX2                !
 ! A54   A(6,14,41)            108.921          estimate D2E/DX2                !
 ! A55   A(6,14,42)            110.5795         estimate D2E/DX2                !
 ! A56   A(15,14,41)           107.6469         estimate D2E/DX2                !
 ! A57   A(15,14,42)           109.5183         estimate D2E/DX2                !
 ! A58   A(41,14,42)           104.8911         estimate D2E/DX2                !
 ! A59   A(14,15,16)           119.7756         estimate D2E/DX2                !
 ! A60   A(14,15,20)           121.2875         estimate D2E/DX2                !
 ! A61   A(16,15,20)           118.9363         estimate D2E/DX2                !
 ! A62   A(15,16,17)           120.5207         estimate D2E/DX2                !
 ! A63   A(15,16,43)           120.308          estimate D2E/DX2                !
 ! A64   A(17,16,43)           119.1711         estimate D2E/DX2                !
 ! A65   A(16,17,18)           120.0323         estimate D2E/DX2                !
 ! A66   A(16,17,44)           119.9597         estimate D2E/DX2                !
 ! A67   A(18,17,44)           120.0079         estimate D2E/DX2                !
 ! A68   A(17,18,19)           119.969          estimate D2E/DX2                !
 ! A69   A(17,18,45)           120.0005         estimate D2E/DX2                !
 ! A70   A(19,18,45)           120.0291         estimate D2E/DX2                !
 ! A71   A(18,19,20)           120.1396         estimate D2E/DX2                !
 ! A72   A(18,19,46)           119.9182         estimate D2E/DX2                !
 ! A73   A(20,19,46)           119.9421         estimate D2E/DX2                !
 ! A74   A(15,20,19)           120.384          estimate D2E/DX2                !
 ! A75   A(15,20,47)           120.8307         estimate D2E/DX2                !
 ! A76   A(19,20,47)           118.7851         estimate D2E/DX2                !
 ! A77   A(6,21,22)            123.3126         estimate D2E/DX2                !
 ! A78   A(6,21,26)            123.2985         estimate D2E/DX2                !
 ! A79   A(22,21,26)           113.3259         estimate D2E/DX2                !
 ! A80   A(21,22,23)           109.1823         estimate D2E/DX2                !
 ! A81   A(21,22,54)           107.4424         estimate D2E/DX2                !
 ! A82   A(23,22,54)           106.8149         estimate D2E/DX2                !
 ! A83   A(22,23,24)           110.6549         estimate D2E/DX2                !
 ! A84   A(22,23,25)           104.4467         estimate D2E/DX2                !
 ! A85   A(22,23,48)           109.0948         estimate D2E/DX2                !
 ! A86   A(24,23,25)           112.8434         estimate D2E/DX2                !
 ! A87   A(24,23,48)           109.6022         estimate D2E/DX2                !
 ! A88   A(25,23,48)           110.0523         estimate D2E/DX2                !
 ! A89   A(23,24,49)           109.8271         estimate D2E/DX2                !
 ! A90   A(23,24,50)           110.885          estimate D2E/DX2                !
 ! A91   A(23,24,51)           109.7849         estimate D2E/DX2                !
 ! A92   A(49,24,50)           108.9164         estimate D2E/DX2                !
 ! A93   A(49,24,51)           108.6079         estimate D2E/DX2                !
 ! A94   A(50,24,51)           108.7746         estimate D2E/DX2                !
 ! A95   A(23,25,26)           103.3163         estimate D2E/DX2                !
 ! A96   A(23,25,52)           111.1788         estimate D2E/DX2                !
 ! A97   A(23,25,53)           112.7067         estimate D2E/DX2                !
 ! A98   A(26,25,52)           109.9318         estimate D2E/DX2                !
 ! A99   A(26,25,53)           109.4154         estimate D2E/DX2                !
 ! A100  A(52,25,53)           110.0796         estimate D2E/DX2                !
 ! A101  A(21,26,25)           109.5134         estimate D2E/DX2                !
 ! A102  A(2,27,5)             109.1744         estimate D2E/DX2                !
 ! A103  A(2,27,54)            106.8537         estimate D2E/DX2                !
 ! A104  A(5,27,54)            107.5129         estimate D2E/DX2                !
 ! A105  A(22,54,27)            100.0           estimate D2E/DX2                !
 ! D1    D(28,1,2,3)            55.897          estimate D2E/DX2                !
 ! D2    D(28,1,2,27)          -60.7529         estimate D2E/DX2                !
 ! D3    D(28,1,2,31)          178.9489         estimate D2E/DX2                !
 ! D4    D(29,1,2,3)           176.2572         estimate D2E/DX2                !
 ! D5    D(29,1,2,27)           59.6073         estimate D2E/DX2                !
 ! D6    D(29,1,2,31)          -60.6909         estimate D2E/DX2                !
 ! D7    D(30,1,2,3)           -64.392          estimate D2E/DX2                !
 ! D8    D(30,1,2,27)          178.9581         estimate D2E/DX2                !
 ! D9    D(30,1,2,31)           58.6599         estimate D2E/DX2                !
 ! D10   D(1,2,3,4)           -124.6777         estimate D2E/DX2                !
 ! D11   D(1,2,3,32)            -6.6544         estimate D2E/DX2                !
 ! D12   D(1,2,3,33)           117.5105         estimate D2E/DX2                !
 ! D13   D(27,2,3,4)            -4.4204         estimate D2E/DX2                !
 ! D14   D(27,2,3,32)          113.6029         estimate D2E/DX2                !
 ! D15   D(27,2,3,33)         -122.2322         estimate D2E/DX2                !
 ! D16   D(31,2,3,4)           112.5061         estimate D2E/DX2                !
 ! D17   D(31,2,3,32)         -129.4706         estimate D2E/DX2                !
 ! D18   D(31,2,3,33)           -5.3057         estimate D2E/DX2                !
 ! D19   D(1,2,27,5)           126.2258         estimate D2E/DX2                !
 ! D20   D(1,2,27,54)         -117.7828         estimate D2E/DX2                !
 ! D21   D(3,2,27,5)             4.4904         estimate D2E/DX2                !
 ! D22   D(3,2,27,54)          120.4818         estimate D2E/DX2                !
 ! D23   D(31,2,27,5)         -113.1287         estimate D2E/DX2                !
 ! D24   D(31,2,27,54)           2.8628         estimate D2E/DX2                !
 ! D25   D(2,3,4,5)              3.0201         estimate D2E/DX2                !
 ! D26   D(32,3,4,5)          -117.2595         estimate D2E/DX2                !
 ! D27   D(33,3,4,5)           121.7136         estimate D2E/DX2                !
 ! D28   D(3,4,5,6)            176.8527         estimate D2E/DX2                !
 ! D29   D(3,4,5,27)            -0.2963         estimate D2E/DX2                !
 ! D30   D(4,5,6,7)             24.2565         estimate D2E/DX2                !
 ! D31   D(4,5,6,14)           -98.0632         estimate D2E/DX2                !
 ! D32   D(4,5,6,21)           143.1337         estimate D2E/DX2                !
 ! D33   D(27,5,6,7)          -158.8758         estimate D2E/DX2                !
 ! D34   D(27,5,6,14)           78.8044         estimate D2E/DX2                !
 ! D35   D(27,5,6,21)          -39.9987         estimate D2E/DX2                !
 ! D36   D(4,5,27,2)            -2.8239         estimate D2E/DX2                !
 ! D37   D(4,5,27,54)         -118.3933         estimate D2E/DX2                !
 ! D38   D(6,5,27,2)          -179.9737         estimate D2E/DX2                !
 ! D39   D(6,5,27,54)           64.4569         estimate D2E/DX2                !
 ! D40   D(5,6,7,8)            163.3754         estimate D2E/DX2                !
 ! D41   D(5,6,7,34)           -72.1396         estimate D2E/DX2                !
 ! D42   D(5,6,7,35)            42.5692         estimate D2E/DX2                !
 ! D43   D(14,6,7,8)           -75.9382         estimate D2E/DX2                !
 ! D44   D(14,6,7,34)           48.5468         estimate D2E/DX2                !
 ! D45   D(14,6,7,35)          163.2556         estimate D2E/DX2                !
 ! D46   D(21,6,7,8)            44.7095         estimate D2E/DX2                !
 ! D47   D(21,6,7,34)          169.1945         estimate D2E/DX2                !
 ! D48   D(21,6,7,35)          -76.0967         estimate D2E/DX2                !
 ! D49   D(5,6,14,15)           44.7451         estimate D2E/DX2                !
 ! D50   D(5,6,14,41)          -75.9953         estimate D2E/DX2                !
 ! D51   D(5,6,14,42)          169.2406         estimate D2E/DX2                !
 ! D52   D(7,6,14,15)          -75.8956         estimate D2E/DX2                !
 ! D53   D(7,6,14,41)          163.3639         estimate D2E/DX2                !
 ! D54   D(7,6,14,42)           48.5998         estimate D2E/DX2                !
 ! D55   D(21,6,14,15)         163.399          estimate D2E/DX2                !
 ! D56   D(21,6,14,41)          42.6585         estimate D2E/DX2                !
 ! D57   D(21,6,14,42)         -72.1056         estimate D2E/DX2                !
 ! D58   D(5,6,21,22)          -39.9755         estimate D2E/DX2                !
 ! D59   D(5,6,21,26)          143.1062         estimate D2E/DX2                !
 ! D60   D(7,6,21,22)           78.8418         estimate D2E/DX2                !
 ! D61   D(7,6,21,26)          -98.0765         estimate D2E/DX2                !
 ! D62   D(14,6,21,22)        -158.8299         estimate D2E/DX2                !
 ! D63   D(14,6,21,26)          24.2518         estimate D2E/DX2                !
 ! D64   D(6,7,8,9)             88.0544         estimate D2E/DX2                !
 ! D65   D(6,7,8,13)           -91.6731         estimate D2E/DX2                !
 ! D66   D(34,7,8,9)           -36.9687         estimate D2E/DX2                !
 ! D67   D(34,7,8,13)          143.3039         estimate D2E/DX2                !
 ! D68   D(35,7,8,9)          -150.4446         estimate D2E/DX2                !
 ! D69   D(35,7,8,13)           29.8279         estimate D2E/DX2                !
 ! D70   D(7,8,9,10)          -178.3605         estimate D2E/DX2                !
 ! D71   D(7,8,9,36)             1.7296         estimate D2E/DX2                !
 ! D72   D(13,8,9,10)            1.3693         estimate D2E/DX2                !
 ! D73   D(13,8,9,36)         -178.5405         estimate D2E/DX2                !
 ! D74   D(7,8,13,12)          178.1427         estimate D2E/DX2                !
 ! D75   D(7,8,13,40)           -1.5924         estimate D2E/DX2                !
 ! D76   D(9,8,13,12)           -1.5911         estimate D2E/DX2                !
 ! D77   D(9,8,13,40)          178.6738         estimate D2E/DX2                !
 ! D78   D(8,9,10,11)           -0.2975         estimate D2E/DX2                !
 ! D79   D(8,9,10,37)          179.6644         estimate D2E/DX2                !
 ! D80   D(36,9,10,11)         179.6141         estimate D2E/DX2                !
 ! D81   D(36,9,10,37)          -0.4239         estimate D2E/DX2                !
 ! D82   D(9,10,11,12)          -0.5774         estimate D2E/DX2                !
 ! D83   D(9,10,11,38)         179.7851         estimate D2E/DX2                !
 ! D84   D(37,10,11,12)        179.4606         estimate D2E/DX2                !
 ! D85   D(37,10,11,38)         -0.1768         estimate D2E/DX2                !
 ! D86   D(10,11,12,13)          0.3575         estimate D2E/DX2                !
 ! D87   D(10,11,12,39)       -179.6715         estimate D2E/DX2                !
 ! D88   D(38,11,12,13)        179.995          estimate D2E/DX2                !
 ! D89   D(38,11,12,39)         -0.034          estimate D2E/DX2                !
 ! D90   D(11,12,13,8)           0.7387         estimate D2E/DX2                !
 ! D91   D(11,12,13,40)       -179.5233         estimate D2E/DX2                !
 ! D92   D(39,12,13,8)        -179.2323         estimate D2E/DX2                !
 ! D93   D(39,12,13,40)          0.5057         estimate D2E/DX2                !
 ! D94   D(6,14,15,16)         -91.6785         estimate D2E/DX2                !
 ! D95   D(6,14,15,20)          88.0308         estimate D2E/DX2                !
 ! D96   D(41,14,15,16)         29.7601         estimate D2E/DX2                !
 ! D97   D(41,14,15,20)       -150.5306         estimate D2E/DX2                !
 ! D98   D(42,14,15,16)        143.2684         estimate D2E/DX2                !
 ! D99   D(42,14,15,20)        -37.0224         estimate D2E/DX2                !
 ! D100  D(14,15,16,17)        178.148          estimate D2E/DX2                !
 ! D101  D(14,15,16,43)         -1.6706         estimate D2E/DX2                !
 ! D102  D(20,15,16,17)         -1.5681         estimate D2E/DX2                !
 ! D103  D(20,15,16,43)        178.6133         estimate D2E/DX2                !
 ! D104  D(14,15,20,19)       -178.4046         estimate D2E/DX2                !
 ! D105  D(14,15,20,47)          1.7958         estimate D2E/DX2                !
 ! D106  D(16,15,20,19)          1.3071         estimate D2E/DX2                !
 ! D107  D(16,15,20,47)       -178.4925         estimate D2E/DX2                !
 ! D108  D(15,16,17,18)          0.7638         estimate D2E/DX2                !
 ! D109  D(15,16,17,44)       -179.3499         estimate D2E/DX2                !
 ! D110  D(43,16,17,18)       -179.4156         estimate D2E/DX2                !
 ! D111  D(43,16,17,44)          0.4707         estimate D2E/DX2                !
 ! D112  D(16,17,18,19)          0.323          estimate D2E/DX2                !
 ! D113  D(16,17,18,45)        179.8864         estimate D2E/DX2                !
 ! D114  D(44,17,18,19)       -179.5632         estimate D2E/DX2                !
 ! D115  D(44,17,18,45)          0.0001         estimate D2E/DX2                !
 ! D116  D(17,18,19,20)         -0.5819         estimate D2E/DX2                !
 ! D117  D(17,18,19,46)        179.3281         estimate D2E/DX2                !
 ! D118  D(45,18,19,20)        179.8548         estimate D2E/DX2                !
 ! D119  D(45,18,19,46)         -0.2352         estimate D2E/DX2                !
 ! D120  D(18,19,20,15)         -0.2441         estimate D2E/DX2                !
 ! D121  D(18,19,20,47)        179.5596         estimate D2E/DX2                !
 ! D122  D(46,19,20,15)        179.8459         estimate D2E/DX2                !
 ! D123  D(46,19,20,47)         -0.3505         estimate D2E/DX2                !
 ! D124  D(6,21,22,23)        -179.9482         estimate D2E/DX2                !
 ! D125  D(6,21,22,54)          64.5618         estimate D2E/DX2                !
 ! D126  D(26,21,22,23)         -2.753          estimate D2E/DX2                !
 ! D127  D(26,21,22,54)       -118.243          estimate D2E/DX2                !
 ! D128  D(6,21,26,25)         176.8445         estimate D2E/DX2                !
 ! D129  D(22,21,26,25)         -0.3512         estimate D2E/DX2                !
 ! D130  D(21,22,23,24)        126.1377         estimate D2E/DX2                !
 ! D131  D(21,22,23,25)          4.4327         estimate D2E/DX2                !
 ! D132  D(21,22,23,48)       -113.2046         estimate D2E/DX2                !
 ! D133  D(54,22,23,24)       -117.9703         estimate D2E/DX2                !
 ! D134  D(54,22,23,25)        120.3247         estimate D2E/DX2                !
 ! D135  D(54,22,23,48)          2.6874         estimate D2E/DX2                !
 ! D136  D(21,22,54,27)        -27.7345         estimate D2E/DX2                !
 ! D137  D(23,22,54,27)       -144.783          estimate D2E/DX2                !
 ! D138  D(22,23,24,49)         59.6459         estimate D2E/DX2                !
 ! D139  D(22,23,24,50)        -60.7802         estimate D2E/DX2                !
 ! D140  D(22,23,24,51)        178.9982         estimate D2E/DX2                !
 ! D141  D(25,23,24,49)        176.2682         estimate D2E/DX2                !
 ! D142  D(25,23,24,50)         55.8421         estimate D2E/DX2                !
 ! D143  D(25,23,24,51)        -64.3795         estimate D2E/DX2                !
 ! D144  D(48,23,24,49)        -60.7094         estimate D2E/DX2                !
 ! D145  D(48,23,24,50)        178.8645         estimate D2E/DX2                !
 ! D146  D(48,23,24,51)         58.6429         estimate D2E/DX2                !
 ! D147  D(22,23,25,26)         -4.3966         estimate D2E/DX2                !
 ! D148  D(22,23,25,52)       -122.2623         estimate D2E/DX2                !
 ! D149  D(22,23,25,53)        113.595          estimate D2E/DX2                !
 ! D150  D(24,23,25,26)       -124.6471         estimate D2E/DX2                !
 ! D151  D(24,23,25,52)        117.4872         estimate D2E/DX2                !
 ! D152  D(24,23,25,53)         -6.6555         estimate D2E/DX2                !
 ! D153  D(48,23,25,26)        112.5814         estimate D2E/DX2                !
 ! D154  D(48,23,25,52)         -5.2844         estimate D2E/DX2                !
 ! D155  D(48,23,25,53)       -129.4271         estimate D2E/DX2                !
 ! D156  D(23,25,26,21)          3.0352         estimate D2E/DX2                !
 ! D157  D(52,25,26,21)        121.7693         estimate D2E/DX2                !
 ! D158  D(53,25,26,21)       -117.2312         estimate D2E/DX2                !
 ! D159  D(2,27,54,22)        -144.6479         estimate D2E/DX2                !
 ! D160  D(5,27,54,22)         -27.5536         estimate D2E/DX2                !
 --------------------------------------------------------------------------------
 Trust Radius=3.00D-01 FncErr=1.00D-07 GrdErr=1.00D-06 EigMax=2.50D+02 EigMin=1.00D-04
 Number of steps in this run=    324 maximum allowed number of steps=    324.
 GradGradGradGradGradGradGradGradGradGradGradGradGradGradGradGradGradGrad

 Leave Link  103 at Thu Mar  7 23:58:28 2024, MaxMem= 13421772800 cpu:               0.3 elap:               0.0
 (Enter /public/software/apps/Gaussian/g16/l202.exe)
 Symmetry turned off by external request.
 Stoichiometry    C23H26CuN2O2(2+,2)
 Framework group  C1[X(C23H26CuN2O2)]
 Deg. of freedom   156
 Full point group                 C1      NOp   1
                          Input orientation:                          
 ---------------------------------------------------------------------
 Center     Atomic      Atomic             Coordinates (Angstroms)
 Number     Number       Type             X           Y           Z
 ---------------------------------------------------------------------
      1          6           0       -3.314527    1.329594    3.307768
      2          6           0       -2.066355    1.956278    2.687958
      3          6           0       -2.363904    2.715851    1.380230
      4          8           0       -1.486279    2.114016    0.447445
      5          6           0       -0.799289    1.081719    1.058902
      6          6           0        0.177618    0.176080    0.322691
      7          6           0        0.725797    0.931323   -0.932695
      8          6           0        1.981737    0.332616   -1.537711
      9          6           0        1.911483   -0.678281   -2.511627
     10          6           0        3.080748   -1.241304   -3.032363
     11          6           0        4.329650   -0.797535   -2.591669
     12          6           0        4.411719    0.218945   -1.637814
     13          6           0        3.245168    0.787051   -1.118616
     14          6           0       -0.551616   -1.150769   -0.070710
     15          6           0       -1.937904   -0.964200   -0.658287
     16          6           0       -3.062483   -0.979932    0.186374
     17          6           0       -4.343012   -0.771232   -0.332827
     18          6           0       -4.516105   -0.560573   -1.702453
     19          6           0       -3.409194   -0.565250   -2.554554
     20          6           0       -2.125911   -0.768413   -2.037471
     21          6           0        1.337082   -0.152228    1.252413
     22          7           0        1.873040    0.710165    2.048695
     23          6           0        2.951859    0.070606    2.791275
     24          6           0        4.251961    0.859253    2.639710
     25          6           0        3.039902   -1.348292    2.196003
     26          8           0        1.959690   -1.386187    1.282703
     27          7           0       -1.111906    0.925147    2.300928
     28          1           0       -3.821802    0.658909    2.583393
     29          1           0       -3.033012    0.740961    4.206381
     30          1           0       -4.023248    2.127629    3.614295
     31          1           0       -1.585781    2.637813    3.423873
     32          1           0       -3.413878    2.586193    1.037745
     33          1           0       -2.125800    3.796361    1.480843
     34          1           0       -0.059014    1.011302   -1.712062
     35          1           0        0.955384    1.983393   -0.649773
     36          1           0        0.958754   -1.033428   -2.872463
     37          1           0        3.018260   -2.023138   -3.778119
     38          1           0        5.233338   -1.237140   -2.993529
     39          1           0        5.379163    0.566986   -1.299790
     40          1           0        3.325108    1.579358   -0.385716
     41          1           0       -0.652316   -1.789796    0.835547
     42          1           0        0.070658   -1.744868   -0.770669
     43          1           0       -2.945397   -1.151268    1.248531
     44          1           0       -5.201119   -0.774774    0.327088
     45          1           0       -5.508234   -0.400829   -2.104253
     46          1           0       -3.545458   -0.412743   -3.617336
     47          1           0       -1.287352   -0.774959   -2.716239
     48          1           0        2.671402    0.016469    3.866292
     49          1           0        4.112727    1.892375    3.022893
     50          1           0        4.562670    0.909068    1.575576
     51          1           0        5.058899    0.369904    3.225143
     52          1           0        2.899746   -2.122158    2.980686
     53          1           0        3.991914   -1.526338    1.650021
     54         29           0        0.510057    1.225755    3.359869
 ---------------------------------------------------------------------
 Rotational constants (GHZ):           0.2074531           0.1585791           0.1031354
 Leave Link  202 at Thu Mar  7 23:58:28 2024, MaxMem= 13421772800 cpu:               0.3 elap:               0.0
 (Enter /public/software/apps/Gaussian/g16/l301.exe)
 Standard basis: def2SVPP (5D, 7F)
 Ernie: Thresh=  0.10000D-02 Tol=  0.10000D-05 Strict=F.
   454 basis functions,   850 primitive gaussians,   483 cartesian basis functions
   111 alpha electrons      110 beta electrons
       nuclear repulsion energy      3292.1832195445 Hartrees.
 IExCor=  402 DFT=T Ex+Corr=B3LYP ExCW=0 ScaHFX=  0.200000
 ScaDFX=  0.800000  0.720000  1.000000  0.810000 ScalE2=  1.000000  1.000000
 IRadAn=      5 IRanWt=     -1 IRanGd=            0 ICorTp=0 IEmpDi=141
 NAtoms=   54 NActive=   54 NUniq=   54 SFac= 1.00D+00 NAtFMM=   60 NAOKFM=F Big=F
 Integral buffers will be    131072 words long.
 Raffenetti 2 integral format.
 Two-electron integral symmetry is turned off.
 R6Disp:  Grimme-D3(BJ) Dispersion energy=       -0.1343367408 Hartrees.
 Nuclear repulsion after empirical dispersion term =     3292.0488828037 Hartrees.
 Leave Link  301 at Thu Mar  7 23:58:28 2024, MaxMem= 13421772800 cpu:               0.7 elap:               0.0
 (Enter /public/software/apps/Gaussian/g16/l302.exe)
 NPDir=0 NMtPBC=     1 NCelOv=     1 NCel=       1 NClECP=     1 NCelD=      1
         NCelK=      1 NCelE2=     1 NClLst=     1 CellRange=     0.0.
 One-electron integrals computed using PRISM.
   1 Symmetry operations used in ECPInt.
 ECPInt:  NShTT=   25200 NPrTT=  104665 LenC2=   23243 LenP2D=   63643.
 LDataN:  DoStor=T MaxTD1= 4 Len=   56
 NBasis=   454 RedAO= T EigKep=  2.76D-04  NBF=   454
 NBsUse=   454 1.00D-06 EigRej= -1.00D+00 NBFU=   454
 Precomputing XC quadrature grid using
 IXCGrd= 4 IRadAn=           5 IRanWt=          -1 IRanGd=           0 AccXCQ= 0.00D+00.
 Generated NRdTot=       0 NPtTot=           0 NUsed=           0 NTot=          32
 NSgBfM=   480   480   480   480   480 MxSgAt=    54 MxSgA2=    54.
 Leave Link  302 at Thu Mar  7 23:58:29 2024, MaxMem= 13421772800 cpu:              16.0 elap:               0.5
 (Enter /public/software/apps/Gaussian/g16/l303.exe)
 DipDrv:  MaxL=1.
 Leave Link  303 at Thu Mar  7 23:58:29 2024, MaxMem= 13421772800 cpu:               1.5 elap:               0.1
 (Enter /public/software/apps/Gaussian/g16/l401.exe)
 ExpMin= 3.30D-02 ExpMax= 7.64D+04 ExpMxC= 1.15D+04 IAcc=3 IRadAn=         5 AccDes= 0.00D+00
 Harris functional with IExCor=  402 and IRadAn=       5 diagonalized for initial guess.
 HarFok:  IExCor=  402 AccDes= 0.00D+00 IRadAn=         5 IDoV= 1 UseB2=F ITyADJ=14
 ICtDFT=  3500011 ScaDFX=  1.000000  1.000000  1.000000  1.000000
 FoFCou: FMM=F IPFlag=           0 FMFlag=      100000 FMFlg1=           0
         NFxFlg=           0 DoJE=T BraDBF=F KetDBF=T FulRan=T
         wScrn=  0.000000 ICntrl=       500 IOpCl=  0 I1Cent=   200000004 NGrid=           0
         NMat0=    1 NMatS0=      1 NMatT0=    0 NMatD0=    1 NMtDS0=    0 NMtDT0=    0
 Symmetry not used in FoFCou.
 Harris En= -2791.23398164842    
 JPrj=0 DoOrth=F DoCkMO=F.
 Initial guess <Sx>= 0.0000 <Sy>= 0.0000 <Sz>= 0.5000 <S**2>= 0.7500 S= 0.5000
 Leave Link  401 at Thu Mar  7 23:58:30 2024, MaxMem= 13421772800 cpu:              39.4 elap:               1.3
 (Enter /public/software/apps/Gaussian/g16/l502.exe)
 Two-electron integral symmetry not used.
 UHF open shell SCF:
 Using DIIS extrapolation, IDIIS=  1040.
 NGot= 13421772800 LenX= 13421285269 LenY= 13421051497
 Requested convergence on RMS density matrix=1.00D-08 within 128 cycles.
 Requested convergence on MAX density matrix=1.00D-06.
 Requested convergence on             energy=1.00D-06.
 No special actions if energy rises.
 Fock matrices will be formed incrementally for  20 cycles.

 Cycle   1  Pass 1  IDiag  1:
 FoFJK:  IHMeth= 1 ICntrl=       0 DoSepK=F KAlg= 0 I1Cent=           0 FoldK=F
 IRaf= 870000000 NMat=       1 IRICut=       1 DoRegI=T DoRafI=F ISym2E= 0 IDoP0=0 IntGTp=1.
 FoFCou: FMM=F IPFlag=           0 FMFlag=      100000 FMFlg1=           0
         NFxFlg=           0 DoJE=F BraDBF=F KetDBF=F FulRan=T
         wScrn=  0.000000 ICntrl=         0 IOpCl=  1 I1Cent=           0 NGrid=           0
         NMat0=    1 NMatS0=      1 NMatT0=    0 NMatD0=    1 NMtDS0=    0 NMtDT0=    0
 Symmetry not used in FoFCou.
 E= -2787.12468229620    
 DIIS: error= 1.62D-01 at cycle   1 NSaved=   1.
 NSaved= 1 IEnMin= 1 EnMin= -2787.12468229620     IErMin= 1 ErrMin= 1.62D-01
 ErrMax= 1.62D-01  0.00D+00 EMaxC= 1.00D-01 BMatC= 2.31D+01 BMatP= 2.31D+01
 IDIUse=3 WtCom= 0.00D+00 WtEn= 1.00D+00
 Coeff-Com:  0.100D+01
 Coeff-En:   0.100D+01
 Coeff:      0.100D+01
 Gap=     0.573 Goal=   None    Shift=    0.000
 Gap=     1.815 Goal=   None    Shift=    0.000
 GapD=    0.573 DampG=2.000 DampE=0.125 DampFc=0.2500 IDamp=-1.
 Damping current iteration by 2.50D-01
 RMSDP=3.78D-02 MaxDP=7.29D+00              OVMax= 9.57D-01

 Cycle   2  Pass 1  IDiag  1:
 RMSU=  9.46D-03    CP:  9.96D-01
 E= -2787.50881169185     Delta-E=       -0.384129395658 Rises=F Damp=T
 DIIS: error= 4.99D-02 at cycle   2 NSaved=   2.
 NSaved= 2 IEnMin= 2 EnMin= -2787.50881169185     IErMin= 2 ErrMin= 4.99D-02
 ErrMax= 4.99D-02  0.00D+00 EMaxC= 1.00D-01 BMatC= 3.09D+00 BMatP= 2.31D+01
 IDIUse=3 WtCom= 5.01D-01 WtEn= 4.99D-01
 Coeff-Com: -0.173D+00 0.117D+01
 Coeff-En:   0.444D+00 0.556D+00
 Coeff:      0.135D+00 0.865D+00
 Gap=     0.184 Goal=   None    Shift=    0.000
 Gap=    -0.651 Goal=   None    Shift=    0.000
 RMSDP=1.17D-02 MaxDP=1.71D+00 DE=-3.84D-01 OVMax= 9.71D-01

 Cycle   3  Pass 1  IDiag  1:
 RMSU=  8.20D-03    CP:  9.13D-01  1.39D-01
 E= -2778.24633650978     Delta-E=        9.262475182074 Rises=F Damp=F
 DIIS: error= 9.52D-02 at cycle   3 NSaved=   3.
 NSaved= 3 IEnMin= 2 EnMin= -2787.50881169185     IErMin= 2 ErrMin= 4.99D-02
 ErrMax= 9.52D-02  0.00D+00 EMaxC= 1.00D-01 BMatC= 3.02D+01 BMatP= 3.09D+00
 IDIUse=2 WtCom= 0.00D+00 WtEn= 1.00D+00
 EnCoef did     2 forward-backward iterations
 Coeff-En:   0.271D+00 0.567D+00 0.162D+00
 Coeff:      0.271D+00 0.567D+00 0.162D+00
 Gap=     0.286 Goal=   None    Shift=    0.000
 Gap=    -0.308 Goal=   None    Shift=    0.000
 RMSDP=9.29D-03 MaxDP=1.92D+00 DE= 9.26D+00 OVMax= 9.87D-01

 Cycle   4  Pass 1  IDiag  1:
 RMSU=  6.61D-03    CP:  9.25D-01  5.14D-01  3.32D-01
 E= -2787.54676022388     Delta-E=       -9.300423714098 Rises=F Damp=F
 DIIS: error= 9.98D-02 at cycle   4 NSaved=   4.
 NSaved= 4 IEnMin= 4 EnMin= -2787.54676022388     IErMin= 2 ErrMin= 4.99D-02
 ErrMax= 9.98D-02  0.00D+00 EMaxC= 1.00D-01 BMatC= 1.02D+01 BMatP= 3.09D+00
 IDIUse=2 WtCom= 0.00D+00 WtEn= 1.00D+00
 EnCoef did   100 forward-backward iterations
 Coeff-En:   0.473D+00 0.715D-02 0.805D-02 0.512D+00
 Coeff:      0.473D+00 0.715D-02 0.805D-02 0.512D+00
 Gap=     0.011 Goal=   None    Shift=    0.000
 Gap=    -0.268 Goal=   None    Shift=    0.000
 RMSDP=8.15D-03 MaxDP=1.93D+00 DE=-9.30D+00 OVMax= 9.60D-01

 Cycle   5  Pass 1  IDiag  1:
 RMSU=  4.80D-03    CP:  9.24D-01  8.42D-02  4.63D-01  2.33D-01
 E= -2786.31254909210     Delta-E=        1.234211131780 Rises=F Damp=F
 DIIS: error= 5.58D-02 at cycle   5 NSaved=   5.
 NSaved= 5 IEnMin= 4 EnMin= -2787.54676022388     IErMin= 2 ErrMin= 4.99D-02
 ErrMax= 5.58D-02  0.00D+00 EMaxC= 1.00D-01 BMatC= 9.10D+00 BMatP= 3.09D+00
 IDIUse=2 WtCom= 0.00D+00 WtEn= 1.00D+00
 EnCoef did   100 forward-backward iterations
 Coeff-En:   0.396D+00 0.202D-02 0.217D-02 0.436D+00 0.164D+00
 Coeff:      0.396D+00 0.202D-02 0.217D-02 0.436D+00 0.164D+00
 Gap=    -0.054 Goal=   None    Shift=    0.000
 Gap=     0.183 Goal=   None    Shift=    0.000
 RMSDP=4.48D-03 MaxDP=1.90D-01 DE= 1.23D+00 OVMax= 9.56D-01

 Cycle   6  Pass 1  IDiag  1:
 RMSU=  2.84D-03    CP:  9.27D-01  3.85D-02  2.94D-01  2.99D-01  3.50D-01
 E= -2790.77348068067     Delta-E=       -4.460931588570 Rises=F Damp=F
 DIIS: error= 1.58D-02 at cycle   6 NSaved=   6.
 NSaved= 6 IEnMin= 6 EnMin= -2790.77348068067     IErMin= 6 ErrMin= 1.58D-02
 ErrMax= 1.58D-02  0.00D+00 EMaxC= 1.00D-01 BMatC= 8.92D-01 BMatP= 3.09D+00
 IDIUse=3 WtCom= 8.42D-01 WtEn= 1.58D-01
 Coeff-Com: -0.351D-01 0.345D+00-0.235D-01 0.164D-01-0.354D-02 0.701D+00
 Coeff-En:   0.000D+00 0.000D+00 0.000D+00 0.621D-02 0.000D+00 0.994D+00
 Coeff:     -0.295D-01 0.290D+00-0.198D-01 0.148D-01-0.298D-02 0.747D+00
 Gap=     0.204 Goal=   None    Shift=    0.000
 Gap=     0.075 Goal=   None    Shift=    0.000
 RMSDP=1.60D-03 MaxDP=1.56D-01 DE=-4.46D+00 OVMax= 1.51D-01

 Cycle   7  Pass 1  IDiag  1:
 RMSU=  1.47D-03    CP:  9.26D-01  2.33D-02  2.37D-01  2.95D-01  2.91D-01
                    CP:  8.92D-01
 E= -2790.86030388219     Delta-E=       -0.086823201525 Rises=F Damp=F
 DIIS: error= 1.09D-02 at cycle   7 NSaved=   7.
 NSaved= 7 IEnMin= 7 EnMin= -2790.86030388219     IErMin= 7 ErrMin= 1.09D-02
 ErrMax= 1.09D-02  0.00D+00 EMaxC= 1.00D-01 BMatC= 4.60D-01 BMatP= 8.92D-01
 IDIUse=3 WtCom= 8.91D-01 WtEn= 1.09D-01
 Coeff-Com: -0.470D-01 0.219D+00-0.329D-01-0.815D-02-0.334D-02 0.480D+00
 Coeff-Com:  0.393D+00
 Coeff-En:   0.000D+00 0.000D+00 0.000D+00 0.000D+00 0.000D+00 0.331D+00
 Coeff-En:   0.669D+00
 Coeff:     -0.418D-01 0.195D+00-0.293D-01-0.726D-02-0.298D-02 0.464D+00
 Coeff:      0.423D+00
 Gap=     0.148 Goal=   None    Shift=    0.000
 Gap=     0.018 Goal=   None    Shift=    0.000
 RMSDP=1.06D-03 MaxDP=8.98D-02 DE=-8.68D-02 OVMax= 1.26D-01

 Cycle   8  Pass 1  IDiag  1:
 RMSU=  7.30D-04    CP:  9.24D-01  4.04D-02  2.40D-01  3.30D-01  3.32D-01
                    CP:  9.61D-01  5.55D-01
 E= -2790.96820109671     Delta-E=       -0.107897214519 Rises=F Damp=F
 DIIS: error= 9.14D-03 at cycle   8 NSaved=   8.
 NSaved= 8 IEnMin= 8 EnMin= -2790.96820109671     IErMin= 8 ErrMin= 9.14D-03
 ErrMax= 9.14D-03  0.00D+00 EMaxC= 1.00D-01 BMatC= 1.32D-01 BMatP= 4.60D-01
 IDIUse=3 WtCom= 9.09D-01 WtEn= 9.14D-02
 Coeff-Com: -0.278D-01 0.125D+00-0.157D-01-0.196D-01-0.116D-01-0.247D-02
 Coeff-Com:  0.184D+00 0.768D+00
 Coeff-En:   0.000D+00 0.000D+00 0.000D+00 0.000D+00 0.000D+00 0.000D+00
 Coeff-En:   0.126D-02 0.999D+00
 Coeff:     -0.253D-01 0.114D+00-0.142D-01-0.178D-01-0.106D-01-0.225D-02
 Coeff:      0.167D+00 0.789D+00
 Gap=     0.096 Goal=   None    Shift=    0.000
 Gap=    -0.008 Goal=   None    Shift=    0.000
 RMSDP=1.43D-03 MaxDP=1.64D-01 DE=-1.08D-01 OVMax= 6.99D-01

 Cycle   9  Pass 1  IDiag  1:
 RMSU=  1.28D-03    CP:  9.24D-01  5.27D-02  2.28D-01  3.61D-01  3.73D-01
                    CP:  7.97D-01  6.74D-01  1.33D+00
 E= -2790.95829667661     Delta-E=        0.009904420106 Rises=F Damp=F
 DIIS: error= 1.74D-02 at cycle   9 NSaved=   9.
 NSaved= 9 IEnMin= 8 EnMin= -2790.96820109671     IErMin= 8 ErrMin= 9.14D-03
 ErrMax= 1.74D-02  0.00D+00 EMaxC= 1.00D-01 BMatC= 2.79D-01 BMatP= 1.32D-01
 IDIUse=2 WtCom= 0.00D+00 WtEn= 1.00D+00
 Coeff-En:   0.000D+00 0.000D+00 0.000D+00 0.000D+00 0.000D+00 0.000D+00
 Coeff-En:   0.000D+00 0.550D+00 0.450D+00
 Coeff:      0.000D+00 0.000D+00 0.000D+00 0.000D+00 0.000D+00 0.000D+00
 Coeff:      0.000D+00 0.550D+00 0.450D+00
 Gap=     0.144 Goal=   None    Shift=    0.000
 Gap=     0.029 Goal=   None    Shift=    0.000
 RMSDP=1.94D-03 MaxDP=4.51D-01 DE= 9.90D-03 OVMax= 7.49D-01

 Cycle  10  Pass 1  IDiag  1:
 RMSU=  1.13D-03    CP:  9.33D-01  3.40D-02  1.44D-01  2.81D-01  2.61D-01
                    CP:  8.56D-01  7.50D-01  1.22D+00  1.02D-01
 E= -2790.68290805094     Delta-E=        0.275388625667 Rises=F Damp=F
 DIIS: error= 5.50D-02 at cycle  10 NSaved=  10.
 NSaved=10 IEnMin= 8 EnMin= -2790.96820109671     IErMin= 8 ErrMin= 9.14D-03
 ErrMax= 5.50D-02  0.00D+00 EMaxC= 1.00D-01 BMatC= 2.09D+00 BMatP= 1.32D-01
 IDIUse=2 WtCom= 0.00D+00 WtEn= 1.00D+00
 EnCoef did     5 forward-backward iterations
 Coeff-En:   0.000D+00 0.000D+00 0.000D+00 0.000D+00 0.000D+00 0.000D+00
 Coeff-En:   0.000D+00 0.285D+00 0.551D+00 0.164D+00
 Coeff:      0.000D+00 0.000D+00 0.000D+00 0.000D+00 0.000D+00 0.000D+00
 Coeff:      0.000D+00 0.285D+00 0.551D+00 0.164D+00
 Gap=     0.108 Goal=   None    Shift=    0.000
 Gap=    -0.012 Goal=   None    Shift=    0.000
 RMSDP=1.66D-03 MaxDP=4.14D-01 DE= 2.75D-01 OVMax= 7.78D-01

 Cycle  11  Pass 1  IDiag  1:
 RMSU=  1.03D-03    CP:  9.27D-01  3.85D-02  2.05D-01  3.41D-01  3.17D-01
                    CP:  8.17D-01  5.15D-01  1.21D+00  7.50D-01  4.46D-01
 E= -2790.96161101827     Delta-E=       -0.278702967335 Rises=F Damp=F
 DIIS: error= 7.15D-03 at cycle  11 NSaved=  11.
 NSaved=11 IEnMin= 8 EnMin= -2790.96820109671     IErMin=11 ErrMin= 7.15D-03
 ErrMax= 7.15D-03  0.00D+00 EMaxC= 1.00D-01 BMatC= 1.36D-01 BMatP= 1.32D-01
 IDIUse=3 WtCom= 9.29D-01 WtEn= 7.15D-02
 EnCoef did     6 forward-backward iterations
 Coeff-Com: -0.102D-01 0.212D-01-0.292D-02-0.238D-01 0.237D-02 0.714D-02
 Coeff-Com:  0.464D-01 0.309D+00 0.332D+00 0.119D+00 0.200D+00
 Coeff-En:   0.000D+00 0.000D+00 0.000D+00 0.000D+00 0.000D+00 0.000D+00
 Coeff-En:   0.000D+00 0.205D+00 0.421D+00 0.107D+00 0.266D+00
 Coeff:     -0.949D-02 0.197D-01-0.272D-02-0.221D-01 0.221D-02 0.663D-02
 Coeff:      0.431D-01 0.302D+00 0.338D+00 0.118D+00 0.205D+00
 Gap=     0.119 Goal=   None    Shift=    0.000
 Gap=     0.013 Goal=   None    Shift=    0.000
 RMSDP=6.70D-04 MaxDP=3.37D-02 DE=-2.79D-01 OVMax= 3.40D-01

 Cycle  12  Pass 1  IDiag  1:
 RMSU=  2.89D-04    CP:  9.26D-01  4.33D-02  2.18D-01  3.50D-01  3.50D-01
                    CP:  7.99D-01  5.94D-01  1.21D+00  9.20D-01  2.02D-01
                    CP:  5.87D-01
 E= -2790.99740755260     Delta-E=       -0.035796534323 Rises=F Damp=F
 DIIS: error= 9.56D-03 at cycle  12 NSaved=  12.
 NSaved=12 IEnMin=12 EnMin= -2790.99740755260     IErMin=11 ErrMin= 7.15D-03
 ErrMax= 9.56D-03  0.00D+00 EMaxC= 1.00D-01 BMatC= 9.04D-02 BMatP= 1.32D-01
 IDIUse=3 WtCom= 9.29D-01 WtEn= 7.15D-02
 EnCoef did     4 forward-backward iterations
 Coeff-Com: -0.824D-02 0.164D-01-0.290D-02-0.269D-01 0.397D-02 0.146D-01
 Coeff-Com:  0.376D-01 0.258D+00 0.130D+00 0.121D+00 0.957D-02 0.446D+00
 Coeff-En:   0.000D+00 0.000D+00 0.000D+00 0.000D+00 0.000D+00 0.000D+00
 Coeff-En:   0.000D+00 0.151D+00 0.419D-01 0.100D+00 0.000D+00 0.706D+00
 Coeff:     -0.765D-02 0.152D-01-0.269D-02-0.250D-01 0.369D-02 0.136D-01
 Coeff:      0.349D-01 0.251D+00 0.124D+00 0.120D+00 0.888D-02 0.465D+00
 Gap=     0.130 Goal=   None    Shift=    0.000
 Gap=     0.016 Goal=   None    Shift=    0.000
 RMSDP=1.85D-04 MaxDP=1.07D-02 DE=-3.58D-02 OVMax= 1.09D-01

 Cycle  13  Pass 1  IDiag  1:
 RMSU=  1.01D-04    CP:  9.26D-01  4.18D-02  2.18D-01  3.43D-01  3.60D-01
                    CP:  7.95D-01  5.94D-01  1.17D+00  9.55D-01  1.92D-01
                    CP:  4.63D-01  1.07D+00
 E= -2791.00522574220     Delta-E=       -0.007818189600 Rises=F Damp=F
 DIIS: error= 8.48D-03 at cycle  13 NSaved=  13.
 NSaved=13 IEnMin=13 EnMin= -2791.00522574220     IErMin=11 ErrMin= 7.15D-03
 ErrMax= 8.48D-03  0.00D+00 EMaxC= 1.00D-01 BMatC= 6.52D-02 BMatP= 9.04D-02
 IDIUse=3 WtCom= 9.29D-01 WtEn= 7.15D-02
 EnCoef did     2 forward-backward iterations
 Coeff-Com: -0.393D-02 0.874D-02-0.198D-02-0.139D-01-0.265D-02 0.518D-01
 Coeff-Com:  0.484D-01 0.103D+00-0.200D+00 0.817D-01-0.460D-01-0.465D+00
 Coeff-Com:  0.144D+01
 Coeff-En:   0.000D+00 0.000D+00 0.000D+00 0.000D+00 0.000D+00 0.000D+00
 Coeff-En:   0.000D+00 0.422D-01 0.000D+00 0.963D-01 0.000D+00 0.000D+00
 Coeff-En:   0.861D+00
 Coeff:     -0.365D-02 0.812D-02-0.184D-02-0.130D-01-0.246D-02 0.481D-01
 Coeff:      0.449D-01 0.984D-01-0.185D+00 0.828D-01-0.427D-01-0.432D+00
 Coeff:      0.140D+01
 Gap=     0.149 Goal=   None    Shift=    0.000
 Gap=     0.021 Goal=   None    Shift=    0.000
 RMSDP=3.31D-04 MaxDP=2.14D-02 DE=-7.82D-03 OVMax= 1.45D-01

 Cycle  14  Pass 1  IDiag  1:
 RMSU=  1.83D-04    CP:  9.27D-01  3.59D-02  2.15D-01  3.24D-01  3.64D-01
                    CP:  8.03D-01  5.79D-01  1.07D+00  9.26D-01  2.17D-01
                    CP:  3.19D-01  1.01D+00  2.56D+00
 E= -2791.01621195147     Delta-E=       -0.010986209270 Rises=F Damp=F
 DIIS: error= 3.89D-03 at cycle  14 NSaved=  14.
 NSaved=14 IEnMin=14 EnMin= -2791.01621195147     IErMin=14 ErrMin= 3.89D-03
 ErrMax= 3.89D-03  0.00D+00 EMaxC= 1.00D-01 BMatC= 1.74D-02 BMatP= 6.52D-02
 IDIUse=3 WtCom= 9.61D-01 WtEn= 3.89D-02
 EnCoef did     2 forward-backward iterations
 Coeff-Com: -0.105D-02 0.228D-02-0.390D-03 0.725D-03-0.307D-02 0.372D-01
 Coeff-Com:  0.416D-01 0.251D-01-0.270D+00 0.312D-01 0.498D-01-0.598D+00
 Coeff-Com:  0.105D+01 0.639D+00
 Coeff-En:   0.000D+00 0.000D+00 0.000D+00 0.000D+00 0.000D+00 0.000D+00
 Coeff-En:   0.000D+00 0.000D+00 0.000D+00 0.147D-01 0.340D-01 0.000D+00
 Coeff-En:   0.000D+00 0.951D+00
 Coeff:     -0.101D-02 0.219D-02-0.375D-03 0.696D-03-0.295D-02 0.357D-01
 Coeff:      0.400D-01 0.242D-01-0.260D+00 0.305D-01 0.492D-01-0.575D+00
 Coeff:      0.101D+01 0.651D+00
 Gap=     0.162 Goal=   None    Shift=    0.000
 Gap=     0.020 Goal=   None    Shift=    0.000
 RMSDP=2.50D-04 MaxDP=3.30D-02 DE=-1.10D-02 OVMax= 1.11D-01

 Cycle  15  Pass 1  IDiag  1:
 RMSU=  1.23D-04    CP:  9.27D-01  3.22D-02  2.13D-01  3.12D-01  3.56D-01
                    CP:  8.20D-01  5.69D-01  1.02D+00  8.22D-01  2.70D-01
                    CP:  3.20D-01  9.78D-01  3.00D+00  1.49D+00
 E= -2791.02028718525     Delta-E=       -0.004075233788 Rises=F Damp=F
 DIIS: error= 8.52D-04 at cycle  15 NSaved=  15.
 NSaved=15 IEnMin=15 EnMin= -2791.02028718525     IErMin=15 ErrMin= 8.52D-04
 ErrMax= 8.52D-04  0.00D+00 EMaxC= 1.00D-01 BMatC= 1.86D-03 BMatP= 1.74D-02
 IDIUse=3 WtCom= 9.91D-01 WtEn= 8.52D-03
 EnCoef did   100 forward-backward iterations
 Coeff-Com: -0.205D-03-0.967D-04-0.732D-04 0.882D-03 0.323D-05 0.459D-03
 Coeff-Com:  0.114D-01 0.309D-01-0.942D-01 0.392D-02 0.403D-01 0.502D-01
 Coeff-Com:  0.645D-01 0.241D+00 0.651D+00
 Coeff-En:   0.000D+00 0.000D+00 0.000D+00 0.000D+00 0.000D+00 0.000D+00
 Coeff-En:   0.000D+00 0.000D+00 0.000D+00 0.000D+00 0.000D+00 0.102D-01
 Coeff-En:   0.111D-03 0.108D-03 0.990D+00
 Coeff:     -0.203D-03-0.959D-04-0.726D-04 0.875D-03 0.321D-05 0.455D-03
 Coeff:      0.113D-01 0.306D-01-0.934D-01 0.388D-02 0.399D-01 0.498D-01
 Coeff:      0.640D-01 0.239D+00 0.654D+00
 Gap=     0.159 Goal=   None    Shift=    0.000
 Gap=     0.024 Goal=   None    Shift=    0.000
 RMSDP=7.47D-05 MaxDP=7.19D-03 DE=-4.08D-03 OVMax= 3.41D-02

 Cycle  16  Pass 1  IDiag  1:
 RMSU=  3.79D-05    CP:  9.27D-01  3.31D-02  2.13D-01  3.16D-01  3.55D-01
                    CP:  8.19D-01  5.68D-01  1.04D+00  8.31D-01  2.67D-01
                    CP:  3.63D-01  1.01D+00  3.00D+00  1.41D+00  7.82D-01
 E= -2791.02085313171     Delta-E=       -0.000565946459 Rises=F Damp=F
 DIIS: error= 3.36D-04 at cycle  16 NSaved=  16.
 NSaved=16 IEnMin=16 EnMin= -2791.02085313171     IErMin=16 ErrMin= 3.36D-04
 ErrMax= 3.36D-04  0.00D+00 EMaxC= 1.00D-01 BMatC= 2.83D-04 BMatP= 1.86D-03
 IDIUse=3 WtCom= 9.97D-01 WtEn= 3.36D-03
 Coeff-Com: -0.920D-04-0.785D-04-0.277D-04 0.411D-03 0.366D-04-0.113D-02
 Coeff-Com:  0.112D-02 0.130D-01-0.269D-01 0.444D-03 0.128D-01 0.150D+00
 Coeff-Com: -0.121D+00 0.107D-01 0.343D+00 0.619D+00
 Coeff-En:   0.000D+00 0.000D+00 0.000D+00 0.000D+00 0.000D+00 0.000D+00
 Coeff-En:   0.000D+00 0.000D+00 0.000D+00 0.000D+00 0.000D+00 0.000D+00
 Coeff-En:   0.000D+00 0.000D+00 0.000D+00 0.100D+01
 Coeff:     -0.917D-04-0.782D-04-0.276D-04 0.410D-03 0.365D-04-0.113D-02
 Coeff:      0.112D-02 0.129D-01-0.269D-01 0.443D-03 0.127D-01 0.149D+00
 Coeff:     -0.121D+00 0.106D-01 0.342D+00 0.620D+00
 Gap=     0.159 Goal=   None    Shift=    0.000
 Gap=     0.025 Goal=   None    Shift=    0.000
 RMSDP=2.62D-05 MaxDP=1.29D-03 DE=-5.66D-04 OVMax= 1.12D-02

 Cycle  17  Pass 1  IDiag  1:
 RMSU=  1.58D-05    CP:  9.27D-01  3.31D-02  2.13D-01  3.16D-01  3.53D-01
                    CP:  8.21D-01  5.67D-01  1.05D+00  8.23D-01  2.72D-01
                    CP:  3.75D-01  1.01D+00  3.00D+00  1.43D+00  8.36D-01
                    CP:  1.16D+00
 E= -2791.02094465733     Delta-E=       -0.000091525619 Rises=F Damp=F
 DIIS: error= 1.55D-04 at cycle  17 NSaved=  17.
 NSaved=17 IEnMin=17 EnMin= -2791.02094465733     IErMin=17 ErrMin= 1.55D-04
 ErrMax= 1.55D-04  0.00D+00 EMaxC= 1.00D-01 BMatC= 6.09D-05 BMatP= 2.83D-04
 IDIUse=3 WtCom= 9.98D-01 WtEn= 1.55D-03
 Coeff-Com: -0.211D-04-0.284D-04 0.155D-04-0.909D-04-0.312D-03-0.241D-03
 Coeff-Com: -0.226D-02 0.180D-02 0.457D-02 0.498D-03-0.296D-02 0.924D-01
 Coeff-Com: -0.984D-01-0.710D-01 0.253D-01 0.397D+00 0.654D+00
 Coeff-En:   0.000D+00 0.000D+00 0.000D+00 0.000D+00 0.000D+00 0.000D+00
 Coeff-En:   0.000D+00 0.000D+00 0.000D+00 0.000D+00 0.000D+00 0.000D+00
 Coeff-En:   0.000D+00 0.000D+00 0.000D+00 0.000D+00 0.100D+01
 Coeff:     -0.211D-04-0.284D-04 0.155D-04-0.907D-04-0.311D-03-0.241D-03
 Coeff:     -0.225D-02 0.180D-02 0.457D-02 0.497D-03-0.295D-02 0.922D-01
 Coeff:     -0.982D-01-0.709D-01 0.252D-01 0.396D+00 0.654D+00
 Gap=     0.159 Goal=   None    Shift=    0.000
 Gap=     0.025 Goal=   None    Shift=    0.000
 RMSDP=1.58D-05 MaxDP=1.05D-03 DE=-9.15D-05 OVMax= 6.16D-03

 Cycle  18  Pass 1  IDiag  1:
 RMSU=  1.13D-05    CP:  9.27D-01  3.31D-02  2.13D-01  3.16D-01  3.53D-01
                    CP:  8.21D-01  5.66D-01  1.05D+00  8.25D-01  2.74D-01
                    CP:  3.81D-01  1.01D+00  3.00D+00  1.42D+00  8.31D-01
                    CP:  1.33D+00  1.10D+00
 E= -2791.02096034237     Delta-E=       -0.000015685040 Rises=F Damp=F
 DIIS: error= 1.94D-04 at cycle  18 NSaved=  18.
 NSaved=18 IEnMin=18 EnMin= -2791.02096034237     IErMin=17 ErrMin= 1.55D-04
 ErrMax= 1.94D-04  0.00D+00 EMaxC= 1.00D-01 BMatC= 4.06D-05 BMatP= 6.09D-05
 IDIUse=3 WtCom= 9.98D-01 WtEn= 1.55D-03
 Coeff-Com: -0.325D-04 0.128D-04 0.118D-04-0.411D-05-0.161D-03 0.114D-03
 Coeff-Com: -0.123D-02-0.387D-03 0.456D-02 0.667D-03-0.396D-02 0.407D-01
 Coeff-Com: -0.546D-01-0.508D-01-0.381D-01 0.153D+00 0.408D+00 0.542D+00
 Coeff-En:   0.000D+00 0.000D+00 0.000D+00 0.000D+00 0.000D+00 0.000D+00
 Coeff-En:   0.000D+00 0.000D+00 0.000D+00 0.000D+00 0.000D+00 0.000D+00
 Coeff-En:   0.000D+00 0.000D+00 0.000D+00 0.000D+00 0.000D+00 0.100D+01
 Coeff:     -0.325D-04 0.127D-04 0.118D-04-0.410D-05-0.161D-03 0.114D-03
 Coeff:     -0.123D-02-0.387D-03 0.455D-02 0.666D-03-0.395D-02 0.406D-01
 Coeff:     -0.546D-01-0.507D-01-0.380D-01 0.153D+00 0.407D+00 0.543D+00
 Gap=     0.159 Goal=   None    Shift=    0.000
 Gap=     0.025 Goal=   None    Shift=    0.000
 RMSDP=9.13D-06 MaxDP=5.68D-04 DE=-1.57D-05 OVMax= 4.75D-03

 Cycle  19  Pass 1  IDiag  1:
 RMSU=  4.57D-06    CP:  9.27D-01  3.30D-02  2.13D-01  3.16D-01  3.53D-01
                    CP:  8.21D-01  5.65D-01  1.04D+00  8.25D-01  2.76D-01
                    CP:  3.85D-01  1.02D+00  3.00D+00  1.43D+00  8.38D-01
                    CP:  1.38D+00  1.33D+00  1.37D+00
 E= -2791.02096910478     Delta-E=       -0.000008762408 Rises=F Damp=F
 DIIS: error= 1.35D-04 at cycle  19 NSaved=  19.
 NSaved=19 IEnMin=19 EnMin= -2791.02096910478     IErMin=19 ErrMin= 1.35D-04
 ErrMax= 1.35D-04  0.00D+00 EMaxC= 1.00D-01 BMatC= 1.83D-05 BMatP= 4.06D-05
 IDIUse=3 WtCom= 9.99D-01 WtEn= 1.35D-03
 Coeff-Com: -0.327D-04 0.251D-04 0.222D-05 0.134D-03 0.126D-04 0.716D-04
 Coeff-Com: -0.728D-04 0.627D-04-0.108D-02 0.522D-03-0.262D-02 0.910D-02
 Coeff-Com: -0.199D-01-0.170D-01-0.193D-01 0.253D-01 0.104D+00 0.239D+00
 Coeff-Com:  0.682D+00
 Coeff-En:   0.000D+00 0.000D+00 0.000D+00 0.000D+00 0.000D+00 0.000D+00
 Coeff-En:   0.000D+00 0.000D+00 0.000D+00 0.000D+00 0.000D+00 0.000D+00
 Coeff-En:   0.000D+00 0.000D+00 0.000D+00 0.000D+00 0.000D+00 0.000D+00
 Coeff-En:   0.100D+01
 Coeff:     -0.326D-04 0.250D-04 0.221D-05 0.134D-03 0.125D-04 0.715D-04
 Coeff:     -0.727D-04 0.626D-04-0.107D-02 0.521D-03-0.262D-02 0.909D-02
 Coeff:     -0.199D-01-0.169D-01-0.193D-01 0.252D-01 0.104D+00 0.239D+00
 Coeff:      0.682D+00
 Gap=     0.160 Goal=   None    Shift=    0.000
 Gap=     0.025 Goal=   None    Shift=    0.000
 RMSDP=8.57D-06 MaxDP=3.86D-04 DE=-8.76D-06 OVMax= 5.02D-03

 Cycle  20  Pass 1  IDiag  1:
 RMSU=  3.34D-06    CP:  9.27D-01  3.29D-02  2.13D-01  3.16D-01  3.53D-01
                    CP:  8.21D-01  5.65D-01  1.04D+00  8.24D-01  2.78D-01
                    CP:  3.86D-01  1.02D+00  3.00D+00  1.44D+00  8.49D-01
                    CP:  1.40D+00  1.50D+00  1.83D+00  1.57D+00
 E= -2791.02097474049     Delta-E=       -0.000005635710 Rises=F Damp=F
 DIIS: error= 7.05D-05 at cycle  20 NSaved=  20.
 NSaved=20 IEnMin=20 EnMin= -2791.02097474049     IErMin=20 ErrMin= 7.05D-05
 ErrMax= 7.05D-05  0.00D+00 EMaxC= 1.00D-01 BMatC= 5.48D-06 BMatP= 1.83D-05
 IDIUse=1 WtCom= 1.00D+00 WtEn= 0.00D+00
 Coeff-Com: -0.433D-05-0.675D-05-0.656D-05 0.214D-04-0.757D-05-0.164D-03
 Coeff-Com:  0.316D-03 0.182D-02-0.270D-02 0.289D-03-0.593D-03-0.589D-02
 Coeff-Com:  0.511D-02 0.107D-01 0.211D-01 0.105D-02-0.102D+00-0.372D+00
 Coeff-Com:  0.304D+00 0.114D+01
 Coeff:     -0.433D-05-0.675D-05-0.656D-05 0.214D-04-0.757D-05-0.164D-03
 Coeff:      0.316D-03 0.182D-02-0.270D-02 0.289D-03-0.593D-03-0.589D-02
 Coeff:      0.511D-02 0.107D-01 0.211D-01 0.105D-02-0.102D+00-0.372D+00
 Coeff:      0.304D+00 0.114D+01
 Gap=     0.160 Goal=   None    Shift=    0.000
 Gap=     0.025 Goal=   None    Shift=    0.000
 RMSDP=1.20D-05 MaxDP=4.78D-04 DE=-5.64D-06 OVMax= 7.20D-03

 Cycle  21  Pass 1  IDiag  1:
 Restarting incremental Fock formation.
 E= -2791.02097841136     Delta-E=       -0.000003670871 Rises=F Damp=F
 DIIS: error= 6.35D-05 at cycle  21 NSaved=  20.
 NSaved=20 IEnMin=20 EnMin= -2791.02097841136     IErMin=20 ErrMin= 6.35D-05
 ErrMax= 6.35D-05  0.00D+00 EMaxC= 1.00D-01 BMatC= 4.46D-06 BMatP= 5.48D-06
 IDIUse=1 WtCom= 1.00D+00 WtEn= 0.00D+00
 Coeff-Com: -0.624D-05 0.334D-05-0.323D-04-0.377D-04-0.268D-03 0.219D-03
 Coeff-Com:  0.228D-02-0.192D-02 0.155D-03 0.372D-03-0.368D-02 0.637D-02
 Coeff-Com:  0.149D-01 0.346D-01 0.149D-01-0.127D+00-0.560D+00-0.853D-01
 Coeff-Com:  0.991D+00 0.713D+00
 Coeff:     -0.624D-05 0.334D-05-0.323D-04-0.377D-04-0.268D-03 0.219D-03
 Coeff:      0.228D-02-0.192D-02 0.155D-03 0.372D-03-0.368D-02 0.637D-02
 Coeff:      0.149D-01 0.346D-01 0.149D-01-0.127D+00-0.560D+00-0.853D-01
 Coeff:      0.991D+00 0.713D+00
 Gap=     0.160 Goal=   None    Shift=    0.000
 Gap=     0.025 Goal=   None    Shift=    0.000
 RMSDP=1.07D-05 MaxDP=4.37D-04 DE=-3.67D-06 OVMax= 6.85D-03

 Cycle  22  Pass 1  IDiag  1:
 RMSU=  1.07D-05    CP:  1.00D+00
 E= -2791.02098140099     Delta-E=       -0.000002989631 Rises=F Damp=F
 DIIS: error= 3.49D-05 at cycle  22 NSaved=  20.
 NSaved=20 IEnMin=20 EnMin= -2791.02098140099     IErMin=20 ErrMin= 3.49D-05
 ErrMax= 3.49D-05  0.00D+00 EMaxC= 1.00D-01 BMatC= 1.59D-06 BMatP= 4.46D-06
 IDIUse=1 WtCom= 1.00D+00 WtEn= 0.00D+00
 Coeff-Com: -0.166D-04 0.172D-04-0.236D-04-0.112D-03-0.119D-03 0.840D-03
 Coeff-Com:  0.773D-03 0.912D-04 0.521D-03 0.110D-01-0.116D-01-0.506D-02
 Coeff-Com:  0.674D-02 0.318D-01 0.179D-01-0.137D+00-0.119D+00-0.165D+00
 Coeff-Com: -0.953D-02 0.138D+01
 Coeff:     -0.166D-04 0.172D-04-0.236D-04-0.112D-03-0.119D-03 0.840D-03
 Coeff:      0.773D-03 0.912D-04 0.521D-03 0.110D-01-0.116D-01-0.506D-02
 Coeff:      0.674D-02 0.318D-01 0.179D-01-0.137D+00-0.119D+00-0.165D+00
 Coeff:     -0.953D-02 0.138D+01
 Gap=     0.160 Goal=   None    Shift=    0.000
 Gap=     0.025 Goal=   None    Shift=    0.000
 RMSDP=1.20D-05 MaxDP=5.43D-04 DE=-2.99D-06 OVMax= 8.14D-03

 Cycle  23  Pass 1  IDiag  1:
 RMSU=  3.01D-06    CP:  1.00D+00  2.09D+00
 E= -2791.02098361016     Delta-E=       -0.000002209165 Rises=F Damp=F
 DIIS: error= 1.34D-05 at cycle  23 NSaved=  20.
 NSaved=20 IEnMin=20 EnMin= -2791.02098361016     IErMin=20 ErrMin= 1.34D-05
 ErrMax= 1.34D-05  0.00D+00 EMaxC= 1.00D-01 BMatC= 2.51D-07 BMatP= 1.59D-06
 IDIUse=1 WtCom= 1.00D+00 WtEn= 0.00D+00
 Coeff-Com: -0.977D-05-0.160D-04-0.102D-03-0.170D-03 0.827D-04 0.102D-02
 Coeff-Com:  0.415D-04 0.319D-03 0.848D-02-0.827D-02-0.988D-02-0.112D-01
 Coeff-Com:  0.204D-01 0.677D-01 0.124D+00 0.269D-01-0.514D+00-0.556D+00
 Coeff-Com:  0.109D+01 0.759D+00
 Coeff:     -0.977D-05-0.160D-04-0.102D-03-0.170D-03 0.827D-04 0.102D-02
 Coeff:      0.415D-04 0.319D-03 0.848D-02-0.827D-02-0.988D-02-0.112D-01
 Coeff:      0.204D-01 0.677D-01 0.124D+00 0.269D-01-0.514D+00-0.556D+00
 Coeff:      0.109D+01 0.759D+00
 Gap=     0.160 Goal=   None    Shift=    0.000
 Gap=     0.025 Goal=   None    Shift=    0.000
 RMSDP=7.16D-06 MaxDP=3.27D-04 DE=-2.21D-06 OVMax= 4.76D-03

 Cycle  24  Pass 1  IDiag  1:
 RMSU=  1.46D-06    CP:  1.00D+00  2.74D+00  1.34D+00
 E= -2791.02098426493     Delta-E=       -0.000000654773 Rises=F Damp=F
 DIIS: error= 8.73D-06 at cycle  24 NSaved=  20.
 NSaved=20 IEnMin=20 EnMin= -2791.02098426493     IErMin=20 ErrMin= 8.73D-06
 ErrMax= 8.73D-06  0.00D+00 EMaxC= 1.00D-01 BMatC= 1.39D-07 BMatP= 2.51D-07
 IDIUse=1 WtCom= 1.00D+00 WtEn= 0.00D+00
 Coeff-Com: -0.103D-04-0.941D-04-0.741D-05 0.226D-04 0.190D-03 0.182D-05
 Coeff-Com:  0.171D-03 0.759D-03 0.987D-03-0.443D-02-0.107D-01 0.390D-02
 Coeff-Com:  0.382D-01 0.126D+00 0.930D-01-0.290D+00-0.514D+00 0.324D+00
 Coeff-Com:  0.514D+00 0.717D+00
 Coeff:     -0.103D-04-0.941D-04-0.741D-05 0.226D-04 0.190D-03 0.182D-05
 Coeff:      0.171D-03 0.759D-03 0.987D-03-0.443D-02-0.107D-01 0.390D-02
 Coeff:      0.382D-01 0.126D+00 0.930D-01-0.290D+00-0.514D+00 0.324D+00
 Coeff:      0.514D+00 0.717D+00
 Gap=     0.160 Goal=   None    Shift=    0.000
 Gap=     0.025 Goal=   None    Shift=    0.000
 RMSDP=4.58D-06 MaxDP=1.80D-04 DE=-6.55D-07 OVMax= 2.94D-03

 Cycle  25  Pass 1  IDiag  1:
 RMSU=  1.78D-06    CP:  1.00D+00  3.00D+00  1.48D+00  1.74D+00
 E= -2791.02098449637     Delta-E=       -0.000000231437 Rises=F Damp=F
 DIIS: error= 2.43D-06 at cycle  25 NSaved=  20.
 NSaved=20 IEnMin=20 EnMin= -2791.02098449637     IErMin=20 ErrMin= 2.43D-06
 ErrMax= 2.43D-06  0.00D+00 EMaxC= 1.00D-01 BMatC= 1.72D-08 BMatP= 1.39D-07
 IDIUse=1 WtCom= 1.00D+00 WtEn= 0.00D+00
 Coeff-Com:  0.215D-04 0.489D-04-0.111D-03 0.181D-04-0.331D-05 0.162D-04
 Coeff-Com: -0.156D-02 0.177D-02-0.589D-03-0.393D-02-0.129D-02 0.530D-02
 Coeff-Com:  0.321D-01 0.653D-01 0.457D-02-0.178D+00-0.101D+00 0.127D-01
 Coeff-Com:  0.307D+00 0.857D+00
 Coeff:      0.215D-04 0.489D-04-0.111D-03 0.181D-04-0.331D-05 0.162D-04
 Coeff:     -0.156D-02 0.177D-02-0.589D-03-0.393D-02-0.129D-02 0.530D-02
 Coeff:      0.321D-01 0.653D-01 0.457D-02-0.178D+00-0.101D+00 0.127D-01
 Coeff:      0.307D+00 0.857D+00
 Gap=     0.160 Goal=   None    Shift=    0.000
 Gap=     0.025 Goal=   None    Shift=    0.000
 RMSDP=1.90D-06 MaxDP=7.54D-05 DE=-2.31D-07 OVMax= 1.22D-03

 Cycle  26  Pass 1  IDiag  1:
 RMSU=  6.68D-07    CP:  1.00D+00  3.00D+00  1.58D+00  2.14D+00  1.93D+00
 E= -2791.02098453416     Delta-E=       -0.000000037797 Rises=F Damp=F
 DIIS: error= 6.85D-06 at cycle  26 NSaved=  20.
 NSaved=20 IEnMin=20 EnMin= -2791.02098453416     IErMin=19 ErrMin= 2.43D-06
 ErrMax= 6.85D-06  0.00D+00 EMaxC= 1.00D-01 BMatC= 4.94D-08 BMatP= 1.72D-08
 IDIUse=1 WtCom= 1.00D+00 WtEn= 0.00D+00
 Coeff-Com:  0.334D-04 0.138D-04-0.498D-04-0.338D-04-0.593D-04-0.326D-03
 Coeff-Com: -0.467D-04 0.125D-03 0.323D-03 0.765D-03-0.296D-02-0.129D-01
 Coeff-Com:  0.124D-01 0.482D-01-0.302D-01-0.677D-01-0.930D-01-0.405D-02
 Coeff-Com:  0.494D+00 0.655D+00
 Coeff:      0.334D-04 0.138D-04-0.498D-04-0.338D-04-0.593D-04-0.326D-03
 Coeff:     -0.467D-04 0.125D-03 0.323D-03 0.765D-03-0.296D-02-0.129D-01
 Coeff:      0.124D-01 0.482D-01-0.302D-01-0.677D-01-0.930D-01-0.405D-02
 Coeff:      0.494D+00 0.655D+00
 Gap=     0.160 Goal=   None    Shift=    0.000
 Gap=     0.025 Goal=   None    Shift=    0.000
 RMSDP=1.39D-06 MaxDP=5.80D-05 DE=-3.78D-08 OVMax= 9.00D-04

 Cycle  27  Pass 1  IDiag  1:
 RMSU=  2.58D-07    CP:  1.00D+00  3.00D+00  1.62D+00  2.21D+00  2.63D+00
                    CP:  1.76D+00
 E= -2791.02098455557     Delta-E=       -0.000000021402 Rises=F Damp=F
 DIIS: error= 4.36D-06 at cycle  27 NSaved=  20.
 NSaved=20 IEnMin=20 EnMin= -2791.02098455557     IErMin=18 ErrMin= 2.43D-06
 ErrMax= 4.36D-06  0.00D+00 EMaxC= 1.00D-01 BMatC= 1.86D-08 BMatP= 1.72D-08
 IDIUse=1 WtCom= 1.00D+00 WtEn= 0.00D+00
 Coeff-Com: -0.123D-04 0.294D-04-0.569D-05-0.585D-04 0.627D-03-0.121D-02
 Coeff-Com: -0.807D-04 0.148D-02 0.159D-02-0.205D-02-0.142D-01-0.275D-02
 Coeff-Com:  0.282D-01 0.110D-01-0.794D-02-0.488D-01-0.755D-01 0.284D-02
 Coeff-Com:  0.156D+00 0.951D+00
 Coeff:     -0.123D-04 0.294D-04-0.569D-05-0.585D-04 0.627D-03-0.121D-02
 Coeff:     -0.807D-04 0.148D-02 0.159D-02-0.205D-02-0.142D-01-0.275D-02
 Coeff:      0.282D-01 0.110D-01-0.794D-02-0.488D-01-0.755D-01 0.284D-02
 Coeff:      0.156D+00 0.951D+00
 Gap=     0.160 Goal=   None    Shift=    0.000
 Gap=     0.025 Goal=   None    Shift=    0.000
 RMSDP=6.31D-07 MaxDP=2.46D-05 DE=-2.14D-08 OVMax= 3.97D-04

 Cycle  28  Pass 1  IDiag  1:
 RMSU=  1.16D-07    CP:  1.00D+00  3.00D+00  1.65D+00  2.23D+00  2.94D+00
                    CP:  2.15D+00  1.35D+00
 E= -2791.02098456129     Delta-E=       -0.000000005723 Rises=F Damp=F
 DIIS: error= 2.42D-06 at cycle  28 NSaved=  20.
 NSaved=20 IEnMin=20 EnMin= -2791.02098456129     IErMin=20 ErrMin= 2.42D-06
 ErrMax= 2.42D-06  0.00D+00 EMaxC= 1.00D-01 BMatC= 5.95D-09 BMatP= 1.72D-08
 IDIUse=1 WtCom= 1.00D+00 WtEn= 0.00D+00
 Coeff-Com:  0.619D-06-0.146D-04-0.658D-05 0.244D-03-0.354D-03-0.109D-03
 Coeff-Com:  0.534D-03 0.123D-02 0.497D-03-0.406D-02-0.999D-03 0.799D-02
 Coeff-Com:  0.449D-02 0.209D-02 0.215D-01 0.216D-01-0.166D+00-0.381D+00
 Coeff-Com:  0.470D+00 0.102D+01
 Coeff:      0.619D-06-0.146D-04-0.658D-05 0.244D-03-0.354D-03-0.109D-03
 Coeff:      0.534D-03 0.123D-02 0.497D-03-0.406D-02-0.999D-03 0.799D-02
 Coeff:      0.449D-02 0.209D-02 0.215D-01 0.216D-01-0.166D+00-0.381D+00
 Coeff:      0.470D+00 0.102D+01
 Gap=     0.160 Goal=   None    Shift=    0.000
 Gap=     0.025 Goal=   None    Shift=    0.000
 RMSDP=2.33D-07 MaxDP=1.56D-05 DE=-5.72D-09 OVMax= 9.03D-05

 Cycle  29  Pass 1  IDiag  1:
 RMSU=  1.00D-07    CP:  1.00D+00  3.00D+00  1.66D+00  2.19D+00  3.00D+00
                    CP:  2.30D+00  1.59D+00  1.87D+00
 E= -2791.02098456320     Delta-E=       -0.000000001911 Rises=F Damp=F
 DIIS: error= 4.12D-07 at cycle  29 NSaved=  20.
 NSaved=20 IEnMin=20 EnMin= -2791.02098456320     IErMin=20 ErrMin= 4.12D-07
[...]
 -0.00004126,0.00000053,-0.00000067,0.00000175,-0.00000159,-0.00000169,
 0.00000010,0.00000005,0.00000018,0.00000100,0.00000014,-0.00000026,-0.
 00000107,-0.00000258,0.00000249,0.00000032,-0.00000109,-0.00000019,-0.
 00000087,0.00000676,0.00000521,-0.00002107,0.00000802,-0.00000941,0.00
 001193,0.00000269,-0.00000387,-0.00000103,0.00000065,-0.00000007,-0.00
 000365,-0.00000280,-0.00000238,-0.00001630,0.00000041,0.00003397,-0.00
 002833,0.00001329,-0.00005205,0.00002992,-0.00000570,0.00000557,0.0000
 0708,-0.00000696,-0.00000071,-0.00001285,-0.00000075,0.00000219,-0.000
 00340,0.00000085,0.00000114,0.00000042,-0.00000203,0.00000057,-0.00000
 080,-0.00000010,0.00000038,0.00000026,-0.00000276,0.00000061,0.0000019
 7,0.00032397,-0.00023392,0.00026842,0.02056238,-0.01216710,0.00827356,
 -0.02023550,0.01112683,-0.00490226,0.06334921,-0.04079697,0.06540095,0
 .00000228,0.00000585,-0.00000658,0.00001898,0.00001632,0.00003148,0.00
 001326,-0.00000028,-0.00003974,-0.00011809,0.00009172,0.00012634,-0.00
 014179,-0.00015611,-0.00039234,-0.00052849,0.00037950,0.00094518,0.000
 11046,-0.00007071,0.00015074,-0.00034139,-0.00028656,-0.00010172,-0.00
 004605,0.00024414,0.00018354,0.00012875,0.00006489,0.00000892,0.000030
 76,0.00001373,0.00003238,0.00012130,-0.00018300,-0.00009038,0.00012629
 ,-0.00009648,0.00020718,0.00007935,0.00009040,-0.00004304,-0.00002664,
 -0.00006992,0.00001100,0.00002464,0.00000696,-0.00002690,-0.00000860,0
 .00000131,-0.00000646,0.00000720,0.00000230,-0.00000512,-0.00002151,0.
 00000412,0.00001121,0.00001591,-0.00001003,0.00001926,-0.00145630,0.00
 003870,-0.00528896,-0.00091245,0.00076162,0.00094697,0.00216576,0.0048
 1052,0.00123951,-0.00041957,-0.00016397,0.00024995,-0.04860221,-0.0056
 7509,0.00410255,-0.01133990,0.03307435,-0.01057059,-0.00005732,0.00000
 151,0.00003602,-0.00000228,-0.00000078,-0.00000243,-0.00000209,0.00000
 251,0.00000502,-0.00000180,-0.00000239,0.00000351,-0.00001266,0.000011
 73,-0.00000195,-0.00000787,0.00000591,0.00000813,-0.00000897,0.0000032
 0,0.00000450,0.00000876,0.00000294,-0.00000317,-0.00002140,0.00001246,
 -0.00001955,-0.00000256,0.00000671,0.00001264,0.00001280,-0.00000783,0
 .00000444,-0.00000295,0.00000029,0.00001158,0.00004913,0.00003273,-0.0
 0004933,-0.00003764,0.00011068,-0.00000769,-0.00005984,0.00001462,0.00
 002793,0.00002690,0.00002699,-0.00000892,-0.00000435,0.00000634,0.0000
 0401,-0.00000159,0.00000080,-0.00000103,0.00000038,0.00000038,0.000000
 77,0.00000044,0.00000122,0.00000009,0.00000028,0.00000075,0.00000041,0
 .00067076,0.00004148,-0.00051931,0.00008345,0.00017746,-0.00024314,0.0
 0012718,0.00030104,-0.00014509,-0.00000008,-0.00003834,-0.00000643,0.0
 5563590,-0.00000051,0.00000424,-0.00000485,-0.00000768,0.00000584,-0.0
 0000265,-0.00000957,-0.00001259,0.00000744,0.00001043,0.00002006,-0.00
 002929,-0.00008405,0.00002683,0.00006447,-0.00004746,-0.00004100,0.000
 06887,-0.00005231,0.00005386,0.00002267,0.00008818,0.00004814,0.000168
 50,0.00002099,-0.00005708,-0.00004726,0.00009789,0.00001530,0.00000120
 ,-0.00009085,-0.00011612,-0.00010031,-0.00000895,0.00006574,0.00008474
 ,-0.00007583,-0.00002304,-0.00000933,0.00003297,0.00002230,0.00002519,
 -0.00003018,-0.00001348,-0.00004529,0.00003983,-0.00000595,-0.00000341
 ,-0.00002083,0.00001083,-0.00005251,0.00001210,-0.00000360,0.00002526,
 -0.00003124,0.00000189,0.00001257,0.00002368,-0.00001473,0.00005115,-0
 .00077334,0.00016351,-0.00023485,0.00032190,-0.00080872,-0.00018630,-0
 .00104270,-0.00900904,0.00303603,0.00119413,-0.00061120,-0.00141435,0.
 00684527,-0.32520012,0.05691350,0.00363836,0.00333944,0.00034776,0.000
 05640,-0.00000532,-0.00002874,0.00000086,-0.00000020,-0.00000001,0.000
 00196,-0.00000183,-0.00000099,-0.00000109,-0.00000030,-0.00000008,-0.0
 0000219,-0.00000561,0.00000216,0.00000340,0.00000150,-0.00000295,0.000
 00122,0.00000102,0.00000390,-0.00000210,0.00001151,0.00000522,-0.00000
 897,0.00000510,-0.00001648,-0.00000172,0.00000384,-0.00000130,0.000001
 61,0.00000210,0.00000320,-0.00000056,-0.00000217,0.00000651,0.00000707
 ,-0.00000189,-0.00000479,-0.00000507,0.00001788,-0.00000205,0.00000356
 ,0.00000039,0.00002024,0.00000305,-0.00001557,-0.00002813,0.00000191,-
 0.00000119,0.00000052,0.00000082,0.00000121,0.00000064,0.00000135,-0.0
 0000135,0.00000019,0.00000002,0.00000124,-0.00000016,0.00000121,-0.000
 00024,-0.00000242,0.00008862,0.00139688,0.00025845,-0.00039780,-0.0002
 1058,-0.00022058,0.00013491,0.00020907,0.00003505,-0.00011853,-0.00004
 199,-0.00003085,-0.00972390,0.33571738,-0.00000071,0.00001048,-0.00001
 201,-0.00000772,0.00002830,0.00002112,-0.00000799,-0.00003508,-0.00000
 453,-0.00004212,0.00008354,0.00001967,-0.00022429,-0.00004072,-0.00008
 384,-0.00049924,0.00017510,0.00050812,-0.00004021,0.00003568,0.0001968
 7,0.00022943,0.00011940,0.00056956,0.00004094,-0.00022223,-0.00015319,
 0.00013538,-0.00002109,0.00001996,-0.00014474,-0.00012890,-0.00010962,
 -0.00004983,0.00010275,0.00009468,-0.00021338,-0.00004553,-0.00011946,
 0.00002690,0.00011074,0.00006904,-0.00006416,-0.00005067,-0.00011144,0
 .00010401,-0.00001138,-0.00002224,-0.00005468,0.00002908,-0.00012840,0
 .00003030,-0.00000749,0.00006169,-0.00007860,0.00000753,0.00003035,0.0
 0004680,-0.00004654,0.00013437,0.00057048,-0.00233567,-0.00641479,0.00
 306543,-0.00291886,-0.00035002,0.00022831,-0.02303087,0.00749207,0.001
 30076,-0.00093187,-0.00161500,0.00200230,0.05127644,-0.06039970,-0.010
 56028,0.02237062,-0.00480819,0.00015913,-0.00001992,-0.00003574,0.0000
 0155,-0.00000058,0.00000002,0.00000294,-0.00000396,-0.00000045,-0.0000
 0292,-0.00000123,0.00000042,-0.00001035,-0.00000770,0.00000324,0.00000
 309,0.00000626,-0.00000201,-0.00000125,0.00000381,0.00001137,-0.000001
 64,0.00002693,0.00001738,-0.00002239,0.00001444,-0.00005676,-0.0000098
 9,0.00001563,-0.00000968,-0.00000532,0.00001272,-0.00002260,0.00000727
 ,0.00000725,-0.00001426,-0.00001378,-0.00001369,0.00002010,0.00000378,
 -0.00004514,0.00000370,-0.00000759,0.00000578,0.00002122,0.00001069,0.
 00002474,-0.00003108,0.00000239,-0.00000305,0.00000346,0.00000150,0.00
 000261,0.00000130,0.00000345,-0.00000391,0.00000090,-0.00000131,0.0000
 0514,-0.00000019,0.00000416,0.00000310,-0.00000622,-0.00001660,-0.0003
 0152,0.00133098,-0.00054806,-0.00035625,-0.00038000,0.00007795,-0.0000
 3007,0.00004733,-0.00013374,-0.00001377,-0.00001473,0.00479990,-0.0594
 0779,0.06504596,0.00000176,-0.00000126,0.00000560,0.00004669,0.0000148
 4,0.00005261,0.00005224,0.00002562,-0.00005303,-0.00019986,0.00003147,
 0.00011268,0.00023990,-0.00015887,-0.00041622,-0.00009002,0.00065253,0
 .00011085,-0.00013667,-0.00007857,-0.00003024,-0.00073935,-0.00083999,
 -0.00085900,-0.00030299,0.00082014,0.00077715,0.00016439,0.00010552,0.
 00002086,0.00024022,0.00047065,0.00045923,0.00041573,-0.00063980,-0.00
 060709,0.00031271,-0.00009528,0.00037827,-0.00005688,0.00007333,0.0000
 1817,0.00038649,0.00003989,0.00021573,-0.00040511,-0.00000967,0.000094
 15,0.00016052,-0.00005598,0.00034402,-0.00012655,0.00000914,-0.0000894
 2,0.00031365,0.00000059,-0.00011467,-0.00020730,0.00004265,-0.00039551
 ,-0.00012276,-0.00609286,-0.00371885,0.00039822,0.00119959,0.00066738,
 0.00084179,-0.00147060,0.00371234,0.00069431,-0.00101432,-0.00165736,-
 0.21022438,-0.06038741,0.11551695,-0.03371528,0.00100212,0.00436223,-0
 .00012310,0.00003226,0.00006344,0.00000200,-0.00000226,0.00000418,-0.0
 0000832,-0.00000037,0.00000292,0.00000093,0.00000185,0.00000187,-0.000
 01575,0.00002501,-0.00001095,-0.00001867,0.00000743,0.00002095,-0.0000
 1032,0.00000182,-0.00000272,0.00006588,0.00005616,-0.00002292,-0.00001
 022,0.00003693,-0.00000244,-0.00000086,-0.00000326,0.00002855,0.000004
 93,-0.00001909,-0.00000762,-0.00000142,0.00002468,0.00002245,0.0000056
 6,-0.00003213,-0.00001320,-0.00002992,0.00015776,0.00001183,0.00004254
 ,0.00004544,-0.00002590,0.00004023,0.00008086,0.00007476,0.00000431,0.
 00000643,-0.00001681,-0.00000258,0.00000477,-0.00000232,-0.00001045,0.
 00000282,-0.00000367,-0.00000129,0.00000404,0.00000066,-0.00000961,0.0
 0000490,0.00002348,0.00033811,0.00049102,-0.00031057,-0.00015226,-0.00
 013536,-0.00032857,0.00042024,0.00043705,0.00011445,0.00031753,0.00037
 695,0.00013850,0.00466102,0.00001954,0.00006204,0.23643387,-0.00000238
 ,0.00001271,0.00001701,0.00001404,-0.00009755,-0.00011190,-0.00001411,
 0.00001204,0.00002953,-0.00010703,0.00001939,-0.00021833,-0.00003417,0
 .00006684,0.00045534,0.00004022,-0.00019237,0.00005077,0.00016758,-0.0
 0007755,-0.00006107,-0.00099805,-0.00051613,-0.00076412,-0.00001288,0.
 00005192,-0.00001906,-0.00122123,-0.00016243,-0.00005704,0.00081383,0.
 00096958,0.00082161,-0.00003862,-0.00026173,-0.00032524,0.00132972,0.0
 0003660,0.00018020,-0.00002446,-0.00007256,-0.00011860,0.00013324,0.00
 001917,0.00008118,-0.00015106,0.00001787,0.00006571,0.00006868,-0.0000
 3182,0.00011896,-0.00003980,0.00000114,-0.00003331,0.00011516,-0.00000
 060,-0.00004343,-0.00007738,0.00001953,-0.00016208,0.00126724,-0.00115
 212,0.00034493,0.00061132,-0.00121669,-0.00016158,0.01401066,0.0063856
 5,-0.01056058,0.00059509,0.00180713,-0.00052484,-0.06611593,-0.0796301
 8,0.04571989,0.00793898,0.00540634,-0.00413596,-0.00001916,0.00005352,
 -0.00012586,0.00000171,-0.00000304,0.00000177,0.00000871,-0.00000638,-
 0.00001271,-0.00000151,0.00000071,-0.00000272,0.00002006,-0.00001440,0
 .00000807,-0.00000717,0.00000513,-0.00000834,-0.00000115,-0.00000148,-
 0.00000631,-0.00000913,-0.00004674,-0.00002283,0.00003992,-0.00000385,
 0.00002533,0.00002236,-0.00001321,0.00002069,-0.00002414,-0.00001428,-
 0.00002374,0.00002581,0.00000475,-0.00004542,-0.00007833,-0.00001226,0
 .00005526,0.00007144,-0.00011767,0.00004369,0.00000161,0.00001463,0.00
 000293,-0.00003300,0.00000060,0.00001640,0.00000250,0.00000725,-0.0000
 1048,0.00000259,-0.00000040,0.00000063,-0.00000345,0.00000314,-0.00000
 156,-0.00000058,0.00000146,0.00000082,-0.00000236,-0.00000087,0.000004
 19,0.00065303,-0.00120863,-0.00227445,-0.00000245,0.00006803,0.0001256
 5,0.00012654,-0.00027076,0.00028720,-0.00011025,0.00005566,-0.00002205
 ,-0.02387442,-0.00490108,0.01565853,0.06490997,0.07491208,0.00000051,0
 .00001659,0.00000361,0.00003232,-0.00003544,-0.00001235,0.00003284,0.0
 0001035,-0.00001790,-0.00021951,0.00005626,-0.00004721,0.00011656,-0.0
 0000866,-0.00006275,0.00003690,0.00076686,-0.00027373,-0.00043676,0.00
 004935,0.00004656,0.00078975,0.00051389,0.00056641,0.00002304,-0.00005
 588,-0.00000752,0.00075495,-0.00002452,0.00001438,-0.00050076,-0.00072
 573,-0.00059534,0.00021425,0.00007568,0.00025521,-0.00132646,0.0001642
 8,-0.00015153,-0.00007948,0.00025592,0.00013871,0.00030425,0.00000944,
 0.00010280,-0.00034005,-0.00005326,0.00008613,0.00012891,-0.00003225,0
 .00026089,-0.00011510,0.00000159,-0.00003686,0.00028499,0.00000706,-0.
 00010404,-0.00017465,0.00003062,-0.00028810,-0.00086859,-0.00525283,-0
 .00398200,0.00203824,0.00013368,0.00063809,0.01580938,0.00685786,-0.01
 314718,0.00118685,0.00134632,0.00161875,0.12505458,0.04492374,-0.13138
 475,-0.02923425,-0.00181726,0.01189520,-0.00005662,-0.00000926,-0.0000
 4939,-0.00000058,-0.00000481,0.00000150,0.00000142,-0.00000243,-0.0000
 0422,-0.00000228,-0.00000096,0.00000298,-0.00000407,0.00000100,-0.0000
 0132,-0.00001539,0.00000991,0.00000681,-0.00000768,0.00000286,0.000003
 40,0.00006521,0.00010649,-0.00004884,-0.00001502,-0.00000785,-0.000030
 62,-0.00000642,-0.00000290,-0.00001554,0.00001908,0.00001444,-0.000000
 90,-0.00000492,0.00000830,-0.00001902,0.00002226,0.00005618,0.00000139
 ,0.00002128,-0.00011645,-0.00000938,0.00002062,0.00002237,-0.00000851,
 0.00003752,0.00001483,-0.00001883,0.00000115,0.00000572,-0.00001743,0.
 00000055,0.00001211,-0.00000029,-0.00000811,-0.00000246,-0.00000402,-0
 .00000199,0.00000492,0.00000057,-0.00001327,0.00000257,0.00001296,0.00
 125487,-0.00287975,-0.00220448,-0.00022546,0.00005121,0.00033417,-0.00
 039347,-0.00077487,0.00016504,-0.00022860,0.00003506,-0.00038600,0.004
 53287,0.00060574,-0.00100622,-0.11860422,-0.04443827,0.13775389,-0.000
 02140,-0.00030701,-0.00071104,-0.00565153,0.00335759,-0.00066050,-0.00
 079387,0.00037893,0.00042513,0.00348702,-0.00046614,0.00614517,0.00048
 154,-0.00448821,-0.01613916,0.00052484,-0.00014737,-0.00017661,-0.0012
 1094,0.00044202,0.00040107,0.00012083,-0.00025477,0.00043016,0.0001639
 0,-0.00049413,-0.00052145,-0.00085381,-0.00009807,-0.00005387,0.000321
 02,-0.00002762,-0.00006227,-0.00026485,0.00049348,0.00038704,0.0006870
 3,0.00037660,0.00001663,-0.00130944,0.00014542,-0.00019592,-0.00022304
 ,-0.00047141,-0.00029604,0.00085909,0.00024354,-0.00041498,-0.00044018
 ,0.00019848,-0.00061936,0.00036437,-0.00000361,-0.00000526,-0.00093448
 ,0.00001952,0.00029342,0.00040672,-0.00010626,0.00081265,0.00517675,0.
 00386158,0.01150316,-0.03992363,0.02740397,0.02413735,-0.00481384,0.00
 316590,0.00051945,0.00005994,0.00040548,0.00081302,-0.00084038,0.00012
 986,-0.00036042,0.00162205,-0.00364147,-0.00469014,-0.05375505,0.01089
 826,-0.03406863,-0.00003493,0.00000713,0.00000068,0.00005365,0.0002614
 9,0.00045935,0.00014284,-0.00003342,0.00012529,0.00014554,-0.00012662,
 -0.00022928,0.00013112,-0.00008091,-0.00008129,0.00013304,0.00000320,0
 .00020419,0.00015901,0.00005506,-0.00027855,0.00020370,-0.00003056,-0.
 00016465,0.00002234,-0.00001709,-0.00000517,-0.00001080,-0.00000436,0.
 00001674,0.00001356,-0.00001989,0.00000004,-0.00003806,-0.00003024,0.0
 0006267,0.00001523,-0.00017721,0.00002941,0.00023011,0.00002407,0.0000
 9647,0.00024523,0.00024765,0.00017227,0.00000116,-0.00018588,0.0001084
 8,-0.00004797,-0.00006414,-0.00001857,0.00001495,-0.00002358,0.0000103
 2,-0.00001149,-0.00001378,-0.00000887,0.00002641,-0.00001557,-0.000005
 54,0.00015907,0.00013251,0.00017185,-0.00003665,-0.00014888,-0.0005770
 7,-0.00002122,-0.00001068,-0.00002319,0.00007485,-0.00018310,-0.000146
 09,0.00006443,-0.00011578,-0.00015812,0.00011605,0.00001216,0.00009856
 ,0.09501019,0.00036510,-0.00038559,-0.00007425,0.00231395,0.00123621,0
 .00285662,0.00086525,-0.00058019,0.00012429,0.00102979,0.00129699,-0.0
 0188637,-0.00360123,0.00265340,0.00211209,-0.00079659,-0.00076557,-0.0
 0017695,0.00083242,0.00037376,0.00016116,0.00022784,-0.00003361,-0.000
 28803,-0.00011997,0.00015509,0.00015014,0.00030184,-0.00001601,-0.0000
 1669,-0.00011584,-0.00006693,-0.00006045,0.00012448,-0.00015562,-0.000
 06980,-0.00034152,-0.00002269,0.00013748,0.00069578,0.00000449,-0.0000
 5044,-0.00058978,0.00013303,-0.00011561,0.00032475,-0.00006670,-0.0001
 4503,-0.00008508,0.00000302,-0.00010251,0.00001898,-0.00000138,0.00008
 260,-0.00006999,-0.00000704,0.00004863,0.00020014,-0.00004111,0.000263
 29,-0.00006104,-0.00668438,-0.01372287,0.02831240,-0.02711652,-0.01593
 580,0.00421734,-0.00174358,-0.00033312,0.00015573,0.00038418,0.0004634
 2,0.00100338,-0.00047099,0.00022945,-0.00072779,0.00437288,0.00178353,
 0.00670352,-0.00933047,0.00288285,-0.00027635,-0.00009767,-0.00012554,
 0.00002409,0.00022039,0.00001728,0.00001103,-0.00003895,0.00006089,0.0
 0029394,-0.00050840,0.00025575,-0.00007470,-0.00004581,0.00001074,0.00
 011371,0.00003654,0.00018187,-0.00017838,-0.00020370,0.00025141,-0.000
 10170,-0.00005910,0.00007005,-0.00001674,0.00000226,-0.00003375,0.0000
 0130,0.00000243,-0.00001022,-0.00000007,0.00001257,-0.00001829,0.00000
 919,0.00003726,-0.00001601,0.00001089,0.00014657,-0.00001446,-0.000126
 14,-0.00021143,-0.00004151,-0.00008381,-0.00016142,0.00003945,-0.00005
 939,0.00003845,-0.00000303,0.00000840,0.00002429,-0.00000110,0.0000039
 6,-0.00000057,0.00000866,0.00000958,0.00000494,0.00000345,-0.00000229,
 0.00001147,-0.00002238,0.00016764,-0.00028002,-0.00011758,0.00007407,-
 0.00005251,-0.00032636,-0.00019475,-0.00004045,0.00012876,-0.00013419,
 -0.00029243,-0.00016043,-0.00000835,-0.00004112,-0.00010110,-0.0001786
 8,0.00007390,0.00007260,-0.04047613,0.03829782,0.00041017,-0.00047902,
 0.00099679,-0.00345427,0.00361555,0.00292383,-0.00038323,0.00015894,0.
 00024831,0.00315282,-0.00221406,0.00327785,-0.00963944,-0.00116868,-0.
 01951658,0.00004085,-0.00024765,-0.00146847,0.00007455,0.00045579,0.00
 033055,0.00120560,-0.00036830,-0.00062038,-0.00041461,0.00059442,0.000
 60309,0.00060908,0.00003996,0.00001576,-0.00018817,0.00000294,0.000036
 53,0.00029372,-0.00037069,-0.00028416,-0.00108915,-0.00009539,0.000029
 52,-0.00019974,-0.00023863,0.00080211,-0.00119802,0.00000505,-0.000439
 25,0.00091343,0.00001696,-0.00010058,-0.00030021,0.00012696,-0.0002681
 8,0.00014368,0.00001129,-0.00007330,-0.00047865,0.00002654,0.00008941,
 0.00047026,-0.00010486,0.00055593,0.00609586,-0.01079206,-0.01479319,0
 .03003770,-0.02240056,-0.02683652,0.00330904,-0.00109391,0.00506833,-0
 .00045460,0.00091284,0.00014485,-0.00002392,0.00034189,0.00018568,-0.0
 0322089,0.00259309,0.00207258,-0.03885529,0.00899211,-0.03083565,-0.00
 000627,0.00003321,-0.00010284,-0.00020361,0.00000533,-0.00046642,0.000
 13093,0.00015577,-0.00047128,0.00002523,-0.00038530,-0.00001059,0.0002
 0576,-0.00009242,0.00013070,0.00010907,-0.00000213,0.00004134,-0.00011
 867,-0.00003104,0.00021600,0.00002347,0.00014181,-0.00016077,-0.000026
 08,-0.00003276,-0.00006039,-0.00001077,0.00000162,-0.00000260,-0.00000
 523,0.00002830,-0.00001221,0.00000516,0.00001988,-0.00000207,0.0001098
 9,0.00015167,-0.00000744,-0.00001112,-0.00012822,-0.00004915,0.0002087
 1,0.00026012,0.00008676,-0.00008205,-0.00013435,0.00011722,0.00000016,
 -0.00002487,0.00002079,-0.00000089,-0.00003284,-0.00000031,0.00000855,
 -0.00000520,-0.00000449,0.00001042,-0.00002209,-0.00007354,-0.00024788
 ,0.00058110,-0.00026161,0.00008879,-0.00031717,-0.00010942,0.00014539,
 -0.00008120,-0.00017467,-0.00018385,-0.00024508,-0.00014953,-0.0001382
 0,0.00010659,0.00018749,-0.00012500,0.00015557,0.00002684,0.01323152,0
 .02157319,0.07914736\\-0.00000067,0.00000023,-0.00000302,0.00000890,-0
 .00000245,0.00000576,0.00000603,-0.00000925,-0.00001798,-0.00000852,0.
 00000333,0.00002231,0.00000867,0.00000043,-0.00001814,0.00000273,0.000
 00472,0.00000989,0.00000018,-0.00000396,-0.00000510,-0.00000351,-0.000
 00197,0.00000434,0.00000185,-0.00000123,-0.00000113,-0.00000528,-0.000
 00108,-0.00000103,0.00000246,0.00000295,0.00000209,-0.00000086,0.00000
 180,0.00000220,0.00000497,0.00000111,-0.00000036,-0.00000019,-0.000006
 02,-0.00000360,0.00000208,0.00000452,-0.00000035,-0.00000030,0.0000011
 4,0.00000075,-0.00000005,0.00000056,-0.00000109,-0.00000003,-0.0000006
 7,0.00000260,0.00000171,0.00000022,-0.00000199,-0.00000023,0.00000061,
 0.00000134,-0.00000387,-0.00000192,-0.00001840,0.00000190,-0.00000744,
 0.00000465,-0.00000169,0.00001097,0.00000417,-0.00000100,-0.00000534,-
 0.00000002,-0.00001460,-0.00000233,-0.00001534,0.00000630,0.00000182,0
 .00001592,-0.00001176,0.00000105,0.00000547,-0.00000008,-0.00000204,-0
 .00000083,-0.00000133,-0.00000085,-0.00000003,-0.00000052,0.00000008,-
 0.00000071,-0.00000257,0.00000084,0.00000064,-0.00000175,0.00000172,0.
 00000348,-0.00000143,0.00000125,0.00000241,0.00000236,-0.00000257,-0.0
 0000003,0.00000051,0.00000044,-0.00000009,-0.00000231,0.00000210,-0.00
 000025,0.00000070,0.00000021,0.00000011,0.00000010,0.00000005,0.000000
 20,0.00000002,0.00000040,0.00000029,0.00000062,0.00000068,0.00000201,-
 0.00000013,-0.00000035,0.00000029,-0.00000113,0.00000210,-0.00000095,-
 0.00000015,0.00000024,0.00000142,0.00000011,-0.00000043,-0.00000057,0.
 00000045,0.00000036,-0.00000097,-0.00000020,0.00000052,-0.00000035,0.0
 0000346,-0.00000091,0.00000018,-0.00000191,-0.00000295,-0.00000030,0.0
 0000101,0.00000002,0.00000057,-0.00000057,0.00000097,-0.00000052,-0.00
 000003,-0.00000054,0.00000040,0.00000369,0.00000091,0.00000078,0.00000
 245,0.00000373,0.00000293,0.00000343,0.00000217,-0.00000404\\\@
 The archive entry for this job was punched.


 WHEN HAVING A MEETING OF THE MINDS,
 MAKE SURE YOU HAVE THE EQUIPMENT FOR IT.
 Job cpu time:       0 days 10 hours  0 minutes 24.0 seconds.
 Elapsed time:       0 days  0 hours 18 minutes 51.5 seconds.
 File lengths (MBytes):  RWF=   2748 Int=      0 D2E=      0 Chk=     27 Scr=      2
 Normal termination of Gaussian 16 at Fri Mar  8 00:48:22 2024.
