 Entering Gaussian System, Link 0=g16
 Initial command:
 /public/software/apps/Gaussian/g16/l1.exe "/public/home/LJQ_HG/tmp/Gau-109787.inp" -scrdir="/public/home/LJQ_HG/tmp/"
 Entering Link 1 = /public/software/apps/Gaussian/g16/l1.exe PID=    109788.
  
 Copyright (c) 1988-2019, Gaussian, Inc.  All Rights Reserved.
  
 This is part of the Gaussian(R) 16 program.  It is based on
 the Gaussian(R) 09 system (copyright 2009, Gaussian, Inc.),
 the Gaussian(R) 03 system (copyright 2003, Gaussian, Inc.),
 the Gaussian(R) 98 system (copyright 1998, Gaussian, Inc.),
 the Gaussian(R) 94 system (copyright 1995, Gaussian, Inc.),
 the Gaussian 92(TM) system (copyright 1992, Gaussian, Inc.),
 the Gaussian 90(TM) system (copyright 1990, Gaussian, Inc.),
 the Gaussian 88(TM) system (copyright 1988, Gaussian, Inc.),
 the Gaussian 86(TM) system (copyright 1986, Carnegie Mellon
 University), and the Gaussian 82(TM) system (copyright 1983,
 Carnegie Mellon University). Gaussian is a federally registered
 trademark of Gaussian, Inc.
  
 This software contains proprietary and confidential information,
 including trade secrets, belonging to Gaussian, Inc.
  
 This software is provided under written license and may be
 used, copied, transmitted, or stored only in accord with that
 written license.
  
 The following legend is applicable only to US Government
 contracts under FAR:
  
                    RESTRICTED RIGHTS LEGEND
  
 Use, reproduction and disclosure by the US Government is
 subject to restrictions as set forth in subparagraphs (a)
 and (c) of the Commercial Computer Software - Restricted
 Rights clause in FAR 52.227-19.
  
 Gaussian, Inc.
 340 Quinnipiac St., Bldg. 40, Wallingford CT 06492
  
  
 ---------------------------------------------------------------
 Warning -- This program may not be used in any manner that
 competes with the business of Gaussian, Inc. or will provide
 assistance to any competitor of Gaussian, Inc.  The licensee
 of this program is prohibited from giving any competitor of
 Gaussian, Inc. access to this program.  By using this program,
 the user acknowledges that Gaussian, Inc. is engaged in the
 business of creating and licensing software in the field of
 computational chemistry and represents and warrants to the
 licensee that it is not a competitor of Gaussian, Inc. and that
 it will not use this program in any manner prohibited above.
 ---------------------------------------------------------------
  

 Cite this work as:
 Gaussian 16, Revision C.01,
 M. J. Frisch, G. W. Trucks, H. B. Schlegel, G. E. Scuseria, 
 M. A. Robb, J. R. Cheeseman, G. Scalmani, V. Barone, 
 G. A. Petersson, H. Nakatsuji, X. Li, M. Caricato, A. V. Marenich, 
 J. Bloino, B. G. Janesko, R. Gomperts, B. Mennucci, H. P. Hratchian, 
 J. V. Ortiz, A. F. Izmaylov, J. L. Sonnenberg, D. Williams-Young, 
 F. Ding, F. Lipparini, F. Egidi, J. Goings, B. Peng, A. Petrone, 
 T. Henderson, D. Ranasinghe, V. G. Zakrzewski, J. Gao, N. Rega, 
 G. Zheng, W. Liang, M. Hada, M. Ehara, K. Toyota, R. Fukuda, 
 J. Hasegawa, M. Ishida, T. Nakajima, Y. Honda, O. Kitao, H. Nakai, 
 T. Vreven, K. Throssell, J. A. Montgomery, Jr., J. E. Peralta, 
 F. Ogliaro, M. J. Bearpark, J. J. Heyd, E. N. Brothers, K. N. Kudin, 
 V. N. Staroverov, T. A. Keith, R. Kobayashi, J. Normand, 
 K. Raghavachari, A. P. Rendell, J. C. Burant, S. S. Iyengar, 
 J. Tomasi, M. Cossi, J. M. Millam, M. Klene, C. Adamo, R. Cammi, 
 J. W. Ochterski, R. L. Martin, K. Morokuma, O. Farkas, 
 J. B. Foresman, and D. J. Fox, Gaussian, Inc., Wallingford CT, 2019.
 
 ******************************************
 Gaussian 16:  ES64L-G16RevC.01  3-Jul-2019
                 8-Mar-2024 
 ******************************************
 %nprocshared=32
 Will use up to   32 processors via shared memory.
 %mem=100GB
 ------------------------------------------
 #p opt freq b3lyp/def2svpp em=gd3bj nosymm
 ------------------------------------------
 1/18=20,19=15,26=3,38=1/1,3;
 2/9=110,12=2,15=1,17=6,18=5,40=1/2;
 3/5=43,7=202,11=2,25=1,30=1,71=1,74=-5,124=41/1,2,3;
 4//1;
 5/5=2,38=5/2;
 6/7=2,8=2,9=2,10=2,28=1/1;
 7/30=1/1,2,3,16;
 1/18=20,19=15,26=3/3(2);
 2/9=110,15=1/2;
 99//99;
 2/9=110,15=1/2;
 3/5=43,7=202,11=2,25=1,30=1,71=1,74=-5,124=41/1,2,3;
 4/5=5,16=3,69=1/1;
 5/5=2,38=5/2;
 7/30=1/1,2,3,16;
 1/18=20,19=15,26=3/3(-5);
 2/9=110,15=1/2;
 6/7=2,8=2,9=2,10=2,19=2,28=1/1;
 99/9=1/99;
 Leave Link    1 at Fri Mar  8 02:33:56 2024, MaxMem= 13421772800 cpu:               1.2 elap:               0.0
 (Enter /public/software/apps/Gaussian/g16/l101.exe)
 ------------------
 $$$$Title####1????
 ------------------
 Symbolic Z-matrix:
 Charge =  1 Multiplicity = 2
 N                     0.61212  -2.48908   1.69601 
 C                     0.32788  -1.08767   1.36982 
 C                     1.54914  -0.38533   0.78798 
 C                     2.24665  -0.91195  -0.31754 
 C                     3.33984  -0.22711  -0.85662 
 C                     3.74589   0.99022  -0.30635 
 C                     3.05812   1.52717   0.78354 
 C                     1.96508   0.84661   1.32747 
 C                    -0.91562  -0.9828    0.45564 
 O                    -0.69293  -1.61794  -0.77059 
 C                    -1.3251    0.45902   0.23935 
 C                    -2.19529   1.08146   1.15156 
 C                    -2.54161   2.42685   0.99374 
 C                    -2.01446   3.16634  -0.06774 
 C                    -1.13705   2.56285  -0.97171 
 C                    -0.789     1.21752  -0.81941 
 H                     0.82575  -3.03087   0.82856 
 H                     1.45802  -2.52823   2.31057 
 H                     0.05707  -0.59203   2.32978 
 H                     1.94553  -1.84491  -0.77344 
 H                     3.86982  -0.63884  -1.70581 
 H                     4.59094   1.51952  -0.72725 
 H                     3.36941   2.47411   1.2053 
 H                     1.43787   1.28706   2.16455 
 H                    -1.7541   -1.51753   0.95428 
 H                    -2.60133   0.52601   1.98792 
 H                    -3.21485   2.8978    1.6983 
 H                    -2.28135   4.2085   -0.18641 
 H                    -0.72175   3.13926  -1.78823 
 H                    -0.09461   0.77283  -1.52102 
 Cu                   -0.45743  -3.27273   0.25293 
 
 ITRead=  0  0  0  0  0  0  0  0  0  0  0  0  0  0  0  0  0  0  0  0
 ITRead=  0  0  0  0  0  0  0  0  0  0  0
 MicOpt= -1 -1 -1 -1 -1 -1 -1 -1 -1 -1 -1 -1 -1 -1 -1 -1 -1 -1 -1 -1
 MicOpt= -1 -1 -1 -1 -1 -1 -1 -1 -1 -1 -1
 NAtoms=     31 NQM=       31 NQMF=       0 NMMI=      0 NMMIF=      0
                NMic=       0 NMicF=      0.
                    Isotopes and Nuclear Properties:
 (Nuclear quadrupole moments (NQMom) in fm**2, nuclear magnetic moments (NMagM)
  in nuclear magnetons)

  Atom         1           2           3           4           5           6           7           8           9          10
 IAtWgt=          14          12          12          12          12          12          12          12          12          16
 AtmWgt=  14.0030740  12.0000000  12.0000000  12.0000000  12.0000000  12.0000000  12.0000000  12.0000000  12.0000000  15.9949146
 NucSpn=           2           0           0           0           0           0           0           0           0           0
 AtZEff=  -0.0000000  -0.0000000  -0.0000000  -0.0000000  -0.0000000  -0.0000000  -0.0000000  -0.0000000  -0.0000000  -0.0000000
 NQMom=    2.0440000   0.0000000   0.0000000   0.0000000   0.0000000   0.0000000   0.0000000   0.0000000   0.0000000   0.0000000
 NMagM=    0.4037610   0.0000000   0.0000000   0.0000000   0.0000000   0.0000000   0.0000000   0.0000000   0.0000000   0.0000000
 AtZNuc=   7.0000000   6.0000000   6.0000000   6.0000000   6.0000000   6.0000000   6.0000000   6.0000000   6.0000000   8.0000000

  Atom        11          12          13          14          15          16          17          18          19          20
 IAtWgt=          12          12          12          12          12          12           1           1           1           1
 AtmWgt=  12.0000000  12.0000000  12.0000000  12.0000000  12.0000000  12.0000000   1.0078250   1.0078250   1.0078250   1.0078250
 NucSpn=           0           0           0           0           0           0           1           1           1           1
 AtZEff=  -0.0000000  -0.0000000  -0.0000000  -0.0000000  -0.0000000  -0.0000000  -0.0000000  -0.0000000  -0.0000000  -0.0000000
 NQMom=    0.0000000   0.0000000   0.0000000   0.0000000   0.0000000   0.0000000   0.0000000   0.0000000   0.0000000   0.0000000
 NMagM=    0.0000000   0.0000000   0.0000000   0.0000000   0.0000000   0.0000000   2.7928460   2.7928460   2.7928460   2.7928460
 AtZNuc=   6.0000000   6.0000000   6.0000000   6.0000000   6.0000000   6.0000000   1.0000000   1.0000000   1.0000000   1.0000000

  Atom        21          22          23          24          25          26          27          28          29          30
 IAtWgt=           1           1           1           1           1           1           1           1           1           1
 AtmWgt=   1.0078250   1.0078250   1.0078250   1.0078250   1.0078250   1.0078250   1.0078250   1.0078250   1.0078250   1.0078250
 NucSpn=           1           1           1           1           1           1           1           1           1           1
 AtZEff=  -0.0000000  -0.0000000  -0.0000000  -0.0000000  -0.0000000  -0.0000000  -0.0000000  -0.0000000  -0.0000000  -0.0000000
 NQMom=    0.0000000   0.0000000   0.0000000   0.0000000   0.0000000   0.0000000   0.0000000   0.0000000   0.0000000   0.0000000
 NMagM=    2.7928460   2.7928460   2.7928460   2.7928460   2.7928460   2.7928460   2.7928460   2.7928460   2.7928460   2.7928460
 AtZNuc=   1.0000000   1.0000000   1.0000000   1.0000000   1.0000000   1.0000000   1.0000000   1.0000000   1.0000000   1.0000000

  Atom        31
 IAtWgt=          63
 AtmWgt=  62.9295992
 NucSpn=           3
 AtZEff=  -0.0000000
 NQMom=  -22.0000000
 NMagM=    2.2233000
 AtZNuc=  29.0000000
 Leave Link  101 at Fri Mar  8 02:33:56 2024, MaxMem= 13421772800 cpu:               3.6 elap:               0.1
 (Enter /public/software/apps/Gaussian/g16/l103.exe)

 GradGradGradGradGradGradGradGradGradGradGradGradGradGradGradGradGradGrad
 Berny optimization.
 Initialization pass.
                           ----------------------------
                           !    Initial Parameters    !
                           ! (Angstroms and Degrees)  !
 --------------------------                            --------------------------
 ! Name  Definition              Value          Derivative Info.                !
 --------------------------------------------------------------------------------
 ! R1    R(1,2)                  1.4667         estimate D2E/DX2                !
 ! R2    R(1,17)                 1.0448         estimate D2E/DX2                !
 ! R3    R(1,18)                 1.0463         estimate D2E/DX2                !
 ! R4    R(1,31)                 1.9597         estimate D2E/DX2                !
 ! R5    R(2,3)                  1.5242         estimate D2E/DX2                !
 ! R6    R(2,9)                  1.5469         estimate D2E/DX2                !
 ! R7    R(2,19)                 1.1138         estimate D2E/DX2                !
 ! R8    R(3,4)                  1.4093         estimate D2E/DX2                !
 ! R9    R(3,8)                  1.4077         estimate D2E/DX2                !
 ! R10   R(4,5)                  1.3981         estimate D2E/DX2                !
 ! R11   R(4,20)                 1.0812         estimate D2E/DX2                !
 ! R12   R(5,6)                  1.3963         estimate D2E/DX2                !
 ! R13   R(5,21)                 1.0824         estimate D2E/DX2                !
 ! R14   R(6,7)                  1.3961         estimate D2E/DX2                !
 ! R15   R(6,22)                 1.0823         estimate D2E/DX2                !
 ! R16   R(7,8)                  1.3978         estimate D2E/DX2                !
 ! R17   R(7,23)                 1.0823         estimate D2E/DX2                !
 ! R18   R(8,24)                 1.0829         estimate D2E/DX2                !
 ! R19   R(9,10)                 1.3988         estimate D2E/DX2                !
 ! R20   R(9,11)                 1.5144         estimate D2E/DX2                !
 ! R21   R(9,25)                 1.1125         estimate D2E/DX2                !
 ! R22   R(10,31)                1.9599         estimate D2E/DX2                !
 ! R23   R(11,12)                1.406          estimate D2E/DX2                !
 ! R24   R(11,16)                1.4084         estimate D2E/DX2                !
 ! R25   R(12,13)                1.3982         estimate D2E/DX2                !
 ! R26   R(12,26)                1.083          estimate D2E/DX2                !
 ! R27   R(13,14)                1.3969         estimate D2E/DX2                !
 ! R28   R(13,27)                1.0823         estimate D2E/DX2                !
 ! R29   R(14,15)                1.3969         estimate D2E/DX2                !
 ! R30   R(14,28)                1.0823         estimate D2E/DX2                !
 ! R31   R(15,16)                1.3979         estimate D2E/DX2                !
 ! R32   R(15,29)                1.0823         estimate D2E/DX2                !
 ! R33   R(16,30)                1.0827         estimate D2E/DX2                !
 ! R34   R(17,31)                1.427          estimate D2E/DX2                !
 ! A1    A(2,1,17)             110.515          estimate D2E/DX2                !
 ! A2    A(2,1,18)             108.8482         estimate D2E/DX2                !
 ! A3    A(2,1,31)              96.4624         estimate D2E/DX2                !
 ! A4    A(17,1,18)            107.634          estimate D2E/DX2                !
 ! A5    A(18,1,31)            149.1793         estimate D2E/DX2                !
 ! A6    A(1,2,3)              111.7095         estimate D2E/DX2                !
 ! A7    A(1,2,9)              110.6087         estimate D2E/DX2                !
 ! A8    A(1,2,19)             106.2979         estimate D2E/DX2                !
 ! A9    A(3,2,9)              112.783          estimate D2E/DX2                !
 ! A10   A(3,2,19)             108.5891         estimate D2E/DX2                !
 ! A11   A(9,2,19)             106.4824         estimate D2E/DX2                !
 ! A12   A(2,3,4)              121.5893         estimate D2E/DX2                !
 ! A13   A(2,3,8)              119.5829         estimate D2E/DX2                !
 ! A14   A(4,3,8)              118.778          estimate D2E/DX2                !
 ! A15   A(3,4,5)              120.4267         estimate D2E/DX2                !
 ! A16   A(3,4,20)             121.0243         estimate D2E/DX2                !
 ! A17   A(5,4,20)             118.5461         estimate D2E/DX2                !
 ! A18   A(4,5,6)              120.1648         estimate D2E/DX2                !
 ! A19   A(4,5,21)             119.9367         estimate D2E/DX2                !
 ! A20   A(6,5,21)             119.8978         estimate D2E/DX2                !
 ! A21   A(5,6,7)              119.9803         estimate D2E/DX2                !
 ! A22   A(5,6,22)             120.0105         estimate D2E/DX2                !
 ! A23   A(7,6,22)             120.0088         estimate D2E/DX2                !
 ! A24   A(6,7,8)              120.1158         estimate D2E/DX2                !
 ! A25   A(6,7,23)             119.9332         estimate D2E/DX2                !
 ! A26   A(8,7,23)             119.9505         estimate D2E/DX2                !
 ! A27   A(3,8,7)              120.5312         estimate D2E/DX2                !
 ! A28   A(3,8,24)             120.5531         estimate D2E/DX2                !
 ! A29   A(7,8,24)             118.9131         estimate D2E/DX2                !
 ! A30   A(2,9,10)             111.0571         estimate D2E/DX2                !
 ! A31   A(2,9,11)             111.4879         estimate D2E/DX2                !
 ! A32   A(2,9,25)             107.9622         estimate D2E/DX2                !
 ! A33   A(10,9,11)            110.4964         estimate D2E/DX2                !
 ! A34   A(10,9,25)            107.1376         estimate D2E/DX2                !
 ! A35   A(11,9,25)            108.5336         estimate D2E/DX2                !
 ! A36   A(9,10,31)             86.83           estimate D2E/DX2                !
 ! A37   A(9,11,12)            119.7479         estimate D2E/DX2                !
 ! A38   A(9,11,16)            121.1438         estimate D2E/DX2                !
 ! A39   A(12,11,16)           119.0053         estimate D2E/DX2                !
 ! A40   A(11,12,13)           120.4018         estimate D2E/DX2                !
 ! A41   A(11,12,26)           120.4007         estimate D2E/DX2                !
 ! A42   A(13,12,26)           119.1967         estimate D2E/DX2                !
 ! A43   A(12,13,14)           120.1105         estimate D2E/DX2                !
 ! A44   A(12,13,27)           119.9531         estimate D2E/DX2                !
 ! A45   A(14,13,27)           119.9355         estimate D2E/DX2                !
 ! A46   A(13,14,15)           120.0042         estimate D2E/DX2                !
 ! A47   A(13,14,28)           119.9988         estimate D2E/DX2                !
 ! A48   A(15,14,28)           119.996          estimate D2E/DX2                !
 ! A49   A(14,15,16)           120.1098         estimate D2E/DX2                !
 ! A50   A(14,15,29)           119.9434         estimate D2E/DX2                !
 ! A51   A(16,15,29)           119.9459         estimate D2E/DX2                !
 ! A52   A(11,16,15)           120.358          estimate D2E/DX2                !
 ! A53   A(11,16,30)           120.6686         estimate D2E/DX2                !
 ! A54   A(15,16,30)           118.9704         estimate D2E/DX2                !
 ! A55   A(1,31,10)             96.4595         estimate D2E/DX2                !
 ! A56   A(10,31,17)           100.1132         estimate D2E/DX2                !
 ! D1    D(17,1,2,3)           -64.7305         estimate D2E/DX2                !
 ! D2    D(17,1,2,9)            61.7838         estimate D2E/DX2                !
 ! D3    D(17,1,2,19)          176.9825         estimate D2E/DX2                !
 ! D4    D(18,1,2,3)            53.2719         estimate D2E/DX2                !
 ! D5    D(18,1,2,9)           179.7862         estimate D2E/DX2                !
 ! D6    D(18,1,2,19)          -65.0151         estimate D2E/DX2                !
 ! D7    D(31,1,2,3)          -108.8857         estimate D2E/DX2                !
 ! D8    D(31,1,2,9)            17.6286         estimate D2E/DX2                !
 ! D9    D(31,1,2,19)          132.8273         estimate D2E/DX2                !
 ! D10   D(2,1,31,10)           13.8034         estimate D2E/DX2                !
 ! D11   D(18,1,31,10)        -131.7278         estimate D2E/DX2                !
 ! D12   D(1,2,3,4)             53.3622         estimate D2E/DX2                !
 ! D13   D(1,2,3,8)           -129.2383         estimate D2E/DX2                !
 ! D14   D(9,2,3,4)            -71.9577         estimate D2E/DX2                !
 ! D15   D(9,2,3,8)            105.4418         estimate D2E/DX2                !
 ! D16   D(19,2,3,4)           170.2719         estimate D2E/DX2                !
 ! D17   D(19,2,3,8)           -12.3286         estimate D2E/DX2                !
 ! D18   D(1,2,9,10)           -63.0259         estimate D2E/DX2                !
 ! D19   D(1,2,9,11)           173.2775         estimate D2E/DX2                !
 ! D20   D(1,2,9,25)            54.1515         estimate D2E/DX2                !
 ! D21   D(3,2,9,10)            62.8887         estimate D2E/DX2                !
 ! D22   D(3,2,9,11)           -60.8079         estimate D2E/DX2                !
 ! D23   D(3,2,9,25)          -179.9339         estimate D2E/DX2                !
 ! D24   D(19,2,9,10)         -178.109          estimate D2E/DX2                !
 ! D25   D(19,2,9,11)           58.1944         estimate D2E/DX2                !
 ! D26   D(19,2,9,25)          -60.9316         estimate D2E/DX2                !
 ! D27   D(2,3,4,5)            178.0852         estimate D2E/DX2                !
 ! D28   D(2,3,4,20)            -1.296          estimate D2E/DX2                !
 ! D29   D(8,3,4,5)              0.6654         estimate D2E/DX2                !
 ! D30   D(8,3,4,20)          -178.7159         estimate D2E/DX2                !
 ! D31   D(2,3,8,7)           -178.0897         estimate D2E/DX2                !
 ! D32   D(2,3,8,24)             1.3308         estimate D2E/DX2                !
 ! D33   D(4,3,8,7)             -0.6169         estimate D2E/DX2                !
 ! D34   D(4,3,8,24)           178.8036         estimate D2E/DX2                !
 ! D35   D(3,4,5,6)             -0.3105         estimate D2E/DX2                !
 ! D36   D(3,4,5,21)          -179.9984         estimate D2E/DX2                !
 ! D37   D(20,4,5,6)           179.0859         estimate D2E/DX2                !
 ! D38   D(20,4,5,21)           -0.602          estimate D2E/DX2                !
 ! D39   D(4,5,6,7)             -0.1052         estimate D2E/DX2                !
 ! D40   D(4,5,6,22)          -179.843          estimate D2E/DX2                !
 ! D41   D(21,5,6,7)           179.5829         estimate D2E/DX2                !
 ! D42   D(21,5,6,22)           -0.1549         estimate D2E/DX2                !
 ! D43   D(5,6,7,8)              0.1542         estimate D2E/DX2                !
 ! D44   D(5,6,7,23)          -179.5894         estimate D2E/DX2                !
 ! D45   D(22,6,7,8)           179.892          estimate D2E/DX2                !
 ! D46   D(22,6,7,23)            0.1484         estimate D2E/DX2                !
 ! D47   D(6,7,8,3)              0.2127         estimate D2E/DX2                !
 ! D48   D(6,7,8,24)          -179.2172         estimate D2E/DX2                !
 ! D49   D(23,7,8,3)           179.9562         estimate D2E/DX2                !
 ! D50   D(23,7,8,24)            0.5263         estimate D2E/DX2                !
 ! D51   D(2,9,10,31)           61.6434         estimate D2E/DX2                !
 ! D52   D(11,9,10,31)        -174.0955         estimate D2E/DX2                !
 ! D53   D(25,9,10,31)         -56.0366         estimate D2E/DX2                !
 ! D54   D(2,9,11,12)          -87.329          estimate D2E/DX2                !
 ! D55   D(2,9,11,16)           88.9441         estimate D2E/DX2                !
 ! D56   D(10,9,11,12)         148.6572         estimate D2E/DX2                !
 ! D57   D(10,9,11,16)         -35.0697         estimate D2E/DX2                !
 ! D58   D(25,9,11,12)          31.4565         estimate D2E/DX2                !
 ! D59   D(25,9,11,16)        -152.2704         estimate D2E/DX2                !
 ! D60   D(9,10,31,1)          -42.285          estimate D2E/DX2                !
 ! D61   D(9,10,31,17)         -73.5893         estimate D2E/DX2                !
 ! D62   D(9,11,12,13)         177.5353         estimate D2E/DX2                !
 ! D63   D(9,11,12,26)          -2.1425         estimate D2E/DX2                !
 ! D64   D(16,11,12,13)          1.1824         estimate D2E/DX2                !
 ! D65   D(16,11,12,26)       -178.4954         estimate D2E/DX2                !
 ! D66   D(9,11,16,15)        -177.3967         estimate D2E/DX2                !
 ! D67   D(9,11,16,30)           1.972          estimate D2E/DX2                !
 ! D68   D(12,11,16,15)         -1.0965         estimate D2E/DX2                !
 ! D69   D(12,11,16,30)        178.2723         estimate D2E/DX2                !
 ! D70   D(11,12,13,14)         -0.5596         estimate D2E/DX2                !
 ! D71   D(11,12,13,27)        179.7855         estimate D2E/DX2                !
 ! D72   D(26,12,13,14)        179.1221         estimate D2E/DX2                !
 ! D73   D(26,12,13,27)         -0.5328         estimate D2E/DX2                !
 ! D74   D(12,13,14,15)         -0.1671         estimate D2E/DX2                !
 ! D75   D(12,13,14,28)       -179.8101         estimate D2E/DX2                !
 ! D76   D(27,13,14,15)        179.4879         estimate D2E/DX2                !
 ! D77   D(27,13,14,28)         -0.1551         estimate D2E/DX2                !
 ! D78   D(13,14,15,16)          0.2524         estimate D2E/DX2                !
 ! D79   D(13,14,15,29)       -179.4114         estimate D2E/DX2                !
 ! D80   D(28,14,15,16)        179.8954         estimate D2E/DX2                !
 ! D81   D(28,14,15,29)          0.2316         estimate D2E/DX2                !
 ! D82   D(14,15,16,11)          0.3871         estimate D2E/DX2                !
 ! D83   D(14,15,16,30)       -178.9922         estimate D2E/DX2                !
 ! D84   D(29,15,16,11)       -179.949          estimate D2E/DX2                !
 ! D85   D(29,15,16,30)          0.6717         estimate D2E/DX2                !
 --------------------------------------------------------------------------------
 Trust Radius=3.00D-01 FncErr=1.00D-07 GrdErr=1.00D-06 EigMax=2.50D+02 EigMin=1.00D-04
 Number of steps in this run=    185 maximum allowed number of steps=    186.
 GradGradGradGradGradGradGradGradGradGradGradGradGradGradGradGradGradGrad

 Leave Link  103 at Fri Mar  8 02:33:56 2024, MaxMem= 13421772800 cpu:               0.2 elap:               0.0
 (Enter /public/software/apps/Gaussian/g16/l202.exe)
                          Input orientation:                          
 ---------------------------------------------------------------------
 Center     Atomic      Atomic             Coordinates (Angstroms)
 Number     Number       Type             X           Y           Z
 ---------------------------------------------------------------------
      1          7           0        0.612116   -2.489075    1.696013
      2          6           0        0.327882   -1.087666    1.369821
      3          6           0        1.549143   -0.385325    0.787977
      4          6           0        2.246649   -0.911950   -0.317535
      5          6           0        3.339843   -0.227112   -0.856621
      6          6           0        3.745894    0.990222   -0.306347
      7          6           0        3.058122    1.527172    0.783543
      8          6           0        1.965077    0.846610    1.327466
      9          6           0       -0.915622   -0.982801    0.455641
     10          8           0       -0.692928   -1.617939   -0.770589
     11          6           0       -1.325102    0.459019    0.239347
     12          6           0       -2.195287    1.081455    1.151555
     13          6           0       -2.541609    2.426846    0.993739
     14          6           0       -2.014461    3.166335   -0.067739
     15          6           0       -1.137051    2.562845   -0.971706
     16          6           0       -0.789002    1.217520   -0.819407
     17          1           0        0.825750   -3.030866    0.828562
     18          1           0        1.458019   -2.528230    2.310571
     19          1           0        0.057065   -0.592033    2.329780
     20          1           0        1.945526   -1.844910   -0.773441
     21          1           0        3.869818   -0.638843   -1.705810
     22          1           0        4.590941    1.519517   -0.727253
     23          1           0        3.369412    2.474106    1.205295
     24          1           0        1.437865    1.287064    2.164551
     25          1           0       -1.754095   -1.517533    0.954282
     26          1           0       -2.601333    0.526008    1.987922
     27          1           0       -3.214854    2.897799    1.698301
     28          1           0       -2.281354    4.208499   -0.186414
     29          1           0       -0.721748    3.139265   -1.788231
     30          1           0       -0.094610    0.772827   -1.521020
     31         29           0       -0.457427   -3.272733    0.252934
 ---------------------------------------------------------------------
                    Distance matrix (angstroms):
                    1          2          3          4          5
     1  N    0.000000
     2  C    1.466676   0.000000
     3  C    2.475543   1.524239   0.000000
     4  C    3.035358   2.561194   1.409257   0.000000
     5  C    4.367254   3.843112   2.436461   1.398102   0.000000
     6  C    5.092693   4.337046   2.813430   2.422007   1.396274
     7  C    4.790176   3.825612   2.436120   2.796458   2.418061
     8  C    3.618442   2.534487   1.407733   2.424427   2.795192
     9  C    2.478178   1.546940   2.557829   3.256191   4.516866
    10  O    2.923379   2.429938   2.995888   3.056925   4.266737
    11  C    3.816536   2.530328   3.045521   3.866145   4.840830
    12  C    4.574563   3.334533   4.037869   5.085537   6.031814
    13  C    5.882640   4.552715   4.968390   5.982843   6.712585
    14  C    6.480231   5.064551   5.103510   5.903547   6.387988
    15  C    5.974798   4.577664   4.359338   4.894034   5.276332
    16  C    4.693540   3.369574   3.258791   3.741884   4.374438
    17  H    1.044820   2.077705   2.742960   2.796837   4.125717
    18  H    1.046311   2.058505   2.630330   3.184531   4.343675
    19  H    2.075695   1.113784   2.155500   3.450348   4.589439
    20  H    2.879433   2.789940   2.173829   1.081175   2.137360
    21  H    5.060472   4.712352   3.415959   2.153270   1.082367
    22  H    6.145899   5.419298   3.895752   3.402294   2.152370
    23  H    5.698829   4.686597   3.415242   3.878786   3.398375
    24  H    3.893663   2.739161   2.168922   3.413289   3.877851
    25  H    2.663271   2.166122   3.495845   4.241486   5.558126
    26  H    4.416128   3.400925   4.415523   5.557498   6.629946
    27  H    6.607883   5.342547   5.856899   6.957427   7.697840
    28  H    7.534799   6.105681   6.060146   6.836593   7.191779
    29  H    6.752582   5.379773   4.921029   5.233228   5.356950
    30  H    4.635598   3.463653   3.061814   3.125435   3.638237
    31  Cu   1.959724   2.576561   3.556644   3.634661   4.992612
                    6          7          8          9         10
     6  C    0.000000
     7  C    1.396140   0.000000
     8  C    2.421008   1.397771   0.000000
     9  C    5.118904   4.711489   3.522109   0.000000
    10  O    5.169252   5.135896   4.188177   1.398797   0.000000
    11  C    5.127861   4.544200   3.487049   1.514365   2.394445
    12  C    6.118123   5.285111   4.170698   2.526458   3.638468
    13  C    6.579271   5.675437   4.787352   3.815636   4.784429
    14  C    6.162312   5.398392   4.812945   4.323968   5.012956
    15  C    5.172910   4.664011   4.225500   3.828571   4.209115
    16  C    4.569483   4.179198   3.511636   2.546211   2.837506
    17  H    5.097490   5.075551   4.072075   2.714041   2.619166
    18  H    4.945921   4.619354   3.551499   3.385748   3.866361
    19  H    4.802099   3.986003   2.591300   2.147374   3.350710
    20  H    3.390793   3.877242   3.414451   3.231105   2.648200
    21  H    2.151211   3.398139   3.877547   5.262187   4.759403
    22  H    1.082321   2.152231   3.401446   6.163041   6.145306
    23  H    2.151444   1.082340   2.153097   5.556411   6.095208
    24  H    3.394179   2.142444   1.082896   3.689385   4.646974
    25  H    6.174779   5.697088   4.422746   1.112483   2.027643
    26  H    6.765091   5.872162   4.625050   2.732400   3.980942
    27  H    7.490626   6.485802   5.583599   4.678646   5.731267
    28  H    6.833697   6.053126   5.623727   5.406205   6.067268
    29  H    5.174378   4.847709   4.709869   4.697231   4.864917
    30  H    4.033877   3.977407   3.515911   2.768299   2.576217
    31  Cu   6.012777   5.973250   4.898176   2.344104   1.959950
                   11         12         13         14         15
    11  C    0.000000
    12  C    1.405977   0.000000
    13  C    2.433380   1.398185   0.000000
    14  C    2.810530   2.422003   1.396948   0.000000
    15  C    2.434768   2.796894   2.419556   1.396855   0.000000
    16  C    1.408434   2.425045   2.796712   2.421701   1.397939
    17  H    4.141574   5.112942   6.415061   6.875715   6.195414
    18  H    4.578142   5.264959   6.502603   7.081140   6.589899
    19  H    2.717537   3.043331   4.201398   4.915755   4.720061
    20  H    4.126843   5.423611   6.442453   6.425892   5.382369
    21  H    5.654744   6.921666   7.602132   7.196346   5.988193
    22  H    6.087572   7.055119   7.393127   6.839467   5.827365
    23  H    5.199240   5.736570   5.914994   5.575472   5.005539
    24  H    3.467860   3.777331   4.301874   4.520324   4.253695
    25  H    2.145210   2.643540   4.022420   4.801139   4.554081
    26  H    2.165818   1.083007   2.145962   3.397276   3.879720
    27  H    3.412822   2.153498   1.082342   2.152197   3.399764
    28  H    3.892851   3.402348   2.152854   1.082322   2.152740
    29  H    3.414502   3.879206   3.399822   2.152192   1.082335
    30  H    2.170594   3.413320   3.879123   3.395104   2.143034
    31  Cu   3.831321   4.773534   6.113739   6.632404   6.001300
                   16         17         18         19         20
    16  C    0.000000
    17  H    4.834461   0.000000
    18  H    5.373687   1.687826   0.000000
    19  H    3.729302   2.965205   2.389958   0.000000
    20  H    4.105878   2.286220   3.196204   3.842651   0.000000
    21  H    5.092779   4.627220   5.051522   5.552050   2.454956
    22  H    5.389200   6.107635   5.952128   5.861751   4.280155
    23  H    4.792790   6.075925   5.467945   4.651593   4.959511
    24  H    3.723947   4.561148   3.818140   2.337716   4.324208
    25  H    3.399690   2.993590   3.630249   2.455371   4.096266
    26  H    3.412305   5.073496   5.090266   2.904129   5.824114
    27  H    3.879040   7.227171   7.186961   4.825261   7.431845
    28  H    3.402021   7.943090   8.099467   5.902927   7.406408
    29  H    2.153195   6.878435   7.326122   5.611341   5.743357
    30  H    1.082679   4.564612   5.290437   4.088338   3.401996
    31  Cu   4.628415   1.427022   2.908107   3.429890   2.977635
                   21         22         23         24         25
    21  H    0.000000
    22  H    2.477117   0.000000
    23  H    4.291316   2.477522   0.000000
    24  H    4.960162   4.284677   2.461730   0.000000
    25  H    6.283039   7.232615   6.499732   4.418045   0.000000
    26  H    7.541640   7.751648   6.329091   4.114064   2.441779
    27  H    8.619071   8.289355   6.616278   4.945670   4.709834
    28  H    7.977607   7.399430   6.072572   5.281516   5.862306
    29  H    5.946711   5.654549   5.112849   4.870222   5.502080
    30  H    4.212321   4.810613   4.725102   4.024469   3.758558
    31  Cu   5.431308   7.029399   6.969781   5.295107   2.292153
                   26         27         28         29         30
    26  H    0.000000
    27  H    2.466917   0.000000
    28  H    4.288457   2.478206   0.000000
    29  H    4.961984   4.292993   2.478195   0.000000
    30  H    4.319404   4.961397   4.285658   2.462668   0.000000
    31  Cu   4.694353   6.911437   7.712883   6.734236   4.432280
                   31
    31  Cu   0.000000
 Symmetry turned off by external request.
 Stoichiometry    C14H14CuNO(1+,2)
 Framework group  C1[X(C14H14CuNO)]
 Deg. of freedom    87
 Full point group                 C1      NOp   1
 Rotational constants (GHZ):           0.4733133           0.3629670           0.2410187
 Leave Link  202 at Fri Mar  8 02:33:56 2024, MaxMem= 13421772800 cpu:               1.8 elap:               0.1
 (Enter /public/software/apps/Gaussian/g16/l301.exe)
 Standard basis: def2SVPP (5D, 7F)
 Ernie: Thresh=  0.10000D-02 Tol=  0.10000D-05 Strict=F.
   276 basis functions,   527 primitive gaussians,   294 cartesian basis functions
    71 alpha electrons       70 beta electrons
       nuclear repulsion energy      1518.0420964598 Hartrees.
 IExCor=  402 DFT=T Ex+Corr=B3LYP ExCW=0 ScaHFX=  0.200000
 ScaDFX=  0.800000  0.720000  1.000000  0.810000 ScalE2=  1.000000  1.000000
 IRadAn=      5 IRanWt=     -1 IRanGd=            0 ICorTp=0 IEmpDi=141
 NAtoms=   31 NActive=   31 NUniq=   31 SFac= 1.00D+00 NAtFMM=   60 NAOKFM=F Big=F
 Integral buffers will be    131072 words long.
 Raffenetti 2 integral format.
 Two-electron integral symmetry is turned off.
 R6Disp:  Grimme-D3(BJ) Dispersion energy=       -0.0753870629 Hartrees.
 Nuclear repulsion after empirical dispersion term =     1517.9667093969 Hartrees.
 Leave Link  301 at Fri Mar  8 02:33:56 2024, MaxMem= 13421772800 cpu:               0.6 elap:               0.0
 (Enter /public/software/apps/Gaussian/g16/l302.exe)
 NPDir=0 NMtPBC=     1 NCelOv=     1 NCel=       1 NClECP=     1 NCelD=      1
         NCelK=      1 NCelE2=     1 NClLst=     1 CellRange=     0.0.
 One-electron integrals computed using PRISM.
   1 Symmetry operations used in ECPInt.
 ECPInt:  NShTT=    9045 NPrTT=   38516 LenC2=    8736 LenP2D=   26152.
 LDataN:  DoStor=T MaxTD1= 4 Len=   56
 NBasis=   276 RedAO= T EigKep=  2.82D-04  NBF=   276
 NBsUse=   276 1.00D-06 EigRej= -1.00D+00 NBFU=   276
 Precomputing XC quadrature grid using
 IXCGrd= 4 IRadAn=           5 IRanWt=          -1 IRanGd=           0 AccXCQ= 0.00D+00.
 Generated NRdTot=       0 NPtTot=           0 NUsed=           0 NTot=          32
 NSgBfM=   292   292   292   292   292 MxSgAt=    31 MxSgA2=    31.
 Leave Link  302 at Fri Mar  8 02:33:57 2024, MaxMem= 13421772800 cpu:              16.8 elap:               0.6
 (Enter /public/software/apps/Gaussian/g16/l303.exe)
 DipDrv:  MaxL=1.
 Leave Link  303 at Fri Mar  8 02:33:57 2024, MaxMem= 13421772800 cpu:               0.7 elap:               0.0
 (Enter /public/software/apps/Gaussian/g16/l401.exe)
 ExpMin= 3.30D-02 ExpMax= 7.64D+04 ExpMxC= 1.15D+04 IAcc=3 IRadAn=         5 AccDes= 0.00D+00
 Harris functional with IExCor=  402 and IRadAn=       5 diagonalized for initial guess.
 HarFok:  IExCor=  402 AccDes= 0.00D+00 IRadAn=         5 IDoV= 1 UseB2=F ITyADJ=14
 ICtDFT=  3500011 ScaDFX=  1.000000  1.000000  1.000000  1.000000
 FoFCou: FMM=F IPFlag=           0 FMFlag=      100000 FMFlg1=           0
         NFxFlg=           0 DoJE=T BraDBF=F KetDBF=T FulRan=T
         wScrn=  0.000000 ICntrl=       500 IOpCl=  0 I1Cent=   200000004 NGrid=           0
         NMat0=    1 NMatS0=      1 NMatT0=    0 NMatD0=    1 NMtDS0=    0 NMtDT0=    0
 Symmetry not used in FoFCou.
 Harris En= -2311.59405044561    
 JPrj=0 DoOrth=F DoCkMO=F.
 Initial guess <Sx>= 0.0000 <Sy>= 0.0000 <Sz>= 0.5000 <S**2>= 0.7500 S= 0.5000
 Leave Link  401 at Fri Mar  8 02:33:57 2024, MaxMem= 13421772800 cpu:              19.1 elap:               0.6
 (Enter /public/software/apps/Gaussian/g16/l502.exe)
 Two-electron integral symmetry not used.
 UHF open shell SCF:
 Using DIIS extrapolation, IDIIS=  1040.
 NGot= 13421772800 LenX= 13421587210 LenY= 13421500333
 Requested convergence on RMS density matrix=1.00D-08 within 128 cycles.
 Requested convergence on MAX density matrix=1.00D-06.
 Requested convergence on             energy=1.00D-06.
 No special actions if energy rises.
 Fock matrices will be formed incrementally for  20 cycles.

 Cycle   1  Pass 1  IDiag  1:
 FoFJK:  IHMeth= 1 ICntrl=       0 DoSepK=F KAlg= 0 I1Cent=           0 FoldK=F
 IRaf= 930000000 NMat=       1 IRICut=       1 DoRegI=T DoRafI=F ISym2E= 0 IDoP0=0 IntGTp=1.
 FoFCou: FMM=F IPFlag=           0 FMFlag=      100000 FMFlg1=           0
         NFxFlg=           0 DoJE=F BraDBF=F KetDBF=F FulRan=T
         wScrn=  0.000000 ICntrl=         0 IOpCl=  1 I1Cent=           0 NGrid=           0
         NMat0=    1 NMatS0=      1 NMatT0=    0 NMatD0=    1 NMtDS0=    0 NMtDT0=    0
 Symmetry not used in FoFCou.
 E= -2309.27168821378    
 DIIS: error= 1.29D-01 at cycle   1 NSaved=   1.
 NSaved= 1 IEnMin= 1 EnMin= -2309.27168821378     IErMin= 1 ErrMin= 1.29D-01
 ErrMax= 1.29D-01  0.00D+00 EMaxC= 1.00D-01 BMatC= 1.30D+01 BMatP= 1.30D+01
 IDIUse=3 WtCom= 0.00D+00 WtEn= 1.00D+00
 Coeff-Com:  0.100D+01
 Coeff-En:   0.100D+01
 Coeff:      0.100D+01
 Gap=     1.481 Goal=   None    Shift=    0.000
 Gap=     0.563 Goal=   None    Shift=    0.000
 GapD=    0.563 DampG=2.000 DampE=0.125 DampFc=0.2500 IDamp=-1.
 Damping current iteration by 2.50D-01
 RMSDP=2.97D-02 MaxDP=3.79D+00              OVMax= 9.62D-01

 Cycle   2  Pass 1  IDiag  1:
 RMSU=  7.40D-03    CP:  9.82D-01
 E= -2309.92816813917     Delta-E=       -0.656479925392 Rises=F Damp=T
 DIIS: error= 3.79D-02 at cycle   2 NSaved=   2.
 NSaved= 2 IEnMin= 2 EnMin= -2309.92816813917     IErMin= 2 ErrMin= 3.79D-02
 ErrMax= 3.79D-02  0.00D+00 EMaxC= 1.00D-01 BMatC= 1.29D+00 BMatP= 1.30D+01
 IDIUse=3 WtCom= 6.21D-01 WtEn= 3.79D-01
 Coeff-Com: -0.293D+00 0.129D+01
 Coeff-En:   0.247D+00 0.753D+00
 Coeff:     -0.882D-01 0.109D+01
 Gap=    -0.019 Goal=   None    Shift=    0.000
 Gap=     0.124 Goal=   None    Shift=    0.000
 RMSDP=1.10D-02 MaxDP=9.87D-01 DE=-6.56D-01 OVMax= 9.79D-01

 Cycle   3  Pass 1  IDiag  1:
 RMSU=  9.04D-03    CP:  9.12D-01  1.85D-01
 E= -2310.01742707945     Delta-E=       -0.089258940280 Rises=F Damp=F
 DIIS: error= 8.20D-02 at cycle   3 NSaved=   3.
 NSaved= 3 IEnMin= 3 EnMin= -2310.01742707945     IErMin= 2 ErrMin= 3.79D-02
 ErrMax= 8.20D-02  0.00D+00 EMaxC= 1.00D-01 BMatC= 6.06D+00 BMatP= 1.29D+00
 IDIUse=2 WtCom= 0.00D+00 WtEn= 1.00D+00
 EnCoef did     4 forward-backward iterations
 Coeff-En:   0.303D+00 0.158D+00 0.539D+00
 Coeff:      0.303D+00 0.158D+00 0.539D+00
 Gap=     0.669 Goal=   None    Shift=    0.000
 Gap=    -0.241 Goal=   None    Shift=    0.000
 RMSDP=1.40D-02 MaxDP=1.48D+00 DE=-8.93D-02 OVMax= 7.11D-01

 Cycle   4  Pass 1  IDiag  1:
 RMSU=  1.09D-02    CP:  9.00D-01  1.00D+00  3.03D-01
 E= -2306.39815157814     Delta-E=        3.619275501313 Rises=F Damp=F
 DIIS: error= 5.37D-02 at cycle   4 NSaved=   4.
 NSaved= 4 IEnMin= 3 EnMin= -2310.01742707945     IErMin= 2 ErrMin= 3.79D-02
 ErrMax= 5.37D-02  0.00D+00 EMaxC= 1.00D-01 BMatC= 1.08D+01 BMatP= 1.29D+00
 IDIUse=2 WtCom= 0.00D+00 WtEn= 1.00D+00
 EnCoef did   100 forward-backward iterations
 Coeff-En:   0.346D+00 0.752D-02 0.466D+00 0.181D+00
 Coeff:      0.346D+00 0.752D-02 0.466D+00 0.181D+00
 Gap=    -0.116 Goal=   None    Shift=    0.000
 Gap=     0.080 Goal=   None    Shift=    0.000
 RMSDP=1.07D-02 MaxDP=1.32D+00 DE= 3.62D+00 OVMax= 9.18D-01

 Cycle   5  Pass 1  IDiag  1:
 RMSU=  4.59D-03    CP:  9.00D-01  3.53D-01  5.34D-01  2.56D-01
 E= -2311.12322027666     Delta-E=       -4.725068698514 Rises=F Damp=F
 DIIS: error= 1.77D-02 at cycle   5 NSaved=   5.
 NSaved= 5 IEnMin= 5 EnMin= -2311.12322027666     IErMin= 5 ErrMin= 1.77D-02
 ErrMax= 1.77D-02  0.00D+00 EMaxC= 1.00D-01 BMatC= 9.81D-01 BMatP= 1.29D+00
 IDIUse=3 WtCom= 8.23D-01 WtEn= 1.77D-01
 EnCoef did     2 forward-backward iterations
 Coeff-Com: -0.785D-01 0.659D+00 0.176D+00-0.519D-01 0.296D+00
 Coeff-En:   0.125D+00 0.000D+00 0.105D+00 0.000D+00 0.771D+00
 Coeff:     -0.425D-01 0.542D+00 0.163D+00-0.427D-01 0.380D+00
 Gap=     0.296 Goal=   None    Shift=    0.000
 Gap=     0.004 Goal=   None    Shift=    0.000
 RMSDP=4.83D-03 MaxDP=2.88D-01 DE=-4.73D+00 OVMax= 7.78D-01

 Cycle   6  Pass 1  IDiag  1:
 RMSU=  3.27D-03    CP:  9.09D-01  1.32D-01  5.74D-01  1.10D-01  4.15D-01
 E= -2311.30734655110     Delta-E=       -0.184126274441 Rises=F Damp=F
 DIIS: error= 1.22D-02 at cycle   6 NSaved=   6.
 NSaved= 6 IEnMin= 6 EnMin= -2311.30734655110     IErMin= 6 ErrMin= 1.22D-02
 ErrMax= 1.22D-02  0.00D+00 EMaxC= 1.00D-01 BMatC= 3.29D-01 BMatP= 9.81D-01
 IDIUse=3 WtCom= 8.78D-01 WtEn= 1.22D-01
 Coeff-Com: -0.652D-01 0.289D+00 0.680D-02-0.465D-01 0.290D+00 0.525D+00
 Coeff-En:   0.000D+00 0.000D+00 0.000D+00 0.000D+00 0.313D+00 0.687D+00
 Coeff:     -0.573D-01 0.254D+00 0.597D-02-0.408D-01 0.293D+00 0.545D+00
 Gap=     0.223 Goal=   None    Shift=    0.000
 Gap=     0.018 Goal=   None    Shift=    0.000
 RMSDP=2.29D-03 MaxDP=1.25D-01 DE=-1.84D-01 OVMax= 2.56D-01

 Cycle   7  Pass 1  IDiag  1:
 RMSU=  1.72D-03    CP:  8.99D-01  2.16D-01  5.55D-01  1.68D-01  6.10D-01
                    CP:  7.69D-01
 E= -2311.39540104337     Delta-E=       -0.088054492274 Rises=F Damp=F
 DIIS: error= 1.42D-02 at cycle   7 NSaved=   7.
 NSaved= 7 IEnMin= 7 EnMin= -2311.39540104337     IErMin= 6 ErrMin= 1.22D-02
 ErrMax= 1.42D-02  0.00D+00 EMaxC= 1.00D-01 BMatC= 1.59D-01 BMatP= 3.29D-01
 IDIUse=3 WtCom= 8.78D-01 WtEn= 1.22D-01
 Coeff-Com:  0.139D-02 0.993D-01-0.452D-01-0.418D-01 0.220D+00 0.259D+00
 Coeff-Com:  0.507D+00
 Coeff-En:   0.000D+00 0.000D+00 0.000D+00 0.000D+00 0.000D+00 0.000D+00
 Coeff-En:   0.100D+01
 Coeff:      0.122D-02 0.872D-01-0.397D-01-0.367D-01 0.194D+00 0.227D+00
 Coeff:      0.567D+00
 Gap=     0.157 Goal=   None    Shift=    0.000
 Gap=     0.036 Goal=   None    Shift=    0.000
 RMSDP=9.99D-04 MaxDP=5.36D-02 DE=-8.81D-02 OVMax= 1.78D-01

 Cycle   8  Pass 1  IDiag  1:
 RMSU=  8.91D-04    CP:  9.01D-01  1.91D-01  5.28D-01  1.59D-01  6.17D-01
                    CP:  7.66D-01  8.24D-01
 E= -2311.41934372821     Delta-E=       -0.023942684837 Rises=F Damp=F
 DIIS: error= 5.07D-03 at cycle   8 NSaved=   8.
 NSaved= 8 IEnMin= 8 EnMin= -2311.41934372821     IErMin= 8 ErrMin= 5.07D-03
 ErrMax= 5.07D-03  0.00D+00 EMaxC= 1.00D-01 BMatC= 3.26D-02 BMatP= 1.59D-01
 IDIUse=3 WtCom= 9.49D-01 WtEn= 5.07D-02
 Coeff-Com:  0.150D-01 0.180D-01-0.389D-01-0.132D-01 0.827D-01 0.563D-01
 Coeff-Com:  0.399D+00 0.481D+00
 Coeff-En:   0.000D+00 0.000D+00 0.000D+00 0.000D+00 0.000D+00 0.000D+00
 Coeff-En:   0.145D+00 0.855D+00
 Coeff:      0.143D-01 0.171D-01-0.369D-01-0.125D-01 0.785D-01 0.534D-01
 Coeff:      0.386D+00 0.500D+00
 Gap=     0.142 Goal=   None    Shift=    0.000
 Gap=     0.027 Goal=   None    Shift=    0.000
 RMSDP=8.59D-04 MaxDP=4.81D-02 DE=-2.39D-02 OVMax= 1.45D-01

 Cycle   9  Pass 1  IDiag  1:
 RMSU=  6.19D-04    CP:  9.00D-01  1.85D-01  5.16D-01  1.65D-01  6.31D-01
                    CP:  7.09D-01  1.08D+00  6.37D-01
 E= -2311.42314736650     Delta-E=       -0.003803638295 Rises=F Damp=F
 DIIS: error= 3.69D-03 at cycle   9 NSaved=   9.
 NSaved= 9 IEnMin= 9 EnMin= -2311.42314736650     IErMin= 9 ErrMin= 3.69D-03
 ErrMax= 3.69D-03  0.00D+00 EMaxC= 1.00D-01 BMatC= 2.23D-02 BMatP= 3.26D-02
 IDIUse=3 WtCom= 9.63D-01 WtEn= 3.69D-02
 Coeff-Com:  0.281D-02 0.862D-02-0.137D-01-0.160D-02 0.255D-01 0.215D-01
 Coeff-Com:  0.579D-03 0.406D+00 0.550D+00
 Coeff-En:   0.000D+00 0.000D+00 0.000D+00 0.000D+00 0.000D+00 0.000D+00
 Coeff-En:   0.000D+00 0.387D+00 0.613D+00
 Coeff:      0.271D-02 0.830D-02-0.132D-01-0.154D-02 0.246D-01 0.207D-01
 Coeff:      0.557D-03 0.405D+00 0.553D+00
 Gap=     0.143 Goal=   None    Shift=    0.000
 Gap=     0.037 Goal=   None    Shift=    0.000
 RMSDP=4.92D-04 MaxDP=3.45D-02 DE=-3.80D-03 OVMax= 1.17D-01

 Cycle  10  Pass 1  IDiag  1:
 RMSU=  2.59D-04    CP:  9.01D-01  1.79D-01  5.09D-01  1.62D-01  6.27D-01
                    CP:  7.40D-01  9.55D-01  9.56D-01  7.20D-01
 E= -2311.42769082955     Delta-E=       -0.004543463046 Rises=F Damp=F
 DIIS: error= 1.49D-03 at cycle  10 NSaved=  10.
 NSaved=10 IEnMin=10 EnMin= -2311.42769082955     IErMin=10 ErrMin= 1.49D-03
 ErrMax= 1.49D-03  0.00D+00 EMaxC= 1.00D-01 BMatC= 3.78D-03 BMatP= 2.23D-02
 IDIUse=3 WtCom= 9.85D-01 WtEn= 1.49D-02
 Coeff-Com: -0.293D-02 0.108D-01-0.577D-02 0.134D-02-0.146D-02 0.125D-01
 Coeff-Com: -0.722D-01 0.159D+00 0.411D+00 0.488D+00
 Coeff-En:   0.000D+00 0.000D+00 0.000D+00 0.000D+00 0.000D+00 0.000D+00
 Coeff-En:   0.000D+00 0.000D+00 0.155D+00 0.845D+00
 Coeff:     -0.289D-02 0.106D-01-0.569D-02 0.132D-02-0.144D-02 0.123D-01
 Coeff:     -0.711D-01 0.157D+00 0.407D+00 0.493D+00
 Gap=     0.140 Goal=   None    Shift=    0.000
 Gap=     0.038 Goal=   None    Shift=    0.000
 RMSDP=1.68D-04 MaxDP=8.28D-03 DE=-4.54D-03 OVMax= 2.69D-02

 Cycle  11  Pass 1  IDiag  1:
 RMSU=  1.18D-04    CP:  9.00D-01  1.79D-01  5.07D-01  1.62D-01  6.29D-01
                    CP:  7.40D-01  9.80D-01  9.67D-01  8.92D-01  9.08D-01
 E= -2311.42862820752     Delta-E=       -0.000937377971 Rises=F Damp=F
 DIIS: error= 8.93D-04 at cycle  11 NSaved=  11.
 NSaved=11 IEnMin=11 EnMin= -2311.42862820752     IErMin=11 ErrMin= 8.93D-04
 ErrMax= 8.93D-04  0.00D+00 EMaxC= 1.00D-01 BMatC= 1.02D-03 BMatP= 3.78D-03
 IDIUse=3 WtCom= 9.91D-01 WtEn= 8.93D-03
 Coeff-Com: -0.192D-02 0.739D-02-0.620D-02 0.129D-02-0.101D-01 0.422D-02
 Coeff-Com: -0.319D-01-0.109D-01 0.154D+00 0.208D+00 0.686D+00
 Coeff-En:   0.000D+00 0.000D+00 0.000D+00 0.000D+00 0.000D+00 0.000D+00
 Coeff-En:   0.000D+00 0.000D+00 0.000D+00 0.000D+00 0.100D+01
 Coeff:     -0.191D-02 0.732D-02-0.614D-02 0.128D-02-0.998D-02 0.418D-02
 Coeff:     -0.317D-01-0.108D-01 0.153D+00 0.206D+00 0.689D+00
 Gap=     0.138 Goal=   None    Shift=    0.000
 Gap=     0.038 Goal=   None    Shift=    0.000
 RMSDP=1.06D-04 MaxDP=3.86D-03 DE=-9.37D-04 OVMax= 1.02D-02

 Cycle  12  Pass 1  IDiag  1:
 RMSU=  6.46D-05    CP:  9.00D-01  1.79D-01  5.04D-01  1.63D-01  6.31D-01
                    CP:  7.42D-01  1.00D+00  9.61D-01  9.48D-01  1.09D+00
                    CP:  1.29D+00
 E= -2311.42882855135     Delta-E=       -0.000200343829 Rises=F Damp=F
 DIIS: error= 8.36D-04 at cycle  12 NSaved=  12.
 NSaved=12 IEnMin=12 EnMin= -2311.42882855135     IErMin=12 ErrMin= 8.36D-04
 ErrMax= 8.36D-04  0.00D+00 EMaxC= 1.00D-01 BMatC= 6.08D-04 BMatP= 1.02D-03
 IDIUse=3 WtCom= 9.92D-01 WtEn= 8.36D-03
 Coeff-Com: -0.237D-03 0.333D-02-0.592D-02 0.935D-03-0.940D-02 0.547D-02
 Coeff-Com: -0.581D-02-0.830D-01-0.285D-01-0.549D-01 0.459D+00 0.719D+00
 Coeff-En:   0.000D+00 0.000D+00 0.000D+00 0.000D+00 0.000D+00 0.000D+00
 Coeff-En:   0.000D+00 0.000D+00 0.000D+00 0.000D+00 0.000D+00 0.100D+01
 Coeff:     -0.235D-03 0.330D-02-0.587D-02 0.928D-03-0.932D-02 0.543D-02
 Coeff:     -0.576D-02-0.823D-01-0.283D-01-0.544D-01 0.455D+00 0.722D+00
 Gap=     0.138 Goal=   None    Shift=    0.000
 Gap=     0.039 Goal=   None    Shift=    0.000
 RMSDP=9.70D-05 MaxDP=4.81D-03 DE=-2.00D-04 OVMax= 8.37D-03

 Cycle  13  Pass 1  IDiag  1:
 RMSU=  4.80D-05    CP:  9.00D-01  1.78D-01  5.00D-01  1.64D-01  6.32D-01
                    CP:  7.44D-01  1.01D+00  9.45D-01  1.00D+00  1.22D+00
                    CP:  1.77D+00  1.06D+00
 E= -2311.42896521519     Delta-E=       -0.000136663843 Rises=F Damp=F
 DIIS: error= 6.02D-04 at cycle  13 NSaved=  13.
 NSaved=13 IEnMin=13 EnMin= -2311.42896521519     IErMin=13 ErrMin= 6.02D-04
 ErrMax= 6.02D-04  0.00D+00 EMaxC= 1.00D-01 BMatC= 2.43D-04 BMatP= 6.08D-04
 IDIUse=3 WtCom= 9.94D-01 WtEn= 6.02D-03
 Coeff-Com: -0.147D-04 0.235D-02-0.260D-02 0.242D-03-0.104D-02 0.953D-02
 Coeff-Com: -0.211D-01-0.114D-01-0.766D-02-0.284D-01-0.876D-01 0.330D+00
 Coeff-Com:  0.817D+00
 Coeff-En:   0.000D+00 0.000D+00 0.000D+00 0.000D+00 0.000D+00 0.000D+00
 Coeff-En:   0.000D+00 0.000D+00 0.000D+00 0.000D+00 0.000D+00 0.000D+00
 Coeff-En:   0.100D+01
 Coeff:     -0.146D-04 0.234D-02-0.258D-02 0.240D-03-0.103D-02 0.947D-02
 Coeff:     -0.210D-01-0.114D-01-0.761D-02-0.282D-01-0.871D-01 0.328D+00
 Coeff:      0.818D+00
 Gap=     0.139 Goal=   None    Shift=    0.000
 Gap=     0.039 Goal=   None    Shift=    0.000
 RMSDP=5.19D-05 MaxDP=2.15D-03 DE=-1.37D-04 OVMax= 7.01D-03

 Cycle  14  Pass 1  IDiag  1:
 RMSU=  3.22D-05    CP:  9.00D-01  1.77D-01  4.99D-01  1.64D-01  6.31D-01
                    CP:  7.47D-01  1.01D+00  9.49D-01  9.94D-01  1.30D+00
                    CP:  1.91D+00  1.36D+00  1.18D+00
 E= -2311.42901496783     Delta-E=       -0.000049752636 Rises=F Damp=F
 DIIS: error= 3.39D-04 at cycle  14 NSaved=  14.
 NSaved=14 IEnMin=14 EnMin= -2311.42901496783     IErMin=14 ErrMin= 3.39D-04
 ErrMax= 3.39D-04  0.00D+00 EMaxC= 1.00D-01 BMatC= 7.61D-05 BMatP= 2.43D-04
 IDIUse=3 WtCom= 9.97D-01 WtEn= 3.39D-03
 Coeff-Com:  0.193D-03 0.476D-03-0.792D-03 0.905D-05-0.645D-05 0.258D-02
 Coeff-Com: -0.221D-01 0.178D-01 0.238D-01 0.105D-01-0.154D+00-0.669D-02
 Coeff-Com:  0.481D+00 0.647D+00
 Coeff-En:   0.000D+00 0.000D+00 0.000D+00 0.000D+00 0.000D+00 0.000D+00
 Coeff-En:   0.000D+00 0.000D+00 0.000D+00 0.000D+00 0.000D+00 0.000D+00
 Coeff-En:   0.000D+00 0.100D+01
 Coeff:      0.192D-03 0.474D-03-0.789D-03 0.902D-05-0.643D-05 0.257D-02
 Coeff:     -0.220D-01 0.177D-01 0.237D-01 0.104D-01-0.153D+00-0.666D-02
 Coeff:      0.480D+00 0.648D+00
 Gap=     0.139 Goal=   None    Shift=    0.000
 Gap=     0.039 Goal=   None    Shift=    0.000
 RMSDP=3.16D-05 MaxDP=1.69D-03 DE=-4.98D-05 OVMax= 6.17D-03

 Cycle  15  Pass 1  IDiag  1:
 RMSU=  1.82D-05    CP:  9.00D-01  1.77D-01  4.97D-01  1.64D-01  6.32D-01
                    CP:  7.46D-01  1.01D+00  9.56D-01  9.99D-01  1.32D+00
                    CP:  1.95D+00  1.43D+00  1.49D+00  1.38D+00
 E= -2311.42903908263     Delta-E=       -0.000024114799 Rises=F Damp=F
 DIIS: error= 7.33D-05 at cycle  15 NSaved=  15.
 NSaved=15 IEnMin=15 EnMin= -2311.42903908263     IErMin=15 ErrMin= 7.33D-05
 ErrMax= 7.33D-05  0.00D+00 EMaxC= 1.00D-01 BMatC= 8.03D-06 BMatP= 7.61D-05
 IDIUse=1 WtCom= 1.00D+00 WtEn= 0.00D+00
 Coeff-Com:  0.401D-04 0.188D-03-0.539D-04-0.587D-04-0.328D-03-0.845D-03
 Coeff-Com: -0.934D-02 0.664D-02 0.162D-01 0.451D-02-0.296D-01-0.399D-01
 Coeff-Com:  0.548D-01 0.268D+00 0.729D+00
 Coeff:      0.401D-04 0.188D-03-0.539D-04-0.587D-04-0.328D-03-0.845D-03
 Coeff:     -0.934D-02 0.664D-02 0.162D-01 0.451D-02-0.296D-01-0.399D-01
 Coeff:      0.548D-01 0.268D+00 0.729D+00
 Gap=     0.139 Goal=   None    Shift=    0.000
 Gap=     0.039 Goal=   None    Shift=    0.000
 RMSDP=2.52D-05 MaxDP=1.62D-03 DE=-2.41D-05 OVMax= 6.00D-03

 Cycle  16  Pass 1  IDiag  1:
 RMSU=  1.15D-05    CP:  9.00D-01  1.77D-01  4.97D-01  1.64D-01  6.32D-01
                    CP:  7.45D-01  1.01D+00  9.58D-01  9.97D-01  1.33D+00
                    CP:  1.98D+00  1.49D+00  1.67D+00  1.85D+00  1.57D+00
 E= -2311.42905120178     Delta-E=       -0.000012119155 Rises=F Damp=F
 DIIS: error= 7.72D-05 at cycle  16 NSaved=  16.
 NSaved=16 IEnMin=16 EnMin= -2311.42905120178     IErMin=15 ErrMin= 7.33D-05
 ErrMax= 7.72D-05  0.00D+00 EMaxC= 1.00D-01 BMatC= 4.22D-06 BMatP= 8.03D-06
 IDIUse=1 WtCom= 1.00D+00 WtEn= 0.00D+00
 Coeff-Com:  0.283D-05 0.119D-03 0.232D-04-0.256D-04-0.448D-03-0.101D-02
 Coeff-Com: -0.246D-02-0.151D-03 0.861D-02 0.133D-02 0.196D-01-0.162D-01
 Coeff-Com: -0.647D-01 0.759D-02 0.389D+00 0.658D+00
 Coeff:      0.283D-05 0.119D-03 0.232D-04-0.256D-04-0.448D-03-0.101D-02
 Coeff:     -0.246D-02-0.151D-03 0.861D-02 0.133D-02 0.196D-01-0.162D-01
 Coeff:     -0.647D-01 0.759D-02 0.389D+00 0.658D+00
 Gap=     0.138 Goal=   None    Shift=    0.000
 Gap=     0.039 Goal=   None    Shift=    0.000
 RMSDP=2.30D-05 MaxDP=1.57D-03 DE=-1.21D-05 OVMax= 5.87D-03

 Cycle  17  Pass 1  IDiag  1:
 RMSU=  5.04D-06    CP:  9.00D-01  1.77D-01  4.97D-01  1.64D-01  6.33D-01
                    CP:  7.44D-01  1.02D+00  9.59D-01  9.94D-01  1.34D+00
                    CP:  2.01D+00  1.55D+00  1.81D+00  2.25D+00  2.27D+00
                    CP:  1.74D+00
 E= -2311.42906175359     Delta-E=       -0.000010551807 Rises=F Damp=F
 DIIS: error= 7.64D-05 at cycle  17 NSaved=  17.
 NSaved=17 IEnMin=17 EnMin= -2311.42906175359     IErMin=15 ErrMin= 7.33D-05
 ErrMax= 7.64D-05  0.00D+00 EMaxC= 1.00D-01 BMatC= 3.89D-06 BMatP= 4.22D-06
 IDIUse=1 WtCom= 1.00D+00 WtEn= 0.00D+00
 Coeff-Com: -0.109D-04 0.110D-03-0.268D-04-0.194D-05-0.337D-03-0.125D-03
 Coeff-Com:  0.419D-03-0.227D-02 0.362D-02-0.432D-03 0.109D-01-0.705D-02
 Coeff-Com: -0.428D-01-0.813D-01-0.546D-01 0.301D+00 0.873D+00
 Coeff:     -0.109D-04 0.110D-03-0.268D-04-0.194D-05-0.337D-03-0.125D-03
 Coeff:      0.419D-03-0.227D-02 0.362D-02-0.432D-03 0.109D-01-0.705D-02
 Coeff:     -0.428D-01-0.813D-01-0.546D-01 0.301D+00 0.873D+00
 Gap=     0.138 Goal=   None    Shift=    0.000
 Gap=     0.038 Goal=   None    Shift=    0.000
 RMSDP=3.40D-05 MaxDP=2.36D-03 DE=-1.06D-05 OVMax= 8.63D-03

 Cycle  18  Pass 1  IDiag  1:
 RMSU=  5.40D-06    CP:  9.00D-01  1.77D-01  4.97D-01  1.64D-01  6.33D-01
                    CP:  7.43D-01  1.02D+00  9.60D-01  9.88D-01  1.36D+00
                    CP:  2.05D+00  1.64D+00  2.04D+00  2.85D+00  3.00D+00
                    CP:  2.91D+00  2.11D+00
 E= -2311.42907700002     Delta-E=       -0.000015246434 Rises=F Damp=F
 DIIS: error= 7.89D-05 at cycle  18 NSaved=  18.
 NSaved=18 IEnMin=18 EnMin= -2311.42907700002     IErMin=15 ErrMin= 7.33D-05
 ErrMax= 7.89D-05  0.00D+00 EMaxC= 1.00D-01 BMatC= 4.27D-06 BMatP= 3.89D-06
 IDIUse=1 WtCom= 1.00D+00 WtEn= 0.00D+00
 Coeff-Com: -0.104D-04 0.108D-03-0.252D-04-0.235D-05-0.339D-03-0.128D-03
 Coeff-Com:  0.429D-03-0.230D-02 0.354D-02-0.486D-03 0.114D-01-0.661D-02
 Coeff-Com: -0.440D-01-0.827D-01-0.531D-01 0.311D+00 0.900D+00-0.375D-01
 Coeff:     -0.104D-04 0.108D-03-0.252D-04-0.235D-05-0.339D-03-0.128D-03
 Coeff:      0.429D-03-0.230D-02 0.354D-02-0.486D-03 0.114D-01-0.661D-02
 Coeff:     -0.440D-01-0.827D-01-0.531D-01 0.311D+00 0.900D+00-0.375D-01
 Gap=     0.138 Goal=   None    Shift=    0.000
 Gap=     0.038 Goal=   None    Shift=    0.000
 RMSDP=1.46D-06 MaxDP=1.01D-04 DE=-1.52D-05 OVMax= 3.71D-04

 Cycle  19  Pass 1  IDiag  1:
 RMSU=  3.52D-07    CP:  9.00D-01  1.77D-01  4.97D-01  1.64D-01  6.33D-01
                    CP:  7.43D-01  1.02D+00  9.60D-01  9.88D-01  1.36D+00
                    CP:  2.05D+00  1.64D+00  2.03D+00  2.82D+00  3.00D+00
                    CP:  2.85D+00  2.05D+00  8.73D-01
 E= -2311.42907633964     Delta-E=        0.000000660379 Rises=F Damp=F
 DIIS: error= 7.88D-05 at cycle  19 NSaved=  19.
 NSaved=19 IEnMin=18 EnMin= -2311.42907700002     IErMin=15 ErrMin= 7.33D-05
 ErrMax= 7.88D-05  0.00D+00 EMaxC= 1.00D-01 BMatC= 4.28D-06 BMatP= 3.89D-06
 IDIUse=1 WtCom= 1.00D+00 WtEn= 0.00D+00
 Large coefficients: NSaved= 19 BigCof=   12.47 CofMax=   10.00 Det=-3.89D-11
 Inversion failed.  Reducing to 18 matrices.
 Large coefficients: NSaved= 18 BigCof=   12.47 CofMax=   10.00 Det=-3.89D-11
 Inversion failed.  Reducing to 17 matrices.
 Large coefficients: NSaved= 17 BigCof=   12.33 CofMax=   10.00 Det=-3.91D-11
 Inversion failed.  Reducing to 16 matrices.
 Large coefficients: NSaved= 16 BigCof=   10.67 CofMax=   10.00 Det=-4.00D-11
 Inversion failed.  Reducing to 15 matrices.
 Large coefficients: NSaved= 15 BigCof=   10.15 CofMax=   10.00 Det=-4.05D-11
 Inversion failed.  Reducing to 14 matrices.
 Large coefficients: NSaved= 14 BigCof=   14.96 CofMax=   10.00 Det=-4.20D-11
 Inversion failed.  Reducing to 13 matrices.
 Large coefficients: NSaved= 13 BigCof=   15.60 CofMax=   10.00 Det=-6.18D-11
 Inversion failed.  Reducing to 12 matrices.
 Large coefficients: NSaved= 12 BigCof=   14.87 CofMax=   10.00 Det=-6.79D-11
 Inversion failed.  Reducing to 11 matrices.
 Large coefficients: NSaved= 11 BigCof=   13.57 CofMax=   10.00 Det=-7.79D-11
 Inversion failed.  Reducing to 10 matrices.
 Large coefficients: NSaved= 10 BigCof=   12.30 CofMax=   10.00 Det=-7.79D-11
 Inversion failed.  Reducing to  9 matrices.
 Large coefficients: NSaved=  9 BigCof=   15.01 CofMax=   10.00 Det=-7.85D-11
 Inversion failed.  Reducing to  8 matrices.
 Large coefficients: NSaved=  8 BigCof=   15.79 CofMax=   10.00 Det=-7.85D-11
 Inversion failed.  Reducing to  7 matrices.
 Large coefficients: NSaved=  7 BigCof=   16.62 CofMax=   10.00 Det=-7.86D-11
 Inversion failed.  Reducing to  6 matrices.
 Large coefficients: NSaved=  6 BigCof=   22.60 CofMax=   10.00 Det=-8.08D-11
 Inversion failed.  Reducing to  5 matrices.
 Large coefficients: NSaved=  5 BigCof=   36.07 CofMax=   10.00 Det=-8.25D-11
 Inversion failed.  Reducing to  4 matrices.
 Large coefficients: NSaved=  4 BigCof=   41.89 CofMax=   10.00 Det=-9.13D-11
 Inversion failed.  Reducing to  3 matrices.
 Large coefficients: NSaved=  3 BigCof=   22.13 CofMax=   10.00 Det=-1.03D-10
 Inversion failed.  Reducing to  2 matrices.
 Large coefficients: NSaved=  2 BigCof=   30.70 CofMax=   10.00 Det=-1.05D-10
 Coeff-Com:  0.307D+02-0.297D+02
 Coeff:      0.307D+02-0.297D+02
 Gap=     0.138 Goal=   None    Shift=    0.000
 Gap=     0.038 Goal=   None    Shift=    0.000
 RMSDP=7.40D-05 MaxDP=4.88D-03 DE= 6.60D-07 OVMax= 1.83D-02

 Cycle  20  Pass 1  IDiag  1:
 RMSU=  5.27D-05    CP:  9.00D-01  1.77D-01  4.96D-01  1.64D-01  6.34D-01
                    CP:  7.41D-01  1.03D+00  9.50D-01  9.85D-01  1.38D+00
                    CP:  2.15D+00  1.81D+00  2.55D+00  3.00D+00  3.00D+00
                    CP:  3.00D+00  3.00D+00  3.00D+00 -3.00D+00
 E= -2311.42910700621     Delta-E=       -0.000030666563 Rises=F Damp=F
 DIIS: error= 1.29D-04 at cycle  20 NSaved=   3.
 NSaved= 3 IEnMin= 3 EnMin= -2311.42910700621     IErMin= 2 ErrMin= 7.88D-05
 ErrMax= 1.29D-04  0.00D+00 EMaxC= 1.00D-01 BMatC= 1.24D-05 BMatP= 4.27D-06
 IDIUse=1 WtCom= 1.00D+00 WtEn= 0.00D+00
 Large coefficients: NSaved=  3 BigCof=   26.59 CofMax=   10.00 Det=-1.05D-10
 Inversion failed.  Reducing to  2 matrices.
 Coeff-Com:  0.702D+00 0.298D+00
 Coeff:      0.702D+00 0.298D+00
 Gap=     0.138 Goal=   None    Shift=    0.000
 Gap=     0.038 Goal=   None    Shift=    0.000
 RMSDP=2.54D-05 MaxDP=1.38D-03 DE=-3.07D-05 OVMax= 5.38D-03

 Cycle  21  Pass 1  IDiag  1:
 Restarting incremental Fock formation.
 E= -2311.42909919076     Delta-E=        0.000007815443 Rises=F Damp=F
 DIIS: error= 8.85D-05 at cycle  21 NSaved=   3.
 NSaved= 3 IEnMin= 2 EnMin= -2311.42910700621     IErMin= 1 ErrMin= 7.88D-05
 ErrMax= 8.85D-05  0.00D+00 EMaxC= 1.00D-01 BMatC= 4.88D-06 BMatP= 4.28D-06
 IDIUse=1 WtCom= 1.00D+00 WtEn= 0.00D+00
 Coeff-Com:  0.352D+00 0.300D+00 0.348D+00
 Coeff:      0.352D+00 0.300D+00 0.348D+00
 Gap=     0.138 Goal=   None    Shift=    0.000
 Gap=     0.038 Goal=   None    Shift=    0.000
 RMSDP=1.84D-05 MaxDP=1.22D-03 DE= 7.82D-06 OVMax= 4.61D-03

 Cycle  22  Pass 1  IDiag  1:
 RMSU=  1.84D-05    CP:  1.00D+00
 E= -2311.42910761863     Delta-E=       -0.000008427867 Rises=F Damp=F
 DIIS: error= 8.02D-05 at cycle  22 NSaved=   4.
 NSaved= 4 IEnMin= 4 EnMin= -2311.42910761863     IErMin= 1 ErrMin= 7.88D-05
 ErrMax= 8.02D-05  0.00D+00 EMaxC= 1.00D-01 BMatC= 4.27D-06 BMatP= 4.28D-06
 IDIUse=1 WtCom= 1.00D+00 WtEn= 0.00D+00
 Coeff-Com:  0.315D+00 0.300D+00 0.351D+00 0.343D-01
 Coeff:      0.315D+00 0.300D+00 0.351D+00 0.343D-01
 Gap=     0.138 Goal=   None    Shift=    0.000
 Gap=     0.038 Goal=   None    Shift=    0.000
 RMSDP=2.50D-06 MaxDP=1.71D-04 DE=-8.43D-06 OVMax= 6.28D-04

 Cycle  23  Pass 1  IDiag  1:
 RMSU=  4.23D-07    CP:  1.00D+00  1.13D+00
 E= -2311.42910875004     Delta-E=       -0.000001131407 Rises=F Damp=F
 DIIS: error= 8.02D-05 at cycle  23 NSaved=   5.
 NSaved= 5 IEnMin= 5 EnMin= -2311.42910875004     IErMin= 1 ErrMin= 7.88D-05
 ErrMax= 8.02D-05  0.00D+00 EMaxC= 1.00D-01 BMatC= 4.29D-06 BMatP= 4.27D-06
 IDIUse=1 WtCom= 1.00D+00 WtEn= 0.00D+00
 Large coefficients: NSaved=  5 BigCof=   16.27 CofMax=   10.00 Det=-1.02D-10
 Inversion failed.  Reducing to  4 matrices.
 Coeff-Com:  0.287D+00 0.423D+00 0.506D+01-0.477D+01
 Coeff:      0.287D+00 0.423D+00 0.506D+01-0.477D+01
 Gap=     0.138 Goal=   None    Shift=    0.000
 Gap=     0.038 Goal=   None    Shift=    0.000
 RMSDP=8.53D-06 MaxDP=5.89D-04 DE=-1.13D-06 OVMax= 2.15D-03

 Cycle  24  Pass 1  IDiag  1:
 RMSU=  1.07D-06    CP:  1.00D+00  1.59D+00  3.00D+00
 E= -2311.42911252883     Delta-E=       -0.000003778787 Rises=F Damp=F
 DIIS: error= 7.97D-05 at cycle  24 NSaved=   5.
 NSaved= 5 IEnMin= 5 EnMin= -2311.42911252883     IErMin= 5 ErrMin= 7.97D-05
 ErrMax= 7.97D-05  0.00D+00 EMaxC= 1.00D-01 BMatC= 4.59D-06 BMatP= 4.27D-06
 IDIUse=1 WtCom= 1.00D+00 WtEn= 0.00D+00
 Large coefficients: NSaved=  5 BigCof=   76.57 CofMax=   10.00 Det=-6.67D-12
 Inversion failed.  Reducing to  4 matrices.
 Large coefficients: NSaved=  4 BigCof=   71.29 CofMax=   10.00 Det=-2.27D-11
 Inversion failed.  Reducing to  3 matrices.
 Large coefficients: NSaved=  3 BigCof=   72.55 CofMax=   10.00 Det=-2.27D-11
 Inversion failed.  Reducing to  2 matrices.
 Coeff-Com:  0.260D+01-0.160D+01
 Coeff:      0.260D+01-0.160D+01
 Gap=     0.138 Goal=   None    Shift=    0.000
 Gap=     0.038 Goal=   None    Shift=    0.000
 RMSDP=1.00D-05 MaxDP=5.16D-04 DE=-3.78D-06 OVMax= 1.53D-03

 Cycle  25  Pass 1  IDiag  1:
 RMSU=  7.99D-06    CP:  1.00D+00  1.92D+00  3.00D+00  7.36D-01
 E= -2311.42911442124     Delta-E=       -0.000001892416 Rises=F Damp=F
 DIIS: error= 9.36D-05 at cycle  25 NSaved=   3.
 NSaved= 3 IEnMin= 3 EnMin= -2311.42911442124     IErMin= 2 ErrMin= 7.97D-05
 ErrMax= 9.36D-05  0.00D+00 EMaxC= 1.00D-01 BMatC= 9.02D-06 BMatP= 4.29D-06
 IDIUse=1 WtCom= 1.00D+00 WtEn= 0.00D+00
 Coeff-Com:  0.204D+01-0.139D+01 0.344D+00
 Coeff:      0.204D+01-0.139D+01 0.344D+00
 Gap=     0.138 Goal=   None    Shift=    0.000
 Gap=     0.038 Goal=   None    Shift=    0.000
 RMSDP=1.13D-05 MaxDP=6.28D-04 DE=-1.89D-06 OVMax= 2.31D-03

 Cycle  26  Pass 1  IDiag  1:
 RMSU=  1.58D-06    CP:  1.00D+00  2.36D+00  3.00D+00  2.43D+00  6.84D-02
 E= -2311.42911897981     Delta-E=       -0.000004558571 Rises=F Damp=F
 DIIS: error= 8.12D-05 at cycle  26 NSaved=   4.
 NSaved= 4 IEnMin= 4 EnMin= -2311.42911897981     IErMin= 2 ErrMin= 7.97D-05
 ErrMax= 8.12D-05  0.00D+00 EMaxC= 1.00D-01 BMatC= 4.85D-06 BMatP= 4.29D-06
 IDIUse=1 WtCom= 1.00D+00 WtEn= 0.00D+00
 Coeff-Com:  0.206D+01-0.132D+01 0.341D+00-0.870D-01
 Coeff:      0.206D+01-0.132D+01 0.341D+00-0.870D-01
 Gap=     0.138 Goal=   None    Shift=    0.000
 Gap=     0.038 Goal=   None    Shift=    0.000
 RMSDP=1.42D-06 MaxDP=9.54D-05 DE=-4.56D-06 OVMax= 3.53D-04

 Cycle  27  Pass 1  IDiag  1:
 RMSU=  8.75D-08    CP:  1.00D+00  2.28D+00  3.00D+00  2.29D+00  5.68D-02
                    CP:  9.38D-01
 E= -2311.42911832823     Delta-E=        0.000000651586 Rises=F Damp=F
 DIIS: error= 8.13D-05 at cycle  27 NSaved=   5.
 NSaved= 5 IEnMin= 4 EnMin= -2311.42911897981     IErMin= 2 ErrMin= 7.97D-05
 ErrMax= 8.13D-05  0.00D+00 EMaxC= 1.00D-01 BMatC= 4.87D-06 BMatP= 4.29D-06
 IDIUse=1 WtCom= 1.00D+00 WtEn= 0.00D+00
 Large coefficients: NSaved=  5 BigCof=   25.48 CofMax=   10.00 Det=-3.03D-11
 Inversion failed.  Reducing to  4 matrices.
 Large coefficients: NSaved=  4 BigCof=   35.31 CofMax=   10.00 Det=-1.25D-10
 Inversion failed.  Reducing to  3 matrices.
 Coeff-Com:  0.370D+00 0.511D+01-0.448D+01
 Coeff:      0.370D+00 0.511D+01-0.448D+01
 Gap=     0.138 Goal=   None    Shift=    0.000
 Gap=     0.038 Goal=   None    Shift=    0.000
 RMSDP=3.46D-05 MaxDP=2.27D-03 DE= 6.52D-07 OVMax= 8.57D-03

 Cycle  28  Pass 1  IDiag  1:
 RMSU=  2.12D-05    CP:  1.00D+00  3.00D+00  3.00D+00  2.64D+00  3.91D-01
                    CP:  2.64D+00 -2.95D+00
 E= -2311.42913387015     Delta-E=       -0.000015541925 Rises=F Damp=F
 DIIS: error= 8.42D-05 at cycle  28 NSaved=   4.
 NSaved= 4 IEnMin= 4 EnMin= -2311.42913387015     IErMin= 2 ErrMin= 8.12D-05
 ErrMax= 8.42D-05  0.00D+00 EMaxC= 1.00D-01 BMatC= 5.60D-06 BMatP= 4.85D-06
 IDIUse=1 WtCom= 1.00D+00 WtEn= 0.00D+00
 Coeff-Com:  0.369D+00 0.147D+01-0.114D+01 0.303D+00
 Coeff:      0.369D+00 0.147D+01-0.114D+01 0.303D+00
 Gap=     0.138 Goal=   None    Shift=    0.000
 Gap=     0.038 Goal=   None    Shift=    0.000
 RMSDP=6.60D-06 MaxDP=4.01D-04 DE=-1.55D-05 OVMax= 1.34D-03

 Cycle  29  Pass 1  IDiag  1:
 RMSU=  4.16D-06    CP:  1.00D+00  3.00D+00  3.00D+00  3.00D+00  3.41D-01
                    CP:  3.00D+00 -3.00D+00  1.22D+00
 E= -2311.42913636137     Delta-E=       -0.000002491221 Rises=F Damp=F
 DIIS: error= 8.16D-05 at cycle  29 NSaved=   5.
 NSaved= 5 IEnMin= 5 EnMin= -2311.42913636137     IErMin= 2 ErrMin= 8.12D-05
 ErrMax= 8.16D-05  0.00D+00 EMaxC= 1.00D-01 BMatC= 4.91D-06 BMatP= 4.85D-06
 IDIUse=1 WtCom= 1.00D+00 WtEn= 0.00D+00
 Coeff-Com:  0.372D+00 0.678D+00-0.917D+00 0.313D+00 0.555D+00
 Coeff:      0.372D+00 0.678D+00-0.917D+00 0.313D+00 0.555D+00
 Gap=     0.138 Goal=   None    Shift=    0.000
 Gap=     0.038 Goal=   None    Shift=    0.000
 RMSDP=2.13D-05 MaxDP=1.42D-03 DE=-2.49D-06 OVMax= 5.30D-03

 Cycle  30  Pass 1  IDiag  1:
 RMSU=  1.77D-06    CP:  1.00D+00  3.00D+00  3.00D+00  3.00D+00  5.03D-01
                    CP:  3.00D+00 -3.00D+00  2.21D+00  1.61D+00
 E= -2311.42914605290     Delta-E=       -0.000009691526 Rises=F Damp=F
 DIIS: error= 8.19D-05 at cycle  30 NSaved=   6.
 NSaved= 6 IEnMin= 6 EnMin= -2311.42914605290     IErMin= 2 ErrMin= 8.12D-05
 ErrMax= 8.19D-05  0.00D+00 EMaxC= 1.00D-01 BMatC= 5.01D-06 BMatP= 4.85D-06
 IDIUse=1 WtCom= 1.00D+00 WtEn= 0.00D+00
 Coeff-Com:  0.366D+00 0.148D+01-0.140D+01 0.322D+00 0.554D+00-0.319D+00
 Coeff:      0.366D+00 0.148D+01-0.140D+01 0.322D+00 0.554D+00-0.319D+00
 Gap=     0.138 Goal=   None    Shift=    0.000
 Gap=     0.038 Goal=   None    Shift=    0.000
 RMSDP=1.80D-05 MaxDP=1.20D-03 DE=-9.69D-06 OVMax= 4.47D-03

 Cycle  31  Pass 1  IDiag  1:
 RMSU=  5.82D-07    CP:  1.00D+00  3.00D+00  3.00D+00  3.00D+00  3.62D-01
                    CP:  3.00D+00 -3.00D+00  1.38D+00  1.05D+00  1.58D-01
 E= -2311.42913786323     Delta-E=        0.000008189664 Rises=F Damp=F
 DIIS: error= 8.17D-05 at cycle  31 NSaved=   7.
 NSaved= 7 IEnMin= 6 EnMin= -2311.42914605290     IErMin= 2 ErrMin= 8.12D-05
 ErrMax= 8.17D-05  0.00D+00 EMaxC= 1.00D-01 BMatC= 4.97D-06 BMatP= 4.85D-06
 IDIUse=1 WtCom= 1.00D+00 WtEn= 0.00D+00
 Coeff-Com:  0.354D+00 0.174D+01-0.153D+01 0.322D+00 0.657D+00-0.351D+01
 Coeff-Com:  0.296D+01
 Coeff:      0.354D+00 0.174D+01-0.153D+01 0.322D+00 0.657D+00-0.351D+01
 Coeff:      0.296D+01
 Gap=     0.138 Goal=   None    Shift=    0.000
 Gap=     0.038 Goal=   None    Shift=    0.000
 RMSDP=6.26D-05 MaxDP=4.18D-03 DE= 8.19D-06 OVMax= 1.55D-02

 Cycle  32  Pass 1  IDiag  1:
 RMSU=  8.77D-07    CP:  1.00D+00  1.22D+00  3.00D+00  9.29D-01 -1.78D-01
                    CP: -4.12D-01  3.00D+00  1.81D-03 -3.87D-02 -1.68D-01
                    CP: -3.83D-01
 E= -2311.42910912910     Delta-E=        0.000028734136 Rises=F Damp=F
 DIIS: error= 8.27D-05 at cycle  32 NSaved=   8.
 NSaved= 8 IEnMin= 6 EnMin= -2311.42914605290     IErMin= 2 ErrMin= 8.12D-05
 ErrMax= 8.27D-05  0.00D+00 EMaxC= 1.00D-01 BMatC= 6.07D-06 BMatP= 4.85D-06
 IDIUse=1 WtCom= 1.00D+00 WtEn= 0.00D+00
 Coeff-Com:  0.382D+00 0.149D+01-0.167D+01 0.393D+00 0.623D+00-0.567D+01
 Coeff-Com:  0.492D+01 0.530D+00
 Coeff:      0.382D+00 0.149D+01-0.167D+01 0.393D+00 0.623D+00-0.567D+01
 Coeff:      0.492D+01 0.530D+00
 Gap=     0.138 Goal=   None    Shift=    0.000
 Gap=     0.039 Goal=   None    Shift=    0.000
 RMSDP=5.78D-05 MaxDP=3.89D-03 DE= 2.87D-05 OVMax= 1.43D-02

 Cycle  33  Pass 1  IDiag  1:
 RMSU=  1.34D-06    CP:  1.00D+00 -1.89D+00 -3.00D+00 -2.35D+00 -5.61D-01
                    CP: -3.00D+00  3.00D+00  5.97D-03 -1.42D-01 -1.56D-01
                    CP: -9.68D-03  2.86D+00
 E= -2311.42908244808     Delta-E=        0.000026681017 Rises=F Damp=F
 DIIS: error= 9.64D-05 at cycle  33 NSaved=   9.
 NSaved= 9 IEnMin= 6 EnMin= -2311.42914605290     IErMin= 2 ErrMin= 8.12D-05
 ErrMax= 9.64D-05  0.00D+00 EMaxC= 1.00D-01 BMatC= 8.28D-06 BMatP= 4.85D-06
 IDIUse=1 WtCom= 1.00D+00 WtEn= 0.00D+00
 Coeff-Com:  0.389D+00 0.305D+01-0.257D+01 0.434D+00 0.598D+00-0.512D+01
 Coeff-Com:  0.427D+01-0.570D+00 0.518D+00
 Coeff:      0.389D+00 0.305D+01-0.257D+01 0.434D+00 0.598D+00-0.512D+01
 Coeff:      0.427D+01-0.570D+00 0.518D+00
 Gap=     0.138 Goal=   None    Shift=    0.000
 Gap=     0.039 Goal=   None    Shift=    0.000
 RMSDP=1.04D-05 MaxDP=7.22D-04 DE= 2.67D-05 OVMax= 2.63D-03

 Cycle  34  Pass 1  IDiag  1:
 RMSU=  3.42D-07    CP:  1.00D+00 -2.44D+00 -3.00D+00 -3.00D+00 -5.79D-01
                    CP: -3.00D+00  3.00D+00  6.43D-03 -3.69D-01 -3.27D-01
                    CP:  1.24D+00  2.66D+00  1.30D+00
 E= -2311.42907790672     Delta-E=        0.000004541362 Rises=F Damp=F
 DIIS: error= 9.23D-05 at cycle  34 NSaved=  10.
 NSaved=10 IEnMin= 6 EnMin= -2311.42914605290     IErMin= 2 ErrMin= 8.12D-05
 ErrMax= 9.23D-05  0.00D+00 EMaxC= 1.00D-01 BMatC= 7.72D-06 BMatP= 4.85D-06
 IDIUse=1 WtCom= 1.00D+00 WtEn= 0.00D+00
 Large coefficients: NSaved= 10 BigCof=   11.71 CofMax=   10.00 Det=-1.84D-10
 Inversion failed.  Reducing to  9 matrices.
 Coeff-Com:  0.349D+00 0.478D+00-0.957D+00 0.289D+00 0.810D+00-0.552D+01
 Coeff-Com:  0.485D+01-0.461D+01 0.531D+01
 Coeff:      0.349D+00 0.478D+00-0.957D+00 0.289D+00 0.810D+00-0.552D+01
 Coeff:      0.485D+01-0.461D+01 0.531D+01
 Gap=     0.139 Goal=   None    Shift=    0.000
 Gap=     0.039 Goal=   None    Shift=    0.000
 RMSDP=7.95D-05 MaxDP=5.45D-03 DE= 4.54D-06 OVMax= 1.98D-02

 Cycle  35  Pass 1  IDiag  1:
 RMSU=  7.78D-06    CP:  1.00D+00 -3.00D+00 -3.00D+00 -3.00D+00 -9.99D-01
                    CP: -3.00D+00  3.00D+00 -3.00D+00 -2.86D+00 -3.00D+00
                    CP:  3.00D+00  3.00D+00  3.00D+00  3.00D+00
 E= -2311.42904166785     Delta-E=        0.000036238869 Rises=F Damp=F
 DIIS: error= 1.12D-04 at cycle  35 NSaved=  10.
 NSaved=10 IEnMin= 6 EnMin= -2311.42914605290     IErMin= 2 ErrMin= 8.12D-05
 ErrMax= 1.12D-04  0.00D+00 EMaxC= 1.00D-01 BMatC= 1.08D-05 BMatP= 4.85D-06
 IDIUse=1 WtCom= 1.00D+00 WtEn= 0.00D+00
 Large coefficients: NSaved= 10 BigCof=   22.96 CofMax=   10.00 Det=-1.78D-10
 Inversion failed.  Reducing to  9 matrices.
 Coeff-Com:  0.407D+00 0.227D+01-0.241D+01 0.466D+00 0.620D+00-0.756D+01
 Coeff-Com:  0.656D+01 0.854D+00-0.210D+00
 Coeff:      0.407D+00 0.227D+01-0.241D+01 0.466D+00 0.620D+00-0.756D+01
 Coeff:      0.656D+01 0.854D+00-0.210D+00
 Gap=     0.138 Goal=   None    Shift=    0.000
 Gap=     0.039 Goal=   None    Shift=    0.000
 RMSDP=1.97D-05 MaxDP=1.40D-03 DE= 3.62D-05 OVMax= 5.02D-03

 Cycle  36  Pass 1  IDiag  1:
 RMSU=  2.75D-06    CP:  1.00D+00 -3.00D+00 -3.00D+00 -3.00D+00 -1.11D+00
                    CP: -3.00D+00  3.00D+00 -2.29D+00 -1.87D+00 -2.71D+00
                    CP:  3.00D+00  3.00D+00  3.00D+00  3.00D+00  4.70D-01
 E= -2311.42904919886     Delta-E=       -0.000007531008 Rises=F Damp=F
 DIIS: error= 1.32D-04 at cycle  36 NSaved=  10.
 NSaved=10 IEnMin= 6 EnMin= -2311.42914605290     IErMin= 2 ErrMin= 8.12D-05
 ErrMax= 1.32D-04  0.00D+00 EMaxC= 1.00D-01 BMatC= 1.46D-05 BMatP= 4.85D-06
 IDIUse=1 WtCom= 1.00D+00 WtEn= 0.00D+00
 Large coefficients: NSaved= 10 BigCof=   45.25 CofMax=   10.00 Det=-1.56D-10
 Inversion failed.  Reducing to  9 matrices.
 Coeff-Com:  0.316D+00 0.357D+00-0.403D+00 0.209D+00 0.691D+00-0.103D+01
 Coeff-Com:  0.877D+00 0.397D+00-0.415D+00
 Coeff:      0.316D+00 0.357D+00-0.403D+00 0.209D+00 0.691D+00-0.103D+01
 Coeff:      0.877D+00 0.397D+00-0.415D+00
 Gap=     0.138 Goal=   None    Shift=    0.000
 Gap=     0.038 Goal=   None    Shift=    0.000
 RMSDP=1.80D-04 MaxDP=1.21D-02 DE=-7.53D-06 OVMax= 4.49D-02

 Cycle  37  Pass 1  IDiag  1:
 RMSU=  4.83D-07    CP:  1.00D+00  3.00D+00  3.00D+00  3.00D+00  2.73D-01
                    CP:  2.53D+00 -3.00D+00  8.88D-01  7.58D-01 -9.21D-03
                    CP:  4.23D-01 -1.81D-01  4.49D-02 -1.47D-02 -5.86D-03
                    CP: -2.05D-02
 E= -2311.42913307341     Delta-E=       -0.000083874550 Rises=F Damp=F
 DIIS: error= 8.12D-05 at cycle  37 NSaved=  10.
 NSaved=10 IEnMin= 6 EnMin= -2311.42914605290     IErMin= 2 ErrMin= 8.12D-05
 ErrMax= 8.12D-05  0.00D+00 EMaxC= 1.00D-01 BMatC= 4.94D-06 BMatP= 4.85D-06
 IDIUse=1 WtCom= 1.00D+00 WtEn= 0.00D+00
 Large coefficients: NSaved= 10 BigCof=   11.90 CofMax=   10.00 Det=-1.18D-10
 Inversion failed.  Reducing to  9 matrices.
 Coeff-Com:  0.340D+00 0.135D+01-0.120D+01 0.280D+00 0.680D+00-0.281D+01
 Coeff-Com:  0.239D+01-0.510D-01 0.244D-01
 Coeff:      0.340D+00 0.135D+01-0.120D+01 0.280D+00 0.680D+00-0.281D+01
 Coeff:      0.239D+01-0.510D-01 0.244D-01
 Gap=     0.138 Goal=   None    Shift=    0.000
 Gap=     0.038 Goal=   None    Shift=    0.000
 RMSDP=2.69D-05 MaxDP=1.78D-03 DE=-8.39D-05 OVMax= 6.65D-03

 Cycle  38  Pass 1  IDiag  1:
 RMSU=  1.09D-07    CP:  1.00D+00  2.58D+00  3.00D+00  3.00D+00 -5.09D-04
                    CP:  1.02D+00 -4.57D-01  1.82D-03  1.29D-01 -2.50D-01
                    CP: -6.08D-01  7.70D-01  4.09D-02  5.29D-02  1.10D-03
                    CP:  2.74D-03  1.04D-01
 E= -2311.42912060868     Delta-E=        0.000012464728 Rises=F Damp=F
 DIIS: error= 8.27D-05 at cycle  38 NSaved=  10.
 NSaved=10 IEnMin= 6 EnMin= -2311.42914605290     IErMin= 2 ErrMin= 8.12D-05
 ErrMax= 8.27D-05  0.00D+00 EMaxC= 1.00D-01 BMatC= 5.97D-06 BMatP= 4.85D-06
 IDIUse=1 WtCom= 1.00D+00 WtEn= 0.00D+00
 Coeff-Com:  0.340D+00 0.308D+01-0.216D+01 0.302D+00 0.678D+00-0.176D+01
 Coeff-Com:  0.129D+01 0.185D+00 0.404D+00-0.136D+01
 Coeff:      0.340D+00 0.308D+01-0.216D+01 0.302D+00 0.678D+00-0.176D+01
 Coeff:      0.129D+01 0.185D+00 0.404D+00-0.136D+01
 Gap=     0.138 Goal=   None    Shift=    0.000
 Gap=     0.038 Goal=   None    Shift=    0.000
 RMSDP=1.03D-05 MaxDP=7.24D-04 DE= 1.25D-05 OVMax= 2.61D-03

 Cycle  39  Pass 1  IDiag  1:
 RMSU=  2.55D-07    CP:  1.00D+00  2.03D+00  3.00D+00  1.54D+00  4.48D-02
                    CP:  4.73D-01  1.67D+00  7.86D-04 -7.00D-03 -9.69D-02
                    CP: -3.01D-01 -9.12D-03  6.22D-02  1.67D-02 -2.99D-04
                    CP: -1.44D-02  1.66D-01  7.50D-01
 E= -2311.42911628034     Delta-E=        0.000004328336 Rises=F Damp=F
 DIIS: error= 8.09D-05 at cycle  39 NSaved=  11.
 NSaved=11 IEnMin= 6 EnMin= -2311.42914605290     IErMin=11 ErrMin= 8.09D-05
 ErrMax= 8.09D-05  0.00D+00 EMaxC= 1.00D-01 BMatC= 4.61D-06 BMatP= 4.85D-06
 IDIUse=1 WtCom= 1.00D+00 WtEn= 0.00D+00
 Coeff-Com:  0.319D+00 0.241D+01-0.156D+01 0.230D+00 0.753D+00-0.496D+00
 Coeff-Com:  0.210D+00 0.517D+00 0.109D+01-0.349D+01 0.103D+01
 Coeff:      0.319D+00 0.241D+01-0.156D+01 0.230D+00 0.753D+00-0.496D+00
 Coeff:      0.210D+00 0.517D+00 0.109D+01-0.349D+01 0.103D+01
 Gap=     0.138 Goal=   None    Shift=    0.000
 Gap=     0.038 Goal=   None    Shift=    0.000
 RMSDP=1.37D-05 MaxDP=9.59D-04 DE= 4.33D-06 OVMax= 3.43D-03

 Cycle  40  Pass 1  IDiag  1:
 RMSU=  1.43D-07    CP:  1.00D+00  1.31D+00  5.10D-01 -2.68D-01  1.37D-01
                    CP: -9.07D-02  3.00D+00  3.78D-04 -2.28D-03 -2.97D-02
                    CP: -1.32D-01 -9.86D-01  3.51D-01 -1.00D+00 -7.73D-03
                    CP: -5.85D-02  9.18D-01 -6.04D-01  2.26D+00
 E= -2311.42911036030     Delta-E=        0.000005920044 Rises=F Damp=F
 DIIS: error= 7.93D-05 at cycle  40 NSaved=  12.
 NSaved=12 IEnMin= 6 EnMin= -2311.42914605290     IErMin=12 ErrMin= 7.93D-05
 ErrMax= 7.93D-05  0.00D+00 EMaxC= 1.00D-01 BMatC= 3.42D-06 BMatP= 4.61D-06
 IDIUse=1 WtCom= 1.00D+00 WtEn= 0.00D+00
 Large coefficients: NSaved= 12 BigCof=   10.54 CofMax=   10.00 Det=-7.40D-11
 Inversion failed.  Reducing to 11 matrices.
 Coeff-Com:  0.320D+00-0.929D+01 0.475D+01 0.826D-01 0.628D+00-0.418D+01
 Coeff-Com:  0.469D+01-0.105D+01 0.694D+01-0.684D+01 0.496D+01
 Coeff:      0.320D+00-0.929D+01 0.475D+01 0.826D-01 0.628D+00-0.418D+01
 Coeff:      0.469D+01-0.105D+01 0.694D+01-0.684D+01 0.496D+01
 Gap=     0.138 Goal=   None    Shift=    0.000
 Gap=     0.039 Goal=   None    Shift=    0.000
 RMSDP=4.76D-05 MaxDP=3.09D-03 DE= 5.92D-06 OVMax= 1.14D-02

 Cycle  41  Pass 1  IDiag  1:
 Restarting incremental Fock formation.
 E= -2311.42908822958     Delta-E=        0.000022130717 Rises=F Damp=F
 DIIS: error= 8.56D-05 at cycle  41 NSaved=  12.
 NSaved=12 IEnMin= 6 EnMin= -2311.42914605290     IErMin=11 ErrMin= 7.93D-05
 ErrMax= 8.56D-05  0.00D+00 EMaxC= 1.00D-01 BMatC= 6.84D-06 BMatP= 3.42D-06
 IDIUse=1 WtCom= 1.00D+00 WtEn= 0.00D+00
 Large coefficients: NSaved= 12 BigCof=   19.21 CofMax=   10.00 Det=-6.61D-11
 Inversion failed.  Reducing to 11 matrices.
 Large coefficients: NSaved= 11 BigCof=   28.20 CofMax=   10.00 Det=-6.86D-11
 Inversion failed.  Reducing to 10 matrices.
 Large coefficients: NSaved= 10 BigCof=   10.45 CofMax=   10.00 Det=-1.37D-10
 Inversion failed.  Reducing to  9 matrices.
 Coeff-Com:  0.345D+00-0.491D+00 0.116D+01 0.647D+01-0.668D+01-0.104D+00
 Coeff-Com: -0.242D+01 0.219D+01 0.542D+00
 Coeff:      0.345D+00-0.491D+00 0.116D+01 0.647D+01-0.668D+01-0.104D+00
 Coeff:     -0.242D+01 0.219D+01 0.542D+00
 Gap=     0.138 Goal=   None    Shift=    0.000
[...]
 0.00113375,-0.00114235,-0.00061810,-0.00050067,0.00127043,-0.00020820,
 -0.00038560,-0.00017015,-0.00058638,-0.00026642,0.00196159,-0.00006341
 ,-0.00014945,0.00015257,0.00108172,-0.00003548,0.00041767,0.00014207,-
 0.00033515,0.00117958,-0.00015620,0.00022390,0.00000510,-0.00004602,-0
 .00005166,0.00005369,-0.00001501,0.00001924,-0.00002221,-0.00003558,-0
 .00001829,0.00000792,-0.00005631,0.00007298,-0.00014558,-0.10497063,-0
 .05437764,0.14778972,-0.00018870,-0.00006977,-0.00023943,-0.00002299,0
 .00059603,0.00035515,0.00007594,-0.00001439,-0.00005692,0.00000162,0.0
 0002432,-0.00000400,0.00002075,0.00001400,-0.00003365,0.00001364,-0.00
 001708,-0.00002451,-0.00001608,-0.00004183,0.00000355,0.00003006,0.000
 04495,0.00008575,-0.00206655,-0.00186796,-0.00128556,0.00055812,-0.000
 69785,-0.00044961,-0.00447411,-0.01008925,0.01397099,-0.10056004,-0.05
 516865,0.10256469,0.00722207,0.00481675,-0.00512491,0.00390735,0.00257
 991,0.00339480,-0.00004608,-0.00055124,-0.00066905,0.00128637,0.004408
 58,0.00363795,-0.00000512,0.00004382,-0.00000766,-0.00001673,0.0000322
 7,0.00002553,-0.00014093,0.00002249,-0.00014197,0.00001444,-0.00002266
 ,-0.00000259,0.00000718,-0.00000030,-0.00000194,0.00000542,-0.00000317
 ,-0.00000481,-0.00000197,0.00000032,0.00000457,-0.00003033,-0.00003483
 ,-0.00000634,0.00008821,0.00072142,-0.00007304,0.09702431,-0.00015402,
 -0.00001555,-0.00015609,0.00000102,0.00016373,0.00007375,-0.00001725,0
 .00004255,-0.00004811,-0.00003441,0.00000648,0.00000287,0.00000531,-0.
 00003092,-0.00000476,-0.00000726,0.00001359,0.00002388,0.00002633,-0.0
 0001323,-0.00002702,-0.00005373,0.00003561,0.00005885,-0.00009270,0.00
 109499,-0.00184113,0.00024345,-0.00043340,0.00012179,0.00726245,0.0092
 5746,-0.01174077,-0.05514912,-0.12121812,0.10480169,-0.01416253,-0.009
 42842,0.02414329,0.00309438,-0.00466839,0.00077666,0.00039549,-0.00062
 295,-0.00059577,0.00315411,-0.00061069,-0.00090222,0.00002405,0.000010
 38,-0.00000974,0.00001122,-0.00003687,0.00001301,-0.00004770,0.0000363
 0,-0.00002532,0.00001386,-0.00001937,-0.00001759,-0.00000144,-0.000000
 90,0.00000337,0.00000014,-0.00000377,-0.00000148,-0.00000241,-0.000005
 50,0.00000578,-0.00000942,-0.00000444,0.00000503,-0.00006892,-0.000217
 29,0.00011252,0.05700068,0.12565794,-0.00001604,0.00010399,0.00002621,
 -0.00016751,-0.00006927,0.00023564,0.00001546,0.00008883,-0.00006073,0
 .00000722,-0.00003368,0.00000922,-0.00001384,-0.00001938,0.00003580,-0
 .00001753,0.00001442,0.00002308,0.00002940,-0.00000445,-0.00001063,-0.
 00007867,-0.00000214,-0.00002698,-0.00181240,0.00098774,-0.00178477,-0
 .00031187,0.00018903,0.00056792,0.00708118,0.00947973,-0.01006044,0.10
 230589,0.10493094,-0.21070864,0.00253901,0.00062413,0.00073140,0.00251
 926,0.00156041,0.00384145,-0.00030821,-0.00091656,-0.00005327,0.004640
 00,-0.00135666,0.00101676,-0.00001604,0.00005515,0.00000584,0.00003948
 ,-0.00000445,0.00000596,0.00002980,0.00001057,0.00003808,-0.00002343,0
 .00002579,-0.00000218,-0.00000460,-0.00000258,0.00000112,-0.00000268,0
 .00000326,-0.00000135,-0.00000414,-0.00000205,-0.00000029,0.00000871,0
 .00000364,0.00000125,-0.00030091,-0.00095332,0.00071228,-0.11385616,-0
 .11428450,0.21743914,-0.00015616,-0.00004885,-0.00011158,0.00000010,0.
 00014544,0.00004111,0.00006819,-0.00000247,-0.00000834,-0.00005466,0.0
 0003993,0.00003865,0.00002118,-0.00001575,-0.00004634,-0.00001070,-0.0
 0001794,0.00000496,-0.00000004,-0.00001197,0.00000631,-0.00001581,-0.0
 0002172,0.00005833,0.00017808,0.00108675,0.00044745,0.00010992,-0.0007
 8632,-0.00055375,0.00546871,0.00120843,0.00190942,0.00089227,0.0024548
 1,0.00414893,-0.15779043,0.08992299,0.11696662,-0.00356540,0.00756088,
 0.00736550,0.00345917,-0.00118326,0.00411721,-0.00032093,-0.00068347,-
 0.00034471,0.00004198,-0.00003726,-0.00006604,-0.00001204,-0.00002313,
 0.00001840,-0.00000636,-0.00002802,-0.00002189,0.00002650,-0.00006336,
 -0.00002923,0.00000082,0.00000037,-0.00000062,0.00000167,-0.00000553,-
 0.00000096,-0.00001658,-0.00000503,0.00000546,-0.00000642,0.00002237,-
 0.00000573,-0.00005384,-0.00011049,-0.00007481,-0.00226967,-0.00091089
 ,-0.00240867,0.15654894,0.00007014,-0.00008411,0.00002440,-0.00007338,
 -0.00010566,-0.00007156,-0.00000619,-0.00000782,0.00001844,-0.00000474
 ,0.00001370,0.00001379,0.00001027,0.00001884,-0.00000775,0.00000403,-0
 .00002470,-0.00001977,-0.00002254,-0.00000812,0.00002428,0.00003045,-0
 .00001889,-0.00000559,0.00105494,0.00008503,-0.00062271,0.00000817,-0.
 00037315,-0.00002036,0.00177353,-0.00435040,0.00233158,0.01936810,-0.0
 0938261,-0.01935913,0.08987436,-0.12518443,-0.08156865,-0.01069783,0.0
 1147180,0.01117542,-0.00019386,-0.00095812,0.00344760,-0.00066638,-0.0
 0058004,0.00068438,-0.00000084,-0.00003433,-0.00000264,0.00000546,0.00
 000750,-0.00000497,0.00000053,-0.00000479,-0.00000507,0.00000039,-0.00
 000875,-0.00000195,0.00000111,0.00000028,-0.00000148,0.00000179,0.0000
 0023,-0.00000006,-0.00000044,0.00000274,0.00000036,-0.00000208,-0.0000
 0194,-0.00001461,-0.00007314,0.00000093,-0.00006232,-0.00124169,0.0009
 7037,-0.00068612,-0.09804731,0.12767445,-0.00011825,-0.00001590,-0.000
 05805,-0.00003700,0.00005903,0.00004960,0.00005865,0.00002065,-0.00000
 173,-0.00004051,0.00004111,0.00003974,0.00001943,0.00000141,-0.0000274
 8,-0.00000872,-0.00002499,0.00000245,-0.00001474,-0.00002954,0.0000152
 1,0.00000738,-0.00003132,0.00002791,0.00002205,0.00143611,0.00041944,0
 .00000860,-0.00072832,-0.00058442,0.00296420,0.00143485,0.00284588,-0.
 00336139,0.00553414,0.00756393,0.11621964,-0.08180205,-0.15791300,0.01
 469596,-0.01310647,-0.00894850,0.00385971,0.00337601,-0.00063209,-0.00
 072303,0.00079869,-0.00019114,0.00003167,-0.00003109,-0.00007466,-0.00
 001121,-0.00000982,0.00001298,-0.00000982,-0.00002672,-0.00001414,0.00
 001659,-0.00005045,-0.00002323,-0.00000111,0.00000186,-0.00000187,-0.0
 0000231,-0.00000391,-0.00000270,-0.00001204,-0.00000380,-0.00000487,-0
 .00001058,0.00000471,-0.00001189,-0.00003681,-0.00011225,-0.00006918,-
 0.00225960,-0.00095846,-0.00109470,-0.12937836,0.08552342,0.15965174,0
 .00001492,-0.00003071,-0.00010027,0.00006183,0.00018502,-0.00001303,-0
 .00005071,-0.00003598,0.00002235,0.00001935,-0.00002505,-0.00005488,-0
 .00001634,-0.00002221,-0.00000254,0.00000560,0.00001181,0.00002245,0.0
 0002397,0.00003861,0.00000734,0.00000210,0.00002744,0.00000555,-0.0006
 3673,-0.00100866,-0.00064023,0.00017683,-0.00005278,0.00044333,-0.0006
 1579,0.00036758,-0.00019596,0.00279494,-0.00053536,0.00472517,0.007659
 57,-0.01315910,0.00289675,-0.06094224,0.06033424,-0.00097270,0.0016580
 6,0.01950019,-0.00293031,0.00198244,0.00265363,0.00574916,-0.00001014,
 0.00003273,0.00004062,-0.00001549,-0.00000633,-0.00001931,-0.00000384,
 0.00001530,-0.00000225,0.00000388,0.00000924,0.00000769,0.00000057,-0.
 00000238,-0.00000080,-0.00000533,0.00000513,0.00000220,-0.00002024,-0.
 00000249,-0.00000845,0.00000643,0.00001676,-0.00000231,0.00004658,0.00
 012451,0.00007448,0.00001735,-0.00062932,0.00006855,-0.00178640,-0.000
 59239,-0.00212907,0.05201402,0.00002269,-0.00002957,-0.00002674,0.0000
 1660,0.00009416,-0.00002657,-0.00000272,-0.00002871,0.00000615,0.00002
 084,0.00000553,0.00000664,-0.00001411,-0.00000920,0.00001168,-0.000003
 08,0.00001223,0.00000701,0.00000370,-0.00001690,-0.00000453,-0.0000071
 9,0.00001623,-0.00001890,-0.00025122,-0.00035271,-0.00023842,0.0000364
 5,-0.00008658,0.00016085,-0.00039162,0.00111630,-0.00031762,-0.0002226
 4,0.00062347,0.00298524,0.00459133,-0.00886185,0.00017797,0.06030065,-
 0.32192471,0.04581548,0.00146134,-0.00875092,0.00470500,0.00307477,0.0
 0058298,-0.00104244,-0.00000755,0.00001395,0.00002035,-0.00000542,0.00
 000595,-0.00000768,-0.00000576,0.00000727,-0.00000395,-0.00000452,0.00
 000934,0.00000289,-0.00000023,0.00000038,-0.00000105,0.00000178,0.0000
 0044,-0.00000071,0.00000609,0.00000151,0.00000075,-0.00000672,-0.00000
 796,-0.00000479,0.00002072,0.00003141,0.00001678,0.00018122,-0.0004303
 5,-0.00007502,-0.00089943,0.00049646,-0.00069617,-0.06674952,0.3373749
 7,0.00001127,-0.00000361,-0.00004923,0.00005325,0.00012202,-0.00000823
 ,-0.00002967,-0.00003224,-0.00000267,0.00003999,-0.00001246,-0.0000138
 1,-0.00002894,-0.00003478,0.00001776,-0.00001200,0.00001977,0.00002668
 ,0.00002705,0.00001878,-0.00001333,-0.00003006,0.00001954,-0.00002025,
 -0.00051958,-0.00070341,-0.00060425,-0.00000127,-0.00001750,0.00047913
 ,0.00037730,0.00019401,-0.00116679,0.00504042,0.00215590,-0.00121045,-
 0.00502966,0.02430128,0.00097812,-0.00095472,0.04590054,-0.06072357,0.
 00476375,-0.01894770,0.00827705,0.00551687,-0.00093869,0.00033007,-0.0
 0000931,0.00003191,0.00003124,-0.00000331,-0.00000502,-0.00001587,0.00
 001475,0.00000979,0.00001617,-0.00000592,0.00001676,0.00000361,-0.0000
 0103,-0.00000266,-0.00000052,0.00000276,0.00000194,0.00000223,-0.00000
 837,-0.00000088,0.00000634,0.00001546,0.00001483,0.00000439,0.00000762
 ,-0.00001455,0.00011383,-0.00032086,0.00110371,-0.00009709,-0.00209822
 ,-0.00112404,-0.00039134,-0.00428544,-0.05091286,0.05466514,0.00000245
 ,-0.00004970,-0.00003294,0.00001936,0.00004474,-0.00004898,-0.00009086
 ,-0.00003411,-0.00002429,0.00002233,-0.00001267,-0.00006006,-0.0000046
 1,-0.00002666,0.00003183,-0.00001343,0.00002527,0.00009533,0.00007870,
 -0.00002337,-0.00002102,0.00000795,0.00006021,-0.00001011,-0.00002481,
 0.00053960,0.00006743,0.00013402,-0.00018871,-0.00035596,0.00379465,0.
 00261274,0.00361827,0.00005732,-0.00027153,-0.00076134,0.00223373,0.00
 399705,0.00436506,-0.00316672,-0.01049366,0.01468447,-0.09690775,-0.05
 169999,0.10013455,0.00707664,0.00435983,-0.00570759,0.00000916,0.00000
 399,0.00000491,0.00000139,0.00000177,0.00000009,-0.00001142,0.00000304
 ,-0.00000885,-0.00000446,-0.00001356,-0.00000097,-0.00000307,-0.000000
 42,-0.00000286,-0.00002365,0.00000491,-0.00000475,-0.00003026,-0.00000
 954,-0.00003587,-0.00000107,-0.00000171,0.00000288,-0.00001369,0.00012
 108,-0.00002559,-0.00055532,-0.00026401,-0.00047623,-0.00020875,-0.000
 48116,0.00061609,-0.00189839,-0.00101937,-0.00242602,0.09175887,0.0001
 6594,-0.00003216,0.00004902,-0.00017626,-0.00008882,-0.00003427,-0.000
 05523,0.00000313,0.00000194,0.00000317,-0.00001132,-0.00002025,-0.0000
 0160,0.00000633,-0.00002327,0.00001554,0.00001401,-0.00006222,-0.00001
 946,0.00004877,0.00001778,-0.00003397,0.00000145,-0.00001264,-0.000463
 72,-0.00026630,0.00104025,-0.00014305,0.00028053,0.00004453,0.00311622
 ,-0.00413619,0.00096027,0.00049917,-0.00070527,-0.00068921,0.00346310,
 -0.00050968,-0.00118382,0.00762578,0.01137487,-0.01326991,-0.05253289,
 -0.12166119,0.10724767,-0.01332990,-0.00999383,0.02420889,-0.00001092,
 -0.00002124,0.00003029,-0.00000639,0.00002990,-0.00001186,0.00000311,0
 .00000705,-0.00000777,-0.00000607,0.00002426,0.00001914,0.00001410,-0.
 00000618,0.00000273,0.00001792,0.00000471,0.00000859,0.00000740,0.0000
 0856,0.00000802,0.00000651,-0.00000956,-0.00001251,0.00001344,-0.00038
 787,0.00004063,-0.00025839,-0.00003315,-0.00012599,0.00037923,0.000402
 09,-0.00061010,-0.00133511,0.00047996,-0.00033849,0.05400595,0.1242959
 3,-0.00006408,-0.00009316,-0.00008907,0.00001190,0.00013709,-0.0001058
 4,-0.00003160,-0.00000029,-0.00000589,-0.00001264,-0.00001659,-0.00004
 311,-0.00000615,-0.00002821,-0.00001030,-0.00003529,0.00001307,0.00010
 024,0.00009165,0.00000854,0.00001255,0.00003741,0.00001585,-0.00000733
 ,0.00008915,0.00002894,0.00025117,0.00019374,-0.00034145,-0.00012223,0
 .00183488,0.00153287,0.00398351,0.00001819,-0.00131483,-0.00001905,0.0
 0489684,-0.00131988,0.00102423,0.00688373,0.01053140,-0.00965900,0.099
 95117,0.10792457,-0.22157185,0.00251671,0.00006022,0.00071585,0.000027
 30,-0.00000510,0.00000426,-0.00000327,-0.00001687,0.00000717,-0.000020
 20,-0.00000442,-0.00001310,0.00001100,-0.00004298,-0.00001148,0.000001
 78,-0.00000788,-0.00000115,-0.00001471,0.00000611,0.00000251,-0.000062
 39,-0.00002008,-0.00005342,0.00001100,0.00001163,-0.00000816,-0.000062
 57,0.00006294,-0.00006741,-0.00044395,-0.00010201,-0.00038851,0.000246
 80,0.00052323,-0.00045444,-0.00231706,-0.00072867,-0.00071693,-0.11152
 981,-0.11624474,0.22813019,0.00005622,-0.00009723,-0.00039396,0.000484
 38,0.00077734,0.00005499,-0.00107176,-0.00021075,-0.00104752,0.0000616
 2,0.00032681,-0.00048250,-0.00001978,-0.00024423,0.00024739,0.00000281
 ,0.00001684,0.00028944,0.00036963,0.00016395,-0.00031215,-0.00058668,0
 .00059003,-0.00051022,-0.00294518,-0.00149331,-0.00117655,0.00094233,0
 .00003419,0.00007913,-0.00341064,0.00697733,0.00562006,0.00283906,-0.0
 0110357,0.00370260,-0.00016359,-0.00048323,-0.00056564,0.00476060,0.00
 234784,0.00208510,0.00178548,0.00165042,0.00475760,-0.15850004,0.09265
 654,0.11961107,-0.00002329,0.00006322,0.00007927,-0.00008529,-0.000027
 98,-0.00007828,-0.00003199,-0.00001840,0.00002093,0.00003324,-0.000001
 26,0.00002195,-0.00001856,-0.00000118,-0.00000694,-0.00000433,0.000010
 13,0.00000900,-0.00000084,-0.00000732,0.00001504,0.00002561,-0.0000192
 1,0.00004140,0.00022011,0.00008201,0.00022062,0.00011634,0.00042522,0.
 00043605,-0.00047135,-0.00013445,-0.00030453,-0.00039340,-0.00011929,-
 0.00005231,-0.00222454,-0.00098208,-0.00221884,0.15863635,-0.00003593,
 0.00006953,-0.00011751,0.00020308,0.00013185,0.00013495,0.00049780,-0.
 00017889,0.00067272,0.00001648,-0.00015045,0.00012687,0.00006884,0.000
 17839,-0.00003714,-0.00004766,-0.00007623,0.00004469,-0.00003418,-0.00
 014813,-0.00001858,0.00010668,-0.00013089,0.00005731,-0.00116447,-0.00
 042665,-0.00053913,0.00014513,-0.00144874,0.00021624,-0.01032685,0.011
 00638,0.00973383,0.00009321,-0.00083771,0.00336904,-0.00063034,-0.0008
 8917,0.00092206,0.00205018,-0.00428076,0.00249079,0.01889148,-0.008969
 93,-0.01921334,0.09304903,-0.12445684,-0.08364035,0.00002930,0.0000443
 3,-0.00000691,-0.00004178,-0.00002304,-0.00003574,0.00000476,0.0000218
 4,-0.00002178,0.00006692,-0.00008591,0.00002759,-0.00000446,0.00000834
 ,0.00000026,-0.00003145,-0.00000864,-0.00001339,-0.00000712,-0.0000054
 9,-0.00002183,0.00000423,-0.00001197,0.00001344,0.00003657,0.00029344,
 -0.00006928,-0.00048830,0.00034831,0.00061716,-0.00019211,-0.00002925,
 -0.00023426,0.00079523,-0.00041224,-0.00086912,-0.00126002,0.00097482,
 -0.00068067,-0.10164103,0.12966982,-0.00028084,-0.00024505,-0.00023374
 ,0.00036454,0.00103495,-0.00052543,-0.00008570,-0.00002184,-0.00025120
 ,-0.00003194,0.00020331,0.00029711,-0.00025055,-0.00018655,0.00000163,
 -0.00012140,0.00018672,0.00015673,0.00012373,-0.00008175,-0.00008852,-
 0.00009206,-0.00021957,-0.00030376,-0.00171777,-0.00238055,-0.00137780
 ,-0.00032777,-0.00206401,0.00166636,0.01519107,-0.01168169,-0.01112423
 ,0.00339187,0.00355153,-0.00069365,-0.00041064,0.00097719,-0.00064505,
 0.00218435,0.00232838,0.00306966,-0.00354456,0.00458265,0.00822816,0.1
 1785412,-0.08165000,-0.15840170,0.00003548,0.00007205,0.00001700,-0.00
 000938,-0.00003729,-0.00001361,-0.00000973,-0.00005544,0.00004891,-0.0
 0001204,-0.00010673,-0.00003689,0.00004101,-0.00001448,-0.00001086,0.0
 0002790,0.00000556,0.00001072,0.00000803,0.00000946,-0.00000562,-0.000
 00253,0.00000685,-0.00000310,0.00002528,-0.00011880,0.00000146,0.00091
 948,-0.00055603,-0.00028922,-0.00037911,-0.00019357,-0.00026654,-0.000
 37894,0.00020070,0.00011435,-0.00212264,-0.00105136,-0.00093524,-0.130
 21577,0.08688772,0.16141691,-0.01289318,-0.00447422,-0.01362104,0.0017
 9102,0.00127893,-0.00279489,0.00051824,-0.00007261,-0.00114089,-0.0001
 6132,-0.00752167,-0.00190351,-0.00041464,0.00075571,0.00171473,0.00007
 925,0.00089109,0.00023084,0.00057989,0.00044452,-0.00053930,-0.0010755
 5,0.00012420,0.00045840,-0.00696508,0.01052028,0.00929930,-0.03361231,
 0.03839290,-0.00377663,0.00041414,0.00063201,0.00118780,0.00143557,-0.
 00107644,-0.00057783,-0.00019949,0.00059242,-0.00021973,0.00021705,0.0
 0013794,-0.00012139,-0.00014494,0.00056947,0.00032293,0.00006890,-0.00
 017775,0.00071025,0.00081776,-0.00256920,-0.00681327,0.00155769,0.0019
 4684,0.00428369,-0.00069839,0.00015248,-0.00023995,-0.00275072,0.00405
 303,0.00089486,-0.00006483,-0.00012510,0.00006599,-0.00005284,0.000266
 31,0.00004145,0.00000902,0.00000092,0.00005360,0.00009289,0.00022682,0
 .00017005,0.00106802,0.00028818,0.00068524,0.00000546,-0.00005258,0.00
 009893,-0.00007201,0.00003516,-0.00006088,-0.00009339,-0.00002778,-0.0
 0005379,-0.00001378,0.00001846,-0.00000069,-0.00038252,-0.00015323,-0.
 00017351,0.05094006,-0.00448971,-0.00617040,-0.00960851,-0.00040243,-0
 .00852215,-0.00956764,-0.00055458,-0.00078130,-0.00173033,0.00029549,-
 0.00350452,-0.00112446,-0.00059873,0.00018932,0.00187726,0.00008713,0.
 00050271,-0.00008763,0.00000438,0.00032138,0.00002177,0.00043513,0.000
 26321,-0.00042524,0.01526769,-0.01983705,-0.01287208,0.04006381,-0.048
 86356,0.00404193,-0.00107897,-0.00312513,-0.00097569,-0.00290843,0.001
 60669,0.00077924,-0.00033104,-0.00258805,0.00189088,0.00102774,0.00041
 279,-0.00197186,-0.00010419,0.00020946,-0.00009946,0.00151902,0.000669
 29,-0.00331119,-0.00077200,0.00110130,0.00076874,0.00180598,0.00243245
 ,0.00327580,0.00056003,-0.00114879,0.00066066,-0.00330749,0.00251830,0
 .00058171,0.00000169,-0.00002224,-0.00005180,0.00000634,0.00022570,0.0
 0002356,0.00009746,0.00007003,0.00003756,-0.00000427,0.00015939,0.0003
 5805,-0.00249934,0.00079218,0.00014681,0.00008058,0.00015560,-0.000158
 65,0.00027312,0.00001271,0.00024364,0.00006996,0.00003915,0.00004722,0
 .00007003,-0.00009361,0.00011134,0.00046266,-0.00017611,0.00061768,-0.
 04507706,0.08315126,-0.01157453,-0.00222435,-0.05755161,0.00083482,-0.
 01792729,-0.00483639,-0.00245760,-0.00018141,0.00024772,-0.00073381,0.
 00052695,-0.00093491,-0.00002189,0.00027409,-0.00017711,0.00035137,0.0
 0013371,-0.00003206,0.00017348,0.00022290,-0.00010719,0.00060117,-0.00
 006347,-0.00085309,0.01064226,-0.01130988,-0.00094366,-0.00483179,0.00
 492297,-0.00371016,-0.00109253,-0.00111676,-0.00177520,-0.00113579,0.0
 0016959,0.00013626,0.00005365,-0.00092927,0.00073012,0.00040231,0.0002
 3435,-0.00083720,0.00022974,0.00018096,-0.00003698,0.00022024,0.000656
 41,-0.00104808,-0.00159282,0.00053929,-0.00218891,-0.00130025,-0.00121
 356,-0.00668782,-0.00037926,0.00188657,0.00007404,-0.00056456,-0.00108
 915,0.00131318,0.00015302,0.00010651,-0.00012216,0.00004848,0.00001629
 ,0.00001823,0.00009991,0.00008446,-0.00006072,0.00000671,-0.00017472,0
 .00014232,-0.00024536,-0.00046770,-0.00182083,0.00004408,0.00002477,-0
 .00011232,0.00015322,0.00000544,0.00013708,-0.00001206,-0.00001137,-0.
 00003177,0.00003495,0.00001865,0.00005185,0.00007358,0.00020436,0.0001
 7718,0.01181926,0.02650067,0.08084020\\-0.00000730,-0.00003519,-0.0000
 2118,0.00001818,0.00002966,0.00001254,-0.00000881,-0.00000303,-0.00000
 416,-0.00000164,0.00000495,0.00000306,0.00000296,0.00000497,-0.0000025
 8,0.00000003,-0.00000492,-0.00000059,-0.00000366,-0.00000166,0.0000012
 8,0.00000135,0.00000329,0.00000279,-0.00001462,-0.00002271,-0.00004412
 ,0.00001244,0.00000369,0.00002371,-0.00001177,0.00001175,0.00001124,0.
 00000524,-0.00000100,-0.00000415,-0.00000117,-0.00000209,-0.00000055,0
 .00000119,0.00000127,-0.00000227,-0.00000031,-0.00000207,0.00000230,0.
 00000438,0.00000113,-0.00000578,-0.00001165,0.00000161,-0.00001263,0.0
 0000246,0.00000445,-0.00000241,0.00000068,-0.00000583,-0.00000130,0.00
 000396,-0.00000292,0.00000118,0.00000067,-0.00000010,0.00000084,0.0000
 0090,-0.00000031,0.00000105,-0.00000002,-0.00000006,0.00000166,0.00000
 013,-0.00000126,0.00000059,-0.00000155,0.00000487,0.00000426,-0.000000
 51,-0.00000013,0.00000072,0.00000022,0.00000051,-0.00000002,-0.0000004
 2,-0.00000009,-0.00000040,0.00000077,0.00000125,-0.00000029,0.00000156
 ,-0.00000063,0.00000184,0.00000633,0.00001060,0.00003337\\\@
 The archive entry for this job was punched.


 A FOOL CAN ASK MORE QUESTIONS THAN
 A WISE MAN CAN ANSWER.
 Job cpu time:       0 days  1 hours 30 minutes  0.4 seconds.
 Elapsed time:       0 days  0 hours  2 minutes 50.1 seconds.
 File lengths (MBytes):  RWF=    620 Int=      0 D2E=      0 Chk=     11 Scr=      2
 Normal termination of Gaussian 16 at Fri Mar  8 02:49:28 2024.
