 Entering Gaussian System, Link 0=g16
 Initial command:
 /public/software/apps/Gaussian/g16/l1.exe "/public/home/LJQ_HG/tmp/Gau-96589.inp" -scrdir="/public/home/LJQ_HG/tmp/"
 Entering Link 1 = /public/software/apps/Gaussian/g16/l1.exe PID=     96590.
  
 Copyright (c) 1988-2019, Gaussian, Inc.  All Rights Reserved.
  
 This is part of the Gaussian(R) 16 program.  It is based on
 the Gaussian(R) 09 system (copyright 2009, Gaussian, Inc.),
 the Gaussian(R) 03 system (copyright 2003, Gaussian, Inc.),
 the Gaussian(R) 98 system (copyright 1998, Gaussian, Inc.),
 the Gaussian(R) 94 system (copyright 1995, Gaussian, Inc.),
 the Gaussian 92(TM) system (copyright 1992, Gaussian, Inc.),
 the Gaussian 90(TM) system (copyright 1990, Gaussian, Inc.),
 the Gaussian 88(TM) system (copyright 1988, Gaussian, Inc.),
 the Gaussian 86(TM) system (copyright 1986, Carnegie Mellon
 University), and the Gaussian 82(TM) system (copyright 1983,
 Carnegie Mellon University). Gaussian is a federally registered
 trademark of Gaussian, Inc.
  
 This software contains proprietary and confidential information,
 including trade secrets, belonging to Gaussian, Inc.
  
 This software is provided under written license and may be
 used, copied, transmitted, or stored only in accord with that
 written license.
  
 The following legend is applicable only to US Government
 contracts under FAR:
  
                    RESTRICTED RIGHTS LEGEND
  
 Use, reproduction and disclosure by the US Government is
 subject to restrictions as set forth in subparagraphs (a)
 and (c) of the Commercial Computer Software - Restricted
 Rights clause in FAR 52.227-19.
  
 Gaussian, Inc.
 340 Quinnipiac St., Bldg. 40, Wallingford CT 06492
  
  
 ---------------------------------------------------------------
 Warning -- This program may not be used in any manner that
 competes with the business of Gaussian, Inc. or will provide
 assistance to any competitor of Gaussian, Inc.  The licensee
 of this program is prohibited from giving any competitor of
 Gaussian, Inc. access to this program.  By using this program,
 the user acknowledges that Gaussian, Inc. is engaged in the
 business of creating and licensing software in the field of
 computational chemistry and represents and warrants to the
 licensee that it is not a competitor of Gaussian, Inc. and that
 it will not use this program in any manner prohibited above.
 ---------------------------------------------------------------
  

 Cite this work as:
 Gaussian 16, Revision C.01,
 M. J. Frisch, G. W. Trucks, H. B. Schlegel, G. E. Scuseria, 
 M. A. Robb, J. R. Cheeseman, G. Scalmani, V. Barone, 
 G. A. Petersson, H. Nakatsuji, X. Li, M. Caricato, A. V. Marenich, 
 J. Bloino, B. G. Janesko, R. Gomperts, B. Mennucci, H. P. Hratchian, 
 J. V. Ortiz, A. F. Izmaylov, J. L. Sonnenberg, D. Williams-Young, 
 F. Ding, F. Lipparini, F. Egidi, J. Goings, B. Peng, A. Petrone, 
 T. Henderson, D. Ranasinghe, V. G. Zakrzewski, J. Gao, N. Rega, 
 G. Zheng, W. Liang, M. Hada, M. Ehara, K. Toyota, R. Fukuda, 
 J. Hasegawa, M. Ishida, T. Nakajima, Y. Honda, O. Kitao, H. Nakai, 
 T. Vreven, K. Throssell, J. A. Montgomery, Jr., J. E. Peralta, 
 F. Ogliaro, M. J. Bearpark, J. J. Heyd, E. N. Brothers, K. N. Kudin, 
 V. N. Staroverov, T. A. Keith, R. Kobayashi, J. Normand, 
 K. Raghavachari, A. P. Rendell, J. C. Burant, S. S. Iyengar, 
 J. Tomasi, M. Cossi, J. M. Millam, M. Klene, C. Adamo, R. Cammi, 
 J. W. Ochterski, R. L. Martin, K. Morokuma, O. Farkas, 
 J. B. Foresman, and D. J. Fox, Gaussian, Inc., Wallingford CT, 2019.
 
 ******************************************
 Gaussian 16:  ES64L-G16RevC.01  3-Jul-2019
                 8-Mar-2024 
 ******************************************
 %nprocshared=32
 Will use up to   32 processors via shared memory.
 %mem=100GB
 ------------------------------------------
 #p opt freq b3lyp/def2svpp em=gd3bj nosymm
 ------------------------------------------
 1/18=20,19=15,26=3,38=1/1,3;
 2/9=110,12=2,15=1,17=6,18=5,40=1/2;
 3/5=43,7=202,11=2,25=1,30=1,71=1,74=-5,124=41/1,2,3;
 4//1;
 5/5=2,38=5/2;
 6/7=2,8=2,9=2,10=2,28=1/1;
 7/30=1/1,2,3,16;
 1/18=20,19=15,26=3/3(2);
 2/9=110,15=1/2;
 99//99;
 2/9=110,15=1/2;
 3/5=43,7=202,11=2,25=1,30=1,71=1,74=-5,124=41/1,2,3;
 4/5=5,16=3,69=1/1;
 5/5=2,38=5/2;
 7/30=1/1,2,3,16;
 1/18=20,19=15,26=3/3(-5);
 2/9=110,15=1/2;
 6/7=2,8=2,9=2,10=2,19=2,28=1/1;
 99/9=1/99;
 Leave Link    1 at Fri Mar  8 02:29:13 2024, MaxMem= 13421772800 cpu:               2.3 elap:               0.1
 (Enter /public/software/apps/Gaussian/g16/l101.exe)
 ------------------
 $$$$Title####1????
 ------------------
 Symbolic Z-matrix:
 Charge =  1 Multiplicity = 2
 N                     2.17189   2.02689   0.10217 
 C                     1.46594   1.20009   1.08633 
 C                     0.09278   0.86508   0.61642 
 C                    -0.98219   1.7452    0.45968 
 C                    -2.20223   1.24219  -0.01752 
 C                    -2.3295   -0.12274  -0.33214 
 C                    -1.23777  -0.98915  -0.16817 
 C                    -0.03416  -0.46942   0.31484 
 C                     1.22537  -1.21611   0.54392 
 C                     2.13068  -0.19153   1.2573 
 O                     3.42753  -0.22541   0.7343 
 H                     2.09499   1.58782  -0.84529 
 H                     1.70058   2.95934   0.05213 
 H                     1.42259   1.7308    2.06318 
 H                    -0.87702   2.79546   0.69909 
 H                    -3.04648   1.90693  -0.1463 
 H                    -3.2714   -0.50582  -0.70269 
 H                    -1.32857  -2.0401   -0.41066 
 H                     1.65431  -1.52484  -0.4342 
 H                     1.04568  -2.1071    1.18346 
 H                     2.1761   -0.44085   2.34057 
 Cu                    3.99797   1.63843   0.66523 
 
 ITRead=  0  0  0  0  0  0  0  0  0  0  0  0  0  0  0  0  0  0  0  0
 ITRead=  0  0
 MicOpt= -1 -1 -1 -1 -1 -1 -1 -1 -1 -1 -1 -1 -1 -1 -1 -1 -1 -1 -1 -1
 MicOpt= -1 -1
 NAtoms=     22 NQM=       22 NQMF=       0 NMMI=      0 NMMIF=      0
                NMic=       0 NMicF=      0.
                    Isotopes and Nuclear Properties:
 (Nuclear quadrupole moments (NQMom) in fm**2, nuclear magnetic moments (NMagM)
  in nuclear magnetons)

  Atom         1           2           3           4           5           6           7           8           9          10
 IAtWgt=          14          12          12          12          12          12          12          12          12          12
 AtmWgt=  14.0030740  12.0000000  12.0000000  12.0000000  12.0000000  12.0000000  12.0000000  12.0000000  12.0000000  12.0000000
 NucSpn=           2           0           0           0           0           0           0           0           0           0
 AtZEff=  -0.0000000  -0.0000000  -0.0000000  -0.0000000  -0.0000000  -0.0000000  -0.0000000  -0.0000000  -0.0000000  -0.0000000
 NQMom=    2.0440000   0.0000000   0.0000000   0.0000000   0.0000000   0.0000000   0.0000000   0.0000000   0.0000000   0.0000000
 NMagM=    0.4037610   0.0000000   0.0000000   0.0000000   0.0000000   0.0000000   0.0000000   0.0000000   0.0000000   0.0000000
 AtZNuc=   7.0000000   6.0000000   6.0000000   6.0000000   6.0000000   6.0000000   6.0000000   6.0000000   6.0000000   6.0000000

  Atom        11          12          13          14          15          16          17          18          19          20
 IAtWgt=          16           1           1           1           1           1           1           1           1           1
 AtmWgt=  15.9949146   1.0078250   1.0078250   1.0078250   1.0078250   1.0078250   1.0078250   1.0078250   1.0078250   1.0078250
 NucSpn=           0           1           1           1           1           1           1           1           1           1
 AtZEff=  -0.0000000  -0.0000000  -0.0000000  -0.0000000  -0.0000000  -0.0000000  -0.0000000  -0.0000000  -0.0000000  -0.0000000
 NQMom=    0.0000000   0.0000000   0.0000000   0.0000000   0.0000000   0.0000000   0.0000000   0.0000000   0.0000000   0.0000000
 NMagM=    0.0000000   2.7928460   2.7928460   2.7928460   2.7928460   2.7928460   2.7928460   2.7928460   2.7928460   2.7928460
 AtZNuc=   8.0000000   1.0000000   1.0000000   1.0000000   1.0000000   1.0000000   1.0000000   1.0000000   1.0000000   1.0000000

  Atom        21          22
 IAtWgt=           1          63
 AtmWgt=   1.0078250  62.9295992
 NucSpn=           1           3
 AtZEff=  -0.0000000  -0.0000000
 NQMom=    0.0000000 -22.0000000
 NMagM=    2.7928460   2.2233000
 AtZNuc=   1.0000000  29.0000000
 Leave Link  101 at Fri Mar  8 02:29:13 2024, MaxMem= 13421772800 cpu:               4.7 elap:               0.2
 (Enter /public/software/apps/Gaussian/g16/l103.exe)

 GradGradGradGradGradGradGradGradGradGradGradGradGradGradGradGradGradGrad
 Berny optimization.
 Initialization pass.
                           ----------------------------
                           !    Initial Parameters    !
                           ! (Angstroms and Degrees)  !
 --------------------------                            --------------------------
 ! Name  Definition              Value          Derivative Info.                !
 --------------------------------------------------------------------------------
 ! R1    R(1,2)                  1.4665         estimate D2E/DX2                !
 ! R2    R(1,12)                 1.0471         estimate D2E/DX2                !
 ! R3    R(1,13)                 1.046          estimate D2E/DX2                !
 ! R4    R(1,22)                 1.95           estimate D2E/DX2                !
 ! R5    R(2,3)                  1.4895         estimate D2E/DX2                !
 ! R6    R(2,10)                 1.5517         estimate D2E/DX2                !
 ! R7    R(2,14)                 1.1126         estimate D2E/DX2                !
 ! R8    R(3,4)                  1.3981         estimate D2E/DX2                !
 ! R9    R(3,8)                  1.374          estimate D2E/DX2                !
 ! R10   R(4,5)                  1.4033         estimate D2E/DX2                !
 ! R11   R(4,15)                 1.0823         estimate D2E/DX2                !
 ! R12   R(5,6)                  1.4065         estimate D2E/DX2                !
 ! R13   R(5,16)                 1.0822         estimate D2E/DX2                !
 ! R14   R(6,7)                  1.4034         estimate D2E/DX2                !
 ! R15   R(6,17)                 1.0822         estimate D2E/DX2                !
 ! R16   R(7,8)                  1.3972         estimate D2E/DX2                !
 ! R17   R(7,18)                 1.0824         estimate D2E/DX2                !
 ! R18   R(8,9)                  1.482          estimate D2E/DX2                !
 ! R19   R(9,10)                 1.5422         estimate D2E/DX2                !
 ! R20   R(9,19)                 1.1118         estimate D2E/DX2                !
 ! R21   R(9,20)                 1.1114         estimate D2E/DX2                !
 ! R22   R(10,11)                1.3987         estimate D2E/DX2                !
 ! R23   R(10,21)                1.1125         estimate D2E/DX2                !
 ! R24   R(11,22)                1.9504         estimate D2E/DX2                !
 ! A1    A(2,1,12)             109.602          estimate D2E/DX2                !
 ! A2    A(2,1,13)             108.5296         estimate D2E/DX2                !
 ! A3    A(2,1,22)              98.3202         estimate D2E/DX2                !
 ! A4    A(12,1,13)            107.3031         estimate D2E/DX2                !
 ! A5    A(12,1,22)            104.2717         estimate D2E/DX2                !
 ! A6    A(13,1,22)            127.8325         estimate D2E/DX2                !
 ! A7    A(1,2,3)              111.0315         estimate D2E/DX2                !
 ! A8    A(1,2,10)             111.9228         estimate D2E/DX2                !
 ! A9    A(1,2,14)             109.8199         estimate D2E/DX2                !
 ! A10   A(3,2,10)             103.1785         estimate D2E/DX2                !
 ! A11   A(3,2,14)             110.3878         estimate D2E/DX2                !
 ! A12   A(10,2,14)            110.3503         estimate D2E/DX2                !
 ! A13   A(2,3,4)              127.0558         estimate D2E/DX2                !
 ! A14   A(2,3,8)              111.892          estimate D2E/DX2                !
 ! A15   A(4,3,8)              121.0482         estimate D2E/DX2                !
 ! A16   A(3,4,5)              118.7468         estimate D2E/DX2                !
 ! A17   A(3,4,15)             120.7539         estimate D2E/DX2                !
 ! A18   A(5,4,15)             120.4991         estimate D2E/DX2                !
 ! A19   A(4,5,6)              120.1717         estimate D2E/DX2                !
 ! A20   A(4,5,16)             119.9027         estimate D2E/DX2                !
 ! A21   A(6,5,16)             119.9253         estimate D2E/DX2                !
 ! A22   A(5,6,7)              120.1726         estimate D2E/DX2                !
 ! A23   A(5,6,17)             119.924          estimate D2E/DX2                !
 ! A24   A(7,6,17)             119.9034         estimate D2E/DX2                !
 ! A25   A(6,7,8)              118.7445         estimate D2E/DX2                !
 ! A26   A(6,7,18)             120.5319         estimate D2E/DX2                !
 ! A27   A(8,7,18)             120.7235         estimate D2E/DX2                !
 ! A28   A(3,8,7)              121.1141         estimate D2E/DX2                !
 ! A29   A(3,8,9)              112.1414         estimate D2E/DX2                !
 ! A30   A(7,8,9)              126.7372         estimate D2E/DX2                !
 ! A31   A(8,9,10)             103.6313         estimate D2E/DX2                !
 ! A32   A(8,9,19)             109.3782         estimate D2E/DX2                !
 ! A33   A(8,9,20)             110.8214         estimate D2E/DX2                !
 ! A34   A(10,9,19)            111.4065         estimate D2E/DX2                !
 ! A35   A(10,9,20)            111.1836         estimate D2E/DX2                !
 ! A36   A(19,9,20)            110.2446         estimate D2E/DX2                !
 ! A37   A(2,10,9)             107.0609         estimate D2E/DX2                !
 ! A38   A(2,10,11)            112.1922         estimate D2E/DX2                !
 ! A39   A(2,10,21)            109.0115         estimate D2E/DX2                !
 ! A40   A(9,10,11)            110.8069         estimate D2E/DX2                !
 ! A41   A(9,10,21)            108.9958         estimate D2E/DX2                !
 ! A42   A(11,10,21)           108.7115         estimate D2E/DX2                !
 ! A43   A(10,11,22)           105.1452         estimate D2E/DX2                !
 ! A44   A(1,22,11)             85.7969         estimate D2E/DX2                !
 ! D1    D(12,1,2,3)           -49.7706         estimate D2E/DX2                !
 ! D2    D(12,1,2,10)           64.9403         estimate D2E/DX2                !
 ! D3    D(12,1,2,14)         -172.1359         estimate D2E/DX2                !
 ! D4    D(13,1,2,3)            67.1238         estimate D2E/DX2                !
 ! D5    D(13,1,2,10)         -178.1653         estimate D2E/DX2                !
 ! D6    D(13,1,2,14)          -55.2415         estimate D2E/DX2                !
 ! D7    D(22,1,2,3)          -158.2251         estimate D2E/DX2                !
 ! D8    D(22,1,2,10)          -43.5142         estimate D2E/DX2                !
 ! D9    D(22,1,2,14)           79.4096         estimate D2E/DX2                !
 ! D10   D(2,1,22,11)           45.4129         estimate D2E/DX2                !
 ! D11   D(12,1,22,11)         -67.3581         estimate D2E/DX2                !
 ! D12   D(13,1,22,11)         166.76           estimate D2E/DX2                !
 ! D13   D(1,2,3,4)            -68.2286         estimate D2E/DX2                !
 ! D14   D(1,2,3,8)            111.0403         estimate D2E/DX2                !
 ! D15   D(10,2,3,4)           171.7149         estimate D2E/DX2                !
 ! D16   D(10,2,3,8)            -9.0162         estimate D2E/DX2                !
 ! D17   D(14,2,3,4)            53.8066         estimate D2E/DX2                !
 ! D18   D(14,2,3,8)          -126.9245         estimate D2E/DX2                !
 ! D19   D(1,2,10,9)          -105.5129         estimate D2E/DX2                !
 ! D20   D(1,2,10,11)           16.2558         estimate D2E/DX2                !
 ! D21   D(1,2,10,21)          136.7208         estimate D2E/DX2                !
 ! D22   D(3,2,10,9)            13.93           estimate D2E/DX2                !
 ! D23   D(3,2,10,11)          135.6987         estimate D2E/DX2                !
 ! D24   D(3,2,10,21)         -103.8363         estimate D2E/DX2                !
 ! D25   D(14,2,10,9)          131.8646         estimate D2E/DX2                !
 ! D26   D(14,2,10,11)        -106.3667         estimate D2E/DX2                !
 ! D27   D(14,2,10,21)          14.0983         estimate D2E/DX2                !
 ! D28   D(2,3,4,5)            179.0444         estimate D2E/DX2                !
 ! D29   D(2,3,4,15)            -0.8173         estimate D2E/DX2                !
 ! D30   D(8,3,4,5)             -0.1638         estimate D2E/DX2                !
 ! D31   D(8,3,4,15)           179.9746         estimate D2E/DX2                !
 ! D32   D(2,3,8,7)           -178.8106         estimate D2E/DX2                !
 ! D33   D(2,3,8,9)              0.267          estimate D2E/DX2                !
 ! D34   D(4,3,8,7)              0.5084         estimate D2E/DX2                !
 ! D35   D(4,3,8,9)            179.586          estimate D2E/DX2                !
 ! D36   D(3,4,5,6)             -0.1449         estimate D2E/DX2                !
 ! D37   D(3,4,5,16)          -179.9767         estimate D2E/DX2                !
 ! D38   D(15,4,5,6)           179.7171         estimate D2E/DX2                !
 ! D39   D(15,4,5,16)           -0.1146         estimate D2E/DX2                !
 ! D40   D(4,5,6,7)              0.1154         estimate D2E/DX2                !
 ! D41   D(4,5,6,17)          -179.8163         estimate D2E/DX2                !
 ! D42   D(16,5,6,7)           179.9471         estimate D2E/DX2                !
 ! D43   D(16,5,6,17)            0.0154         estimate D2E/DX2                !
 ! D44   D(5,6,7,8)              0.2159         estimate D2E/DX2                !
 ! D45   D(5,6,7,18)          -179.8569         estimate D2E/DX2                !
 ! D46   D(17,6,7,8)          -179.8524         estimate D2E/DX2                !
 ! D47   D(17,6,7,18)            0.0748         estimate D2E/DX2                !
 ! D48   D(6,7,8,3)             -0.5284         estimate D2E/DX2                !
 ! D49   D(6,7,8,9)           -179.4622         estimate D2E/DX2                !
 ! D50   D(18,7,8,3)           179.5446         estimate D2E/DX2                !
 ! D51   D(18,7,8,9)             0.6107         estimate D2E/DX2                !
 ! D52   D(3,8,9,10)             8.6808         estimate D2E/DX2                !
 ! D53   D(3,8,9,19)          -110.2276         estimate D2E/DX2                !
 ! D54   D(3,8,9,20)           128.0235         estimate D2E/DX2                !
 ! D55   D(7,8,9,10)          -172.3047         estimate D2E/DX2                !
 ! D56   D(7,8,9,19)            68.787          estimate D2E/DX2                !
 ! D57   D(7,8,9,20)           -52.9619         estimate D2E/DX2                !
 ! D58   D(8,9,10,2)           -13.8347         estimate D2E/DX2                !
 ! D59   D(8,9,10,11)         -136.4698         estimate D2E/DX2                !
 ! D60   D(8,9,10,21)          103.9419         estimate D2E/DX2                !
 ! D61   D(19,9,10,2)          103.6677         estimate D2E/DX2                !
 ! D62   D(19,9,10,11)         -18.9674         estimate D2E/DX2                !
 ! D63   D(19,9,10,21)        -138.5557         estimate D2E/DX2                !
 ! D64   D(20,9,10,2)         -132.9288         estimate D2E/DX2                !
 ! D65   D(20,9,10,11)         104.4361         estimate D2E/DX2                !
 ! D66   D(20,9,10,21)         -15.1523         estimate D2E/DX2                !
 ! D67   D(2,10,11,22)          21.0124         estimate D2E/DX2                !
 ! D68   D(9,10,11,22)         140.615          estimate D2E/DX2                !
 ! D69   D(21,10,11,22)        -99.6263         estimate D2E/DX2                !
 ! D70   D(10,11,22,1)         -39.2073         estimate D2E/DX2                !
 --------------------------------------------------------------------------------
 Trust Radius=3.00D-01 FncErr=1.00D-07 GrdErr=1.00D-06 EigMax=2.50D+02 EigMin=1.00D-04
 Number of steps in this run=    132 maximum allowed number of steps=    132.
 GradGradGradGradGradGradGradGradGradGradGradGradGradGradGradGradGradGrad

 Leave Link  103 at Fri Mar  8 02:29:14 2024, MaxMem= 13421772800 cpu:               0.2 elap:               0.0
 (Enter /public/software/apps/Gaussian/g16/l202.exe)
                          Input orientation:                          
 ---------------------------------------------------------------------
 Center     Atomic      Atomic             Coordinates (Angstroms)
 Number     Number       Type             X           Y           Z
 ---------------------------------------------------------------------
      1          7           0        2.171893    2.026892    0.102169
      2          6           0        1.465936    1.200090    1.086332
      3          6           0        0.092781    0.865077    0.616422
      4          6           0       -0.982185    1.745200    0.459684
      5          6           0       -2.202227    1.242194   -0.017519
      6          6           0       -2.329499   -0.122743   -0.332135
      7          6           0       -1.237772   -0.989145   -0.168168
      8          6           0       -0.034156   -0.469419    0.314838
      9          6           0        1.225371   -1.216112    0.543924
     10          6           0        2.130681   -0.191533    1.257302
     11          8           0        3.427528   -0.225409    0.734300
     12          1           0        2.094989    1.587824   -0.845291
     13          1           0        1.700581    2.959342    0.052130
     14          1           0        1.422588    1.730797    2.063185
     15          1           0       -0.877020    2.795456    0.699088
     16          1           0       -3.046480    1.906933   -0.146303
     17          1           0       -3.271401   -0.505816   -0.702691
     18          1           0       -1.328568   -2.040101   -0.410662
     19          1           0        1.654306   -1.524840   -0.434202
     20          1           0        1.045676   -2.107100    1.183459
     21          1           0        2.176095   -0.440847    2.340566
     22         29           0        3.997973    1.638425    0.665231
 ---------------------------------------------------------------------
                    Distance matrix (angstroms):
                    1          2          3          4          5
     1  N    0.000000
     2  C    1.466477   0.000000
     3  C    2.436591   1.489498   0.000000
     4  C    3.186750   2.585175   1.398118   0.000000
     5  C    4.445560   3.830885   2.410635   1.403296   0.000000
     6  C    5.007203   4.262307   2.782623   2.435455   1.406497
     7  C    4.560195   3.698183   2.413316   2.817120   2.435517
     8  C    3.338180   2.373339   1.374025   2.413354   2.782196
     9  C    3.407070   2.487993   2.370520   3.694559   4.255222
    10  C    2.501488   1.551687   2.383315   3.751941   4.738653
    11  O    2.655008   2.450269   3.510497   4.837797   5.866279
    12  H    1.047079   2.068142   2.582209   3.346151   4.389844
    13  H    1.045993   2.054166   2.699887   2.972789   4.264429
    14  H    2.120074   1.112551   2.147319   2.890390   4.208010
    15  H    3.200449   2.860873   2.161877   1.082318   2.163867
    16  H    5.225662   4.730847   3.394433   2.157473   1.082232
    17  H    6.057381   5.343508   3.864858   3.414484   2.160586
    18  H    5.390423   4.533109   3.393404   3.899485   3.419255
    19  H    3.629103   3.126140   3.042018   4.294564   4.764761
    20  H    4.418987   3.335200   3.172282   4.413195   4.817571
    21  H    3.331692   2.184057   3.003050   4.276827   5.250038
    22  Cu   1.950003   2.603973   3.981328   4.985542   6.250250
                    6          7          8          9         10
     6  C    0.000000
     7  C    1.403355   0.000000
     8  C    2.409846   1.397176   0.000000
     9  C    3.820999   2.574036   1.482039   0.000000
    10  C    4.735425   3.743611   2.377389   1.542160   0.000000
    11  O    5.855867   4.812771   3.495532   2.422237   1.398746
    12  H    4.771317   4.266915   3.179844   3.247801   2.754684
    13  H    5.088070   4.926764   3.851588   4.231088   3.400800
    14  H    4.821963   4.410730   3.165402   3.321343   2.201408
    15  H    3.418918   3.899420   3.393741   4.531755   4.275508
    16  H    2.160597   3.414553   3.864427   5.336528   5.759919
    17  H    1.082237   2.157538   3.393589   4.720119   5.755244
    18  H    2.164322   1.082384   2.160763   2.848297   4.262125
    19  H    4.224571   2.953279   2.127411   1.111768   2.205862
    20  H    4.198393   2.879384   2.145353   1.111375   2.202745
    21  H    5.248323   4.271869   2.998266   2.175508   1.112511
    22  Cu   6.643294   5.917069   4.563315   3.981258   2.680685
                   11         12         13         14         15
    11  O    0.000000
    12  H    2.749288   0.000000
    13  H    3.686508   1.685818   0.000000
    14  H    3.100397   2.988611   2.372961   0.000000
    15  H    5.258897   3.560382   2.662600   2.877926   0.000000
    16  H    6.872781   5.198569   4.866367   4.988530   2.492131
    17  H    6.857056   5.762101   6.107183   5.889486   4.312359
    18  H    5.217710   5.007143   5.863817   5.282845   4.981772
    19  H    2.489625   3.170469   4.510715   4.109721   5.133899
    20  H    3.068505   4.343886   5.232365   3.955431   5.288330
    21  H    2.047581   3.777799   4.126056   2.315329   4.742322
    22  Cu   1.950399   2.430141   2.720060   2.931794   5.010531
                   16         17         18         19         20
    16  H    0.000000
    17  H    2.486265   0.000000
    18  H    4.312793   2.492772   0.000000
    19  H    5.827293   5.037170   3.027141   0.000000
    20  H    5.884426   4.975824   2.860550   1.823810   0.000000
    21  H    6.242746   6.240260   4.733871   3.024342   2.322314
    22  Cu   7.096126   7.701479   6.562099   4.087514   4.797247
                   21         22
    21  H    0.000000
    22  Cu   3.232547   0.000000
 Symmetry turned off by external request.
 Stoichiometry    C9H10CuNO(1+,2)
 Framework group  C1[X(C9H10CuNO)]
 Deg. of freedom    60
 Full point group                 C1      NOp   1
 Rotational constants (GHZ):           2.0329909           0.4333551           0.3722185
 Leave Link  202 at Fri Mar  8 02:29:14 2024, MaxMem= 13421772800 cpu:               0.9 elap:               0.0
 (Enter /public/software/apps/Gaussian/g16/l301.exe)
 Standard basis: def2SVPP (5D, 7F)
 Ernie: Thresh=  0.10000D-02 Tol=  0.10000D-05 Strict=F.
   198 basis functions,   386 primitive gaussians,   211 cartesian basis functions
    54 alpha electrons       53 beta electrons
       nuclear repulsion energy       945.7381668653 Hartrees.
 IExCor=  402 DFT=T Ex+Corr=B3LYP ExCW=0 ScaHFX=  0.200000
 ScaDFX=  0.800000  0.720000  1.000000  0.810000 ScalE2=  1.000000  1.000000
 IRadAn=      5 IRanWt=     -1 IRanGd=            0 ICorTp=0 IEmpDi=141
 NAtoms=   22 NActive=   22 NUniq=   22 SFac= 1.00D+00 NAtFMM=   60 NAOKFM=F Big=F
 Integral buffers will be    131072 words long.
 Raffenetti 2 integral format.
 Two-electron integral symmetry is turned off.
 R6Disp:  Grimme-D3(BJ) Dispersion energy=       -0.0484129671 Hartrees.
 Nuclear repulsion after empirical dispersion term =      945.6897538982 Hartrees.
 Leave Link  301 at Fri Mar  8 02:29:14 2024, MaxMem= 13421772800 cpu:               0.6 elap:               0.0
 (Enter /public/software/apps/Gaussian/g16/l302.exe)
 NPDir=0 NMtPBC=     1 NCelOv=     1 NCel=       1 NClECP=     1 NCelD=      1
         NCelK=      1 NCelE2=     1 NClLst=     1 CellRange=     0.0.
 One-electron integrals computed using PRISM.
   1 Symmetry operations used in ECPInt.
 ECPInt:  NShTT=    4656 NPrTT=   20313 LenC2=    4534 LenP2D=   14625.
 LDataN:  DoStor=T MaxTD1= 4 Len=   56
 NBasis=   198 RedAO= T EigKep=  2.72D-04  NBF=   198
 NBsUse=   198 1.00D-06 EigRej= -1.00D+00 NBFU=   198
 Precomputing XC quadrature grid using
 IXCGrd= 4 IRadAn=           5 IRanWt=          -1 IRanGd=           0 AccXCQ= 0.00D+00.
 Generated NRdTot=       0 NPtTot=           0 NUsed=           0 NTot=          32
 NSgBfM=   210   210   210   210   210 MxSgAt=    22 MxSgA2=    22.
 Leave Link  302 at Fri Mar  8 02:29:14 2024, MaxMem= 13421772800 cpu:               4.3 elap:               0.1
 (Enter /public/software/apps/Gaussian/g16/l303.exe)
 DipDrv:  MaxL=1.
 Leave Link  303 at Fri Mar  8 02:29:14 2024, MaxMem= 13421772800 cpu:               0.6 elap:               0.0
 (Enter /public/software/apps/Gaussian/g16/l401.exe)
 ExpMin= 3.30D-02 ExpMax= 7.64D+04 ExpMxC= 1.15D+04 IAcc=3 IRadAn=         5 AccDes= 0.00D+00
 Harris functional with IExCor=  402 and IRadAn=       5 diagonalized for initial guess.
 HarFok:  IExCor=  402 AccDes= 0.00D+00 IRadAn=         5 IDoV= 1 UseB2=F ITyADJ=14
 ICtDFT=  3500011 ScaDFX=  1.000000  1.000000  1.000000  1.000000
 FoFCou: FMM=F IPFlag=           0 FMFlag=      100000 FMFlg1=           0
         NFxFlg=           0 DoJE=T BraDBF=F KetDBF=T FulRan=T
         wScrn=  0.000000 ICntrl=       500 IOpCl=  0 I1Cent=   200000004 NGrid=           0
         NMat0=    1 NMatS0=      1 NMatT0=    0 NMatD0=    1 NMtDS0=    0 NMtDT0=    0
 Symmetry not used in FoFCou.
 Harris En= -2118.85690912133    
 JPrj=0 DoOrth=F DoCkMO=F.
 Initial guess <Sx>= 0.0000 <Sy>= 0.0000 <Sz>= 0.5000 <S**2>= 0.7500 S= 0.5000
 Leave Link  401 at Fri Mar  8 02:29:14 2024, MaxMem= 13421772800 cpu:               9.7 elap:               0.3
 (Enter /public/software/apps/Gaussian/g16/l502.exe)
 Two-electron integral symmetry not used.
 UHF open shell SCF:
 Using DIIS extrapolation, IDIIS=  1040.
 NGot= 13421772800 LenX= 13421674597 LenY= 13421629635
 Requested convergence on RMS density matrix=1.00D-08 within 128 cycles.
 Requested convergence on MAX density matrix=1.00D-06.
 Requested convergence on             energy=1.00D-06.
 No special actions if energy rises.
 Fock matrices will be formed incrementally for  20 cycles.

 Cycle   1  Pass 1  IDiag  1:
 FoFJK:  IHMeth= 1 ICntrl=       0 DoSepK=F KAlg= 0 I1Cent=           0 FoldK=F
 IRaf= 950000000 NMat=       1 IRICut=       1 DoRegI=T DoRafI=F ISym2E= 0 IDoP0=0 IntGTp=1.
 FoFCou: FMM=F IPFlag=           0 FMFlag=      100000 FMFlg1=           0
         NFxFlg=           0 DoJE=F BraDBF=F KetDBF=F FulRan=T
         wScrn=  0.000000 ICntrl=         0 IOpCl=  1 I1Cent=           0 NGrid=           0
         NMat0=    1 NMatS0=      1 NMatT0=    0 NMatD0=    1 NMtDS0=    0 NMtDT0=    0
 Symmetry not used in FoFCou.
 E= -2115.06700252881    
 DIIS: error= 1.44D-01 at cycle   1 NSaved=   1.
 NSaved= 1 IEnMin= 1 EnMin= -2115.06700252881     IErMin= 1 ErrMin= 1.44D-01
 ErrMax= 1.44D-01  0.00D+00 EMaxC= 1.00D-01 BMatC= 1.80D+01 BMatP= 1.80D+01
 IDIUse=3 WtCom= 0.00D+00 WtEn= 1.00D+00
 Coeff-Com:  0.100D+01
 Coeff-En:   0.100D+01
 Coeff:      0.100D+01
 Gap=     0.290 Goal=   None    Shift=    0.000
 Gap=     2.024 Goal=   None    Shift=    0.000
 GapD=    0.290 DampG=1.000 DampE=0.125 DampFc=0.1250 IDamp=-1.
 Damping current iteration by 1.25D-01
 RMSDP=6.73D-02 MaxDP=6.21D+00              OVMax= 9.56D-01

 Cycle   2  Pass 1  IDiag  1:
 RMSU=  8.40D-03    CP:  9.95D-01
 E= -2116.15842559979     Delta-E=       -1.091423070981 Rises=F Damp=T
 DIIS: error= 9.36D-02 at cycle   2 NSaved=   2.
 NSaved= 2 IEnMin= 2 EnMin= -2116.15842559979     IErMin= 2 ErrMin= 9.36D-02
 ErrMax= 9.36D-02  0.00D+00 EMaxC= 1.00D-01 BMatC= 6.59D+00 BMatP= 1.80D+01
 IDIUse=3 WtCom= 6.36D-02 WtEn= 9.36D-01
 Coeff-Com: -0.124D+01 0.224D+01
 Coeff-En:   0.000D+00 0.100D+01
 Coeff:     -0.792D-01 0.108D+01
 Gap=     0.102 Goal=   None    Shift=    0.000
 Gap=     0.046 Goal=   None    Shift=    0.000
 RMSDP=1.56D-02 MaxDP=1.06D+00 DE=-1.09D+00 OVMax= 9.67D-01

 Cycle   3  Pass 1  IDiag  1:
 RMSU=  1.51D-02    CP:  9.02D-01  1.22D+00
 E= -2113.16054203052     Delta-E=        2.997883569269 Rises=F Damp=F
 DIIS: error= 1.29D-01 at cycle   3 NSaved=   3.
 NSaved= 3 IEnMin= 2 EnMin= -2116.15842559979     IErMin= 2 ErrMin= 9.36D-02
 ErrMax= 1.29D-01  0.00D+00 EMaxC= 1.00D-01 BMatC= 1.85D+01 BMatP= 6.59D+00
 IDIUse=2 WtCom= 0.00D+00 WtEn= 1.00D+00
 EnCoef did    14 forward-backward iterations
 Coeff-En:   0.522D+00 0.670D-01 0.411D+00
 Coeff:      0.522D+00 0.670D-01 0.411D+00
 Gap=    -0.027 Goal=   None    Shift=    0.000
 Gap=    -0.352 Goal=   None    Shift=    0.000
 RMSDP=1.61D-02 MaxDP=6.28D-01 DE= 3.00D+00 OVMax= 8.10D-01

 Cycle   4  Pass 1  IDiag  1:
 RMSU=  1.45D-02    CP:  9.29D-01  1.07D+00  5.52D-01
 E= -2112.21733480561     Delta-E=        0.943207224914 Rises=F Damp=F
 DIIS: error= 7.94D-02 at cycle   4 NSaved=   4.
 NSaved= 4 IEnMin= 2 EnMin= -2116.15842559979     IErMin= 4 ErrMin= 7.94D-02
 ErrMax= 7.94D-02  0.00D+00 EMaxC= 1.00D-01 BMatC= 1.58D+01 BMatP= 6.59D+00
 IDIUse=2 WtCom= 0.00D+00 WtEn= 1.00D+00
 EnCoef did   100 forward-backward iterations
 Coeff-En:   0.496D+00 0.970D-02 0.268D+00 0.226D+00
 Coeff:      0.496D+00 0.970D-02 0.268D+00 0.226D+00
 Gap=    -0.013 Goal=   None    Shift=    0.000
 Gap=     0.464 Goal=   None    Shift=    0.000
 RMSDP=1.72D-02 MaxDP=1.61D+00 DE= 9.43D-01 OVMax= 9.52D-01

 Cycle   5  Pass 1  IDiag  1:
 RMSU=  7.77D-03    CP:  9.09D-01  1.42D-01  3.98D-01  1.03D-01
 E= -2118.22033156910     Delta-E=       -6.002996763493 Rises=F Damp=F
 DIIS: error= 5.57D-02 at cycle   5 NSaved=   5.
 NSaved= 5 IEnMin= 5 EnMin= -2118.22033156910     IErMin= 5 ErrMin= 5.57D-02
 ErrMax= 5.57D-02  0.00D+00 EMaxC= 1.00D-01 BMatC= 2.24D+00 BMatP= 6.59D+00
 IDIUse=3 WtCom= 4.43D-01 WtEn= 5.57D-01
 EnCoef did   100 forward-backward iterations
 Coeff-Com: -0.536D+00 0.107D+01 0.692D-02-0.169D+00 0.623D+00
 Coeff-En:   0.189D+00 0.252D-02 0.000D+00 0.000D+00 0.808D+00
 Coeff:     -0.132D+00 0.478D+00 0.307D-02-0.748D-01 0.726D+00
 Gap=     0.238 Goal=   None    Shift=    0.000
 Gap=     0.022 Goal=   None    Shift=    0.000
 RMSDP=8.27D-03 MaxDP=3.22D-01 DE=-6.00D+00 OVMax= 9.46D-01

 Cycle   6  Pass 1  IDiag  1:
 RMSU=  7.15D-03    CP:  9.27D-01  1.61D-01  3.94D-01 -1.43D-02  5.20D-01
 E= -2117.47224415500     Delta-E=        0.748087414097 Rises=F Damp=F
 DIIS: error= 6.91D-02 at cycle   6 NSaved=   6.
 NSaved= 6 IEnMin= 5 EnMin= -2118.22033156910     IErMin= 5 ErrMin= 5.57D-02
 ErrMax= 6.91D-02  0.00D+00 EMaxC= 1.00D-01 BMatC= 4.21D+00 BMatP= 2.24D+00
 IDIUse=2 WtCom= 0.00D+00 WtEn= 1.00D+00
 EnCoef did     6 forward-backward iterations
 Coeff-En:   0.145D+00 0.000D+00 0.000D+00 0.000D+00 0.673D+00 0.183D+00
 Coeff:      0.145D+00 0.000D+00 0.000D+00 0.000D+00 0.673D+00 0.183D+00
 Gap=    -0.029 Goal=   None    Shift=    0.000
 Gap=     0.001 Goal=   None    Shift=    0.000
 RMSDP=7.89D-03 MaxDP=3.81D-01 DE= 7.48D-01 OVMax= 7.48D-01

 Cycle   7  Pass 1  IDiag  1:
 RMSU=  4.57D-03    CP:  9.25D-01  8.33D-02  2.38D-01  5.61D-02  6.43D-01
                    CP:  1.91D-01
 E= -2118.19241246130     Delta-E=       -0.720168306299 Rises=F Damp=F
 DIIS: error= 7.33D-02 at cycle   7 NSaved=   7.
 NSaved= 7 IEnMin= 5 EnMin= -2118.22033156910     IErMin= 5 ErrMin= 5.57D-02
 ErrMax= 7.33D-02  0.00D+00 EMaxC= 1.00D-01 BMatC= 3.33D+00 BMatP= 2.24D+00
 IDIUse=2 WtCom= 0.00D+00 WtEn= 1.00D+00
 EnCoef did     1 forward-backward iterations
 Coeff-En:   0.000D+00 0.000D+00 0.000D+00 0.000D+00 0.479D+00 0.766D-01
 Coeff-En:   0.444D+00
 Coeff:      0.000D+00 0.000D+00 0.000D+00 0.000D+00 0.479D+00 0.766D-01
 Coeff:      0.444D+00
 Gap=     0.213 Goal=   None    Shift=    0.000
 Gap=     0.071 Goal=   None    Shift=    0.000
 RMSDP=4.80D-03 MaxDP=3.54D-01 DE=-7.20D-01 OVMax= 5.39D-01

 Cycle   8  Pass 1  IDiag  1:
 RMSU=  2.90D-03    CP:  9.14D-01  1.26D-01  3.85D-01  3.38D-02  7.74D-01
                    CP:  3.64D-01  4.30D-01
 E= -2118.53664196382     Delta-E=       -0.344229502520 Rises=F Damp=F
 DIIS: error= 1.80D-02 at cycle   8 NSaved=   8.
 NSaved= 8 IEnMin= 8 EnMin= -2118.53664196382     IErMin= 8 ErrMin= 1.80D-02
 ErrMax= 1.80D-02  0.00D+00 EMaxC= 1.00D-01 BMatC= 6.56D-01 BMatP= 2.24D+00
 IDIUse=3 WtCom= 8.20D-01 WtEn= 1.80D-01
 EnCoef did     6 forward-backward iterations
 Coeff-Com: -0.820D-01 0.123D+00-0.332D-01-0.122D-01 0.329D+00-0.208D-01
 Coeff-Com:  0.275D+00 0.420D+00
 Coeff-En:   0.000D+00 0.000D+00 0.000D+00 0.000D+00 0.245D+00 0.000D+00
 Coeff-En:   0.288D+00 0.467D+00
 Coeff:     -0.672D-01 0.101D+00-0.272D-01-0.100D-01 0.314D+00-0.170D-01
 Coeff:      0.278D+00 0.429D+00
 Gap=     0.176 Goal=   None    Shift=    0.000
 Gap=     0.041 Goal=   None    Shift=    0.000
 RMSDP=2.04D-03 MaxDP=9.08D-02 DE=-3.44D-01 OVMax= 2.69D-01

 Cycle   9  Pass 1  IDiag  1:
 RMSU=  1.30D-03    CP:  9.12D-01  9.02D-02  3.46D-01  5.12D-02  7.80D-01
                    CP:  1.98D-01  5.50D-01  8.28D-01
 E= -2118.66726620737     Delta-E=       -0.130624243548 Rises=F Damp=F
 DIIS: error= 6.06D-03 at cycle   9 NSaved=   9.
 NSaved= 9 IEnMin= 9 EnMin= -2118.66726620737     IErMin= 9 ErrMin= 6.06D-03
 ErrMax= 6.06D-03  0.00D+00 EMaxC= 1.00D-01 BMatC= 6.06D-02 BMatP= 6.56D-01
 IDIUse=3 WtCom= 9.39D-01 WtEn= 6.06D-02
 Coeff-Com: -0.120D+00 0.207D+00-0.834D-02 0.496D-02 0.660D-01-0.172D-02
 Coeff-Com:  0.103D-01-0.126D+00 0.968D+00
 Coeff-En:   0.000D+00 0.000D+00 0.000D+00 0.000D+00 0.000D+00 0.000D+00
 Coeff-En:   0.000D+00 0.000D+00 0.100D+01
 Coeff:     -0.112D+00 0.194D+00-0.784D-02 0.466D-02 0.620D-01-0.161D-02
 Coeff:      0.967D-02-0.119D+00 0.970D+00
 Gap=     0.179 Goal=   None    Shift=    0.000
 Gap=     0.070 Goal=   None    Shift=    0.000
 RMSDP=9.69D-04 MaxDP=3.30D-02 DE=-1.31D-01 OVMax= 5.59D-02

 Cycle  10  Pass 1  IDiag  1:
 RMSU=  7.19D-04    CP:  9.11D-01  9.46D-02  3.50D-01  7.40D-02  7.92D-01
                    CP:  1.43D-01  4.93D-01  8.55D-01  1.20D+00
 E= -2118.67164433311     Delta-E=       -0.004378125741 Rises=F Damp=F
 DIIS: error= 9.18D-03 at cycle  10 NSaved=  10.
 NSaved=10 IEnMin=10 EnMin= -2118.67164433311     IErMin= 9 ErrMin= 6.06D-03
 ErrMax= 9.18D-03  0.00D+00 EMaxC= 1.00D-01 BMatC= 7.67D-02 BMatP= 6.06D-02
 IDIUse=3 WtCom= 9.39D-01 WtEn= 6.06D-02
 Coeff-Com: -0.859D-01 0.140D+00-0.209D-02 0.668D-02 0.349D-04 0.111D-01
 Coeff-Com:  0.264D-01-0.241D+00 0.577D+00 0.568D+00
 Coeff-En:   0.000D+00 0.000D+00 0.000D+00 0.000D+00 0.000D+00 0.000D+00
 Coeff-En:   0.000D+00 0.000D+00 0.209D+00 0.791D+00
 Coeff:     -0.807D-01 0.131D+00-0.196D-02 0.627D-02 0.328D-04 0.104D-01
 Coeff:      0.248D-01-0.227D+00 0.554D+00 0.582D+00
 Gap=     0.134 Goal=   None    Shift=    0.000
 Gap=     0.046 Goal=   None    Shift=    0.000
 RMSDP=6.23D-04 MaxDP=1.82D-02 DE=-4.38D-03 OVMax= 5.61D-02

 Cycle  11  Pass 1  IDiag  1:
 RMSU=  4.08D-04    CP:  9.11D-01  1.01D-01  3.44D-01  8.79D-02  7.80D-01
                    CP:  1.12D-01  5.16D-01  7.94D-01  1.37D+00  1.18D+00
 E= -2118.68328735261     Delta-E=       -0.011643019502 Rises=F Damp=F
 DIIS: error= 5.05D-03 at cycle  11 NSaved=  11.
 NSaved=11 IEnMin=11 EnMin= -2118.68328735261     IErMin=11 ErrMin= 5.05D-03
 ErrMax= 5.05D-03  0.00D+00 EMaxC= 1.00D-01 BMatC= 1.93D-02 BMatP= 6.06D-02
 IDIUse=3 WtCom= 9.49D-01 WtEn= 5.05D-02
 Coeff-Com: -0.304D-01 0.475D-01-0.596D-03 0.176D-02-0.351D-01 0.500D-02
 Coeff-Com:  0.393D-01-0.710D-01-0.118D+00 0.519D-01 0.111D+01
 Coeff-En:   0.000D+00 0.000D+00 0.000D+00 0.000D+00 0.000D+00 0.000D+00
 Coeff-En:   0.000D+00 0.000D+00 0.000D+00 0.000D+00 0.100D+01
 Coeff:     -0.289D-01 0.451D-01-0.565D-03 0.167D-02-0.334D-01 0.475D-02
 Coeff:      0.373D-01-0.674D-01-0.112D+00 0.493D-01 0.110D+01
 Gap=     0.116 Goal=   None    Shift=    0.000
 Gap=     0.041 Goal=   None    Shift=    0.000
 RMSDP=4.99D-04 MaxDP=1.14D-02 DE=-1.16D-02 OVMax= 3.95D-02

 Cycle  12  Pass 1  IDiag  1:
 RMSU=  2.56D-04    CP:  9.11D-01  1.08D-01  3.40D-01  9.89D-02  7.71D-01
                    CP:  9.32D-02  5.22D-01  7.78D-01  1.42D+00  1.60D+00
                    CP:  1.44D+00
 E= -2118.68571660088     Delta-E=       -0.002429248264 Rises=F Damp=F
 DIIS: error= 2.76D-03 at cycle  12 NSaved=  12.
 NSaved=12 IEnMin=12 EnMin= -2118.68571660088     IErMin=12 ErrMin= 2.76D-03
 ErrMax= 2.76D-03  0.00D+00 EMaxC= 1.00D-01 BMatC= 6.09D-03 BMatP= 1.93D-02
 IDIUse=3 WtCom= 9.72D-01 WtEn= 2.76D-02
 Coeff-Com: -0.412D-02 0.572D-02-0.120D-02 0.414D-03-0.233D-01 0.220D-02
 Coeff-Com:  0.255D-01-0.372D-02-0.937D-01-0.163D+00 0.591D+00 0.664D+00
 Coeff-En:   0.000D+00 0.000D+00 0.000D+00 0.000D+00 0.000D+00 0.000D+00
 Coeff-En:   0.000D+00 0.000D+00 0.000D+00 0.000D+00 0.000D+00 0.100D+01
 Coeff:     -0.400D-02 0.557D-02-0.116D-02 0.403D-03-0.227D-01 0.214D-02
 Coeff:      0.248D-01-0.361D-02-0.911D-01-0.158D+00 0.575D+00 0.673D+00
 Gap=     0.116 Goal=   None    Shift=    0.000
 Gap=     0.042 Goal=   None    Shift=    0.000
 RMSDP=2.18D-04 MaxDP=6.64D-03 DE=-2.43D-03 OVMax= 2.03D-02

 Cycle  13  Pass 1  IDiag  1:
 RMSU=  1.41D-04    CP:  9.11D-01  1.07D-01  3.36D-01  1.01D-01  7.67D-01
                    CP:  9.20D-02  5.37D-01  7.54D-01  1.44D+00  1.59D+00
                    CP:  1.66D+00  8.12D-01
 E= -2118.68669788531     Delta-E=       -0.000981284434 Rises=F Damp=F
 DIIS: error= 8.06D-04 at cycle  13 NSaved=  13.
 NSaved=13 IEnMin=13 EnMin= -2118.68669788531     IErMin=13 ErrMin= 8.06D-04
 ErrMax= 8.06D-04  0.00D+00 EMaxC= 1.00D-01 BMatC= 7.91D-04 BMatP= 6.09D-03
 IDIUse=3 WtCom= 9.92D-01 WtEn= 8.06D-03
 Coeff-Com:  0.182D-02-0.368D-02-0.171D-03-0.771D-03 0.106D-02 0.421D-03
 Coeff-Com:  0.712D-02-0.732D-02 0.896D-01-0.667D-01-0.928D-01 0.334D+00
 Coeff-Com:  0.737D+00
 Coeff-En:   0.000D+00 0.000D+00 0.000D+00 0.000D+00 0.000D+00 0.000D+00
 Coeff-En:   0.000D+00 0.000D+00 0.000D+00 0.000D+00 0.000D+00 0.000D+00
 Coeff-En:   0.100D+01
 Coeff:      0.180D-02-0.365D-02-0.170D-03-0.765D-03 0.105D-02 0.418D-03
 Coeff:      0.706D-02-0.726D-02 0.888D-01-0.662D-01-0.920D-01 0.331D+00
 Coeff:      0.740D+00
 Gap=     0.121 Goal=   None    Shift=    0.000
 Gap=     0.044 Goal=   None    Shift=    0.000
 RMSDP=1.39D-04 MaxDP=5.50D-03 DE=-9.81D-04 OVMax= 1.67D-02

 Cycle  14  Pass 1  IDiag  1:
 RMSU=  7.59D-05    CP:  9.11D-01  1.05D-01  3.34D-01  9.83D-02  7.66D-01
                    CP:  9.18D-02  5.49D-01  7.38D-01  1.43D+00  1.52D+00
                    CP:  1.57D+00  9.88D-01  9.44D-01
 E= -2118.68687164288     Delta-E=       -0.000173757571 Rises=F Damp=F
 DIIS: error= 5.08D-04 at cycle  14 NSaved=  14.
 NSaved=14 IEnMin=14 EnMin= -2118.68687164288     IErMin=14 ErrMin= 5.08D-04
 ErrMax= 5.08D-04  0.00D+00 EMaxC= 1.00D-01 BMatC= 2.51D-04 BMatP= 7.91D-04
 IDIUse=3 WtCom= 9.95D-01 WtEn= 5.08D-03
 Coeff-Com:  0.561D-03-0.108D-02 0.875D-04-0.318D-03 0.138D-02 0.400D-04
 Coeff-Com:  0.151D-03-0.173D-02 0.545D-01-0.188D-01-0.597D-01 0.116D+00
 Coeff-Com:  0.369D+00 0.539D+00
 Coeff-En:   0.000D+00 0.000D+00 0.000D+00 0.000D+00 0.000D+00 0.000D+00
 Coeff-En:   0.000D+00 0.000D+00 0.000D+00 0.000D+00 0.000D+00 0.000D+00
 Coeff-En:   0.469D-01 0.953D+00
 Coeff:      0.558D-03-0.107D-02 0.871D-04-0.316D-03 0.137D-02 0.398D-04
 Coeff:      0.150D-03-0.172D-02 0.542D-01-0.187D-01-0.594D-01 0.116D+00
 Coeff:      0.368D+00 0.541D+00
 Gap=     0.121 Goal=   None    Shift=    0.000
 Gap=     0.044 Goal=   None    Shift=    0.000
 RMSDP=4.16D-05 MaxDP=1.56D-03 DE=-1.74D-04 OVMax= 3.57D-03

 Cycle  15  Pass 1  IDiag  1:
 RMSU=  3.38D-05    CP:  9.11D-01  1.05D-01  3.35D-01  9.75D-02  7.66D-01
                    CP:  9.18D-02  5.49D-01  7.38D-01  1.43D+00  1.51D+00
                    CP:  1.57D+00  9.93D-01  1.05D+00  1.04D+00
 E= -2118.68691905888     Delta-E=       -0.000047415994 Rises=F Damp=F
 DIIS: error= 2.91D-04 at cycle  15 NSaved=  15.
 NSaved=15 IEnMin=15 EnMin= -2118.68691905888     IErMin=15 ErrMin= 2.91D-04
 ErrMax= 2.91D-04  0.00D+00 EMaxC= 1.00D-01 BMatC= 7.47D-05 BMatP= 2.51D-04
 IDIUse=3 WtCom= 9.97D-01 WtEn= 2.91D-03
 Coeff-Com: -0.861D-04 0.246D-03-0.299D-05-0.105D-03-0.169D-03-0.188D-03
 Coeff-Com: -0.154D-02 0.537D-02 0.594D-02-0.744D-02 0.790D-02 0.293D-01
 Coeff-Com:  0.739D-01 0.199D+00 0.688D+00
 Coeff-En:   0.000D+00 0.000D+00 0.000D+00 0.000D+00 0.000D+00 0.000D+00
 Coeff-En:   0.000D+00 0.000D+00 0.000D+00 0.000D+00 0.000D+00 0.000D+00
 Coeff-En:   0.000D+00 0.000D+00 0.100D+01
 Coeff:     -0.859D-04 0.245D-03-0.298D-05-0.105D-03-0.168D-03-0.187D-03
 Coeff:     -0.153D-02 0.535D-02 0.592D-02-0.742D-02 0.788D-02 0.292D-01
 Coeff:      0.737D-01 0.198D+00 0.689D+00
 Gap=     0.121 Goal=   None    Shift=    0.000
 Gap=     0.044 Goal=   None    Shift=    0.000
 RMSDP=3.52D-05 MaxDP=2.09D-03 DE=-4.74D-05 OVMax= 5.10D-03

 Cycle  16  Pass 1  IDiag  1:
 RMSU=  1.74D-05    CP:  9.11D-01  1.05D-01  3.35D-01  9.73D-02  7.67D-01
                    CP:  9.08D-02  5.49D-01  7.36D-01  1.43D+00  1.52D+00
                    CP:  1.57D+00  1.03D+00  1.13D+00  1.25D+00  1.50D+00
 E= -2118.68694733481     Delta-E=       -0.000028275932 Rises=F Damp=F
 DIIS: error= 1.62D-04 at cycle  16 NSaved=  16.
 NSaved=16 IEnMin=16 EnMin= -2118.68694733481     IErMin=16 ErrMin= 1.62D-04
 ErrMax= 1.62D-04  0.00D+00 EMaxC= 1.00D-01 BMatC= 1.30D-05 BMatP= 7.47D-05
 IDIUse=3 WtCom= 9.98D-01 WtEn= 1.62D-03
 Coeff-Com: -0.220D-03 0.492D-03-0.374D-04 0.960D-05-0.214D-03-0.110D-03
 Coeff-Com: -0.934D-03 0.383D-02-0.142D-01 0.859D-02-0.378D-02-0.467D-01
 Coeff-Com: -0.117D+00-0.268D+00-0.176D+00 0.161D+01
 Coeff-En:   0.000D+00 0.000D+00 0.000D+00 0.000D+00 0.000D+00 0.000D+00
 Coeff-En:   0.000D+00 0.000D+00 0.000D+00 0.000D+00 0.000D+00 0.000D+00
 Coeff-En:   0.000D+00 0.000D+00 0.000D+00 0.100D+01
 Coeff:     -0.219D-03 0.491D-03-0.373D-04 0.959D-05-0.213D-03-0.109D-03
 Coeff:     -0.932D-03 0.383D-02-0.142D-01 0.857D-02-0.377D-02-0.467D-01
 Coeff:     -0.117D+00-0.267D+00-0.176D+00 0.161D+01
 Gap=     0.121 Goal=   None    Shift=    0.000
 Gap=     0.044 Goal=   None    Shift=    0.000
 RMSDP=8.98D-05 MaxDP=4.57D-03 DE=-2.83D-05 OVMax= 1.72D-02

 Cycle  17  Pass 1  IDiag  1:
 RMSU=  1.66D-05    CP:  9.11D-01  1.05D-01  3.35D-01  9.68D-02  7.67D-01
                    CP:  8.77D-02  5.52D-01  7.25D-01  1.43D+00  1.52D+00
                    CP:  1.59D+00  1.11D+00  1.34D+00  1.78D+00  2.89D+00
                    CP:  2.73D+00
 E= -2118.68699072811     Delta-E=       -0.000043393301 Rises=F Damp=F
 DIIS: error= 1.21D-04 at cycle  17 NSaved=  17.
 NSaved=17 IEnMin=17 EnMin= -2118.68699072811     IErMin=17 ErrMin= 1.21D-04
 ErrMax= 1.21D-04  0.00D+00 EMaxC= 1.00D-01 BMatC= 6.87D-06 BMatP= 1.30D-05
 IDIUse=3 WtCom= 9.99D-01 WtEn= 1.21D-03
 Coeff-Com: -0.579D-04 0.126D-03-0.521D-04 0.399D-04 0.111D-03 0.148D-04
 Coeff-Com: -0.281D-03 0.180D-02-0.925D-02 0.851D-02-0.182D-01-0.435D-01
 Coeff-Com: -0.907D-01-0.257D+00-0.446D+00 0.111D+01 0.743D+00
 Coeff-En:   0.000D+00 0.000D+00 0.000D+00 0.000D+00 0.000D+00 0.000D+00
 Coeff-En:   0.000D+00 0.000D+00 0.000D+00 0.000D+00 0.000D+00 0.000D+00
 Coeff-En:   0.000D+00 0.000D+00 0.000D+00 0.000D+00 0.100D+01
 Coeff:     -0.578D-04 0.126D-03-0.520D-04 0.399D-04 0.111D-03 0.148D-04
 Coeff:     -0.281D-03 0.180D-02-0.924D-02 0.850D-02-0.181D-01-0.435D-01
 Coeff:     -0.906D-01-0.257D+00-0.445D+00 0.111D+01 0.743D+00
 Gap=     0.121 Goal=   None    Shift=    0.000
 Gap=     0.045 Goal=   None    Shift=    0.000
 RMSDP=7.00D-05 MaxDP=3.42D-03 DE=-4.34D-05 OVMax= 1.41D-02

 Cycle  18  Pass 1  IDiag  1:
 RMSU=  3.95D-05    CP:  9.11D-01  1.05D-01  3.35D-01  9.65D-02  7.67D-01
                    CP:  8.52D-02  5.55D-01  7.16D-01  1.43D+00  1.52D+00
                    CP:  1.60D+00  1.16D+00  1.48D+00  2.14D+00  3.00D+00
                    CP:  3.00D+00  1.71D+00
 E= -2118.68701916195     Delta-E=       -0.000028433838 Rises=F Damp=F
 DIIS: error= 1.07D-04 at cycle  18 NSaved=  18.
 NSaved=18 IEnMin=18 EnMin= -2118.68701916195     IErMin=18 ErrMin= 1.07D-04
 ErrMax= 1.07D-04  0.00D+00 EMaxC= 1.00D-01 BMatC= 6.78D-06 BMatP= 6.87D-06
 IDIUse=3 WtCom= 9.99D-01 WtEn= 1.07D-03
 Coeff-Com: -0.101D-03 0.139D-03-0.178D-04 0.179D-04 0.214D-03-0.628D-04
 Coeff-Com: -0.153D-03 0.138D-02 0.412D-02-0.363D-02-0.912D-02 0.934D-02
 Coeff-Com:  0.371D-01 0.322D-01-0.123D+00-0.394D+00 0.348D+00 0.110D+01
 Coeff-En:   0.000D+00 0.000D+00 0.000D+00 0.000D+00 0.000D+00 0.000D+00
 Coeff-En:   0.000D+00 0.000D+00 0.000D+00 0.000D+00 0.000D+00 0.000D+00
 Coeff-En:   0.000D+00 0.000D+00 0.000D+00 0.000D+00 0.000D+00 0.100D+01
 Coeff:     -0.101D-03 0.139D-03-0.178D-04 0.179D-04 0.214D-03-0.628D-04
 Coeff:     -0.153D-03 0.138D-02 0.411D-02-0.362D-02-0.911D-02 0.933D-02
 Coeff:      0.371D-01 0.322D-01-0.122D+00-0.393D+00 0.348D+00 0.110D+01
 Gap=     0.121 Goal=   None    Shift=    0.000
 Gap=     0.045 Goal=   None    Shift=    0.000
 RMSDP=7.99D-05 MaxDP=3.74D-03 DE=-2.84D-05 OVMax= 1.64D-02

 Cycle  19  Pass 1  IDiag  1:
 RMSU=  9.78D-06    CP:  9.11D-01  1.05D-01  3.35D-01  9.62D-02  7.67D-01
                    CP:  8.20D-02  5.59D-01  7.04D-01  1.43D+00  1.52D+00
                    CP:  1.61D+00  1.22D+00  1.61D+00  2.51D+00  3.00D+00
                    CP:  3.00D+00  3.00D+00  2.29D+00
 E= -2118.68704823893     Delta-E=       -0.000029076984 Rises=F Damp=F
 DIIS: error= 9.27D-05 at cycle  19 NSaved=  19.
 NSaved=19 IEnMin=19 EnMin= -2118.68704823893     IErMin=19 ErrMin= 9.27D-05
 ErrMax= 9.27D-05  0.00D+00 EMaxC= 1.00D-01 BMatC= 8.09D-06 BMatP= 6.78D-06
 IDIUse=1 WtCom= 1.00D+00 WtEn= 0.00D+00
 Coeff-Com: -0.258D-03 0.392D-03 0.246D-05-0.102D-04 0.772D-04-0.108D-03
 Coeff-Com: -0.293D-03 0.171D-02 0.143D-01-0.161D-01 0.746D-02 0.614D-01
 Coeff-Com:  0.151D+00 0.284D+00 0.236D+00-0.154D+01-0.376D+00 0.972D+00
 Coeff-Com:  0.120D+01
 Coeff:     -0.258D-03 0.392D-03 0.246D-05-0.102D-04 0.772D-04-0.108D-03
 Coeff:     -0.293D-03 0.171D-02 0.143D-01-0.161D-01 0.746D-02 0.614D-01
 Coeff:      0.151D+00 0.284D+00 0.236D+00-0.154D+01-0.376D+00 0.972D+00
 Coeff:      0.120D+01
 Gap=     0.121 Goal=   None    Shift=    0.000
 Gap=     0.045 Goal=   None    Shift=    0.000
 RMSDP=1.41D-04 MaxDP=6.21D-03 DE=-2.91D-05 OVMax= 2.88D-02

 Cycle  20  Pass 1  IDiag  1:
 RMSU=  7.68D-05    CP:  9.11D-01  1.05D-01  3.35D-01  9.57D-02  7.67D-01
                    CP:  7.66D-02  5.65D-01  6.84D-01  1.43D+00  1.53D+00
                    CP:  1.64D+00  1.30D+00  1.81D+00  3.00D+00  3.00D+00
                    CP:  3.00D+00  3.00D+00  3.00D+00  2.79D+00
 E= -2118.68709184668     Delta-E=       -0.000043607745 Rises=F Damp=F
 DIIS: error= 6.30D-05 at cycle  20 NSaved=  20.
 NSaved=20 IEnMin=20 EnMin= -2118.68709184668     IErMin=20 ErrMin= 6.30D-05
 ErrMax= 6.30D-05  0.00D+00 EMaxC= 1.00D-01 BMatC= 3.93D-06 BMatP= 6.78D-06
 IDIUse=1 WtCom= 1.00D+00 WtEn= 0.00D+00
 Coeff-Com: -0.269D-03 0.482D-03 0.180D-05-0.487D-04 0.727D-04-0.104D-03
 Coeff-Com: -0.497D-03 0.143D-02 0.753D-02-0.892D-02 0.350D-02 0.314D-01
 Coeff-Com:  0.757D-01 0.126D+00 0.111D+00-0.421D+00-0.483D+00-0.761D+00
 Coeff-Com:  0.716D+00 0.160D+01
 Coeff:     -0.269D-03 0.482D-03 0.180D-05-0.487D-04 0.727D-04-0.104D-03
 Coeff:     -0.497D-03 0.143D-02 0.753D-02-0.892D-02 0.350D-02 0.314D-01
 Coeff:      0.757D-01 0.126D+00 0.111D+00-0.421D+00-0.483D+00-0.761D+00
 Coeff:      0.716D+00 0.160D+01
 Gap=     0.120 Goal=   None    Shift=    0.000
 Gap=     0.045 Goal=   None    Shift=    0.000
 RMSDP=2.21D-04 MaxDP=9.72D-03 DE=-4.36D-05 OVMax= 4.57D-02

 Cycle  21  Pass 1  IDiag  1:
 Restarting incremental Fock formation.
 E= -2118.68713769577     Delta-E=       -0.000045849089 Rises=F Damp=F
 DIIS: error= 4.96D-05 at cycle  21 NSaved=  20.
 NSaved=20 IEnMin=20 EnMin= -2118.68713769577     IErMin=20 ErrMin= 4.96D-05
 ErrMax= 4.96D-05  0.00D+00 EMaxC= 1.00D-01 BMatC= 2.39D-06 BMatP= 3.93D-06
 IDIUse=1 WtCom= 1.00D+00 WtEn= 0.00D+00
 Coeff-Com: -0.113D-03 0.225D-03-0.370D-04 0.299D-03-0.362D-04-0.318D-03
 Coeff-Com:  0.350D-03 0.109D-02 0.195D-02-0.801D-02-0.117D-01-0.150D-01
 Coeff-Com: -0.232D-01-0.406D-01 0.395D+00-0.870D-01-0.944D+00 0.565D-01
 Coeff-Com:  0.100D+01 0.671D+00
 Coeff:     -0.113D-03 0.225D-03-0.370D-04 0.299D-03-0.362D-04-0.318D-03
 Coeff:      0.350D-03 0.109D-02 0.195D-02-0.801D-02-0.117D-01-0.150D-01
 Coeff:     -0.232D-01-0.406D-01 0.395D+00-0.870D-01-0.944D+00 0.565D-01
 Coeff:      0.100D+01 0.671D+00
 Gap=     0.120 Goal=   None    Shift=    0.000
 Gap=     0.045 Goal=   None    Shift=    0.000
 RMSDP=5.81D-05 MaxDP=2.80D-03 DE=-4.58D-05 OVMax= 1.23D-02

 Cycle  22  Pass 1  IDiag  1:
 RMSU=  5.81D-05    CP:  1.00D+00
 E= -2118.68714606249     Delta-E=       -0.000008366727 Rises=F Damp=F
 DIIS: error= 3.70D-05 at cycle  22 NSaved=  20.
 NSaved=20 IEnMin=20 EnMin= -2118.68714606249     IErMin=20 ErrMin= 3.70D-05
 ErrMax= 3.70D-05  0.00D+00 EMaxC= 1.00D-01 BMatC= 6.74D-07 BMatP= 2.39D-06
 IDIUse=1 WtCom= 1.00D+00 WtEn= 0.00D+00
 Coeff-Com: -0.596D-04 0.103D-03 0.227D-03-0.646D-05-0.525D-04-0.132D-03
 Coeff-Com: -0.246D-02 0.451D-02-0.811D-02-0.201D-01-0.360D-01-0.687D-01
 Coeff-Com: -0.846D-01 0.355D+00 0.155D+00-0.235D+00-0.220D+00-0.835D-01
 Coeff-Com: -0.377D+00 0.162D+01
 Coeff:     -0.596D-04 0.103D-03 0.227D-03-0.646D-05-0.525D-04-0.132D-03
 Coeff:     -0.246D-02 0.451D-02-0.811D-02-0.201D-01-0.360D-01-0.687D-01
 Coeff:     -0.846D-01 0.355D+00 0.155D+00-0.235D+00-0.220D+00-0.835D-01
 Coeff:     -0.377D+00 0.162D+01
 Gap=     0.120 Goal=   None    Shift=    0.000
 Gap=     0.045 Goal=   None    Shift=    0.000
 RMSDP=9.90D-05 MaxDP=4.92D-03 DE=-8.37D-06 OVMax= 2.10D-02

 Cycle  23  Pass 1  IDiag  1:
 RMSU=  7.22D-06    CP:  1.00D+00  2.70D+00
 E= -2118.68715579444     Delta-E=       -0.000009731945 Rises=F Damp=F
 DIIS: error= 2.24D-05 at cycle  23 NSaved=  20.
 NSaved=20 IEnMin=20 EnMin= -2118.68715579444     IErMin=20 ErrMin= 2.24D-05
 ErrMax= 2.24D-05  0.00D+00 EMaxC= 1.00D-01 BMatC= 3.97D-07 BMatP= 6.74D-07
 IDIUse=1 WtCom= 1.00D+00 WtEn= 0.00D+00
 Coeff-Com: -0.319D-04 0.509D-05-0.896D-05 0.106D-03 0.345D-03-0.216D-02
 Coeff-Com:  0.726D-03-0.948D-03-0.472D-02-0.122D-01-0.475D-01-0.648D-01
 Coeff-Com:  0.527D-03 0.123D+00 0.311D+00-0.126D+00-0.410D+00-0.107D+01
 Coeff-Com:  0.120D+01 0.111D+01
 Coeff:     -0.319D-04 0.509D-05-0.896D-05 0.106D-03 0.345D-03-0.216D-02
 Coeff:      0.726D-03-0.948D-03-0.472D-02-0.122D-01-0.475D-01-0.648D-01
 Coeff:      0.527D-03 0.123D+00 0.311D+00-0.126D+00-0.410D+00-0.107D+01
 Coeff:      0.120D+01 0.111D+01
 Gap=     0.120 Goal=   None    Shift=    0.000
 Gap=     0.045 Goal=   None    Shift=    0.000
 RMSDP=1.09D-04 MaxDP=5.57D-03 DE=-9.73D-06 OVMax= 2.31D-02

 Cycle  24  Pass 1  IDiag  1:
 RMSU=  9.09D-05    CP:  1.00D+00  3.00D+00  2.49D+00
 E= -2118.68716097222     Delta-E=       -0.000005177780 Rises=F Damp=F
 DIIS: error= 2.08D-05 at cycle  24 NSaved=  20.
 NSaved=20 IEnMin=20 EnMin= -2118.68716097222     IErMin=20 ErrMin= 2.08D-05
 ErrMax= 2.08D-05  0.00D+00 EMaxC= 1.00D-01 BMatC= 4.95D-07 BMatP= 3.97D-07
 IDIUse=1 WtCom= 1.00D+00 WtEn= 0.00D+00
 Coeff-Com:  0.805D-05-0.131D-04 0.161D-04 0.114D-03 0.143D-02-0.221D-02
 Coeff-Com:  0.404D-02 0.826D-02 0.182D-01 0.311D-01 0.424D-01-0.275D+00
 Coeff-Com: -0.353D-01 0.319D+00 0.121D+00-0.171D+00-0.733D+00 0.256D+00
 Coeff-Com:  0.597D+00 0.818D+00
 Coeff:      0.805D-05-0.131D-04 0.161D-04 0.114D-03 0.143D-02-0.221D-02
 Coeff:      0.404D-02 0.826D-02 0.182D-01 0.311D-01 0.424D-01-0.275D+00
 Coeff:     -0.353D-01 0.319D+00 0.121D+00-0.171D+00-0.733D+00 0.256D+00
 Coeff:      0.597D+00 0.818D+00
 Gap=     0.120 Goal=   None    Shift=    0.000
 Gap=     0.045 Goal=   None    Shift=    0.000
 RMSDP=2.80D-05 MaxDP=1.53D-03 DE=-5.18D-06 OVMax= 6.03D-03

 Cycle  25  Pass 1  IDiag  1:
 RMSU=  4.49D-06    CP:  1.00D+00  3.00D+00  2.84D+00  1.30D+00
 E= -2118.68716159895     Delta-E=       -0.000000626735 Rises=F Damp=F
 DIIS: error= 3.41D-06 at cycle  25 NSaved=  20.
 NSaved=20 IEnMin=20 EnMin= -2118.68716159895     IErMin=20 ErrMin= 3.41D-06
 ErrMax= 3.41D-06  0.00D+00 EMaxC= 1.00D-01 BMatC= 1.68D-08 BMatP= 3.97D-07
 IDIUse=1 WtCom= 1.00D+00 WtEn= 0.00D+00
 Coeff-Com:  0.107D-04-0.703D-05-0.247D-04 0.119D-02-0.966D-03 0.156D-02
 Coeff-Com:  0.440D-02 0.104D-01 0.213D-01 0.266D-01-0.121D+00-0.410D-01
 Coeff-Com:  0.532D-01 0.783D-01 0.478D-01-0.133D+00-0.109D+00 0.483D-01
 Coeff-Com:  0.320D+00 0.793D+00
 Coeff:      0.107D-04-0.703D-05-0.247D-04 0.119D-02-0.966D-03 0.156D-02
 Coeff:      0.440D-02 0.104D-01 0.213D-01 0.266D-01-0.121D+00-0.410D-01
 Coeff:      0.532D-01 0.783D-01 0.478D-01-0.133D+00-0.109D+00 0.483D-01
 Coeff:      0.320D+00 0.793D+00
 Gap=     0.120 Goal=   None    Shift=    0.000
 Gap=     0.045 Goal=   None    Shift=    0.000
 RMSDP=1.39D-05 MaxDP=7.39D-04 DE=-6.27D-07 OVMax= 2.97D-03

 Cycle  26  Pass 1  IDiag  1:
 RMSU=  1.15D-06    CP:  1.00D+00  3.00D+00  3.00D+00  1.45D+00  1.10D+00
 E= -2118.68716171079     Delta-E=       -0.000000111841 Rises=F Damp=F
 DIIS: error= 2.50D-06 at cycle  26 NSaved=  20.
 NSaved=20 IEnMin=20 EnMin= -2118.68716171079     IErMin=20 ErrMin= 2.50D-06
 ErrMax= 2.50D-06  0.00D+00 EMaxC= 1.00D-01 BMatC= 6.41D-09 BMatP= 1.68D-08
 IDIUse=1 WtCom= 1.00D+00 WtEn= 0.00D+00
 Coeff-Com:  0.108D-04-0.927D-05 0.219D-03 0.414D-04-0.186D-03 0.152D-03
 Coeff-Com:  0.699D-03 0.272D-02 0.185D-02 0.106D-01-0.115D-01-0.677D-01
 Coeff-Com:  0.104D-01 0.827D-01 0.122D+00-0.126D+00-0.147D+00-0.974D-01
 Coeff-Com:  0.436D+00 0.782D+00
 Coeff:      0.108D-04-0.927D-05 0.219D-03 0.414D-04-0.186D-03 0.152D-03
 Coeff:      0.699D-03 0.272D-02 0.185D-02 0.106D-01-0.115D-01-0.677D-01
 Coeff:      0.104D-01 0.827D-01 0.122D+00-0.126D+00-0.147D+00-0.974D-01
 Coeff:      0.436D+00 0.782D+00
 Gap=     0.120 Goal=   None    Shift=    0.000
 Gap=     0.045 Goal=   None    Shift=    0.000
 RMSDP=8.33D-06 MaxDP=4.46D-04 DE=-1.12D-07 OVMax= 1.78D-03

 Cycle  27  Pass 1  IDiag  1:
 RMSU=  7.64D-07    CP:  1.00D+00  3.00D+00  3.00D+00  1.54D+00  1.20D+00
                    CP:  1.92D+00
 E= -2118.68716173616     Delta-E=       -0.000000025363 Rises=F Damp=F
 DIIS: error= 1.63D-06 at cycle  27 NSaved=  20.
 NSaved=20 IEnMin=20 EnMin= -2118.68716173616     IErMin=20 ErrMin= 1.63D-06
 ErrMax= 1.63D-06  0.00D+00 EMaxC= 1.00D-01 BMatC= 2.90D-09 BMatP= 6.41D-09
 IDIUse=1 WtCom= 1.00D+00 WtEn= 0.00D+00
 Coeff-Com:  0.236D-05-0.561D-04 0.113D-04-0.684D-04-0.874D-04-0.272D-03
 Coeff-Com: -0.276D-03-0.155D-02 0.106D-01 0.311D-03-0.246D-01 0.119D-02
 Coeff-Com:  0.198D-01 0.434D-01-0.225D-01-0.486D-01-0.109D+00 0.471D-01
 Coeff-Com:  0.231D+00 0.854D+00
 Coeff:      0.236D-05-0.561D-04 0.113D-04-0.684D-04-0.874D-04-0.272D-03
 Coeff:     -0.276D-03-0.155D-02 0.106D-01 0.311D-03-0.246D-01 0.119D-02
 Coeff:      0.198D-01 0.434D-01-0.225D-01-0.486D-01-0.109D+00 0.471D-01
 Coeff:      0.231D+00 0.854D+00
 Gap=     0.120 Goal=   None    Shift=    0.000
 Gap=     0.045 Goal=   None    Shift=    0.000
 RMSDP=1.88D-06 MaxDP=1.06D-04 DE=-2.54D-08 OVMax= 4.03D-04

 Cycle  28  Pass 1  IDiag  1:
 RMSU=  2.27D-07    CP:  1.00D+00  3.00D+00  3.00D+00  1.56D+00  1.29D+00
                    CP:  2.15D+00  1.16D+00
 E= -2118.68716173843     Delta-E=       -0.000000002276 Rises=F Damp=F
 DIIS: error= 4.27D-07 at cycle  28 NSaved=  20.
 NSaved=20 IEnMin=20 EnMin= -2118.68716173843     IErMin=20 ErrMin= 4.27D-07
 ErrMax= 4.27D-07  0.00D+00 EMaxC= 1.00D-01 BMatC= 3.44D-10 BMatP= 2.90D-09
 IDIUse=1 WtCom= 1.00D+00 WtEn= 0.00D+00
 Coeff-Com: -0.526D-04 0.389D-04-0.125D-03-0.168D-03-0.431D-03-0.155D-02
 Coeff-Com: -0.270D-02 0.553D-02 0.331D-02-0.556D-04-0.433D-02-0.596D-02
 Coeff-Com: -0.783D-02 0.234D-01 0.148D-01-0.283D-01-0.608D-01-0.672D-01
 Coeff-Com:  0.314D+00 0.818D+00
 Coeff:     -0.526D-04 0.389D-04-0.125D-03-0.168D-03-0.431D-03-0.155D-02
 Coeff:     -0.270D-02 0.553D-02 0.331D-02-0.556D-04-0.433D-02-0.596D-02
 Coeff:     -0.783D-02 0.234D-01 0.148D-01-0.283D-01-0.608D-01-0.672D-01
 Coeff:      0.314D+00 0.818D+00
 Gap=     0.120 Goal=   None    Shift=    0.000
 Gap=     0.045 Goal=   None    Shift=    0.000
 RMSDP=3.18D-07 MaxDP=1.27D-05 DE=-2.28D-09 OVMax= 5.15D-05

 Cycle  29  Pass 1  IDiag  1:
 RMSU=  1.18D-07    CP:  1.00D+00  3.00D+00  3.00D+00  1.57D+00  1.28D+00
                    CP:  2.25D+00  1.22D+00  1.24D+00
 E= -2118.68716173867     Delta-E=       -0.000000000234 Rises=F Damp=F
 DIIS: error= 5.20D-07 at cycle  29 NSaved=  20.
 NSaved=20 IEnMin=20 EnMin= -2118.68716173867     IErMin=19 ErrMin= 4.27D-07
 ErrMax= 5.20D-07  0.00D+00 EMaxC= 1.00D-01 BMatC= 2.50D-10 BMatP= 3.44D-10
 IDIUse=1 WtCom= 1.00D+00 WtEn= 0.00D+00
 Coeff-Com:  0.172D-05 0.610D-05-0.361D-05-0.450D-04-0.264D-03 0.101D-03
 Coeff-Com: -0.306D-02 0.729D-03 0.956D-02-0.479D-03-0.988D-02-0.200D-01
 Coeff-Com:  0.189D-01 0.232D-01 0.173D-01-0.400D-01-0.104D+00-0.148D+00
 Coeff-Com:  0.399D+00 0.856D+00
 Coeff:      0.172D-05 0.610D-05-0.361D-05-0.450D-04-0.264D-03 0.101D-03
 Coeff:     -0.306D-02 0.729D-03 0.956D-02-0.479D-03-0.988D-02-0.200D-01
 Coeff:      0.189D-01 0.232D-01 0.173D-01-0.400D-01-0.104D+00-0.148D+00
 Coeff:      0.399D+00 0.856D+00
 Gap=     0.120 Goal=   None    Shift=    0.000
 Gap=     0.045 Goal=   None    Shift=    0.000
 RMSDP=1.85D-07 MaxDP=1.01D-05 DE=-2.34D-10 OVMax= 2.80D-05

 Cycle  30  Pass 1  IDiag  1:
 RMSU=  5.78D-08    CP:  1.00D+00  3.00D+00  3.00D+00  1.57D+00  1.29D+00
                    CP:  2.28D+00  1.21D+00  1.54D+00  1.34D+00
 E= -2118.68716173878     Delta-E=       -0.000000000115 Rises=F Damp=F
 DIIS: error= 7.55D-08 at cycle  30 NSaved=  20.
 NSaved=20 IEnMin=20 EnMin= -2118.68716173878     IErMin=20 ErrMin= 7.55D-08
 ErrMax= 7.55D-08  0.00D+00 EMaxC= 1.00D-01 BMatC= 7.55D-12 BMatP= 2.50D-10
 IDIUse=1 WtCom= 1.00D+00 WtEn= 0.00D+00
 Coeff-Com:  0.144D-04-0.733D-05-0.262D-04 0.857D-06 0.330D-03-0.956D-03
 Coeff-Com: -0.231D-03 0.191D-02 0.134D-03-0.141D-02-0.401D-02 0.235D-02
 Coeff-Com:  0.396D-02 0.694D-02-0.392D-02-0.135D-01-0.532D-01-0.465D-02
 Coeff-Com:  0.120D+00 0.947D+00
 Coeff:      0.144D-04-0.733D-05-0.262D-04 0.857D-06 0.330D-03-0.956D-03
 Coeff:     -0.231D-03 0.191D-02 0.134D-03-0.141D-02-0.401D-02 0.235D-02
 Coeff:      0.396D-02 0.694D-02-0.392D-02-0.135D-01-0.532D-01-0.465D-02
 Coeff:      0.120D+00 0.947D+00
 Gap=     0.120 Goal=   None    Shift=    0.000
 Gap=     0.045 Goal=   None    Shift=    0.000
 RMSDP=3.12D-08 MaxDP=1.67D-06 DE=-1.15D-10 OVMax= 3.31D-06

 Cycle  31  Pass 1  IDiag  1:
 RMSU=  1.68D-08    CP:  1.00D+00  3.00D+00  3.00D+00  1.57D+00  1.29D+00
                    CP:  2.28D+00  1.21D+00  1.59D+00  1.46D+00  1.21D+00
 E= -2118.68716173878     Delta-E=       -0.000000000003 Rises=F Damp=F
 DIIS: error= 6.08D-08 at cycle  31 NSaved=  20.
 NSaved=20 IEnMin=20 EnMin= -2118.68716173878     IErMin=20 ErrMin= 6.08D-08
 ErrMax= 6.08D-08  0.00D+00 EMaxC= 1.00D-01 BMatC= 5.30D-12 BMatP= 7.55D-12
 IDIUse=1 WtCom= 1.00D+00 WtEn= 0.00D+00
 Coeff-Com: -0.609D-05-0.148D-04 0.113D-04 0.134D-03 0.480D-03-0.223D-03
 Coeff-Com: -0.108D-02-0.242D-04 0.122D-02 0.223D-02-0.252D-02-0.283D-02
 Coeff-Com: -0.923D-03 0.531D-02 0.140D-01-0.192D-03-0.890D-01-0.124D+00
 Coeff-Com:  0.561D+00 0.637D+00
 Coeff:     -0.609D-05-0.148D-04 0.113D-04 0.134D-03 0.480D-03-0.223D-03
 Coeff:     -0.108D-02-0.242D-04 0.122D-02 0.223D-02-0.252D-02-0.283D-02
 Coeff:     -0.923D-03 0.531D-02 0.140D-01-0.192D-03-0.890D-01-0.124D+00
 Coeff:      0.561D+00 0.637D+00
 Gap=     0.120 Goal=   None    Shift=    0.000
 Gap=     0.045 Goal=   None    Shift=    0.000
 RMSDP=2.59D-08 MaxDP=1.40D-06 DE=-2.73D-12 OVMax= 2.89D-06

 Cycle  32  Pass 1  IDiag  1:
 RMSU=  8.16D-09    CP:  1.00D+00  3.00D+00  3.00D+00  1.57D+00  1.29D+00
                    CP:  2.28D+00  1.20D+00  1.62D+00  1.51D+00  1.36D+00
                    CP:  1.21D+00
 E= -2118.68716173879     Delta-E=       -0.000000000000 Rises=F Damp=F
 DIIS: error= 7.16D-08 at cycle  32 NSaved=  20.
 NSaved=20 IEnMin=20 EnMin= -2118.68716173879     IErMin=19 ErrMin= 6.08D-08
 ErrMax= 7.16D-08  0.00D+00 EMaxC= 1.00D-01 BMatC= 5.23D-12 BMatP= 5.30D-12
 IDIUse=1 WtCom= 1.00D+00 WtEn= 0.00D+00
 Coeff-Com: -0.752D-06-0.886D-05-0.340D-04 0.369D-03-0.996D-04-0.805D-03
 Coeff-Com: -0.965D-04 0.922D-03 0.175D-02-0.195D-02-0.191D-02-0.431D-03
 Coeff-Com:  0.432D-02 0.868D-02 0.754D-02-0.412D-01-0.724D-01 0.630D-01
 Coeff-Com:  0.306D+00 0.726D+00
 Coeff:     -0.752D-06-0.886D-05-0.340D-04 0.369D-03-0.996D-04-0.805D-03
 Coeff:     -0.965D-04 0.922D-03 0.175D-02-0.195D-02-0.191D-02-0.431D-03
 Coeff:      0.432D-02 0.868D-02 0.754D-02-0.412D-01-0.724D-01 0.630D-01
 Coeff:      0.306D+00 0.726D+00
 Gap=     0.120 Goal=   None    Shift=    0.000
 Gap=     0.045 Goal=   None    Shift=    0.000
 RMSDP=3.68D-08 MaxDP=1.58D-06 DE=-4.55D-13 OVMax= 6.94D-06

 Cycle  33  Pass 1  IDiag  1:
 RMSU=  5.48D-09    CP:  1.00D+00  3.00D+00  3.00D+00  1.57D+00  1.29D+00
                    CP:  2.29D+00  1.21D+00  1.61D+00  1.54D+00  1.31D+00
                    CP:  1.44D+00  1.20D+00
 E= -2118.68716173879     Delta-E=       -0.000000000003 Rises=F Damp=F
 DIIS: error= 2.37D-08 at cycle  33 NSaved=  20.
 NSaved=20 IEnMin=20 EnMin= -2118.68716173879     IErMin=20 ErrMin= 2.37D-08
 ErrMax= 2.37D-08  0.00D+00 EMaxC= 1.00D-01 BMatC= 6.72D-13 BMatP= 5.23D-12
 IDIUse=1 WtCom= 1.00D+00 WtEn= 0.00D+00
 Coeff-Com: -0.733D-05-0.339D-04 0.944D-04 0.624D-05-0.106D-03-0.873D-05
 Coeff-Com:  0.866D-04 0.166D-03-0.224D-03-0.122D-03-0.103D-03 0.774D-03
 Coeff-Com: -0.605D-04-0.171D-02 0.455D-02 0.311D-02-0.819D-01-0.290D-01
 Coeff-Com:  0.278D+00 0.826D+00
 Coeff:     -0.733D-05-0.339D-04 0.944D-04 0.624D-05-0.106D-03-0.873D-05
 Coeff:      0.866D-04 0.166D-03-0.224D-03-0.122D-03-0.103D-03 0.774D-03
 Coeff:     -0.605D-04-0.171D-02 0.455D-02 0.311D-02-0.819D-01-0.290D-01
 Coeff:      0.278D+00 0.826D+00
 Gap=     0.120 Goal=   None    Shift=    0.000
 Gap=     0.045 Goal=   None    Shift=    0.000
 RMSDP=6.97D-09 MaxDP=3.66D-07 DE=-3.18D-12 OVMax= 7.58D-07

 SCF Done:  E(UB3LYP) =  -2118.68716174     A.U. after   33 cycles
            NFock= 33  Conv=0.70D-08     -V/T= 2.0038
 <Sx>= 0.0000 <Sy>= 0.0000 <Sz>= 0.5000 <S**2>= 0.7567 S= 0.5033
 <L.S>=  0.00000000000    
 KE= 2.110649079925D+03 PE=-6.907516414476D+03 EE= 1.732490418914D+03
 Annihilation of the first spin contaminant:
 S**2 before annihilation     0.7567,   after     0.7500
 Leave Link  502 at Fri Mar  8 02:29:35 2024, MaxMem= 13421772800 cpu:             654.5 elap:              20.6
 (Enter /public/software/apps/Gaussian/g16/l601.exe)
 Copying SCF densities to generalized density rwf, IOpCl= 1 IROHF=0.

 **********************************************************************

            Population analysis using the SCF Density.

 **********************************************************************

 Alpha  occ. eigenvalues -- -323.27143 -39.07962 -34.30183 -34.29726 -34.28991
 Alpha  occ. eigenvalues --  -19.32183 -14.56097 -10.39983 -10.39113 -10.32544
 Alpha  occ. eigenvalues --  -10.32237 -10.32188 -10.31763 -10.31298 -10.31222
 Alpha  occ. eigenvalues --  -10.31036  -4.54417  -3.05018  -3.04139  -3.02386
 Alpha  occ. eigenvalues --   -1.16773  -1.10563  -1.00163  -0.93366  -0.88706
 Alpha  occ. eigenvalues --   -0.84262  -0.82939  -0.74454  -0.73386  -0.72644
 Alpha  occ. eigenvalues --   -0.70679  -0.66552  -0.64173  -0.62951  -0.60750
 Alpha  occ. eigenvalues --   -0.60135  -0.59685  -0.57064  -0.55623  -0.54760
 Alpha  occ. eigenvalues --   -0.54101  -0.53716  -0.52087  -0.51505  -0.51278
 Alpha  occ. eigenvalues --   -0.50875  -0.49557  -0.48422  -0.47496  -0.46448
 Alpha  occ. eigenvalues --   -0.45554  -0.42886  -0.38519  -0.37614
 Alpha virt. eigenvalues --   -0.25643  -0.15032  -0.13623  -0.11641  -0.10585
 Alpha virt. eigenvalues --   -0.08139  -0.06536  -0.04483  -0.03421  -0.02643
 Alpha virt. eigenvalues --   -0.01457  -0.00658  -0.00338   0.00884   0.01670
 Alpha virt. eigenvalues --    0.03352   0.04050   0.05633   0.06763   0.07102
 Alpha virt. eigenvalues --    0.11438   0.13087   0.13242   0.14400   0.16949
 Alpha virt. eigenvalues --    0.18897   0.19722   0.23120   0.23222   0.27445
 Alpha virt. eigenvalues --    0.29562   0.30261   0.31351   0.33193   0.33976
 Alpha virt. eigenvalues --    0.35251   0.37000   0.37860   0.38316   0.39500
 Alpha virt. eigenvalues --    0.40807   0.41782   0.43694   0.45496   0.47451
 Alpha virt. eigenvalues --    0.48190   0.50138   0.50339   0.51694   0.52793
 Alpha virt. eigenvalues --    0.53345   0.54258   0.55126   0.56518   0.56944
 Alpha virt. eigenvalues --    0.57211   0.58081   0.58388   0.59260   0.60523
 Alpha virt. eigenvalues --    0.62716   0.63621   0.64626   0.64944   0.67554
 Alpha virt. eigenvalues --    0.71351   0.72487   0.73515   0.74750   0.75577
 Alpha virt. eigenvalues --    0.79627   0.80904   0.83357   0.87248   0.92351
 Alpha virt. eigenvalues --    0.94820   0.97938   1.00949   1.01449   1.04742
 Alpha virt. eigenvalues --    1.06481   1.09083   1.11204   1.14516   1.16064
 Alpha virt. eigenvalues --    1.18499   1.26338   1.31852   1.32778   1.34674
 Alpha virt. eigenvalues --    1.35629   1.36669   1.41296   1.48137   1.52938
 Alpha virt. eigenvalues --    1.53471   1.59918   1.60804   1.64150   1.65090
 Alpha virt. eigenvalues --    1.67777   1.69272   1.72410   1.72452   1.73655
 Alpha virt. eigenvalues --    1.76528   1.81155   1.82991   1.86715   1.88673
 Alpha virt. eigenvalues --    1.91660   1.96318   1.98539   1.99789   2.03166
 Alpha virt. eigenvalues --    2.06135   2.06729   2.11284   2.15580   2.15641
 Alpha virt. eigenvalues --    2.19285   2.26388   2.27923   2.29209   2.33974
 Alpha virt. eigenvalues --    2.34349   2.38463   2.41064   2.43716   2.45516
 Alpha virt. eigenvalues --    2.48527   2.53075   2.53900   2.59282   2.63032
 Alpha virt. eigenvalues --    2.65661   2.69194   2.70052   2.77792   2.79966
 Alpha virt. eigenvalues --    2.85896   2.97398   3.23753   3.26807
  Beta  occ. eigenvalues -- -323.27131 -39.07101 -34.29169 -34.28859 -34.28736
  Beta  occ. eigenvalues --  -19.30721 -14.55922 -10.39859 -10.39158 -10.32530
  Beta  occ. eigenvalues --  -10.32219 -10.32180 -10.31739 -10.31279 -10.31216
  Beta  occ. eigenvalues --  -10.31042  -4.52627  -3.02269  -3.01853  -3.01718
  Beta  occ. eigenvalues --   -1.14315  -1.09643  -0.99980  -0.93094  -0.88613
  Beta  occ. eigenvalues --   -0.83923  -0.82759  -0.74351  -0.72955  -0.72281
  Beta  occ. eigenvalues --   -0.70554  -0.66257  -0.63714  -0.62074  -0.60352
  Beta  occ. eigenvalues --   -0.59445  -0.57533  -0.56261  -0.55282  -0.54072
  Beta  occ. eigenvalues --   -0.53138  -0.52625  -0.51390  -0.50632  -0.50278
  Beta  occ. eigenvalues --   -0.49445  -0.48528  -0.48140  -0.47200  -0.44577
  Beta  occ. eigenvalues --   -0.41641  -0.38450  -0.37555
  Beta virt. eigenvalues --   -0.33046  -0.25097  -0.14944  -0.13521  -0.11529
  Beta virt. eigenvalues --   -0.10591  -0.08097  -0.06441  -0.04313  -0.03178
  Beta virt. eigenvalues --   -0.02513  -0.01343  -0.00482  -0.00017   0.01066
  Beta virt. eigenvalues --    0.01807   0.03556   0.04196   0.05820   0.07106
  Beta virt. eigenvalues --    0.07352   0.11868   0.13269   0.13319   0.14756
  Beta virt. eigenvalues --    0.17019   0.18936   0.19801   0.23216   0.23303
  Beta virt. eigenvalues --    0.27506   0.29607   0.30449   0.31418   0.33265
  Beta virt. eigenvalues --    0.34059   0.35334   0.37187   0.37951   0.38396
  Beta virt. eigenvalues --    0.39634   0.40851   0.41863   0.43914   0.45636
  Beta virt. eigenvalues --    0.47599   0.48371   0.50236   0.50427   0.51819
  Beta virt. eigenvalues --    0.52966   0.53461   0.54340   0.55212   0.56631
  Beta virt. eigenvalues --    0.56982   0.57305   0.58145   0.58445   0.59395
  Beta virt. eigenvalues --    0.60682   0.62777   0.63705   0.64659   0.65280
  Beta virt. eigenvalues --    0.67693   0.71536   0.72728   0.73691   0.74837
  Beta virt. eigenvalues --    0.75726   0.80196   0.81080   0.83683   0.87594
  Beta virt. eigenvalues --    0.92978   0.95555   0.98142   1.01560   1.02728
  Beta virt. eigenvalues --    1.05205   1.07309   1.09350   1.11689   1.14735
  Beta virt. eigenvalues --    1.16153   1.19396   1.26515   1.32076   1.33603
  Beta virt. eigenvalues --    1.34821   1.35749   1.36701   1.41385   1.48482
  Beta virt. eigenvalues --    1.53289   1.53994   1.60343   1.60996   1.64277
  Beta virt. eigenvalues --    1.65200   1.67876   1.69464   1.72457   1.72622
  Beta virt. eigenvalues --    1.73971   1.76610   1.81296   1.83079   1.86843
  Beta virt. eigenvalues --    1.88771   1.91983   1.96418   1.98622   1.99884
  Beta virt. eigenvalues --    2.03262   2.06220   2.06808   2.11418   2.15688
  Beta virt. eigenvalues --    2.15922   2.19480   2.26660   2.28140   2.29607
  Beta virt. eigenvalues --    2.34040   2.34618   2.38783   2.41832   2.43917
  Beta virt. eigenvalues --    2.45780   2.48888   2.53244   2.57241   2.59659
  Beta virt. eigenvalues --    2.63252   2.67922   2.70177   2.70597   2.78567
  Beta virt. eigenvalues --    2.81369   2.87589   2.97615   3.25515   3.26847
          Condensed to atoms (all electrons):
               1          2          3          4          5          6
     1  N    6.574164   0.195327  -0.066854   0.002303   0.000182   0.000059
     2  C    0.195327   5.398818   0.214764  -0.130710   0.013065   0.000198
     3  C   -0.066854   0.214764   5.466591   0.181407   0.148713  -0.175525
     4  C    0.002303  -0.130710   0.181407   5.362329   0.246222   0.127094
     5  C    0.000182   0.013065   0.148713   0.246222   5.142281   0.213323
     6  C    0.000059   0.000198  -0.175525   0.127094   0.213323   5.162075
     7  C   -0.000498   0.028182   0.076104  -0.152912   0.133371   0.223046
     8  C   -0.004242  -0.041146   0.286506   0.078726  -0.171782   0.153883
     9  C   -0.003851  -0.121431  -0.075019   0.027877  -0.000365   0.013609
    10  C   -0.028396   0.311340  -0.056109   0.008255  -0.000694  -0.000893
    11  O   -0.013390  -0.032049  -0.000069  -0.000193   0.000002   0.000002
    12  H    0.299514  -0.031324   0.012156   0.000208  -0.000256  -0.000001
    13  H    0.317935  -0.019055  -0.001518   0.007253  -0.000217   0.000002
    14  H   -0.039753   0.319455   0.012504  -0.000569  -0.000244   0.000101
    15  H    0.000585  -0.018704  -0.092216   0.440846  -0.066130   0.013871
    16  H    0.000004  -0.000416   0.015359  -0.074052   0.437605  -0.071784
    17  H    0.000000   0.000026  -0.001737   0.014142  -0.073735   0.439244
    18  H    0.000002  -0.000666   0.018968  -0.001984   0.013702  -0.075458
    19  H    0.001952  -0.002980  -0.001420  -0.000944   0.000146  -0.000139
    20  H   -0.000291   0.007500   0.001645  -0.000916   0.000119  -0.000227
    21  H    0.004539  -0.021788   0.000125  -0.000827   0.000029   0.000039
    22  Cu   0.225149  -0.024571   0.006494   0.000134   0.000019  -0.000044
               7          8          9         10         11         12
     1  N   -0.000498  -0.004242  -0.003851  -0.028396  -0.013390   0.299514
     2  C    0.028182  -0.041146  -0.121431   0.311340  -0.032049  -0.031324
     3  C    0.076104   0.286506  -0.075019  -0.056109  -0.000069   0.012156
     4  C   -0.152912   0.078726   0.027877   0.008255  -0.000193   0.000208
     5  C    0.133371  -0.171782  -0.000365  -0.000694   0.000002  -0.000256
     6  C    0.223046   0.153883   0.013609  -0.000893   0.000002  -0.000001
     7  C    5.307312   0.218685  -0.096966   0.005429  -0.000216  -0.000880
     8  C    0.218685   5.260118   0.270904  -0.009082   0.003621   0.002612
     9  C   -0.096966   0.270904   5.191214   0.297208  -0.062996   0.003106
    10  C    0.005429  -0.009082   0.297208   4.791590   0.279642  -0.003223
    11  O   -0.000216   0.003621  -0.062996   0.279642   7.983884   0.004300
    12  H   -0.000880   0.002612   0.003106  -0.003223   0.004300   0.435986
    13  H    0.000021   0.000475  -0.000645   0.006625   0.000513  -0.017193
    14  H   -0.000785  -0.001318   0.009741  -0.014141   0.001988   0.006887
    15  H   -0.001966   0.017043  -0.000641   0.000688  -0.000002   0.000336
    16  H    0.013427  -0.001529   0.000021   0.000012  -0.000000   0.000002
    17  H   -0.073682   0.014895  -0.000323   0.000012  -0.000000  -0.000001
    18  H    0.444609  -0.077672  -0.018472   0.000680  -0.000002   0.000006
    19  H   -0.005347   0.014737   0.289238   0.006242   0.007550  -0.000376
    20  H   -0.004076   0.007282   0.313379  -0.002843   0.001738   0.000046
    21  H   -0.000919   0.000401  -0.024689   0.349229  -0.028402   0.000209
    22  Cu  -0.000021  -0.000777   0.007326  -0.053062   0.202260  -0.007359
              13         14         15         16         17         18
     1  N    0.317935  -0.039753   0.000585   0.000004   0.000000   0.000002
     2  C   -0.019055   0.319455  -0.018704  -0.000416   0.000026  -0.000666
     3  C   -0.001518   0.012504  -0.092216   0.015359  -0.001737   0.018968
     4  C    0.007253  -0.000569   0.440846  -0.074052   0.014142  -0.001984
     5  C   -0.000217  -0.000244  -0.066130   0.437605  -0.073735   0.013702
     6  C    0.000002   0.000101   0.013871  -0.071784   0.439244  -0.075458
     7  C    0.000021  -0.000785  -0.001966   0.013427  -0.073682   0.444609
     8  C    0.000475  -0.001318   0.017043  -0.001529   0.014895  -0.077672
     9  C   -0.000645   0.009741  -0.000641   0.000021  -0.000323  -0.018472
    10  C    0.006625  -0.014141   0.000688   0.000012   0.000012   0.000680
    11  O    0.000513   0.001988  -0.000002  -0.000000  -0.000000  -0.000002
    12  H   -0.017193   0.006887   0.000336   0.000002  -0.000001   0.000006
    13  H    0.420149  -0.004799   0.003270   0.000004  -0.000000   0.000001
    14  H   -0.004799   0.585992   0.003203   0.000001  -0.000001   0.000012
    15  H    0.003270   0.003203   0.661356  -0.010848  -0.000210   0.000034
    16  H    0.000004   0.000001  -0.010848   0.613183  -0.010527  -0.000197
    17  H   -0.000000  -0.000001  -0.000210  -0.010527   0.608274  -0.010265
    18  H    0.000001   0.000012   0.000034  -0.000197  -0.010265   0.631092
    19  H   -0.000024  -0.000581   0.000010  -0.000000   0.000003   0.001888
    20  H    0.000017   0.000098   0.000014  -0.000000   0.000003   0.003341
    21  H   -0.000228  -0.010148  -0.000018  -0.000000  -0.000001  -0.000015
    22  Cu  -0.007883   0.001925  -0.000091   0.000004   0.000001   0.000017
              19         20         21         22
     1  N    0.001952  -0.000291   0.004539   0.225149
     2  C   -0.002980   0.007500  -0.021788  -0.024571
     3  C   -0.001420   0.001645   0.000125   0.006494
     4  C   -0.000944  -0.000916  -0.000827   0.000134
     5  C    0.000146   0.000119   0.000029   0.000019
     6  C   -0.000139  -0.000227   0.000039  -0.000044
     7  C   -0.005347  -0.004076  -0.000919  -0.000021
     8  C    0.014737   0.007282   0.000401  -0.000777
     9  C    0.289238   0.313379  -0.024689   0.007326
    10  C    0.006242  -0.002843   0.349229  -0.053062
    11  O    0.007550   0.001738  -0.028402   0.202260
    12  H   -0.000376   0.000046   0.000209  -0.007359
    13  H   -0.000024   0.000017  -0.000228  -0.007883
    14  H   -0.000581   0.000098  -0.010148   0.001925
    15  H    0.000010   0.000014  -0.000018  -0.000091
    16  H   -0.000000  -0.000000  -0.000000   0.000004
    17  H    0.000003   0.000003  -0.000001   0.000001
    18  H    0.001888   0.003341  -0.000015   0.000017
    19  H    0.578621  -0.016007   0.006241   0.000180
    20  H   -0.016007   0.567252  -0.008187  -0.000054
[...]
 0.04726251,0.10481010,-0.09268032,-0.10794963,-0.31305923,-0.00690540,
 -0.01048785,-0.02292633,-0.00104145,-0.00004615,0.00228973,0.00014338,
 -0.00012213,0.00022684,-0.00000707,0.00000758,-0.00019902,-0.00022578,
 0.00000036,-0.00006213,0.00017631,0.00020991,-0.00014756,0.00024350,-0
 .00039790,0.00012989,-0.00018401,0.00058167,-0.00009253,0.00054741,0.0
 0030257,-0.00018731,0.00043150,0.00040235,-0.00028165,0.09932164,0.112
 05186,0.33238072,-0.04853892,0.08309723,0.00268590,0.00190695,-0.01668
 808,-0.00050018,0.00087236,-0.00005595,0.00057798,-0.00003717,-0.00007
 513,0.00035416,-0.00020514,0.00020890,-0.00033479,-0.00021949,0.000182
 75,0.00001564,0.00066565,0.00010684,0.00009977,-0.00051246,-0.00116924
 ,-0.00086356,0.00013426,0.00083683,-0.00001531,0.00060233,-0.00449595,
 0.00287855,-0.00187629,0.00267644,-0.00265664,0.00192468,-0.01398400,0
 .00015900,0.04574126,0.05335884,-0.39538748,0.00338682,0.00349623,-0.0
 0864620,-0.00097541,-0.00117345,-0.00026299,-0.00013631,0.00049138,0.0
 0018802,0.00024443,-0.00022628,-0.00047200,-0.00019180,-0.00008795,0.0
 0026696,0.00005367,0.00013079,0.00007090,-0.00005515,-0.00006003,0.000
 13083,0.00013735,-0.00014177,0.00033112,0.00003881,-0.00072335,-0.0004
 5148,0.00202819,-0.00152137,0.00029644,-0.00015978,0.00357805,-0.01154
 268,0.00160504,-0.05983950,0.41322735,0.00073341,0.01060958,-0.0576455
 6,-0.00655923,0.02780955,-0.00023822,0.00007140,-0.00050688,-0.0001624
 2,-0.00014145,0.00027927,0.00006912,0.00010952,-0.00000142,-0.00002084
 ,0.00002031,-0.00008861,-0.00001613,-0.00006456,-0.00010050,0.00005994
 ,0.00005236,0.00018198,0.00007456,0.00008742,-0.00021211,-0.00029115,0
 .00387371,0.00105434,-0.00481496,0.00052443,-0.00032108,0.00006596,0.0
 0683005,-0.03601841,0.00299186,-0.00324729,-0.00535785,0.05967555,-0.0
 0109389,0.00882556,0.01886655,-0.05140297,-0.01107581,-0.01790004,0.00
 147043,-0.01948842,-0.02151981,0.00184518,-0.00048300,0.00110217,-0.00
 012843,-0.00023708,0.00030977,-0.00015121,0.00001668,-0.00018906,0.000
 27029,-0.00137542,0.00065671,-0.00443768,-0.00026750,-0.00229300,-0.00
 134694,0.00155284,-0.00132173,0.00224947,0.00929497,0.01012555,-0.0000
 6874,-0.00122833,-0.00006061,-0.00222333,-0.00137953,0.00232193,0.0010
 1328,0.00060249,-0.00053018,0.05258056,-0.00217538,0.00787480,0.018435
 62,-0.00631579,-0.15648430,-0.13941000,-0.00218210,-0.00160475,-0.0016
 6893,0.00082974,0.00000698,0.00071330,-0.00054882,-0.00062101,-0.00014
 718,-0.00003578,0.00035953,0.00009823,-0.00017539,0.00006710,-0.000019
 97,0.00039641,-0.00001746,-0.00054787,0.00219574,-0.00292469,0.0014254
 7,-0.00557761,-0.01836197,-0.01788711,0.00061933,0.00184400,0.00037820
 ,-0.00185504,-0.00077208,0.00323003,-0.00008722,0.00164133,0.00018745,
 0.01559866,0.16892419,0.00304563,-0.01066426,-0.02472450,-0.01505724,-
 0.13283780,-0.20767281,-0.00046200,-0.00463833,-0.00248874,0.00066358,
 -0.00006527,0.00057451,-0.00021994,-0.00002631,0.00010904,-0.00003913,
 0.00022406,0.00004947,0.00049581,-0.00041775,0.00018566,-0.00123608,0.
 00024482,-0.00071239,-0.00120995,0.00173515,0.00035969,0.00088073,0.00
 725372,0.00760517,0.00038153,-0.00028476,0.00006390,0.00362946,0.00195
 251,-0.00244067,-0.00037752,-0.00060594,-0.00011392,0.00953018,0.13723
 565,0.22880510,-0.00002513,-0.00012585,0.00004700,0.00142880,-0.000582
 54,0.00145699,0.00587058,0.02391340,0.00783390,-0.05814351,-0.00849795
 ,-0.00832559,0.00402926,-0.02683907,-0.00786526,-0.00400515,-0.0007062
 8,-0.00336535,-0.00082654,0.00003972,-0.00006021,-0.00339566,0.0021270
 4,-0.00222638,0.00031913,0.00119194,0.00005158,0.00014723,0.00008352,0
 .00017213,0.00014593,-0.00004689,-0.00015322,-0.00001151,0.00008953,-0
 .00002537,-0.00028443,0.00000305,0.00012691,-0.00013044,-0.00017868,-0
 .00024600,0.05463051,-0.00003847,0.00012392,-0.00007459,-0.00133841,0.
 00026141,0.00098653,-0.00259515,-0.01252014,-0.00595913,-0.01076437,-0
 .31089786,-0.08225801,0.00186885,-0.00661791,-0.00274934,-0.00168212,0
 .00146371,-0.00222491,0.00003810,0.00055715,0.00032662,0.00345126,0.00
 094937,-0.00096855,-0.00040510,-0.00043152,-0.00018912,0.00007995,-0.0
 0016347,0.00004132,-0.00000952,0.00006789,0.00003153,-0.00005644,-0.00
 009258,-0.00000802,0.00022605,0.00002605,-0.00007497,0.00073191,0.0001
 2618,0.00030300,0.01045806,0.32741586,0.00054489,0.00025725,-0.0002311
 6,0.00067253,0.00093501,-0.00262190,-0.00004287,0.00293300,0.00380893,
 -0.00922899,-0.08313334,-0.06456468,0.00061731,-0.01059657,0.00167730,
 -0.00361463,-0.00187717,0.00578503,-0.00015355,0.00038151,-0.00062410,
 -0.00193912,-0.00084696,0.00604220,-0.00017016,-0.00000617,0.00034625,
 0.00013746,-0.00007585,-0.00012688,-0.00013197,0.00000591,0.00008763,0
 .00014685,-0.00009523,0.00008165,0.00035103,-0.00002718,0.00003718,-0.
 00012572,-0.00028130,-0.00016211,0.01106373,0.09122598,0.05525182,-0.0
 0010489,-0.00006615,0.00008809,-0.00023352,0.00095222,-0.00015377,-0.0
 0245736,-0.00281427,-0.00335083,-0.01638473,0.01672044,-0.00096662,-0.
 24567420,0.13486339,-0.02007089,0.00576113,-0.00348694,-0.00051389,0.0
 0143936,-0.00054597,-0.00156795,0.00031483,-0.00064236,0.00022181,-0.0
 0004245,-0.00005200,0.00013354,-0.00035923,-0.00001831,-0.00014418,-0.
 00005839,0.00006649,0.00006714,0.00000592,0.00000123,-0.00002109,0.000
 03120,0.00003984,-0.00000938,0.00000269,-0.00000285,0.00001285,0.00085
 469,-0.00038378,0.00134039,0.25625105,-0.00002180,-0.00005225,0.000039
 53,-0.00047839,0.00047929,-0.00015412,-0.00207904,0.00006289,-0.002527
 22,-0.01191692,0.01092401,-0.00147184,0.13480278,-0.15215455,0.0060171
 1,0.02536733,-0.01220580,0.00245982,-0.00103994,-0.00409000,-0.0032485
 3,-0.00093444,-0.00044964,-0.00014831,-0.00001192,0.00002441,0.0002365
 4,-0.00027142,0.00009981,-0.00013108,0.00006846,0.00001349,0.00005217,
 0.00000354,-0.00000481,0.00000393,0.00001642,0.00002208,0.00000008,0.0
 0002144,0.00001984,-0.00000265,0.00013914,0.00042148,0.00138988,-0.144
 30317,0.15657926,-0.00018032,-0.00004168,-0.00002286,-0.00032406,0.000
 48802,0.00045428,-0.00339294,-0.00219115,0.00540202,-0.00909904,0.0065
 6724,0.00348229,-0.01968960,0.00578318,-0.04307604,0.00741597,-0.00545
 474,0.00475807,-0.00165071,-0.00310012,0.00543866,-0.00021259,-0.00049
 663,-0.00117078,0.00021921,0.00017536,-0.00060276,0.00036968,-0.000249
 66,0.00001520,-0.00019453,0.00007164,0.00001244,0.00001331,-0.00002917
 ,-0.00002014,-0.00004592,-0.00000104,0.00001219,0.00000084,-0.00004403
 ,-0.00001646,0.00147382,0.00128236,-0.00347154,0.02374681,-0.00389993,
 0.03213350,0.00006279,-0.00002385,0.00003790,-0.00014857,-0.00006380,0
 .00011229,0.00057315,0.00056438,0.00055708,0.00168935,0.00063223,-0.00
 122976,0.00328414,0.00203237,0.00003801,-0.26915266,-0.08929540,-0.088
 25143,-0.01591517,-0.01091708,-0.00878141,-0.00202293,0.00399496,-0.00
 162906,-0.00024109,-0.00067876,-0.00035166,-0.00016996,-0.00000032,0.0
 0035458,-0.00011089,0.00003732,-0.00024078,0.00001483,0.00000809,-0.00
 002775,-0.00002550,0.00000872,0.00000266,-0.00000190,-0.00000754,0.000
 00554,0.00006390,0.00017332,0.00011412,0.00037523,-0.00047207,0.001096
 04,0.28106127,-0.00000981,0.00004663,0.00000281,-0.00010764,0.00001910
 ,0.00018174,0.00081836,-0.00091012,0.00015460,0.00091641,-0.00456733,-
 0.00286556,-0.02672277,-0.00620502,-0.01052791,-0.08932454,-0.09712881
 ,-0.04011119,0.01770046,0.01092878,0.00650653,0.00382229,-0.00148445,-
 0.00121654,0.00049760,0.00069917,0.00040004,0.00001401,-0.00031982,-0.
 00003613,0.00015775,0.00016100,0.00001536,0.00000396,-0.00002217,-0.00
 000503,0.00002472,-0.00000152,-0.00001210,0.00005189,0.00003091,0.0000
 3194,-0.00121964,-0.00040059,-0.00042431,-0.00008123,0.00090779,0.0013
 3798,0.09433957,0.09764333,-0.00009347,-0.00003622,-0.00003409,0.00016
 722,0.00015468,-0.00066519,0.00041775,0.00043998,-0.00043120,-0.001261
 85,-0.00309064,0.00558751,-0.00771021,-0.00249314,0.00233983,-0.088013
 71,-0.03998656,-0.07687380,-0.00134126,-0.00158845,0.00445526,-0.00152
 124,-0.00111010,0.00647246,-0.00004916,-0.00039133,-0.00009897,0.00032
 765,0.00081361,-0.00040053,-0.00022758,-0.00040722,0.00038455,-0.00001
 949,0.00001583,0.00003281,0.00007778,0.00001502,-0.00001344,-0.0000205
 1,-0.00004257,-0.00002321,-0.00025870,-0.00006036,-0.00023580,0.001175
 98,0.00121042,-0.00336697,0.09693742,0.04554675,0.06641125,-0.00016266
 ,0.00003708,-0.00000245,0.00010777,-0.00116704,-0.00061951,-0.00364094
 ,-0.00047078,-0.00289365,-0.00092261,0.00019463,-0.00006511,-0.0033327
 5,0.00271317,-0.00222466,0.00603595,0.02538089,0.00700085,-0.05878846,
 -0.01782494,-0.01005577,0.00324204,-0.02679258,-0.00724674,0.00124370,
 0.00000149,0.00168467,-0.00003204,-0.00033362,-0.00007252,0.00013838,0
 .00016866,0.00005213,0.00004503,-0.00002382,-0.00000109,-0.00000051,0.
 00000751,-0.00000799,-0.00037161,-0.00004089,-0.00008755,0.00001184,-0
 .00011483,0.00031374,0.00015823,0.00108662,0.00036677,0.00079023,-0.00
 084381,0.00117506,0.05590860,-0.00010187,-0.00002674,0.00006188,0.0002
 8775,-0.00010623,-0.00022150,-0.00127121,0.00163579,-0.00155142,0.0002
 5040,0.00061217,0.00035665,0.00348081,0.00028147,-0.00069810,-0.003540
 33,-0.01235149,-0.00536956,-0.01675205,-0.31813435,-0.07573366,0.00107
 294,-0.00655493,-0.00241308,0.00038923,0.00046363,0.00113064,-0.000130
 52,-0.00024890,0.00000816,0.00002954,0.00011199,-0.00003222,0.00003349
 ,-0.00003033,-0.00003339,0.00000660,0.00000018,0.00000120,-0.00010770,
 0.00000611,0.00000222,-0.00007891,-0.00015274,0.00024563,-0.00024853,-
 0.00060002,-0.00021857,-0.00037790,0.00061949,0.00108598,0.01784791,0.
 33434861,-0.00002146,0.00008397,-0.00008605,0.00039583,-0.00060222,0.0
 0013201,-0.00381298,-0.00212166,0.00581748,-0.00005199,0.00035077,-0.0
 0057699,-0.00198721,-0.00090721,0.00634196,0.00002211,0.00245318,0.004
 95416,-0.01029667,-0.07573193,-0.06188182,-0.00030978,-0.00989115,0.00
 174444,0.00159259,0.00046164,-0.00288515,-0.00008211,0.00047013,-0.000
 35128,-0.00002132,-0.00007975,0.00020801,-0.00001800,0.00005895,0.0000
 1723,0.00003355,0.00001167,-0.00001274,-0.00007617,0.00003431,-0.00004
 612,0.00031472,0.00030608,-0.00104674,-0.00000955,0.00018957,0.0000558
 0,0.00130066,0.00100436,-0.00350900,0.01287375,0.08362475,0.05120676,0
 .00037890,-0.00013410,0.00040930,-0.00091402,-0.00010147,0.00030591,-0
 .00058466,-0.00046214,-0.00052084,-0.00121899,0.00079496,-0.00108997,0
 .00031818,0.00083418,0.00054521,0.00049067,0.00009901,-0.00125692,0.00
 069666,0.00123462,-0.00020527,-0.01563875,0.00381133,0.02204902,-0.109
 83403,0.01056146,0.11444693,0.00691979,-0.00228979,-0.01578955,0.00276
 624,0.00170519,-0.00025686,-0.00009974,0.00025332,-0.00005079,-0.00015
 649,0.00009220,-0.00012484,0.00019631,-0.00014035,0.00011992,-0.000081
 18,0.00010437,-0.00009389,0.00000118,-0.00002157,0.00008719,-0.0000895
 0,-0.00000057,0.00004436,-0.00038941,-0.00038877,0.00059229,0.11984696
 ,-0.00018517,0.00011451,0.00061183,0.00066421,0.00033623,-0.00092905,0
 .00108076,-0.00102642,-0.00014005,-0.00052475,-0.00029934,0.00075885,0
 .00040891,0.00056614,0.00020158,0.00048558,-0.00117022,0.00026158,-0.0
 0175002,0.00048476,-0.00074284,0.00842381,-0.00264036,-0.01043212,0.00
 994395,-0.04748694,-0.02032630,0.00935419,-0.00275208,-0.01691609,0.00
 229137,0.00210323,0.00126883,0.00013160,-0.00105364,0.00010465,-0.0000
 5884,0.00008446,0.00008899,-0.00017892,-0.00042230,0.00024472,0.000046
 38,-0.00004048,-0.00001976,0.00003276,0.00004134,-0.00008682,-0.000003
 44,-0.00001172,0.00003544,0.00000773,0.00009501,-0.00020516,-0.0138517
 8,0.05046170,0.00014865,0.00021209,0.00016302,-0.00002626,0.00034840,-
 0.00041998,-0.00004424,0.00014365,-0.00050688,0.00026381,0.00004716,-0
 .00022638,-0.00026755,0.00013323,-0.00009538,0.00032281,0.00007540,-0.
 00030256,-0.00024288,-0.00003291,-0.00020699,-0.00366122,-0.00052303,0
 .01111043,0.10974638,-0.01799673,-0.23229730,0.00802295,-0.00282933,-0
 .01712143,0.00215966,0.00295398,0.00201521,0.00039149,-0.00025935,0.00
 027985,-0.00014096,-0.00011547,0.00018526,0.00003931,-0.00044433,0.000
 21212,-0.00001939,0.00002998,0.00001681,0.00002286,-0.00000034,-0.0000
 0119,-0.00002091,-0.00002632,0.00006014,-0.00002226,-0.00013287,0.0000
 6238,-0.12006766,0.02331646,0.24877526,0.00024227,-0.00007943,-0.00007
 242,-0.00182774,-0.00082014,-0.00248984,-0.00353711,0.00157924,-0.0007
 5189,-0.00056958,0.00071009,0.00111697,0.00034697,0.00076025,0.0000959
 2,0.00031503,-0.00056620,0.00065219,0.00108947,-0.00022212,0.00074872,
 0.00481350,0.02788123,-0.01193398,-0.05028278,-0.02546407,0.00941573,-
 0.00005868,-0.01391575,0.00823029,-0.00118316,0.00014167,-0.00070115,-
 0.00025528,0.00021501,-0.00004426,-0.00001472,0.00007937,-0.00002385,0
 .00035822,-0.00033876,0.00015861,-0.00033466,0.00015443,0.00010052,0.0
 0001508,-0.00001326,-0.00006579,0.00002042,-0.00003271,-0.00003745,-0.
 00011500,-0.00041622,-0.00054281,-0.00096152,-0.01450999,0.00615418,0.
 05087561,-0.00020115,-0.00012166,-0.00013225,-0.00094821,-0.00137988,-
 0.00198098,0.00079863,-0.00014206,0.00078777,-0.00029550,-0.00031110,-
 0.00037399,0.00013583,0.00060774,0.00024716,0.00077630,-0.00071326,-0.
 00049691,-0.00167958,0.00066009,-0.00087913,0.00144134,-0.00928532,0.0
 0271466,-0.02525832,-0.26957015,0.09997254,0.00156432,-0.01316549,0.00
 616633,-0.00154757,-0.00005109,0.00005056,-0.00003284,0.00001705,0.000
 01098,-0.00000789,-0.00000710,0.00010765,0.00018454,-0.00047116,0.0002
 0822,0.00011671,-0.00003286,0.00001264,-0.00000233,-0.00000040,0.00009
 313,0.00000885,-0.00001829,0.00001860,0.00019527,0.00002768,0.00054361
 ,0.00019954,0.00460381,-0.00130374,0.02392635,0.28868979,-0.00030917,-
 0.00058239,-0.00005411,-0.00195504,-0.00321353,-0.00236323,-0.00092785
 ,0.00002318,-0.00038976,0.00011357,-0.00022391,0.00017533,-0.00013853,
 0.00013694,-0.00003971,0.00004835,-0.00004894,0.00010717,0.00006004,0.
 00009996,0.00076605,0.00126310,0.00247877,-0.00145459,0.00888834,0.103
 64648,-0.09204074,0.00013486,-0.01885875,0.00802919,-0.00043313,-0.000
 51566,0.00078678,-0.00010934,-0.00021122,0.00006302,0.00005472,-0.0000
 2100,0.00022058,0.00034524,-0.00061949,0.00015085,-0.00001761,0.000028
 85,0.00000739,0.00000328,-0.00002919,0.00000567,0.00001616,0.00000482,
 -0.00003786,-0.00021215,-0.00011805,-0.00019017,0.00279913,0.02433278,
 -0.01022994,-0.01013810,-0.10576771,0.09564613,0.00128249,0.00379457,-
 0.00100163,0.00434627,0.00168026,-0.00850929,0.00120339,-0.00047944,0.
 00011945,-0.00074921,0.00053112,0.00071143,0.00023218,0.00031499,-0.00
 004831,-0.00025209,0.00007445,-0.00014972,0.00036966,-0.00000372,0.000
 28674,0.00055459,-0.00117582,-0.00096430,0.00503207,0.00256993,-0.0122
 8081,-0.05140674,-0.01835958,0.05221502,-0.02630487,-0.00427712,0.0282
 4487,0.00064250,-0.00034610,-0.00028707,-0.00044941,0.00025835,-0.0005
 8588,0.00074351,-0.00026944,0.00007080,-0.00004035,0.00000399,-0.00002
 109,0.00005661,0.00004902,-0.00006516,-0.00003843,0.00000738,0.0000618
 5,0.00002468,-0.00000592,0.00007159,-0.00166652,-0.00118613,-0.0019293
 2,0.00047237,0.00023245,0.00027812,0.06897139,-0.00075959,-0.00675251,
 0.00194208,-0.00468439,-0.00977744,0.02620731,-0.00085358,0.00160278,-
 0.00093679,0.00027338,-0.00045779,-0.00089096,0.00011286,0.00028939,0.
 00057487,0.00048958,-0.00087061,0.00007279,-0.00158800,-0.00012945,0.0
 0065125,0.00227667,-0.00031626,-0.00018660,-0.00004336,-0.00033931,-0.
 02166726,-0.01007555,-0.04201607,0.04420466,-0.00173091,-0.00355821,0.
 00516547,-0.00063254,-0.00011699,0.00017406,0.00062812,-0.00019913,0.0
 0124267,-0.00135981,0.00110792,0.00017898,0.00007510,-0.00000534,-0.00
 005836,-0.00005325,-0.00004306,0.00004404,0.00007942,0.00004734,-0.000
 27897,0.00004571,0.00004334,-0.00011473,-0.00179914,-0.00129544,-0.002
 41891,0.00058817,0.00049812,-0.00076362,0.01785639,0.06074109,0.000336
 44,0.00082228,0.00122488,0.00200662,-0.00034838,-0.00561663,0.00097408
 ,0.00053407,0.00053021,-0.00112996,0.00043839,0.00023416,0.00034373,0.
 00073636,0.00025767,0.00002538,-0.00043270,-0.00014148,-0.00029434,0.0
 0011609,0.00014607,0.00038400,-0.00187243,-0.00075472,0.00331070,0.003
 01987,-0.01727655,0.03780209,0.04890694,-0.26998258,0.01829540,0.00584
 647,-0.00321073,0.00049040,-0.00050353,-0.00009380,0.00002732,0.000008
 95,-0.00016250,0.00010396,-0.00042586,0.00122418,-0.00002727,0.0000033
 6,-0.00003700,0.00002482,0.00002465,-0.00003531,-0.00004253,0.00002017
 ,0.00001204,0.00004993,0.00001766,0.00004098,-0.00225466,-0.00145077,-
 0.00160525,0.00023724,0.00025016,0.00121478,-0.05799170,-0.05250796,0.
 29215012,-0.06239181,0.02399070,-0.01682401,-0.01519438,-0.00625472,0.
 00739584,-0.00172943,-0.00182990,-0.00017366,0.00170074,0.00042904,-0.
 00005850,-0.00050418,-0.00112780,-0.00060481,0.00028098,0.00059337,0.0
 0010765,-0.00043522,0.00047471,-0.00062607,0.00010628,0.00096599,0.001
 61756,0.00085109,0.00175628,-0.00057949,-0.01921049,-0.01351814,0.0169
 0286,-0.00973142,-0.02198859,0.01264737,-0.00470523,0.00128711,-0.0018
 4322,-0.00057145,0.00162688,-0.00113752,0.00062720,0.00029178,-0.00005
 924,-0.00022331,0.00009789,0.00011941,0.00004758,0.00000919,0.00013100
 ,-0.00001873,-0.00001165,0.00016954,0.00004954,0.00002126,0.00003296,0
 .00001993,-0.00062223,-0.00082946,0.00059129,0.00039327,0.00023600,-0.
 00302410,0.00115471,-0.00267165,0.11346510,0.01893660,-0.01597961,0.00
 230400,0.00088196,0.00107081,-0.00258382,0.00068573,-0.00102212,0.0010
 2222,-0.00039065,0.00025445,0.00035244,0.00004750,0.00003794,-0.000218
 99,-0.00044327,0.00042243,-0.00011651,0.00118942,-0.00012411,-0.000200
 24,-0.00123728,-0.00010984,-0.00035892,0.00211722,0.00221364,0.0002685
 0,-0.01684361,-0.00854772,0.01277188,-0.02208090,-0.06401358,0.0412246
 0,-0.00235132,0.00110900,0.00036511,0.00845091,0.00068487,0.00113116,0
 .00030054,-0.00032917,-0.00007191,-0.00000778,-0.00005750,0.00005538,0
 .00002477,0.00000484,-0.00002940,-0.00003906,-0.00003369,0.00014927,-0
 .00007435,-0.00003973,0.00006080,-0.00050049,-0.00069226,-0.00117699,0
 .00034283,0.00016554,0.00022169,-0.00126964,0.00154764,-0.00320379,0.0
 1226087,0.08343819,-0.01006775,-0.00027297,-0.01336871,0.00426133,-0.0
 0034728,0.00478008,0.00034165,0.00086420,-0.00117305,0.00011822,-0.000
 16739,-0.00010613,-0.00011727,-0.00013437,0.00008916,-0.00001863,-0.00
 003486,0.00002807,-0.00034543,0.00006939,0.00017567,0.00013027,-0.0002
 0737,-0.00044062,-0.00274613,-0.00083240,0.00091548,0.01305277,0.00497
 134,-0.00870811,0.01483852,0.04599161,-0.03245421,-0.00899146,0.003012
 69,0.00101678,0.00086677,0.00011699,0.00009967,0.00063462,-0.00019961,
 -0.00093875,0.00004958,0.00000139,-0.00002029,-0.00002943,-0.00001049,
 0.00001393,0.00000282,0.00001801,-0.00006582,-0.00000545,-0.00001235,0
 .00000485,0.00031199,0.00002326,0.00013281,-0.00010883,-0.00024930,-0.
 00037284,0.00177442,-0.00063401,0.00188146,-0.01395257,-0.05196648,0.0
 4851057\\0.00002676,0.00003359,-0.00003339,-0.00000471,-0.00002786,0.0
 0001434,0.00000090,0.00000974,-0.00001186,-0.00000034,0.00000044,0.000
 00781,0.00000078,0.00000046,-0.00000690,-0.00000304,0.00000124,0.00000
 706,0.00000213,0.00000504,0.00000168,-0.00000039,-0.00001337,0.0000002
 8,-0.00000041,0.00002278,0.00000468,-0.00004994,-0.00002343,0.00001227
 ,0.00006306,0.00001741,-0.00000426,0.00000093,-0.00000422,0.00000320,-
 0.00000278,-0.00000219,-0.00000113,-0.00000169,-0.00000289,0.00000241,
 0.00000250,0.00000108,-0.00000136,-0.00000061,-0.00000105,-0.00000030,
 0.00000022,-0.00000150,0.00000010,-0.00000204,-0.00000091,0.00000096,0
 .00000124,-0.00000177,0.00000054,0.00000119,-0.00000186,-0.00000063,0.
 00000510,0.00000854,-0.00000397,-0.00003886,-0.00001927,0.00000847\\\@
 The archive entry for this job was punched.


 The theorems and results in mathematical physics are
 not theorems and results about Nature, but about our
 description of it.
                   --Gerard 't Hooft
 Job cpu time:       0 days  0 hours 32 minutes 57.6 seconds.
 Elapsed time:       0 days  0 hours  1 minutes  2.8 seconds.
 File lengths (MBytes):  RWF=    291 Int=      0 D2E=      0 Chk=      7 Scr=      2
 Normal termination of Gaussian 16 at Fri Mar  8 02:33:18 2024.
