 Entering Gaussian System, Link 0=g16
 Initial command:
 /public/software/apps/Gaussian/g16/l1.exe "/public/home/LJQ_HG/tmp/Gau-99384.inp" -scrdir="/public/home/LJQ_HG/tmp/"
 Entering Link 1 = /public/software/apps/Gaussian/g16/l1.exe PID=     99393.
  
 Copyright (c) 1988-2019, Gaussian, Inc.  All Rights Reserved.
  
 This is part of the Gaussian(R) 16 program.  It is based on
 the Gaussian(R) 09 system (copyright 2009, Gaussian, Inc.),
 the Gaussian(R) 03 system (copyright 2003, Gaussian, Inc.),
 the Gaussian(R) 98 system (copyright 1998, Gaussian, Inc.),
 the Gaussian(R) 94 system (copyright 1995, Gaussian, Inc.),
 the Gaussian 92(TM) system (copyright 1992, Gaussian, Inc.),
 the Gaussian 90(TM) system (copyright 1990, Gaussian, Inc.),
 the Gaussian 88(TM) system (copyright 1988, Gaussian, Inc.),
 the Gaussian 86(TM) system (copyright 1986, Carnegie Mellon
 University), and the Gaussian 82(TM) system (copyright 1983,
 Carnegie Mellon University). Gaussian is a federally registered
 trademark of Gaussian, Inc.
  
 This software contains proprietary and confidential information,
 including trade secrets, belonging to Gaussian, Inc.
  
 This software is provided under written license and may be
 used, copied, transmitted, or stored only in accord with that
 written license.
  
 The following legend is applicable only to US Government
 contracts under FAR:
  
                    RESTRICTED RIGHTS LEGEND
  
 Use, reproduction and disclosure by the US Government is
 subject to restrictions as set forth in subparagraphs (a)
 and (c) of the Commercial Computer Software - Restricted
 Rights clause in FAR 52.227-19.
  
 Gaussian, Inc.
 340 Quinnipiac St., Bldg. 40, Wallingford CT 06492
  
  
 ---------------------------------------------------------------
 Warning -- This program may not be used in any manner that
 competes with the business of Gaussian, Inc. or will provide
 assistance to any competitor of Gaussian, Inc.  The licensee
 of this program is prohibited from giving any competitor of
 Gaussian, Inc. access to this program.  By using this program,
 the user acknowledges that Gaussian, Inc. is engaged in the
 business of creating and licensing software in the field of
 computational chemistry and represents and warrants to the
 licensee that it is not a competitor of Gaussian, Inc. and that
 it will not use this program in any manner prohibited above.
 ---------------------------------------------------------------
  

 Cite this work as:
 Gaussian 16, Revision C.01,
 M. J. Frisch, G. W. Trucks, H. B. Schlegel, G. E. Scuseria, 
 M. A. Robb, J. R. Cheeseman, G. Scalmani, V. Barone, 
 G. A. Petersson, H. Nakatsuji, X. Li, M. Caricato, A. V. Marenich, 
 J. Bloino, B. G. Janesko, R. Gomperts, B. Mennucci, H. P. Hratchian, 
 J. V. Ortiz, A. F. Izmaylov, J. L. Sonnenberg, D. Williams-Young, 
 F. Ding, F. Lipparini, F. Egidi, J. Goings, B. Peng, A. Petrone, 
 T. Henderson, D. Ranasinghe, V. G. Zakrzewski, J. Gao, N. Rega, 
 G. Zheng, W. Liang, M. Hada, M. Ehara, K. Toyota, R. Fukuda, 
 J. Hasegawa, M. Ishida, T. Nakajima, Y. Honda, O. Kitao, H. Nakai, 
 T. Vreven, K. Throssell, J. A. Montgomery, Jr., J. E. Peralta, 
 F. Ogliaro, M. J. Bearpark, J. J. Heyd, E. N. Brothers, K. N. Kudin, 
 V. N. Staroverov, T. A. Keith, R. Kobayashi, J. Normand, 
 K. Raghavachari, A. P. Rendell, J. C. Burant, S. S. Iyengar, 
 J. Tomasi, M. Cossi, J. M. Millam, M. Klene, C. Adamo, R. Cammi, 
 J. W. Ochterski, R. L. Martin, K. Morokuma, O. Farkas, 
 J. B. Foresman, and D. J. Fox, Gaussian, Inc., Wallingford CT, 2019.
 
 ******************************************
 Gaussian 16:  ES64L-G16RevC.01  3-Jul-2019
                14-Mar-2024 
 ******************************************
 %nprocshared=32
 Will use up to   32 processors via shared memory.
 %mem=100GB
 -------------------------------------------
 #p opt freq ub3lyp nosymm def2svpp em=gd3bj
 -------------------------------------------
 1/18=20,19=15,26=3,38=1/1,3;
 2/9=110,12=2,15=1,17=6,18=5,40=1/2;
 3/5=43,7=202,11=2,25=1,30=1,71=1,74=-5,116=2,124=41/1,2,3;
 4//1;
 5/5=2,38=5/2;
 6/7=2,8=2,9=2,10=2,28=1/1;
 7/30=1/1,2,3,16;
 1/18=20,19=15,26=3/3(2);
 2/9=110,15=1/2;
 99//99;
 2/9=110,15=1/2;
 3/5=43,7=202,11=2,25=1,30=1,71=1,74=-5,116=2,124=41/1,2,3;
 4/5=5,16=3,69=1/1;
 5/5=2,38=5/2;
 7/30=1/1,2,3,16;
 1/18=20,19=15,26=3/3(-5);
 2/9=110,15=1/2;
 6/7=2,8=2,9=2,10=2,19=2,28=1/1;
 99/9=1/99;
 Leave Link    1 at Thu Mar 14 22:31:21 2024, MaxMem= 13421772800 cpu:               2.0 elap:               0.1
 (Enter /public/software/apps/Gaussian/g16/l101.exe)
 ------------------
 $$$$Title####0????
 ------------------
 Symbolic Z-matrix:
 Charge =  0 Multiplicity = 2
 C                    -3.33509   2.37253   0.50125 
 C                    -1.82487   2.50209   0.67373 
 C                    -1.40779   3.85924   1.21884 
 O                    -1.34807   1.47668   1.5593 
 C                    -0.96278   0.38087   0.72178 
 C                    -0.2926   -0.71529   1.60431 
 O                     0.7711   -0.20648   2.34315 
 C                    -1.39067  -1.2159    2.5851 
 C                    -1.24384  -0.99853   3.95931 
 C                    -2.22907  -1.41522   4.86004 
 C                    -3.38009  -2.05738   4.3986 
 C                    -3.53101  -2.28815   3.02765 
 C                    -2.54204  -1.8758    2.13192 
 C                     0.17816  -1.89302   0.735 
 C                     1.30262  -2.61215   1.15619 
 C                     1.74024  -3.7313    0.4477 
 C                     1.06251  -4.15201  -0.69999 
 C                    -0.05251  -3.43449  -1.13669 
 C                    -0.48997  -2.31403  -0.4245 
 C                    -0.3075    1.12595  -0.47157 
 C                     1.17635   1.62807  -0.41432 
 O                     1.41632   2.3714    0.74394 
 C                     2.16845   0.45768  -0.56187 
 C                     3.22958   0.3164    0.33804 
 C                     4.17175  -0.70312   0.18124 
 C                     4.06582  -1.6003   -0.88271 
 C                     3.01272  -1.46459  -1.79176 
 C                     2.07928  -0.44038  -1.63548 
 C                     1.44839   2.58484  -1.59971 
 C                     0.73249   2.56294  -2.80331 
 C                     1.08289   3.41425  -3.85606 
 C                     2.14995   4.30506  -3.72065 
 C                     2.86532   4.33732  -2.51952 
 C                     2.51646   3.4849   -1.471 
 O                    -1.19134   2.23974  -0.57457 
 H                    -3.60532   1.34927   0.19322 
 H                    -3.67884   3.07075  -0.27959 
 H                    -3.85159   2.60412   1.44759 
 H                    -1.8025    3.99904   2.24019 
 H                    -0.30945   3.92952   1.21282 
 H                    -1.80958   4.65761   0.5736 
 H                    -1.87827  -0.0714    0.31053 
 H                    -0.33995  -0.50493   4.31664 
 H                    -2.09243  -1.23723   5.93141 
 H                    -4.15229  -2.3837    5.1018 
 H                    -4.42181  -2.80017   2.65086 
 H                    -2.6725   -2.09152   1.06923 
 H                     1.83737  -2.26524   2.04073 
 H                     2.62695  -4.27342   0.78957 
 H                     1.40798  -5.02818  -1.2569 
 H                    -0.58694  -3.74237  -2.04067 
 H                    -1.36121  -1.77206  -0.79955 
 H                    -0.20691   1.73133   0.33367 
 H                     3.31982   1.02216   1.16407 
 H                     4.99308  -0.79573   0.89867 
 H                     4.79755  -2.40475  -1.00356 
 H                     2.91356  -2.16291  -2.62728 
 H                     1.28061  -0.33943  -2.37408 
 H                    -0.11887   1.89447  -2.93694 
 H                     0.5087    3.3823   -4.78727 
 H                     2.42133   4.97132  -4.54515 
 H                     3.70345   5.03073  -2.39804 
 H                     3.0739    3.50601  -0.53317 
 Cu                    0.85331   1.62009   2.30684 
 
 ITRead=  0  0  0  0  0  0  0  0  0  0  0  0  0  0  0  0  0  0  0  0
 ITRead=  0  0  0  0  0  0  0  0  0  0  0  0  0  0  0  0  0  0  0  0
 ITRead=  0  0  0  0  0  0  0  0  0  0  0  0  0  0  0  0  0  0  0  0
 ITRead=  0  0  0  0
 MicOpt= -1 -1 -1 -1 -1 -1 -1 -1 -1 -1 -1 -1 -1 -1 -1 -1 -1 -1 -1 -1
 MicOpt= -1 -1 -1 -1 -1 -1 -1 -1 -1 -1 -1 -1 -1 -1 -1 -1 -1 -1 -1 -1
 MicOpt= -1 -1 -1 -1 -1 -1 -1 -1 -1 -1 -1 -1 -1 -1 -1 -1 -1 -1 -1 -1
 MicOpt= -1 -1 -1 -1
 NAtoms=     64 NQM=       64 NQMF=       0 NMMI=      0 NMMIF=      0
                NMic=       0 NMicF=      0.
                    Isotopes and Nuclear Properties:
 (Nuclear quadrupole moments (NQMom) in fm**2, nuclear magnetic moments (NMagM)
  in nuclear magnetons)

  Atom         1           2           3           4           5           6           7           8           9          10
 IAtWgt=          12          12          12          16          12          12          16          12          12          12
 AtmWgt=  12.0000000  12.0000000  12.0000000  15.9949146  12.0000000  12.0000000  15.9949146  12.0000000  12.0000000  12.0000000
 NucSpn=           0           0           0           0           0           0           0           0           0           0
 AtZEff=  -0.0000000  -0.0000000  -0.0000000  -0.0000000  -0.0000000  -0.0000000  -0.0000000  -0.0000000  -0.0000000  -0.0000000
 NQMom=    0.0000000   0.0000000   0.0000000   0.0000000   0.0000000   0.0000000   0.0000000   0.0000000   0.0000000   0.0000000
 NMagM=    0.0000000   0.0000000   0.0000000   0.0000000   0.0000000   0.0000000   0.0000000   0.0000000   0.0000000   0.0000000
 AtZNuc=   6.0000000   6.0000000   6.0000000   8.0000000   6.0000000   6.0000000   8.0000000   6.0000000   6.0000000   6.0000000

  Atom        11          12          13          14          15          16          17          18          19          20
 IAtWgt=          12          12          12          12          12          12          12          12          12          12
 AtmWgt=  12.0000000  12.0000000  12.0000000  12.0000000  12.0000000  12.0000000  12.0000000  12.0000000  12.0000000  12.0000000
 NucSpn=           0           0           0           0           0           0           0           0           0           0
 AtZEff=  -0.0000000  -0.0000000  -0.0000000  -0.0000000  -0.0000000  -0.0000000  -0.0000000  -0.0000000  -0.0000000  -0.0000000
 NQMom=    0.0000000   0.0000000   0.0000000   0.0000000   0.0000000   0.0000000   0.0000000   0.0000000   0.0000000   0.0000000
 NMagM=    0.0000000   0.0000000   0.0000000   0.0000000   0.0000000   0.0000000   0.0000000   0.0000000   0.0000000   0.0000000
 AtZNuc=   6.0000000   6.0000000   6.0000000   6.0000000   6.0000000   6.0000000   6.0000000   6.0000000   6.0000000   6.0000000

  Atom        21          22          23          24          25          26          27          28          29          30
 IAtWgt=          12          16          12          12          12          12          12          12          12          12
 AtmWgt=  12.0000000  15.9949146  12.0000000  12.0000000  12.0000000  12.0000000  12.0000000  12.0000000  12.0000000  12.0000000
 NucSpn=           0           0           0           0           0           0           0           0           0           0
 AtZEff=  -0.0000000  -0.0000000  -0.0000000  -0.0000000  -0.0000000  -0.0000000  -0.0000000  -0.0000000  -0.0000000  -0.0000000
 NQMom=    0.0000000   0.0000000   0.0000000   0.0000000   0.0000000   0.0000000   0.0000000   0.0000000   0.0000000   0.0000000
 NMagM=    0.0000000   0.0000000   0.0000000   0.0000000   0.0000000   0.0000000   0.0000000   0.0000000   0.0000000   0.0000000
 AtZNuc=   6.0000000   8.0000000   6.0000000   6.0000000   6.0000000   6.0000000   6.0000000   6.0000000   6.0000000   6.0000000

  Atom        31          32          33          34          35          36          37          38          39          40
 IAtWgt=          12          12          12          12          16           1           1           1           1           1
 AtmWgt=  12.0000000  12.0000000  12.0000000  12.0000000  15.9949146   1.0078250   1.0078250   1.0078250   1.0078250   1.0078250
 NucSpn=           0           0           0           0           0           1           1           1           1           1
 AtZEff=  -0.0000000  -0.0000000  -0.0000000  -0.0000000  -0.0000000  -0.0000000  -0.0000000  -0.0000000  -0.0000000  -0.0000000
 NQMom=    0.0000000   0.0000000   0.0000000   0.0000000   0.0000000   0.0000000   0.0000000   0.0000000   0.0000000   0.0000000
 NMagM=    0.0000000   0.0000000   0.0000000   0.0000000   0.0000000   2.7928460   2.7928460   2.7928460   2.7928460   2.7928460
 AtZNuc=   6.0000000   6.0000000   6.0000000   6.0000000   8.0000000   1.0000000   1.0000000   1.0000000   1.0000000   1.0000000

  Atom        41          42          43          44          45          46          47          48          49          50
 IAtWgt=           1           1           1           1           1           1           1           1           1           1
 AtmWgt=   1.0078250   1.0078250   1.0078250   1.0078250   1.0078250   1.0078250   1.0078250   1.0078250   1.0078250   1.0078250
 NucSpn=           1           1           1           1           1           1           1           1           1           1
 AtZEff=  -0.0000000  -0.0000000  -0.0000000  -0.0000000  -0.0000000  -0.0000000  -0.0000000  -0.0000000  -0.0000000  -0.0000000
 NQMom=    0.0000000   0.0000000   0.0000000   0.0000000   0.0000000   0.0000000   0.0000000   0.0000000   0.0000000   0.0000000
 NMagM=    2.7928460   2.7928460   2.7928460   2.7928460   2.7928460   2.7928460   2.7928460   2.7928460   2.7928460   2.7928460
 AtZNuc=   1.0000000   1.0000000   1.0000000   1.0000000   1.0000000   1.0000000   1.0000000   1.0000000   1.0000000   1.0000000

  Atom        51          52          53          54          55          56          57          58          59          60
 IAtWgt=           1           1           1           1           1           1           1           1           1           1
 AtmWgt=   1.0078250   1.0078250   1.0078250   1.0078250   1.0078250   1.0078250   1.0078250   1.0078250   1.0078250   1.0078250
 NucSpn=           1           1           1           1           1           1           1           1           1           1
 AtZEff=  -0.0000000  -0.0000000  -0.0000000  -0.0000000  -0.0000000  -0.0000000  -0.0000000  -0.0000000  -0.0000000  -0.0000000
 NQMom=    0.0000000   0.0000000   0.0000000   0.0000000   0.0000000   0.0000000   0.0000000   0.0000000   0.0000000   0.0000000
 NMagM=    2.7928460   2.7928460   2.7928460   2.7928460   2.7928460   2.7928460   2.7928460   2.7928460   2.7928460   2.7928460
 AtZNuc=   1.0000000   1.0000000   1.0000000   1.0000000   1.0000000   1.0000000   1.0000000   1.0000000   1.0000000   1.0000000

  Atom        61          62          63          64
 IAtWgt=           1           1           1          63
 AtmWgt=   1.0078250   1.0078250   1.0078250  62.9295992
 NucSpn=           1           1           1           3
 AtZEff=  -0.0000000  -0.0000000  -0.0000000  -0.0000000
 NQMom=    0.0000000   0.0000000   0.0000000 -22.0000000
 NMagM=    2.7928460   2.7928460   2.7928460   2.2233000
 AtZNuc=   1.0000000   1.0000000   1.0000000  29.0000000
 Leave Link  101 at Thu Mar 14 22:31:21 2024, MaxMem= 13421772800 cpu:              10.0 elap:               0.3
 (Enter /public/software/apps/Gaussian/g16/l103.exe)

 GradGradGradGradGradGradGradGradGradGradGradGradGradGradGradGradGradGrad
 Berny optimization.
 Initialization pass.
                           ----------------------------
                           !    Initial Parameters    !
                           ! (Angstroms and Degrees)  !
 --------------------------                            --------------------------
 ! Name  Definition              Value          Derivative Info.                !
 --------------------------------------------------------------------------------
 ! R1    R(1,2)                  1.5256         estimate D2E/DX2                !
 ! R2    R(1,36)                 1.1023         estimate D2E/DX2                !
 ! R3    R(1,37)                 1.1025         estimate D2E/DX2                !
 ! R4    R(1,38)                 1.1027         estimate D2E/DX2                !
 ! R5    R(2,3)                  1.5208         estimate D2E/DX2                !
 ! R6    R(2,4)                  1.4363         estimate D2E/DX2                !
 ! R7    R(2,35)                 1.4242         estimate D2E/DX2                !
 ! R8    R(3,39)                 1.1039         estimate D2E/DX2                !
 ! R9    R(3,40)                 1.1006         estimate D2E/DX2                !
 ! R10   R(3,41)                 1.1023         estimate D2E/DX2                !
 ! R11   R(4,5)                  1.432          estimate D2E/DX2                !
 ! R12   R(5,6)                  1.5587         estimate D2E/DX2                !
 ! R13   R(5,20)                 1.552          estimate D2E/DX2                !
 ! R14   R(5,42)                 1.1008         estimate D2E/DX2                !
 ! R15   R(6,7)                  1.3915         estimate D2E/DX2                !
 ! R16   R(6,8)                  1.5551         estimate D2E/DX2                !
 ! R17   R(6,14)                 1.5376         estimate D2E/DX2                !
 ! R18   R(7,64)                 1.8288         estimate D2E/DX2                !
 ! R19   R(8,9)                  1.399          estimate D2E/DX2                !
 ! R20   R(8,13)                 1.4023         estimate D2E/DX2                !
 ! R21   R(9,10)                 1.3984         estimate D2E/DX2                !
 ! R22   R(9,43)                 1.0901         estimate D2E/DX2                !
 ! R23   R(10,11)                1.3965         estimate D2E/DX2                !
 ! R24   R(10,44)                1.0946         estimate D2E/DX2                !
 ! R25   R(11,12)                1.3984         estimate D2E/DX2                !
 ! R26   R(11,45)                1.0942         estimate D2E/DX2                !
 ! R27   R(12,13)                1.3966         estimate D2E/DX2                !
 ! R28   R(12,46)                1.0944         estimate D2E/DX2                !
 ! R29   R(13,47)                1.0922         estimate D2E/DX2                !
 ! R30   R(14,15)                1.3996         estimate D2E/DX2                !
 ! R31   R(14,19)                1.4029         estimate D2E/DX2                !
 ! R32   R(15,16)                1.395          estimate D2E/DX2                !
 ! R33   R(15,48)                1.0903         estimate D2E/DX2                !
 ! R34   R(16,17)                1.3977         estimate D2E/DX2                !
 ! R35   R(16,49)                1.0941         estimate D2E/DX2                !
 ! R36   R(17,18)                1.396          estimate D2E/DX2                !
 ! R37   R(17,50)                1.0941         estimate D2E/DX2                !
 ! R38   R(18,19)                1.3979         estimate D2E/DX2                !
 ! R39   R(18,51)                1.0943         estimate D2E/DX2                !
 ! R40   R(19,52)                1.0925         estimate D2E/DX2                !
 ! R41   R(20,21)                1.5675         estimate D2E/DX2                !
 ! R42   R(20,35)                1.4256         estimate D2E/DX2                !
 ! R43   R(20,53)                1.0124         estimate D2E/DX2                !
 ! R44   R(21,22)                1.397          estimate D2E/DX2                !
 ! R45   R(21,23)                1.5414         estimate D2E/DX2                !
 ! R46   R(21,29)                1.5474         estimate D2E/DX2                !
 ! R47   R(22,64)                1.8232         estimate D2E/DX2                !
 ! R48   R(23,24)                1.3985         estimate D2E/DX2                !
 ! R49   R(23,28)                1.4025         estimate D2E/DX2                !
 ! R50   R(24,25)                1.397          estimate D2E/DX2                !
 ! R51   R(24,54)                1.0902         estimate D2E/DX2                !
 ! R52   R(25,26)                1.3958         estimate D2E/DX2                !
 ! R53   R(25,55)                1.0945         estimate D2E/DX2                !
 ! R54   R(26,27)                1.3978         estimate D2E/DX2                !
 ! R55   R(26,56)                1.0941         estimate D2E/DX2                !
 ! R56   R(27,28)                1.3945         estimate D2E/DX2                !
 ! R57   R(27,57)                1.0934         estimate D2E/DX2                !
 ! R58   R(28,58)                1.0925         estimate D2E/DX2                !
 ! R59   R(29,30)                1.4006         estimate D2E/DX2                !
 ! R60   R(29,34)                1.4027         estimate D2E/DX2                !
 ! R61   R(30,31)                1.3985         estimate D2E/DX2                !
 ! R62   R(30,59)                1.0907         estimate D2E/DX2                !
 ! R63   R(31,32)                1.3966         estimate D2E/DX2                !
 ! R64   R(31,60)                1.0945         estimate D2E/DX2                !
 ! R65   R(32,33)                1.3984         estimate D2E/DX2                !
 ! R66   R(32,61)                1.0942         estimate D2E/DX2                !
 ! R67   R(33,34)                1.3956         estimate D2E/DX2                !
 ! R68   R(33,62)                1.0946         estimate D2E/DX2                !
 ! R69   R(34,63)                1.0912         estimate D2E/DX2                !
 ! A1    A(2,1,36)             110.6792         estimate D2E/DX2                !
 ! A2    A(2,1,37)             109.5699         estimate D2E/DX2                !
 ! A3    A(2,1,38)             110.4151         estimate D2E/DX2                !
 ! A4    A(36,1,37)            108.2747         estimate D2E/DX2                !
 ! A5    A(36,1,38)            108.661          estimate D2E/DX2                !
 ! A6    A(37,1,38)            109.195          estimate D2E/DX2                !
 ! A7    A(1,2,3)              112.8176         estimate D2E/DX2                !
 ! A8    A(1,2,4)              109.7364         estimate D2E/DX2                !
 ! A9    A(1,2,35)             109.0025         estimate D2E/DX2                !
 ! A10   A(3,2,4)              108.9687         estimate D2E/DX2                !
 ! A11   A(3,2,35)             110.8881         estimate D2E/DX2                !
 ! A12   A(4,2,35)             105.1425         estimate D2E/DX2                !
 ! A13   A(2,3,39)             110.2793         estimate D2E/DX2                !
 ! A14   A(2,3,40)             109.1903         estimate D2E/DX2                !
 ! A15   A(2,3,41)             109.666          estimate D2E/DX2                !
 ! A16   A(39,3,40)            110.7205         estimate D2E/DX2                !
 ! A17   A(39,3,41)            108.6343         estimate D2E/DX2                !
 ! A18   A(40,3,41)            108.3177         estimate D2E/DX2                !
 ! A19   A(2,4,5)              105.9635         estimate D2E/DX2                !
 ! A20   A(4,5,6)              108.8253         estimate D2E/DX2                !
 ! A21   A(4,5,20)             101.2993         estimate D2E/DX2                !
 ! A22   A(4,5,42)             108.0065         estimate D2E/DX2                !
 ! A23   A(6,5,20)             126.2592         estimate D2E/DX2                !
 ! A24   A(6,5,42)             106.2707         estimate D2E/DX2                !
 ! A25   A(20,5,42)            105.1365         estimate D2E/DX2                !
 ! A26   A(5,6,7)              111.849          estimate D2E/DX2                !
 ! A27   A(5,6,8)              106.2532         estimate D2E/DX2                !
 ! A28   A(5,6,14)             110.4984         estimate D2E/DX2                !
 ! A29   A(7,6,8)              108.8203         estimate D2E/DX2                !
 ! A30   A(7,6,14)             110.2558         estimate D2E/DX2                !
 ! A31   A(8,6,14)             109.0373         estimate D2E/DX2                !
 ! A32   A(6,7,64)             112.8945         estimate D2E/DX2                !
 ! A33   A(6,8,9)              119.6956         estimate D2E/DX2                !
 ! A34   A(6,8,13)             121.8311         estimate D2E/DX2                !
 ! A35   A(9,8,13)             118.4711         estimate D2E/DX2                !
 ! A36   A(8,9,10)             120.8268         estimate D2E/DX2                !
 ! A37   A(8,9,43)             118.6432         estimate D2E/DX2                !
 ! A38   A(10,9,43)            120.5277         estimate D2E/DX2                !
 ! A39   A(9,10,11)            120.3231         estimate D2E/DX2                !
 ! A40   A(9,10,44)            119.6059         estimate D2E/DX2                !
 ! A41   A(11,10,44)           120.0708         estimate D2E/DX2                !
 ! A42   A(10,11,12)           119.2605         estimate D2E/DX2                !
 ! A43   A(10,11,45)           120.4282         estimate D2E/DX2                !
 ! A44   A(12,11,45)           120.3096         estimate D2E/DX2                !
 ! A45   A(11,12,13)           120.2407         estimate D2E/DX2                !
 ! A46   A(11,12,46)           120.1719         estimate D2E/DX2                !
 ! A47   A(13,12,46)           119.5857         estimate D2E/DX2                !
 ! A48   A(8,13,12)            120.87           estimate D2E/DX2                !
 ! A49   A(8,13,47)            120.3615         estimate D2E/DX2                !
 ! A50   A(12,13,47)           118.7606         estimate D2E/DX2                !
 ! A51   A(6,14,15)            117.9941         estimate D2E/DX2                !
 ! A52   A(6,14,19)            123.4572         estimate D2E/DX2                !
 ! A53   A(15,14,19)           118.499          estimate D2E/DX2                !
 ! A54   A(14,15,16)           120.758          estimate D2E/DX2                !
 ! A55   A(14,15,48)           118.3394         estimate D2E/DX2                !
 ! A56   A(16,15,48)           120.8938         estimate D2E/DX2                !
 ! A57   A(15,16,17)           120.4254         estimate D2E/DX2                !
 ! A58   A(15,16,49)           119.543          estimate D2E/DX2                !
 ! A59   A(17,16,49)           120.0278         estimate D2E/DX2                !
 ! A60   A(16,17,18)           119.3045         estimate D2E/DX2                !
 ! A61   A(16,17,50)           120.3903         estimate D2E/DX2                !
 ! A62   A(18,17,50)           120.3021         estimate D2E/DX2                !
 ! A63   A(17,18,19)           120.1703         estimate D2E/DX2                !
 ! A64   A(17,18,51)           120.2561         estimate D2E/DX2                !
 ! A65   A(19,18,51)           119.573          estimate D2E/DX2                !
 ! A66   A(14,19,18)           120.8373         estimate D2E/DX2                !
 ! A67   A(14,19,52)           120.9763         estimate D2E/DX2                !
 ! A68   A(18,19,52)           118.185          estimate D2E/DX2                !
 ! A69   A(5,20,21)            121.6937         estimate D2E/DX2                !
 ! A70   A(5,20,35)             99.7219         estimate D2E/DX2                !
 ! A71   A(5,20,53)             73.5871         estimate D2E/DX2                !
 ! A72   A(21,20,35)           109.8318         estimate D2E/DX2                !
 ! A73   A(21,20,53)            71.6618         estimate D2E/DX2                !
 ! A74   A(35,20,53)            69.629          estimate D2E/DX2                !
 ! A75   A(20,21,22)           111.3038         estimate D2E/DX2                !
 ! A76   A(20,21,23)           111.2575         estimate D2E/DX2                !
 ! A77   A(20,21,29)           109.663          estimate D2E/DX2                !
 ! A78   A(22,21,23)           111.8898         estimate D2E/DX2                !
 ! A79   A(22,21,29)           106.0175         estimate D2E/DX2                !
 ! A80   A(23,21,29)           106.4391         estimate D2E/DX2                !
 ! A81   A(21,22,64)           116.0026         estimate D2E/DX2                !
 ! A82   A(21,23,24)           120.2313         estimate D2E/DX2                !
 ! A83   A(21,23,28)           121.2351         estimate D2E/DX2                !
 ! A84   A(24,23,28)           118.4325         estimate D2E/DX2                !
 ! A85   A(23,24,25)           120.8785         estimate D2E/DX2                !
 ! A86   A(23,24,54)           119.0092         estimate D2E/DX2                !
 ! A87   A(25,24,54)           120.1094         estimate D2E/DX2                !
 ! A88   A(24,25,26)           120.2301         estimate D2E/DX2                !
 ! A89   A(24,25,55)           119.6222         estimate D2E/DX2                !
 ! A90   A(26,25,55)           120.1477         estimate D2E/DX2                !
 ! A91   A(25,26,27)           119.374          estimate D2E/DX2                !
 ! A92   A(25,26,56)           120.4004         estimate D2E/DX2                !
 ! A93   A(27,26,56)           120.2253         estimate D2E/DX2                !
 ! A94   A(26,27,28)           120.1803         estimate D2E/DX2                !
 ! A95   A(26,27,57)           120.2166         estimate D2E/DX2                !
 ! A96   A(28,27,57)           119.6027         estimate D2E/DX2                !
 ! A97   A(23,28,27)           120.8972         estimate D2E/DX2                !
 ! A98   A(23,28,58)           120.3187         estimate D2E/DX2                !
 ! A99   A(27,28,58)           118.779          estimate D2E/DX2                !
 ! A100  A(21,29,30)           123.9706         estimate D2E/DX2                !
 ! A101  A(21,29,34)           117.408          estimate D2E/DX2                !
 ! A102  A(30,29,34)           118.5615         estimate D2E/DX2                !
 ! A103  A(29,30,31)           120.6181         estimate D2E/DX2                !
 ! A104  A(29,30,59)           120.9221         estimate D2E/DX2                !
 ! A105  A(31,30,59)           118.4533         estimate D2E/DX2                !
 ! A106  A(30,31,32)           120.4452         estimate D2E/DX2                !
 ! A107  A(30,31,60)           119.424          estimate D2E/DX2                !
 ! A108  A(32,31,60)           120.1294         estimate D2E/DX2                !
 ! A109  A(31,32,33)           119.2654         estimate D2E/DX2                !
 ! A110  A(31,32,61)           120.3177         estimate D2E/DX2                !
 ! A111  A(33,32,61)           120.4168         estimate D2E/DX2                !
 ! A112  A(32,33,34)           120.2223         estimate D2E/DX2                !
 ! A113  A(32,33,62)           120.1103         estimate D2E/DX2                !
 ! A114  A(34,33,62)           119.6672         estimate D2E/DX2                !
 ! A115  A(29,34,33)           120.8861         estimate D2E/DX2                !
 ! A116  A(29,34,63)           118.7025         estimate D2E/DX2                !
 ! A117  A(33,34,63)           120.4114         estimate D2E/DX2                !
 ! A118  A(2,35,20)            110.8775         estimate D2E/DX2                !
 ! A119  A(7,64,22)            116.2624         estimate D2E/DX2                !
 ! D1    D(36,1,2,3)          -174.8425         estimate D2E/DX2                !
 ! D2    D(36,1,2,4)           -53.1339         estimate D2E/DX2                !
 ! D3    D(36,1,2,35)           61.5159         estimate D2E/DX2                !
 ! D4    D(37,1,2,3)            65.8237         estimate D2E/DX2                !
 ! D5    D(37,1,2,4)          -172.4677         estimate D2E/DX2                !
 ! D6    D(37,1,2,35)          -57.8179         estimate D2E/DX2                !
 ! D7    D(38,1,2,3)           -54.4838         estimate D2E/DX2                !
 ! D8    D(38,1,2,4)            67.2248         estimate D2E/DX2                !
 ! D9    D(38,1,2,35)         -178.1254         estimate D2E/DX2                !
 ! D10   D(1,2,3,39)            64.4411         estimate D2E/DX2                !
 ! D11   D(1,2,3,40)          -173.6894         estimate D2E/DX2                !
 ! D12   D(1,2,3,41)           -55.1491         estimate D2E/DX2                !
 ! D13   D(4,2,3,39)           -57.7002         estimate D2E/DX2                !
 ! D14   D(4,2,3,40)            64.1693         estimate D2E/DX2                !
 ! D15   D(4,2,3,41)          -177.2904         estimate D2E/DX2                !
 ! D16   D(35,2,3,39)         -172.9662         estimate D2E/DX2                !
 ! D17   D(35,2,3,40)          -51.0968         estimate D2E/DX2                !
 ! D18   D(35,2,3,41)           67.4435         estimate D2E/DX2                !
 ! D19   D(1,2,4,5)             92.683          estimate D2E/DX2                !
 ! D20   D(3,2,4,5)           -143.3322         estimate D2E/DX2                !
 ! D21   D(35,2,4,5)           -24.4117         estimate D2E/DX2                !
 ! D22   D(1,2,35,20)         -119.8367         estimate D2E/DX2                !
 ! D23   D(3,2,35,20)          115.3834         estimate D2E/DX2                !
 ! D24   D(4,2,35,20)           -2.2431         estimate D2E/DX2                !
 ! D25   D(2,4,5,6)            174.0635         estimate D2E/DX2                !
 ! D26   D(2,4,5,20)            39.207          estimate D2E/DX2                !
 ! D27   D(2,4,5,42)           -70.9712         estimate D2E/DX2                !
 ! D28   D(4,5,6,7)            -54.9307         estimate D2E/DX2                !
 ! D29   D(4,5,6,8)             63.6849         estimate D2E/DX2                !
 ! D30   D(4,5,6,14)          -178.169          estimate D2E/DX2                !
 ! D31   D(20,5,6,7)            65.5187         estimate D2E/DX2                !
 ! D32   D(20,5,6,8)          -175.8657         estimate D2E/DX2                !
 ! D33   D(20,5,6,14)          -57.7196         estimate D2E/DX2                !
 ! D34   D(42,5,6,7)          -171.0171         estimate D2E/DX2                !
 ! D35   D(42,5,6,8)           -52.4014         estimate D2E/DX2                !
 ! D36   D(42,5,6,14)           65.7446         estimate D2E/DX2                !
 ! D37   D(4,5,20,21)           82.0966         estimate D2E/DX2                !
 ! D38   D(4,5,20,35)          -38.5885         estimate D2E/DX2                !
 ! D39   D(4,5,20,53)           26.6629         estimate D2E/DX2                !
 ! D40   D(6,5,20,21)          -41.5894         estimate D2E/DX2                !
 ! D41   D(6,5,20,35)         -162.2744         estimate D2E/DX2                !
 ! D42   D(6,5,20,53)          -97.0231         estimate D2E/DX2                !
 ! D43   D(42,5,20,21)        -165.5317         estimate D2E/DX2                !
 ! D44   D(42,5,20,35)          73.7833         estimate D2E/DX2                !
 ! D45   D(42,5,20,53)         139.0346         estimate D2E/DX2                !
 ! D46   D(5,6,7,64)            11.0843         estimate D2E/DX2                !
 ! D47   D(8,6,7,64)          -105.9957         estimate D2E/DX2                !
 ! D48   D(14,6,7,64)          134.4597         estimate D2E/DX2                !
 ! D49   D(5,6,8,9)           -115.0693         estimate D2E/DX2                !
 ! D50   D(5,6,8,13)            64.3815         estimate D2E/DX2                !
 ! D51   D(7,6,8,9)              5.5221         estimate D2E/DX2                !
 ! D52   D(7,6,8,13)          -175.027          estimate D2E/DX2                !
 ! D53   D(14,6,8,9)           125.8225         estimate D2E/DX2                !
 ! D54   D(14,6,8,13)          -54.7266         estimate D2E/DX2                !
 ! D55   D(5,6,14,15)          149.5185         estimate D2E/DX2                !
 ! D56   D(5,6,14,19)          -33.0876         estimate D2E/DX2                !
 ! D57   D(7,6,14,15)           25.3605         estimate D2E/DX2                !
 ! D58   D(7,6,14,19)         -157.2455         estimate D2E/DX2                !
 ! D59   D(8,6,14,15)          -94.0524         estimate D2E/DX2                !
 ! D60   D(8,6,14,19)           83.3416         estimate D2E/DX2                !
 ! D61   D(6,7,64,22)          -73.0703         estimate D2E/DX2                !
 ! D62   D(6,8,9,10)           178.7311         estimate D2E/DX2                !
 ! D63   D(6,8,9,43)            -1.8271         estimate D2E/DX2                !
 ! D64   D(13,8,9,10)           -0.7382         estimate D2E/DX2                !
 ! D65   D(13,8,9,43)          178.7037         estimate D2E/DX2                !
 ! D66   D(6,8,13,12)         -178.4303         estimate D2E/DX2                !
 ! D67   D(6,8,13,47)            2.6057         estimate D2E/DX2                !
 ! D68   D(9,8,13,12)            1.027          estimate D2E/DX2                !
 ! D69   D(9,8,13,47)         -177.9369         estimate D2E/DX2                !
 ! D70   D(8,9,10,11)           -0.0193         estimate D2E/DX2                !
 ! D71   D(8,9,10,44)          179.8434         estimate D2E/DX2                !
 ! D72   D(43,9,10,11)        -179.4505         estimate D2E/DX2                !
 ! D73   D(43,9,10,44)           0.4121         estimate D2E/DX2                !
 ! D74   D(9,10,11,12)           0.5017         estimate D2E/DX2                !
 ! D75   D(9,10,11,45)        -179.9698         estimate D2E/DX2                !
 ! D76   D(44,10,11,12)       -179.3602         estimate D2E/DX2                !
 ! D77   D(44,10,11,45)          0.1683         estimate D2E/DX2                !
 ! D78   D(10,11,12,13)         -0.2152         estimate D2E/DX2                !
 ! D79   D(10,11,12,46)        179.3119         estimate D2E/DX2                !
 ! D80   D(45,11,12,13)       -179.7442         estimate D2E/DX2                !
 ! D81   D(45,11,12,46)         -0.2172         estimate D2E/DX2                !
 ! D82   D(11,12,13,8)          -0.5596         estimate D2E/DX2                !
 ! D83   D(11,12,13,47)        178.4206         estimate D2E/DX2                !
 ! D84   D(46,12,13,8)         179.9106         estimate D2E/DX2                !
 ! D85   D(46,12,13,47)         -1.1092         estimate D2E/DX2                !
 ! D86   D(6,14,15,16)         176.8086         estimate D2E/DX2                !
 ! D87   D(6,14,15,48)          -4.261          estimate D2E/DX2                !
 ! D88   D(19,14,15,16)         -0.7175         estimate D2E/DX2                !
 ! D89   D(19,14,15,48)        178.2129         estimate D2E/DX2                !
 ! D90   D(6,14,19,18)        -176.7215         estimate D2E/DX2                !
 ! D91   D(6,14,19,52)           3.7139         estimate D2E/DX2                !
 ! D92   D(15,14,19,18)          0.6601         estimate D2E/DX2                !
 ! D93   D(15,14,19,52)       -178.9045         estimate D2E/DX2                !
 ! D94   D(14,15,16,17)          0.1601         estimate D2E/DX2                !
 ! D95   D(14,15,16,49)        179.4507         estimate D2E/DX2                !
 ! D96   D(48,15,16,17)       -178.7429         estimate D2E/DX2                !
 ! D97   D(48,15,16,49)          0.5477         estimate D2E/DX2                !
 ! D98   D(15,16,17,18)          0.4676         estimate D2E/DX2                !
 ! D99   D(15,16,17,50)        179.8219         estimate D2E/DX2                !
 ! D100  D(49,16,17,18)       -178.8196         estimate D2E/DX2                !
 ! D101  D(49,16,17,50)          0.5348         estimate D2E/DX2                !
 ! D102  D(16,17,18,19)         -0.5239         estimate D2E/DX2                !
 ! D103  D(16,17,18,51)        179.1994         estimate D2E/DX2                !
 ! D104  D(50,17,18,19)       -179.8789         estimate D2E/DX2                !
 ! D105  D(50,17,18,51)         -0.1555         estimate D2E/DX2                !
 ! D106  D(17,18,19,14)         -0.0434         estimate D2E/DX2                !
 ! D107  D(17,18,19,52)        179.5331         estimate D2E/DX2                !
 ! D108  D(51,18,19,14)       -179.7686         estimate D2E/DX2                !
 ! D109  D(51,18,19,52)         -0.1922         estimate D2E/DX2                !
 ! D110  D(5,20,21,22)         -50.8575         estimate D2E/DX2                !
 ! D111  D(5,20,21,23)          74.6696         estimate D2E/DX2                !
 ! D112  D(5,20,21,29)        -167.8484         estimate D2E/DX2                !
 ! D113  D(35,20,21,22)         64.8427         estimate D2E/DX2                !
 ! D114  D(35,20,21,23)       -169.6302         estimate D2E/DX2                !
 ! D115  D(35,20,21,29)        -52.1482         estimate D2E/DX2                !
 ! D116  D(53,20,21,22)          5.4654         estimate D2E/DX2                !
 ! D117  D(53,20,21,23)        130.9925         estimate D2E/DX2                !
 ! D118  D(53,20,21,29)       -111.5255         estimate D2E/DX2                !
 ! D119  D(5,20,35,2)           25.1683         estimate D2E/DX2                !
 ! D120  D(21,20,35,2)        -103.766          estimate D2E/DX2                !
 ! D121  D(53,20,35,2)         -43.1521         estimate D2E/DX2                !
 ! D122  D(20,21,22,64)         48.7345         estimate D2E/DX2                !
 ! D123  D(23,21,22,64)        -76.4402         estimate D2E/DX2                !
 ! D124  D(29,21,22,64)        167.9242         estimate D2E/DX2                !
 ! D125  D(20,21,23,24)       -130.8659         estimate D2E/DX2                !
 ! D126  D(20,21,23,28)         52.8482         estimate D2E/DX2                !
 ! D127  D(22,21,23,24)         -5.6657         estimate D2E/DX2                !
 ! D128  D(22,21,23,28)        178.0485         estimate D2E/DX2                !
 ! D129  D(29,21,23,24)        109.7128         estimate D2E/DX2                !
 ! D130  D(29,21,23,28)        -66.5731         estimate D2E/DX2                !
 ! D131  D(20,21,29,30)        -24.9184         estimate D2E/DX2                !
 ! D132  D(20,21,29,34)        157.9439         estimate D2E/DX2                !
 ! D133  D(22,21,29,30)       -145.1815         estimate D2E/DX2                !
 ! D134  D(22,21,29,34)         37.6808         estimate D2E/DX2                !
 ! D135  D(23,21,29,30)         95.5359         estimate D2E/DX2                !
 ! D136  D(23,21,29,34)        -81.6017         estimate D2E/DX2                !
 ! D137  D(21,22,64,7)          27.228          estimate D2E/DX2                !
 ! D138  D(21,23,24,25)       -177.0511         estimate D2E/DX2                !
 ! D139  D(21,23,24,54)          2.3418         estimate D2E/DX2                !
 ! D140  D(28,23,24,25)         -0.6623         estimate D2E/DX2                !
 ! D141  D(28,23,24,54)        178.7306         estimate D2E/DX2                !
 ! D142  D(21,23,28,27)        177.3994         estimate D2E/DX2                !
 ! D143  D(21,23,28,58)         -1.766          estimate D2E/DX2                !
 ! D144  D(24,23,28,27)          1.0484         estimate D2E/DX2                !
 ! D145  D(24,23,28,58)       -178.1169         estimate D2E/DX2                !
 ! D146  D(23,24,25,26)         -0.0031         estimate D2E/DX2                !
 ! D147  D(23,24,25,55)       -179.8988         estimate D2E/DX2                !
 ! D148  D(54,24,25,26)       -179.3893         estimate D2E/DX2                !
 ! D149  D(54,24,25,55)          0.7149         estimate D2E/DX2                !
 ! D150  D(24,25,26,27)          0.299          estimate D2E/DX2                !
 ! D151  D(24,25,26,56)       -179.5039         estimate D2E/DX2                !
 ! D152  D(55,25,26,27)       -179.8058         estimate D2E/DX2                !
 ! D153  D(55,25,26,56)          0.3913         estimate D2E/DX2                !
 ! D154  D(25,26,27,28)          0.0835         estimate D2E/DX2                !
 ! D155  D(25,26,27,57)       -179.681          estimate D2E/DX2                !
 ! D156  D(56,26,27,28)        179.8867         estimate D2E/DX2                !
 ! D157  D(56,26,27,57)          0.1222         estimate D2E/DX2                !
 ! D158  D(26,27,28,23)         -0.7698         estimate D2E/DX2                !
 ! D159  D(26,27,28,58)        178.4082         estimate D2E/DX2                !
 ! D160  D(57,27,28,23)        178.9962         estimate D2E/DX2                !
 ! D161  D(57,27,28,58)         -1.8258         estimate D2E/DX2                !
 ! D162  D(21,29,30,31)       -176.6551         estimate D2E/DX2                !
 ! D163  D(21,29,30,59)          4.2837         estimate D2E/DX2                !
 ! D164  D(34,29,30,31)          0.4517         estimate D2E/DX2                !
 ! D165  D(34,29,30,59)       -178.6095         estimate D2E/DX2                !
 ! D166  D(21,29,34,33)        176.9988         estimate D2E/DX2                !
 ! D167  D(21,29,34,63)         -2.8845         estimate D2E/DX2                !
 ! D168  D(30,29,34,33)         -0.2986         estimate D2E/DX2                !
 ! D169  D(30,29,34,63)        179.8181         estimate D2E/DX2                !
 ! D170  D(29,30,31,32)         -0.2989         estimate D2E/DX2                !
 ! D171  D(29,30,31,60)       -179.8706         estimate D2E/DX2                !
 ! D172  D(59,30,31,32)        178.785          estimate D2E/DX2                !
 ! D173  D(59,30,31,60)         -0.7866         estimate D2E/DX2                !
 ! D174  D(30,31,32,33)         -0.0171         estimate D2E/DX2                !
 ! D175  D(30,31,32,61)       -179.905          estimate D2E/DX2                !
 ! D176  D(60,31,32,33)        179.5515         estimate D2E/DX2                !
 ! D177  D(60,31,32,61)         -0.3363         estimate D2E/DX2                !
 ! D178  D(31,32,33,34)          0.1703         estimate D2E/DX2                !
 ! D179  D(31,32,33,62)       -179.9405         estimate D2E/DX2                !
 ! D180  D(61,32,33,34)       -179.942          estimate D2E/DX2                !
 ! D181  D(61,32,33,62)         -0.0528         estimate D2E/DX2                !
 ! D182  D(32,33,34,29)         -0.0105         estimate D2E/DX2                !
 ! D183  D(32,33,34,63)        179.8709         estimate D2E/DX2                !
 ! D184  D(62,33,34,29)       -179.9001         estimate D2E/DX2                !
 ! D185  D(62,33,34,63)         -0.0188         estimate D2E/DX2                !
 --------------------------------------------------------------------------------
 Trust Radius=3.00D-01 FncErr=1.00D-07 GrdErr=1.00D-06 EigMax=2.50D+02 EigMin=1.00D-04
 Number of steps in this run=    383 maximum allowed number of steps=    384.
 GradGradGradGradGradGradGradGradGradGradGradGradGradGradGradGradGradGrad

 Leave Link  103 at Thu Mar 14 22:31:21 2024, MaxMem= 13421772800 cpu:               0.6 elap:               0.0
 (Enter /public/software/apps/Gaussian/g16/l202.exe)
 Symmetry turned off by external request.
 Stoichiometry    C31H28CuO4(2)
 Framework group  C1[X(C31H28CuO4)]
 Deg. of freedom   186
 Full point group                 C1      NOp   1
                          Input orientation:                          
 ---------------------------------------------------------------------
 Center     Atomic      Atomic             Coordinates (Angstroms)
 Number     Number       Type             X           Y           Z
 ---------------------------------------------------------------------
      1          6           0       -3.335091    2.372527    0.501254
      2          6           0       -1.824866    2.502092    0.673732
      3          6           0       -1.407790    3.859236    1.218839
      4          8           0       -1.348070    1.476675    1.559300
      5          6           0       -0.962783    0.380866    0.721781
      6          6           0       -0.292602   -0.715290    1.604305
      7          8           0        0.771102   -0.206482    2.343148
      8          6           0       -1.390669   -1.215896    2.585102
      9          6           0       -1.243844   -0.998529    3.959305
     10          6           0       -2.229068   -1.415215    4.860037
     11          6           0       -3.380093   -2.057383    4.398596
     12          6           0       -3.531012   -2.288150    3.027653
     13          6           0       -2.542038   -1.875802    2.131925
     14          6           0        0.178163   -1.893016    0.735002
     15          6           0        1.302619   -2.612153    1.156185
     16          6           0        1.740238   -3.731304    0.447702
     17          6           0        1.062513   -4.152014   -0.699994
     18          6           0       -0.052505   -3.434485   -1.136690
     19          6           0       -0.489967   -2.314028   -0.424497
     20          6           0       -0.307497    1.125953   -0.471572
     21          6           0        1.176353    1.628070   -0.414320
     22          8           0        1.416315    2.371402    0.743935
     23          6           0        2.168454    0.457684   -0.561866
     24          6           0        3.229580    0.316396    0.338042
     25          6           0        4.171745   -0.703120    0.181238
     26          6           0        4.065823   -1.600303   -0.882710
     27          6           0        3.012718   -1.464594   -1.791757
     28          6           0        2.079282   -0.440384   -1.635483
     29          6           0        1.448394    2.584836   -1.599708
     30          6           0        0.732492    2.562936   -2.803309
     31          6           0        1.082885    3.414254   -3.856064
     32          6           0        2.149946    4.305062   -3.720645
     33          6           0        2.865317    4.337316   -2.519523
     34          6           0        2.516464    3.484901   -1.471002
     35          8           0       -1.191340    2.239737   -0.574573
     36          1           0       -3.605320    1.349270    0.193224
     37          1           0       -3.678837    3.070750   -0.279593
     38          1           0       -3.851585    2.604121    1.447587
     39          1           0       -1.802499    3.999043    2.240185
     40          1           0       -0.309451    3.929523    1.212822
     41          1           0       -1.809582    4.657607    0.573595
     42          1           0       -1.878271   -0.071396    0.310526
     43          1           0       -0.339951   -0.504933    4.316638
     44          1           0       -2.092432   -1.237229    5.931410
     45          1           0       -4.152294   -2.383696    5.101801
     46          1           0       -4.421814   -2.800172    2.650856
     47          1           0       -2.672498   -2.091520    1.069232
     48          1           0        1.837366   -2.265242    2.040732
     49          1           0        2.626951   -4.273421    0.789570
     50          1           0        1.407978   -5.028183   -1.256897
     51          1           0       -0.586944   -3.742366   -2.040669
     52          1           0       -1.361208   -1.772058   -0.799549
     53          1           0       -0.206912    1.731326    0.333674
     54          1           0        3.319815    1.022162    1.164073
     55          1           0        4.993080   -0.795728    0.898665
     56          1           0        4.797550   -2.404745   -1.003563
     57          1           0        2.913559   -2.162907   -2.627275
     58          1           0        1.280608   -0.339426   -2.374080
     59          1           0       -0.118873    1.894468   -2.936940
     60          1           0        0.508704    3.382302   -4.787268
     61          1           0        2.421326    4.971319   -4.545149
     62          1           0        3.703447    5.030729   -2.398040
     63          1           0        3.073896    3.506005   -0.533169
     64         29           0        0.853309    1.620091    2.306839
 ---------------------------------------------------------------------
 Rotational constants (GHZ):           0.1577436           0.1050459           0.0814681
 Leave Link  202 at Thu Mar 14 22:31:22 2024, MaxMem= 13421772800 cpu:               0.2 elap:               0.0
 (Enter /public/software/apps/Gaussian/g16/l301.exe)
 Standard basis: def2SVPP (5D, 7F)
 Ernie: Thresh=  0.10000D-02 Tol=  0.10000D-05 Strict=F.
   570 basis functions,  1058 primitive gaussians,   607 cartesian basis functions
   138 alpha electrons      137 beta electrons
       nuclear repulsion energy      4839.5659801744 Hartrees.
 IExCor=  402 DFT=T Ex+Corr=B3LYP ExCW=0 ScaHFX=  0.200000
 ScaDFX=  0.800000  0.720000  1.000000  0.810000 ScalE2=  1.000000  1.000000
 IRadAn=      5 IRanWt=     -1 IRanGd=            0 ICorTp=0 IEmpDi=141
 NAtoms=   64 NActive=   64 NUniq=   64 SFac= 1.00D+00 NAtFMM=   60 NAOKFM=T Big=T
 Integral buffers will be    131072 words long.
 Raffenetti 2 integral format.
 Two-electron integral symmetry is turned off.
 R6Disp:  Grimme-D3(BJ) Dispersion energy=       -0.1843238750 Hartrees.
 Nuclear repulsion after empirical dispersion term =     4839.3816562993 Hartrees.
 Leave Link  301 at Thu Mar 14 22:31:22 2024, MaxMem= 13421772800 cpu:               1.5 elap:               0.1
 (Enter /public/software/apps/Gaussian/g16/l302.exe)
 NPDir=0 NMtPBC=     1 NCelOv=     1 NCel=       1 NClECP=     1 NCelD=      1
         NCelK=      1 NCelE2=     1 NClLst=     1 CellRange=     0.0.
 One-electron integrals computed using PRISM.
   1 Symmetry operations used in ECPInt.
 ECPInt:  NShTT=   38226 NPrTT=  157659 LenC2=   34643 LenP2D=   91815.
 LDataN:  DoStor=T MaxTD1= 4 Len=   56
 NBasis=   570 RedAO= T EigKep=  2.49D-04  NBF=   570
 NBsUse=   570 1.00D-06 EigRej= -1.00D+00 NBFU=   570
 Precomputing XC quadrature grid using
 IXCGrd= 4 IRadAn=           5 IRanWt=          -1 IRanGd=           0 AccXCQ= 0.00D+00.
 Generated NRdTot=       0 NPtTot=           0 NUsed=           0 NTot=          32
 NSgBfM=   597   597   597   597   597 MxSgAt=    64 MxSgA2=    64.
 Leave Link  302 at Thu Mar 14 22:31:22 2024, MaxMem= 13421772800 cpu:              20.8 elap:               0.7
 (Enter /public/software/apps/Gaussian/g16/l303.exe)
 DipDrv:  MaxL=1.
 Leave Link  303 at Thu Mar 14 22:31:22 2024, MaxMem= 13421772800 cpu:               4.7 elap:               0.2
 (Enter /public/software/apps/Gaussian/g16/l401.exe)
 ExpMin= 3.30D-02 ExpMax= 7.64D+04 ExpMxC= 1.15D+04 IAcc=3 IRadAn=         5 AccDes= 0.00D+00
 Harris functional with IExCor=  402 and IRadAn=       5 diagonalized for initial guess.
 HarFok:  IExCor=  402 AccDes= 0.00D+00 IRadAn=         5 IDoV= 1 UseB2=F ITyADJ=14
 ICtDFT=  3500011 ScaDFX=  1.000000  1.000000  1.000000  1.000000
 FoFCou: FMM=F IPFlag=           0 FMFlag=      100000 FMFlg1=        2001
         NFxFlg=           0 DoJE=T BraDBF=F KetDBF=T FulRan=T
         wScrn=  0.000000 ICntrl=       500 IOpCl=  0 I1Cent=   200000004 NGrid=           0
         NMat0=    1 NMatS0=      1 NMatT0=    0 NMatD0=    1 NMtDS0=    0 NMtDT0=    0
 Symmetry not used in FoFCou.
 Harris En= -3138.29281700201    
 JPrj=0 DoOrth=F DoCkMO=F.
 Initial guess <Sx>= 0.0000 <Sy>= 0.0000 <Sz>= 0.5000 <S**2>= 0.7500 S= 0.5000
 Leave Link  401 at Thu Mar 14 22:31:24 2024, MaxMem= 13421772800 cpu:              59.4 elap:               1.9
 (Enter /public/software/apps/Gaussian/g16/l502.exe)
 Two-electron integral symmetry not used.
 UHF open shell SCF:
 Using DIIS extrapolation, IDIIS=  1040.
 NGot= 13421772800 LenX= 13421009821 LenY= 13420640765
 Requested convergence on RMS density matrix=1.00D-08 within 128 cycles.
 Requested convergence on MAX density matrix=1.00D-06.
 Requested convergence on             energy=1.00D-06.
 No special actions if energy rises.
 Fock matrices will be formed incrementally for  20 cycles.

 Cycle   1  Pass 1  IDiag  1:
 FoFJK:  IHMeth= 1 ICntrl=       0 DoSepK=F KAlg= 0 I1Cent=           0 FoldK=F
 IRaf= 990000000 NMat=       1 IRICut=       1 DoRegI=T DoRafI=F ISym2E= 0 IDoP0=0 IntGTp=1.
 FoFCou: FMM=T IPFlag=           0 FMFlag=      100000 FMFlg1=        2001
         NFxFlg=           0 DoJE=F BraDBF=F KetDBF=F FulRan=T
         wScrn=  0.000000 ICntrl=         0 IOpCl=  1 I1Cent=           0 NGrid=           0
         NMat0=    1 NMatS0=      1 NMatT0=    0 NMatD0=    1 NMtDS0=    0 NMtDT0=    0
 Symmetry not used in FoFCou.
 FMM levels:  10  Number of levels for PrismC:   9
 E= -3132.09981654131    
 DIIS: error= 1.27D-01 at cycle   1 NSaved=   1.
 NSaved= 1 IEnMin= 1 EnMin= -3132.09981654131     IErMin= 1 ErrMin= 1.27D-01
 ErrMax= 1.27D-01  0.00D+00 EMaxC= 1.00D-01 BMatC= 3.49D+01 BMatP= 3.49D+01
 IDIUse=3 WtCom= 0.00D+00 WtEn= 1.00D+00
 Coeff-Com:  0.100D+01
 Coeff-En:   0.100D+01
 Coeff:      0.100D+01
 Gap=     1.305 Goal=   None    Shift=    0.000
 Gap=    -0.180 Goal=   None    Shift=    0.000
 GapD=   -0.180 DampG=0.250 DampE=0.125 DampFc=0.1250 IDamp=-1.
 Damping current iteration by 1.25D-01
 RMSDP=5.24D-02 MaxDP=8.98D+00              OVMax= 9.58D-01

 Cycle   2  Pass 1  IDiag  1:
 RMSU=  6.54D-03    CP:  1.01D+00
 E= -3133.65865387197     Delta-E=       -1.558837330654 Rises=F Damp=T
 DIIS: error= 7.80D-02 at cycle   2 NSaved=   2.
 NSaved= 2 IEnMin= 2 EnMin= -3133.65865387197     IErMin= 2 ErrMin= 7.80D-02
 ErrMax= 7.80D-02  0.00D+00 EMaxC= 1.00D-01 BMatC= 1.18D+01 BMatP= 3.49D+01
 IDIUse=3 WtCom= 2.20D-01 WtEn= 7.80D-01
 Coeff-Com: -0.106D+01 0.206D+01
 Coeff-En:   0.000D+00 0.100D+01
 Coeff:     -0.233D+00 0.123D+01
 Gap=    -0.004 Goal=   None    Shift=    0.000
 Gap=     0.062 Goal=   None    Shift=    0.000
 RMSDP=9.05D-03 MaxDP=1.34D+00 DE=-1.56D+00 OVMax= 9.72D-01

 Cycle   3  Pass 1  IDiag  1:
 RMSU=  8.78D-03    CP:  9.10D-01  8.06D-01
 E= -3132.53733759672     Delta-E=        1.121316275247 Rises=F Damp=F
 DIIS: error= 9.28D-02 at cycle   3 NSaved=   3.
 NSaved= 3 IEnMin= 2 EnMin= -3133.65865387197     IErMin= 2 ErrMin= 7.80D-02
 ErrMax= 9.28D-02  0.00D+00 EMaxC= 1.00D-01 BMatC= 2.13D+01 BMatP= 1.18D+01
 IDIUse=2 WtCom= 0.00D+00 WtEn= 1.00D+00
 EnCoef did   100 forward-backward iterations
 Coeff-En:   0.469D+00 0.222D-01 0.509D+00
 Coeff:      0.469D+00 0.222D-01 0.509D+00
 Gap=     0.040 Goal=   None    Shift=    0.000
 Gap=     0.052 Goal=   None    Shift=    0.000
 RMSDP=1.04D-02 MaxDP=8.76D-01 DE= 1.12D+00 OVMax= 7.71D-01

 Cycle   4  Pass 1  IDiag  1:
 RMSU=  8.38D-03    CP:  9.11D-01  5.13D-01  3.38D-01
 E= -3130.39261350258     Delta-E=        2.144724094136 Rises=F Damp=F
 DIIS: error= 5.40D-02 at cycle   4 NSaved=   4.
 NSaved= 4 IEnMin= 2 EnMin= -3133.65865387197     IErMin= 4 ErrMin= 5.40D-02
 ErrMax= 5.40D-02  0.00D+00 EMaxC= 1.00D-01 BMatC= 2.46D+01 BMatP= 1.18D+01
 IDIUse=2 WtCom= 0.00D+00 WtEn= 1.00D+00
 EnCoef did   100 forward-backward iterations
 Coeff-En:   0.414D+00 0.694D-02 0.352D+00 0.228D+00
 Coeff:      0.414D+00 0.694D-02 0.352D+00 0.228D+00
 Gap=     0.032 Goal=   None    Shift=    0.000
 Gap=     0.372 Goal=   None    Shift=    0.000
 RMSDP=8.64D-03 MaxDP=2.21D+00 DE= 2.14D+00 OVMax= 7.89D-01

 Cycle   5  Pass 1  IDiag  1:
 RMSU=  3.54D-03    CP:  9.00D-01  2.40D-02  3.21D-01  1.41D-01
 E= -3137.65548676974     Delta-E=       -7.262873267156 Rises=F Damp=F
 DIIS: error= 3.30D-02 at cycle   5 NSaved=   5.
 NSaved= 5 IEnMin= 5 EnMin= -3137.65548676974     IErMin= 5 ErrMin= 3.30D-02
 ErrMax= 3.30D-02  0.00D+00 EMaxC= 1.00D-01 BMatC= 1.99D+00 BMatP= 1.18D+01
 IDIUse=3 WtCom= 6.70D-01 WtEn= 3.30D-01
 Coeff-Com: -0.349D+00 0.782D+00 0.537D-01-0.103D+00 0.616D+00
 Coeff-En:   0.125D+00 0.000D+00 0.000D+00 0.000D+00 0.875D+00
 Coeff:     -0.193D+00 0.524D+00 0.360D-01-0.691D-01 0.702D+00
 Gap=     0.424 Goal=   None    Shift=    0.000
 Gap=     0.047 Goal=   None    Shift=    0.000
 RMSDP=4.72D-03 MaxDP=2.72D-01 DE=-7.26D+00 OVMax= 9.20D-01

 Cycle   6  Pass 1  IDiag  1:
 RMSU=  4.40D-03    CP:  9.12D-01 -2.74D-03  2.71D-01  1.89D-02  6.43D-01
 E= -3132.81558115140     Delta-E=        4.839905618334 Rises=F Damp=F
 DIIS: error= 4.82D-02 at cycle   6 NSaved=   6.
 NSaved= 6 IEnMin= 5 EnMin= -3137.65548676974     IErMin= 5 ErrMin= 3.30D-02
 ErrMax= 4.82D-02  0.00D+00 EMaxC= 1.00D-01 BMatC= 1.27D+01 BMatP= 1.99D+00
 IDIUse=2 WtCom= 0.00D+00 WtEn= 1.00D+00
 EnCoef did     8 forward-backward iterations
 Coeff-En:   0.598D-01 0.000D+00 0.000D+00 0.000D+00 0.823D+00 0.117D+00
 Coeff:      0.598D-01 0.000D+00 0.000D+00 0.000D+00 0.823D+00 0.117D+00
 Gap=    -0.098 Goal=   None    Shift=    0.000
 Gap=     0.005 Goal=   None    Shift=    0.000
 RMSDP=4.24D-03 MaxDP=2.62D-01 DE= 4.84D+00 OVMax= 5.92D-01

 Cycle   7  Pass 1  IDiag  1:
 RMSU=  3.03D-03    CP:  9.31D-01  7.13D-02  1.28D-01  3.44D-02  5.37D-01
                    CP:  4.12D-01
 E= -3135.24999899557     Delta-E=       -2.434417844163 Rises=F Damp=F
 DIIS: error= 1.08D-01 at cycle   7 NSaved=   7.
 NSaved= 7 IEnMin= 5 EnMin= -3137.65548676974     IErMin= 5 ErrMin= 3.30D-02
 ErrMax= 1.08D-01  0.00D+00 EMaxC= 1.00D-01 BMatC= 1.64D+01 BMatP= 1.99D+00
 IDIUse=2 WtCom= 0.00D+00 WtEn= 1.00D+00
 EnCoef did     3 forward-backward iterations
 Coeff-En:   0.000D+00 0.000D+00 0.000D+00 0.000D+00 0.757D+00 0.281D-01
 Coeff-En:   0.215D+00
 Coeff:      0.000D+00 0.000D+00 0.000D+00 0.000D+00 0.757D+00 0.281D-01
 Coeff:      0.215D+00
 Gap=     0.145 Goal=   None    Shift=    0.000
 Gap=     0.152 Goal=   None    Shift=    0.000
 RMSDP=3.42D-03 MaxDP=3.52D-01 DE=-2.43D+00 OVMax= 6.74D-01

 Cycle   8  Pass 1  IDiag  1:
 RMSU=  1.95D-03    CP:  9.14D-01  7.94D-03  2.97D-01  7.24D-02  7.81D-01
                    CP:  2.59D-01  3.32D-01
 E= -3137.89877132167     Delta-E=       -2.648772326101 Rises=F Damp=F
 DIIS: error= 1.25D-02 at cycle   8 NSaved=   8.
 NSaved= 8 IEnMin= 8 EnMin= -3137.89877132167     IErMin= 8 ErrMin= 1.25D-02
 ErrMax= 1.25D-02  0.00D+00 EMaxC= 1.00D-01 BMatC= 1.09D+00 BMatP= 1.99D+00
 IDIUse=3 WtCom= 8.75D-01 WtEn= 1.25D-01
 EnCoef did     4 forward-backward iterations
 Coeff-Com: -0.711D-01 0.126D+00-0.530D-01-0.223D-01 0.505D+00 0.643D-02
 Coeff-Com:  0.806D-01 0.428D+00
 Coeff-En:   0.000D+00 0.000D+00 0.000D+00 0.000D+00 0.406D+00 0.000D+00
 Coeff-En:   0.565D-01 0.538D+00
 Coeff:     -0.622D-01 0.110D+00-0.463D-01-0.195D-01 0.493D+00 0.562D-02
 Coeff:      0.776D-01 0.442D+00
 Gap=     0.196 Goal=   None    Shift=    0.000
 Gap=     0.064 Goal=   None    Shift=    0.000
 RMSDP=1.72D-03 MaxDP=1.85D-01 DE=-2.65D+00 OVMax= 2.31D-01

 Cycle   9  Pass 1  IDiag  1:
 RMSU=  1.27D-03    CP:  9.09D-01 -2.51D-03  2.77D-01  8.62D-02  8.37D-01
                    CP:  2.12D-01  2.90D-01  4.42D-01
 E= -3138.07514965864     Delta-E=       -0.176378336972 Rises=F Damp=F
 DIIS: error= 8.43D-03 at cycle   9 NSaved=   9.
 NSaved= 9 IEnMin= 9 EnMin= -3138.07514965864     IErMin= 9 ErrMin= 8.43D-03
 ErrMax= 8.43D-03  0.00D+00 EMaxC= 1.00D-01 BMatC= 4.03D-01 BMatP= 1.09D+00
 IDIUse=3 WtCom= 9.16D-01 WtEn= 8.43D-02
 EnCoef did     3 forward-backward iterations
 Coeff-Com: -0.553D-01 0.112D+00-0.422D-01-0.821D-02 0.300D+00 0.258D-03
 Coeff-Com:  0.158D-01 0.330D+00 0.348D+00
 Coeff-En:   0.000D+00 0.000D+00 0.000D+00 0.000D+00 0.113D+00 0.000D+00
 Coeff-En:   0.000D+00 0.225D+00 0.662D+00
 Coeff:     -0.507D-01 0.102D+00-0.386D-01-0.752D-02 0.284D+00 0.237D-03
 Coeff:      0.144D-01 0.321D+00 0.374D+00
 Gap=     0.200 Goal=   None    Shift=    0.000
 Gap=     0.067 Goal=   None    Shift=    0.000
 RMSDP=1.08D-03 MaxDP=8.86D-02 DE=-1.76D-01 OVMax= 2.21D-01

 Cycle  10  Pass 1  IDiag  1:
 RMSU=  6.48D-04    CP:  9.06D-01 -3.22D-03  2.82D-01  9.52D-02  8.37D-01
                    CP:  1.60D-01  2.26D-01  5.96D-01  4.14D-01
 E= -3138.14701610612     Delta-E=       -0.071866447478 Rises=F Damp=F
 DIIS: error= 4.32D-03 at cycle  10 NSaved=  10.
 NSaved=10 IEnMin=10 EnMin= -3138.14701610612     IErMin=10 ErrMin= 4.32D-03
 ErrMax= 4.32D-03  0.00D+00 EMaxC= 1.00D-01 BMatC= 8.15D-02 BMatP= 4.03D-01
 IDIUse=3 WtCom= 9.57D-01 WtEn= 4.32D-02
 Coeff-Com: -0.510D-01 0.973D-01-0.868D-02 0.239D-03 0.785D-01-0.627D-02
 Coeff-Com: -0.521D-02 0.327D-01 0.260D+00 0.602D+00
 Coeff-En:   0.000D+00 0.000D+00 0.000D+00 0.000D+00 0.000D+00 0.000D+00
 Coeff-En:   0.000D+00 0.000D+00 0.190D+00 0.810D+00
 Coeff:     -0.488D-01 0.931D-01-0.831D-02 0.228D-03 0.751D-01-0.600D-02
 Coeff:     -0.499D-02 0.313D-01 0.257D+00 0.611D+00
 Gap=     0.166 Goal=   None    Shift=    0.000
 Gap=     0.064 Goal=   None    Shift=    0.000
 RMSDP=4.38D-04 MaxDP=3.34D-02 DE=-7.19D-02 OVMax= 6.61D-02

 Cycle  11  Pass 1  IDiag  1:
 RMSU=  3.00D-04    CP:  9.06D-01  1.95D-03  2.83D-01  1.08D-01  8.45D-01
                    CP:  1.43D-01  2.10D-01  5.07D-01  5.73D-01  8.59D-01
 E= -3138.16575507423     Delta-E=       -0.018738968108 Rises=F Damp=F
 DIIS: error= 2.36D-03 at cycle  11 NSaved=  11.
 NSaved=11 IEnMin=11 EnMin= -3138.16575507423     IErMin=11 ErrMin= 2.36D-03
 ErrMax= 2.36D-03  0.00D+00 EMaxC= 1.00D-01 BMatC= 1.74D-02 BMatP= 8.15D-02
 IDIUse=3 WtCom= 9.76D-01 WtEn= 2.36D-02
 Coeff-Com: -0.368D-01 0.665D-01-0.202D-02 0.168D-02 0.134D-02-0.195D-02
 Coeff-Com:  0.837D-03-0.630D-01 0.802D-01 0.365D+00 0.589D+00
 Coeff-En:   0.000D+00 0.000D+00 0.000D+00 0.000D+00 0.000D+00 0.000D+00
 Coeff-En:   0.000D+00 0.000D+00 0.000D+00 0.000D+00 0.100D+01
 Coeff:     -0.359D-01 0.649D-01-0.197D-02 0.164D-02 0.130D-02-0.190D-02
 Coeff:      0.818D-03-0.615D-01 0.783D-01 0.356D+00 0.598D+00
 Gap=     0.155 Goal=   None    Shift=    0.000
 Gap=     0.063 Goal=   None    Shift=    0.000
 RMSDP=2.00D-04 MaxDP=1.19D-02 DE=-1.87D-02 OVMax= 1.25D-02

 Cycle  12  Pass 1  IDiag  1:
 RMSU=  1.45D-04    CP:  9.04D-01  4.54D-03  2.86D-01  1.12D-01  8.49D-01
                    CP:  1.28D-01  1.94D-01  4.76D-01  5.66D-01  9.72D-01
                    CP:  1.06D+00
 E= -3138.16802535085     Delta-E=       -0.002270276622 Rises=F Damp=F
 DIIS: error= 2.39D-03 at cycle  12 NSaved=  12.
 NSaved=12 IEnMin=12 EnMin= -3138.16802535085     IErMin=11 ErrMin= 2.36D-03
 ErrMax= 2.39D-03  0.00D+00 EMaxC= 1.00D-01 BMatC= 8.73D-03 BMatP= 1.74D-02
 IDIUse=3 WtCom= 9.76D-01 WtEn= 2.36D-02
 Coeff-Com: -0.209D-01 0.361D-01-0.328D-02 0.241D-02-0.261D-01-0.103D-02
 Coeff-Com:  0.620D-02-0.499D-01 0.103D-02 0.125D+00 0.269D+00 0.662D+00
 Coeff-En:   0.000D+00 0.000D+00 0.000D+00 0.000D+00 0.000D+00 0.000D+00
 Coeff-En:   0.000D+00 0.000D+00 0.000D+00 0.000D+00 0.000D+00 0.100D+01
 Coeff:     -0.204D-01 0.352D-01-0.321D-02 0.235D-02-0.255D-01-0.100D-02
 Coeff:      0.606D-02-0.487D-01 0.101D-02 0.122D+00 0.262D+00 0.670D+00
 Gap=     0.153 Goal=   None    Shift=    0.000
 Gap=     0.066 Goal=   None    Shift=    0.000
 RMSDP=9.70D-05 MaxDP=7.02D-03 DE=-2.27D-03 OVMax= 1.04D-02

 Cycle  13  Pass 1  IDiag  1:
 RMSU=  6.18D-05    CP:  9.04D-01  5.79D-03  2.85D-01  1.17D-01  8.49D-01
                    CP:  1.22D-01  1.93D-01  4.65D-01  5.66D-01  1.00D+00
                    CP:  1.22D+00  9.70D-01
 E= -3138.16882136443     Delta-E=       -0.000796013587 Rises=F Damp=F
 DIIS: error= 1.88D-03 at cycle  13 NSaved=  13.
 NSaved=13 IEnMin=13 EnMin= -3138.16882136443     IErMin=13 ErrMin= 1.88D-03
 ErrMax= 1.88D-03  0.00D+00 EMaxC= 1.00D-01 BMatC= 5.27D-03 BMatP= 8.73D-03
 IDIUse=3 WtCom= 9.81D-01 WtEn= 1.88D-02
 Coeff-Com: -0.114D-01 0.213D-01-0.353D-02 0.484D-03-0.226D-01 0.389D-03
 Coeff-Com:  0.458D-02-0.184D-01 0.802D-02 0.619D-01-0.979D-01 0.280D+00
 Coeff-Com:  0.777D+00
 Coeff-En:   0.000D+00 0.000D+00 0.000D+00 0.000D+00 0.000D+00 0.000D+00
 Coeff-En:   0.000D+00 0.000D+00 0.000D+00 0.000D+00 0.000D+00 0.000D+00
 Coeff-En:   0.100D+01
 Coeff:     -0.112D-01 0.209D-01-0.346D-02 0.475D-03-0.221D-01 0.381D-03
 Coeff:      0.449D-02-0.181D-01 0.787D-02 0.607D-01-0.960D-01 0.275D+00
 Coeff:      0.781D+00
 Gap=     0.153 Goal=   None    Shift=    0.000
 Gap=     0.066 Goal=   None    Shift=    0.000
 RMSDP=5.97D-05 MaxDP=3.86D-03 DE=-7.96D-04 OVMax= 8.47D-03

 Cycle  14  Pass 1  IDiag  1:
 RMSU=  4.69D-05    CP:  9.04D-01  5.57D-03  2.83D-01  1.17D-01  8.48D-01
                    CP:  1.22D-01  1.94D-01  4.63D-01  5.66D-01  1.01D+00
                    CP:  1.23D+00  1.18D+00  7.54D-01
 E= -3138.16927981685     Delta-E=       -0.000458452411 Rises=F Damp=F
 DIIS: error= 1.47D-03 at cycle  14 NSaved=  14.
 NSaved=14 IEnMin=14 EnMin= -3138.16927981685     IErMin=14 ErrMin= 1.47D-03
 ErrMax= 1.47D-03  0.00D+00 EMaxC= 1.00D-01 BMatC= 2.85D-03 BMatP= 5.27D-03
 IDIUse=3 WtCom= 9.85D-01 WtEn= 1.47D-02
 Coeff-Com: -0.333D-02 0.670D-02-0.107D-02-0.237D-03-0.127D-01 0.295D-03
 Coeff-Com:  0.219D-02-0.260D-02 0.285D-01 0.914D-01-0.167D+00-0.323D+00
 Coeff-Com:  0.459D+00 0.922D+00
 Coeff-En:   0.000D+00 0.000D+00 0.000D+00 0.000D+00 0.000D+00 0.000D+00
 Coeff-En:   0.000D+00 0.000D+00 0.000D+00 0.000D+00 0.000D+00 0.000D+00
 Coeff-En:   0.000D+00 0.100D+01
 Coeff:     -0.328D-02 0.660D-02-0.105D-02-0.233D-03-0.126D-01 0.291D-03
 Coeff:      0.216D-02-0.256D-02 0.280D-01 0.900D-01-0.164D+00-0.318D+00
 Coeff:      0.452D+00 0.923D+00
 Gap=     0.154 Goal=   None    Shift=    0.000
 Gap=     0.067 Goal=   None    Shift=    0.000
 RMSDP=5.67D-05 MaxDP=7.39D-03 DE=-4.58D-04 OVMax= 8.93D-03

 Cycle  15  Pass 1  IDiag  1:
 RMSU=  4.08D-05    CP:  9.04D-01  5.29D-03  2.81D-01  1.17D-01  8.46D-01
                    CP:  1.22D-01  1.99D-01  4.62D-01  5.67D-01  1.01D+00
                    CP:  1.21D+00  1.17D+00  1.19D+00  9.74D-01
 E= -3138.16970641850     Delta-E=       -0.000426601654 Rises=F Damp=F
 DIIS: error= 3.49D-04 at cycle  15 NSaved=  15.
 NSaved=15 IEnMin=15 EnMin= -3138.16970641850     IErMin=15 ErrMin= 3.49D-04
 ErrMax= 3.49D-04  0.00D+00 EMaxC= 1.00D-01 BMatC= 3.96D-04 BMatP= 2.85D-03
 IDIUse=3 WtCom= 9.97D-01 WtEn= 3.49D-03
 Coeff-Com: -0.219D-03-0.426D-04 0.903D-03-0.499D-03-0.250D-02-0.754D-04
 Coeff-Com:  0.740D-03 0.558D-02 0.200D-01 0.581D-01-0.710D-01-0.345D+00
 Coeff-Com:  0.861D-02 0.688D+00 0.638D+00
 Coeff-En:   0.000D+00 0.000D+00 0.000D+00 0.000D+00 0.000D+00 0.000D+00
 Coeff-En:   0.000D+00 0.000D+00 0.000D+00 0.000D+00 0.000D+00 0.000D+00
 Coeff-En:   0.000D+00 0.000D+00 0.100D+01
 Coeff:     -0.218D-03-0.424D-04 0.900D-03-0.497D-03-0.249D-02-0.751D-04
 Coeff:      0.737D-03 0.557D-02 0.199D-01 0.579D-01-0.708D-01-0.344D+00
 Coeff:      0.858D-02 0.685D+00 0.639D+00
 Gap=     0.153 Goal=   None    Shift=    0.000
 Gap=     0.068 Goal=   None    Shift=    0.000
 RMSDP=3.54D-05 MaxDP=4.39D-03 DE=-4.27D-04 OVMax= 5.24D-03

 Cycle  16  Pass 1  IDiag  1:
 RMSU=  2.35D-05    CP:  9.04D-01  5.25D-03  2.81D-01  1.17D-01  8.45D-01
                    CP:  1.23D-01  2.02D-01  4.64D-01  5.66D-01  1.01D+00
                    CP:  1.19D+00  1.21D+00  1.23D+00  1.40D+00  8.63D-01
 E= -3138.16978384554     Delta-E=       -0.000077427036 Rises=F Damp=F
 DIIS: error= 3.69D-04 at cycle  16 NSaved=  16.
 NSaved=16 IEnMin=16 EnMin= -3138.16978384554     IErMin=15 ErrMin= 3.49D-04
 ErrMax= 3.69D-04  0.00D+00 EMaxC= 1.00D-01 BMatC= 2.39D-04 BMatP= 3.96D-04
 IDIUse=3 WtCom= 9.97D-01 WtEn= 3.49D-03
 Coeff-Com:  0.187D-03-0.681D-03 0.434D-03-0.788D-04-0.274D-03 0.209D-04
 Coeff-Com:  0.216D-03 0.576D-02 0.313D-02 0.769D-02-0.168D-01-0.561D-01
 Coeff-Com:  0.294D-01 0.187D+00 0.238D+00 0.602D+00
 Coeff-En:   0.000D+00 0.000D+00 0.000D+00 0.000D+00 0.000D+00 0.000D+00
 Coeff-En:   0.000D+00 0.000D+00 0.000D+00 0.000D+00 0.000D+00 0.000D+00
 Coeff-En:   0.000D+00 0.000D+00 0.149D+00 0.851D+00
 Coeff:      0.187D-03-0.679D-03 0.432D-03-0.785D-04-0.273D-03 0.208D-04
 Coeff:      0.216D-03 0.574D-02 0.312D-02 0.766D-02-0.168D-01-0.559D-01
 Coeff:      0.293D-01 0.187D+00 0.238D+00 0.603D+00
 Gap=     0.153 Goal=   None    Shift=    0.000
 Gap=     0.068 Goal=   None    Shift=    0.000
 RMSDP=1.32D-05 MaxDP=1.36D-03 DE=-7.74D-05 OVMax= 1.02D-03

 Cycle  17  Pass 1  IDiag  1:
 RMSU=  1.07D-05    CP:  9.04D-01  5.37D-03  2.81D-01  1.17D-01  8.45D-01
                    CP:  1.23D-01  2.02D-01  4.65D-01  5.65D-01  1.01D+00
                    CP:  1.19D+00  1.21D+00  1.23D+00  1.38D+00  9.01D-01
                    CP:  9.58D-01
 E= -3138.16980776275     Delta-E=       -0.000023917218 Rises=F Damp=F
 DIIS: error= 2.53D-04 at cycle  17 NSaved=  17.
 NSaved=17 IEnMin=17 EnMin= -3138.16980776275     IErMin=17 ErrMin= 2.53D-04
 ErrMax= 2.53D-04  0.00D+00 EMaxC= 1.00D-01 BMatC= 1.08D-04 BMatP= 2.39D-04
 IDIUse=3 WtCom= 9.97D-01 WtEn= 2.53D-03
 Coeff-Com:  0.996D-04-0.293D-03 0.128D-03 0.645D-04 0.999D-04-0.149D-04
 Coeff-Com: -0.169D-04 0.441D-02-0.257D-02-0.636D-02-0.567D-02 0.335D-01
 Coeff-Com:  0.540D-01 0.303D-01 0.335D-01 0.325D+00 0.533D+00
 Coeff-En:   0.000D+00 0.000D+00 0.000D+00 0.000D+00 0.000D+00 0.000D+00
 Coeff-En:   0.000D+00 0.000D+00 0.000D+00 0.000D+00 0.000D+00 0.000D+00
 Coeff-En:   0.000D+00 0.000D+00 0.000D+00 0.000D+00 0.100D+01
 Coeff:      0.993D-04-0.293D-03 0.127D-03 0.643D-04 0.997D-04-0.149D-04
 Coeff:     -0.168D-04 0.440D-02-0.256D-02-0.635D-02-0.566D-02 0.335D-01
 Coeff:      0.539D-01 0.302D-01 0.334D-01 0.325D+00 0.535D+00
 Gap=     0.153 Goal=   None    Shift=    0.000
 Gap=     0.068 Goal=   None    Shift=    0.000
 RMSDP=7.51D-06 MaxDP=7.38D-04 DE=-2.39D-05 OVMax= 5.30D-04

 Cycle  18  Pass 1  IDiag  1:
 RMSU=  5.16D-06    CP:  9.04D-01  5.45D-03  2.82D-01  1.17D-01  8.45D-01
                    CP:  1.23D-01  2.02D-01  4.66D-01  5.64D-01  1.01D+00
                    CP:  1.20D+00  1.21D+00  1.21D+00  1.35D+00  8.95D-01
                    CP:  1.08D+00  9.43D-01
 E= -3138.16981999862     Delta-E=       -0.000012235870 Rises=F Damp=F
 DIIS: error= 1.42D-04 at cycle  18 NSaved=  18.
 NSaved=18 IEnMin=18 EnMin= -3138.16981999862     IErMin=18 ErrMin= 1.42D-04
 ErrMax= 1.42D-04  0.00D+00 EMaxC= 1.00D-01 BMatC= 3.50D-05 BMatP= 1.08D-04
 IDIUse=3 WtCom= 9.99D-01 WtEn= 1.42D-03
 Coeff-Com: -0.697D-05 0.307D-04-0.305D-04 0.483D-04 0.346D-03 0.155D-04
 Coeff-Com: -0.686D-04 0.187D-02-0.390D-02-0.581D-02-0.547D-02 0.322D-01
 Coeff-Com:  0.420D-01-0.111D-01-0.549D-01-0.104D+00 0.197D+00 0.912D+00
 Coeff-En:   0.000D+00 0.000D+00 0.000D+00 0.000D+00 0.000D+00 0.000D+00
 Coeff-En:   0.000D+00 0.000D+00 0.000D+00 0.000D+00 0.000D+00 0.000D+00
 Coeff-En:   0.000D+00 0.000D+00 0.000D+00 0.000D+00 0.000D+00 0.100D+01
 Coeff:     -0.696D-05 0.307D-04-0.305D-04 0.483D-04 0.345D-03 0.155D-04
 Coeff:     -0.685D-04 0.187D-02-0.389D-02-0.580D-02-0.546D-02 0.322D-01
 Coeff:      0.419D-01-0.111D-01-0.548D-01-0.104D+00 0.197D+00 0.912D+00
 Gap=     0.153 Goal=   None    Shift=    0.000
 Gap=     0.068 Goal=   None    Shift=    0.000
 RMSDP=6.94D-06 MaxDP=6.94D-04 DE=-1.22D-05 OVMax= 9.79D-04

 Cycle  19  Pass 1  IDiag  1:
 RMSU=  3.61D-06    CP:  9.04D-01  5.55D-03  2.82D-01  1.17D-01  8.45D-01
                    CP:  1.23D-01  2.01D-01  4.66D-01  5.63D-01  1.01D+00
                    CP:  1.20D+00  1.22D+00  1.22D+00  1.36D+00  9.21D-01
                    CP:  1.17D+00  1.20D+00  1.31D+00
 E= -3138.16982607635     Delta-E=       -0.000006077727 Rises=F Damp=F
 DIIS: error= 4.79D-05 at cycle  19 NSaved=  19.
 NSaved=19 IEnMin=19 EnMin= -3138.16982607635     IErMin=19 ErrMin= 4.79D-05
 ErrMax= 4.79D-05  0.00D+00 EMaxC= 1.00D-01 BMatC= 6.21D-06 BMatP= 3.50D-05
 IDIUse=1 WtCom= 1.00D+00 WtEn= 0.00D+00
 Coeff-Com: -0.124D-04 0.334D-04-0.161D-04 0.109D-04 0.199D-03-0.247D-04
 Coeff-Com: -0.136D-04 0.556D-03-0.256D-02-0.138D-02-0.513D-02 0.751D-02
 Coeff-Com:  0.162D-01-0.415D-02-0.363D-01-0.162D+00-0.654D-01 0.568D+00
 Coeff-Com:  0.685D+00
 Coeff:     -0.124D-04 0.334D-04-0.161D-04 0.109D-04 0.199D-03-0.247D-04
 Coeff:     -0.136D-04 0.556D-03-0.256D-02-0.138D-02-0.513D-02 0.751D-02
 Coeff:      0.162D-01-0.415D-02-0.363D-01-0.162D+00-0.654D-01 0.568D+00
 Coeff:      0.685D+00
 Gap=     0.153 Goal=   None    Shift=    0.000
 Gap=     0.068 Goal=   None    Shift=    0.000
 RMSDP=4.84D-06 MaxDP=4.57D-04 DE=-6.08D-06 OVMax= 1.10D-03

 Cycle  20  Pass 1  IDiag  1:
 RMSU=  2.22D-06    CP:  9.04D-01  5.61D-03  2.82D-01  1.17D-01  8.46D-01
                    CP:  1.23D-01  2.01D-01  4.66D-01  5.63D-01  1.01D+00
                    CP:  1.21D+00  1.23D+00  1.23D+00  1.38D+00  9.45D-01
                    CP:  1.23D+00  1.32D+00  1.72D+00  1.34D+00
 E= -3138.16982806285     Delta-E=       -0.000001986496 Rises=F Damp=F
 DIIS: error= 1.55D-05 at cycle  20 NSaved=  20.
 NSaved=20 IEnMin=20 EnMin= -3138.16982806285     IErMin=20 ErrMin= 1.55D-05
 ErrMax= 1.55D-05  0.00D+00 EMaxC= 1.00D-01 BMatC= 1.21D-06 BMatP= 6.21D-06
 IDIUse=1 WtCom= 1.00D+00 WtEn= 0.00D+00
 Coeff-Com:  0.231D-04-0.432D-04-0.317D-05-0.527D-05 0.505D-04-0.935D-05
 Coeff-Com:  0.419D-05 0.485D-04-0.424D-03 0.203D-02-0.253D-02-0.948D-02
 Coeff-Com: -0.409D-02 0.715D-02 0.731D-02-0.324D-01-0.102D+00-0.566D-01
 Coeff-Com:  0.293D+00 0.898D+00
 Coeff:      0.231D-04-0.432D-04-0.317D-05-0.527D-05 0.505D-04-0.935D-05
 Coeff:      0.419D-05 0.485D-04-0.424D-03 0.203D-02-0.253D-02-0.948D-02
 Coeff:     -0.409D-02 0.715D-02 0.731D-02-0.324D-01-0.102D+00-0.566D-01
 Coeff:      0.293D+00 0.898D+00
 Gap=     0.152 Goal=   None    Shift=    0.000
 Gap=     0.068 Goal=   None    Shift=    0.000
 RMSDP=4.37D-06 MaxDP=4.83D-04 DE=-1.99D-06 OVMax= 1.21D-03

 Cycle  21  Pass 1  IDiag  1:
 Restarting incremental Fock formation.
 E= -3138.16982909114     Delta-E=       -0.000001028292 Rises=F Damp=F
 DIIS: error= 1.09D-05 at cycle  21 NSaved=  20.
 NSaved=20 IEnMin=20 EnMin= -3138.16982909114     IErMin=20 ErrMin= 1.09D-05
 ErrMax= 1.09D-05  0.00D+00 EMaxC= 1.00D-01 BMatC= 4.41D-07 BMatP= 1.21D-06
 IDIUse=1 WtCom= 1.00D+00 WtEn= 0.00D+00
 Coeff-Com:  0.377D-04-0.643D-04 0.466D-05-0.583D-04 0.243D-05-0.174D-05
 Coeff-Com: -0.115D-03 0.507D-03 0.251D-02 0.552D-03-0.909D-02-0.975D-02
 Coeff-Com:  0.527D-02 0.211D-01 0.504D-01-0.381D-01-0.276D+00-0.103D+00
 Coeff-Com:  0.623D+00 0.733D+00
 Coeff:      0.377D-04-0.643D-04 0.466D-05-0.583D-04 0.243D-05-0.174D-05
 Coeff:     -0.115D-03 0.507D-03 0.251D-02 0.552D-03-0.909D-02-0.975D-02
 Coeff:      0.527D-02 0.211D-01 0.504D-01-0.381D-01-0.276D+00-0.103D+00
 Coeff:      0.623D+00 0.733D+00
 Gap=     0.152 Goal=   None    Shift=    0.000
 Gap=     0.068 Goal=   None    Shift=    0.000
 RMSDP=3.37D-06 MaxDP=4.01D-04 DE=-1.03D-06 OVMax= 1.01D-03

 Cycle  22  Pass 1  IDiag  1:
 RMSU=  3.37D-06    CP:  1.00D+00
 E= -3138.16982963296     Delta-E=       -0.000000541819 Rises=F Damp=F
 DIIS: error= 7.16D-06 at cycle  22 NSaved=  20.
 NSaved=20 IEnMin=20 EnMin= -3138.16982963296     IErMin=20 ErrMin= 7.16D-06
 ErrMax= 7.16D-06  0.00D+00 EMaxC= 1.00D-01 BMatC= 1.76D-07 BMatP= 4.41D-07
 IDIUse=1 WtCom= 1.00D+00 WtEn= 0.00D+00
 Coeff-Com: -0.362D-05 0.218D-05-0.479D-04 0.926D-05 0.766D-07-0.817D-04
 Coeff-Com:  0.315D-03 0.796D-03 0.217D-02 0.300D-03-0.462D-02-0.292D-02
 Coeff-Com:  0.738D-02 0.433D-01 0.331D-01-0.975D-01-0.209D+00-0.170D+00
 Coeff-Com:  0.327D+00 0.107D+01
 Coeff:     -0.362D-05 0.218D-05-0.479D-04 0.926D-05 0.766D-07-0.817D-04
 Coeff:      0.315D-03 0.796D-03 0.217D-02 0.300D-03-0.462D-02-0.292D-02
 Coeff:      0.738D-02 0.433D-01 0.331D-01-0.975D-01-0.209D+00-0.170D+00
 Coeff:      0.327D+00 0.107D+01
 Gap=     0.153 Goal=   None    Shift=    0.000
 Gap=     0.068 Goal=   None    Shift=    0.000
 RMSDP=3.41D-06 MaxDP=4.24D-04 DE=-5.42D-07 OVMax= 9.89D-04

 Cycle  23  Pass 1  IDiag  1:
 RMSU=  1.03D-06    CP:  1.00D+00  1.96D+00
 E= -3138.16982996596     Delta-E=       -0.000000333007 Rises=F Damp=F
 DIIS: error= 4.45D-06 at cycle  23 NSaved=  20.
 NSaved=20 IEnMin=20 EnMin= -3138.16982996596     IErMin=20 ErrMin= 4.45D-06
 ErrMax= 4.45D-06  0.00D+00 EMaxC= 1.00D-01 BMatC= 5.47D-08 BMatP= 1.76D-07
 IDIUse=1 WtCom= 1.00D+00 WtEn= 0.00D+00
 Coeff-Com: -0.357D-05-0.269D-04 0.409D-05 0.241D-05-0.119D-04-0.108D-04
 Coeff-Com: -0.355D-03 0.128D-02 0.336D-02-0.144D-03-0.438D-02-0.239D-02
 Coeff-Com:  0.126D-01 0.348D-01 0.308D-01-0.997D-01-0.315D+00-0.387D-01
 Coeff-Com:  0.672D+00 0.706D+00
[...]
 89,-0.00002042,-0.00000394,-0.00000833,0.00000966,0.00000283,-0.000003
 63,0.00000087,-0.00000695,0.00000565,-0.00000775,0.00000175,-0.0000052
 3,0.00000072,0.00000548,0.00016417,-0.00003592,-0.00006062,-0.00062187
 ,-0.00045754,-0.00147914,0.00021760,0.00005183,0.00027135,-0.00003724,
 -0.00018415,0.00041025,-0.00005062,-0.00004969,-0.00008581,0.00002060,
 0.00001432,-0.00001599,-0.00000170,-0.00002981,-0.00001322,0.00001083,
 0.00001699,-0.00000841,0.00003238,-0.00003658,-0.00004663,-0.00246843,
 -0.00309490,0.00386887,0.00041963,-0.00010690,0.00100338,-0.00123878,0
 .00152386,0.00169235,0.00251662,0.00763755,0.00542398,-0.07715009,-0.1
 9817369,-0.11608516,-0.01050855,-0.01567573,-0.01901961,-0.00013574,0.
 00001724,0.00004009,0.00000652,0.00000717,0.00000467,0.00000265,-0.000
 00040,-0.00000433,-0.00000897,-0.00000179,0.00000058,-0.00000128,0.000
 00643,0.00000816,0.00000260,-0.00001245,0.00000498,-0.00000529,0.00000
 305,-0.00000717,-0.00000270,0.00001110,-0.00001173,0.00000779,-0.00000
 626,-0.00000889,-0.00000446,0.00000176,0.00000432,-0.00000317,-0.00000
 098,0.00000175,-0.00000245,-0.00000267,0.00000121,0.00000247,0.0000041
 9,-0.00000057,-0.00000124,0.00000812,-0.00000647,0.00000275,-0.0000032
 1,0.00000370,0.00000222,-0.00000290,-0.00000166,0.00000141,0.00000546,
 -0.00000203,0.00000678,0.00000468,-0.00000110,-0.00000552,0.00000979,0
 .00001632,-0.00000223,-0.00000653,0.00001298,0.00000594,-0.00001533,-0
 .00000930,-0.00000088,-0.00000721,-0.00000312,-0.00000636,-0.00000678,
 -0.00000897,0.00000076,0.00000175,0.00000927,0.00025319,-0.00010960,-0
 .00015060,0.00005647,0.00024213,0.00033420,0.00115435,0.00035221,-0.00
 083968,0.08579089,0.20713686,-0.00000399,0.00000218,-0.00000088,0.0000
 4775,-0.00000188,-0.00001715,0.00000093,0.00000167,0.00001263,-0.00002
 716,-0.00000964,0.00001334,0.00000126,0.00000986,-0.00000688,0.0000109
 0,0.00002402,0.00000948,-0.00000403,-0.00001957,0.00000405,0.00000364,
 -0.00000317,-0.00000937,-0.00000133,-0.00000026,0.00000251,0.00000166,
 -0.00000139,-0.00000286,-0.00000117,-0.00000181,-0.00000019,-0.0000003
 9,-0.00000018,0.00000130,-0.00000442,0.00000210,0.00000444,-0.00000668
 ,-0.00000554,0.00000252,-0.00000272,-0.00000950,-0.00000123,-0.0000040
 5,0.00000385,0.00000077,-0.00000042,-0.00000013,-0.00000240,0.00000180
 ,-0.00000188,0.00000080,0.00000012,-0.00000264,0.00000125,-0.00001186,
 -0.00004850,0.00004113,0.00019817,0.00058968,0.00028933,-0.00002072,-0
 .00018722,0.00010161,0.00002361,0.00006923,-0.00012105,-0.00002306,0.0
 0002518,0.00002263,-0.00001180,-0.00001858,-0.00000538,0.00001648,0.00
 000702,0.00001191,-0.00001335,0.00000402,0.00002321,0.00001011,-0.0000
 2458,0.00001990,-0.00072079,0.00271175,0.00032597,0.00032060,0.0008794
 4,-0.00033323,-0.00175885,0.00298822,-0.00463198,-0.01126807,-0.024003
 81,-0.01258443,-0.06422482,-0.11609007,-0.15583904,0.00472244,0.010030
 99,0.01050405,-0.00002524,-0.00002590,0.00001025,0.00000082,0.00000173
 ,-0.00000112,0.00000421,-0.00000211,-0.00000150,-0.00000311,-0.0000016
 0,0.00000237,-0.00000473,-0.00000087,0.00000075,0.00000226,-0.00000136
 ,-0.00000505,0.00000114,-0.00000177,-0.00000395,-0.00000636,-0.0000023
 7,-0.00000233,0.00000326,-0.00000077,-0.00000368,-0.00000067,0.0000011
 7,0.00000100,-0.00000177,-0.00000063,0.00000085,-0.00000123,-0.0000014
 1,0.,0.00000061,0.00000122,-0.00000070,0.00000010,0.00000359,-0.000002
 72,0.00000110,-0.00000068,0.00000133,0.00000106,-0.00000137,-0.0000006
 9,0.00000043,0.00000072,-0.00000098,0.00000082,0.00000134,0.00000110,0
 .00001621,0.00000396,-0.00002088,-0.00000118,0.00000724,-0.00000116,0.
 00000165,0.00000006,-0.00000167,0.00000126,-0.00000049,-0.00000299,0.0
 0000137,0.00000258,-0.00000107,0.00001437,0.00001336,-0.00001101,0.000
 21076,-0.00012706,-0.00000598,-0.00054919,-0.00109257,-0.00071073,0.00
 120919,0.00001107,0.00107795,0.07095974,0.12505915,0.16129056,0.000007
 51,0.00002679,-0.00000224,-0.00017006,-0.00015075,0.00000115,-0.000012
 35,0.00000113,-0.00007637,-0.00005867,0.00004900,0.00002146,0.00002384
 ,0.00019304,0.00035976,-0.00005801,-0.00007941,0.00000179,-0.00002315,
 0.00008545,-0.00010065,-0.00001085,0.00000012,-0.00000135,-0.00000403,
 -0.00001005,-0.00000610,-0.00000100,0.00000831,0.00000663,0.00000122,0
 .00000082,-0.00000189,-0.00000167,-0.00000096,-0.00000146,-0.00000284,
 0.00000002,-0.00000654,0.00001957,0.00000839,-0.00000008,-0.00000529,0
 .00001300,0.00001293,0.00000655,-0.00000025,-0.00000289,-0.00000616,0.
 00000462,0.00000859,-0.00000735,-0.00000150,-0.00000468,-0.00000472,0.
 00001796,0.00000275,-0.00012996,-0.00068601,-0.00034626,-0.00281509,0.
 00095940,-0.00000185,-0.00030396,0.00114115,0.00037325,-0.00014027,0.0
 0026241,-0.00013640,-0.00002034,0.00008163,0.00009753,-0.00002957,-0.0
 0003172,-0.00001768,0.00003629,0.00000454,0.00001730,-0.00004235,0.000
 02214,0.00004372,0.00000617,-0.00004390,-0.00003751,0.00227341,0.00284
 325,-0.01143206,0.00460507,-0.00337670,-0.00191414,-0.00065892,-0.0001
 0522,0.00020437,0.00601703,-0.00308028,-0.00093882,0.00510248,-0.00167
 864,0.00680702,-0.05112613,0.00346805,-0.05581170,0.00030232,0.0001169
 7,0.00018079,0.00000603,0.00001098,0.00000769,0.00000019,-0.00000533,-
 0.00000257,0.00000897,-0.00000047,0.00000448,0.00003741,0.00001038,0.0
 0001316,-0.00001339,0.00000639,0.00006409,-0.00001056,0.00000213,-0.00
 000098,0.00008894,0.00010266,-0.00004177,-0.00000271,-0.00000689,0.000
 01974,0.00000067,-0.00000298,0.00000032,0.00000324,0.00000081,-0.00000
 087,0.00000276,0.00000178,0.00000144,0.00000093,-0.00000246,0.00000223
 ,0.00000731,0.00000837,0.00000483,-0.00000013,0.00000545,-0.00000438,-
 0.00000102,0.00000441,0.00000007,-0.00000049,0.00000326,0.00000269,0.0
 0000440,-0.00000405,-0.00001402,-0.00073144,-0.00038368,0.00057943,0.0
 0000311,-0.00000738,-0.00001243,-0.00000055,0.00000920,0.00000160,0.00
 000176,0.00000452,-0.00000297,0.00000310,0.00000239,-0.00000283,0.0000
 1590,-0.00000971,-0.00003498,0.00014616,0.00011148,-0.00057247,-0.0008
 5511,0.00030303,0.00018873,0.00023430,-0.00013616,0.00029735,-0.003673
 42,0.00157996,0.00090680,0.04167655,0.00001936,-0.00002755,-0.00000085
 ,-0.00013477,0.00020892,-0.00003589,0.00002882,-0.00002427,0.00001235,
 0.00018630,-0.00020598,0.00004695,-0.00015388,0.00019925,0.00009021,-0
 .00014880,-0.00026153,-0.00021847,0.00003911,0.00011586,-0.00002769,-0
 .00002999,0.00005624,0.00013083,0.00003564,0.00002269,-0.00001485,-0.0
 0002028,-0.00000550,0.00002099,0.00001661,0.00002312,0.00000540,0.0000
 1371,0.00000957,-0.00000979,0.00006237,-0.00003540,-0.00004731,0.00008
 773,0.00004863,0.00000448,0.00003282,0.00008272,0.00000163,0.00004269,
 -0.00004588,-0.00000621,-0.00000164,0.00000917,0.00003032,-0.00001788,
 0.00001022,-0.00000265,-0.00002696,0.00001287,-0.00004032,-0.00041079,
 -0.00002230,-0.00038041,0.00041507,-0.00015640,-0.00074114,0.00003279,
 -0.00133679,0.00038066,0.00027184,0.00010026,0.00002321,-0.00004935,0.
 00003735,0.00004621,0.00000793,-0.00001933,0.00000872,0.00000999,0.000
 00828,0.00001031,0.00003031,0.00001017,0.00004687,-0.00004529,0.000072
 32,0.00013329,-0.00309243,0.00927137,-0.02114827,-0.00325790,-0.002952
 05,-0.00185643,-0.00013870,-0.00094860,-0.00031686,-0.00298717,-0.0038
 7134,0.00145108,0.00524877,-0.00099917,0.02795444,0.00411244,-0.064438
 56,0.05378933,0.00026830,-0.00024557,0.00026595,-0.00000657,-0.0000048
 6,-0.00001574,0.00001205,-0.00000791,0.00001624,0.00000955,0.00000411,
 0.00000367,-0.00001127,-0.00001426,-0.00001415,-0.00000160,0.00004929,
 -0.00002431,0.00002628,-0.00001959,0.00001465,0.00006264,-0.00002220,0
 .00002669,-0.00004238,0.00002214,0.00003001,0.00000993,-0.00000413,-0.
 00001160,0.00000848,0.00000400,-0.00000533,0.00000776,0.00001153,-0.00
 000775,-0.00000760,-0.00000484,0.00000323,0.00000023,-0.00003898,0.000
 03282,-0.00000747,0.00000441,-0.00000480,-0.00000516,0.00000761,0.0000
 0433,-0.00000443,0.00000783,0.00000813,0.00000812,-0.00000394,-0.00000
 639,-0.00035288,0.00000373,0.00009218,0.00005712,-0.00001713,-0.000069
 38,-0.00000018,0.00000872,0.00000101,0.00000513,0.00000627,0.00000136,
 0.00001279,0.00001948,0.00000389,0.00003641,0.00000692,-0.00002121,-0.
 00026984,0.00036241,-0.00122112,0.00028107,-0.00002530,-0.00003237,0.0
 0020650,-0.00014804,0.00121824,0.00132423,0.00093935,-0.00080335,-0.00
 156657,0.06503240,0.00000354,0.00000837,0.00000156,-0.00004890,0.00001
 453,-0.00005444,-0.00001369,0.00000131,-0.00002665,0.00000739,-0.00005
 601,0.00004795,-0.00012040,0.00011116,0.00012814,-0.00007927,-0.000138
 91,-0.00004003,-0.00000944,-0.00002413,-0.00012860,-0.00001484,0.00001
 748,0.00003779,0.00000951,0.00000532,-0.00000560,-0.00000761,-0.000001
 21,0.00000824,0.00000571,0.00000885,0.00000309,0.00000622,0.00000383,-
 0.00000397,0.00001830,-0.00001470,-0.00001557,0.00002980,0.00001302,0.
 00000103,0.00000756,0.00002367,0.00000156,0.00001490,-0.00000990,0.000
 00086,-0.00000622,0.00000692,0.00001057,-0.00000753,-0.00000326,-0.000
 00475,-0.00001744,0.00001256,-0.00001270,-0.00008774,-0.00007872,-0.00
 072320,-0.00008820,0.00139851,-0.00208781,0.00133160,0.00346220,0.0011
 0004,-0.00007483,-0.00012162,0.00032142,-0.00008182,0.00003779,0.00001
 519,0.00001374,-0.00002348,-0.00000265,0.00001932,-0.00000980,0.000011
 03,0.00000146,0.00004213,0.00001873,0.00001296,-0.00004184,0.00001265,
 -0.00355946,0.00388495,-0.01438027,-0.00262285,-0.00298367,-0.00015808
 ,0.00022959,-0.00035610,0.00076670,-0.00083070,0.00264430,0.00159844,-
 0.00294489,-0.00044152,-0.00673427,-0.05421062,0.05183099,-0.31868844,
 0.00006445,-0.00005326,0.00025170,0.00000435,0.00000712,-0.00000159,0.
 00000910,-0.00000821,0.00000345,0.00000201,0.00000033,0.00000481,0.000
 01316,0.00000523,0.00000945,0.00000033,0.00000590,0.00002603,0.0000004
 1,-0.00000668,-0.00000079,0.00006398,0.00002612,0.00001116,-0.00001176
 ,0.00000829,0.00001099,0.00000288,-0.00000170,-0.00000273,0.00000313,0
 .00000169,-0.00000193,0.00000316,0.00000472,-0.00000275,-0.00000245,-0
 .00000021,0.00000225,0.00000050,-0.00001268,0.00001158,-0.00000240,0.0
 0000095,-0.00000049,-0.00000172,0.00000256,0.00000072,-0.00000154,0.00
 000909,0.00000324,0.00000970,-0.00000093,-0.00001047,0.00024989,0.0003
 2533,0.00040378,0.00002839,-0.00000069,-0.00001211,0.00000381,-0.00000
 441,-0.00000603,0.00000455,0.00000026,-0.00000328,0.00000339,0.0000033
 4,-0.00000619,0.00002208,0.00000090,-0.00001614,-0.00006233,0.00041873
 ,-0.00074798,0.00023012,-0.00003352,-0.00012734,-0.00016867,-0.0000663
 9,-0.00036661,0.00135428,-0.00020804,0.00058448,0.06125449,-0.05961541
 ,0.33854718,0.00005781,-0.00012814,0.00010344,-0.00081420,0.00137206,-
 0.00079109,-0.00000562,-0.00019677,0.00005090,0.00118220,-0.00156906,0
 .00084572,-0.00335563,0.00236512,0.00005105,-0.02890109,-0.01336965,0.
 00155447,-0.10305633,0.00916637,0.05148213,-0.00092698,-0.00009405,-0.
 00010263,0.00063557,-0.00006247,-0.00067719,-0.00018295,-0.00003263,0.
 00008386,0.00010186,0.00013017,-0.00005346,0.00006989,-0.00005127,-0.0
 0009015,0.00017048,0.00029255,-0.00014687,-0.00043872,-0.00571668,-0.0
 0114079,-0.00212052,-0.00441184,0.00121806,-0.00066710,0.00034616,0.00
 078983,-0.00031183,0.00047735,0.00014011,-0.00025854,-0.00000943,-0.00
 023819,-0.00050460,-0.00024448,-0.00109819,-0.00159753,0.00209819,-0.0
 0582141,0.00603667,0.00508755,-0.00675420,-0.01352628,-0.01322020,0.02
 780728,-0.00166776,0.00004848,-0.00033653,0.00048216,0.00013182,0.0005
 7073,-0.00020291,0.00005394,-0.00006061,-0.00002033,-0.00009073,0.0000
 0614,-0.00028725,-0.00006673,-0.00006253,0.00008475,-0.00028893,-0.000
 08081,-0.00230193,-0.00065871,-0.00195551,-0.00006217,0.00093235,0.000
 40084,0.00012286,0.00006135,-0.00034688,-0.00007793,-0.00005030,-0.000
 14391,-0.00000760,-0.00009756,0.00002528,-0.00021179,-0.00019742,0.000
 05085,0.00038199,-0.00137370,0.00220181,-0.00001832,0.00002680,-0.0000
 7312,0.00006734,-0.00005916,0.00009536,0.00003265,0.00001854,0.0000003
 5,0.00000847,0.00002616,-0.00001729,0.00006431,0.00011349,-0.00000191,
 0.00007558,-0.00011867,0.00004519,0.00093291,-0.00036595,0.00108486,-0
 .00021519,0.00001565,0.00029472,0.00008280,-0.00004883,-0.00006966,0.0
 0008448,0.00001841,-0.00002419,0.00008111,0.00006172,0.00001937,0.0000
 0732,-0.00009891,0.00000458,0.00092412,-0.00121534,0.00029771,-0.00014
 090,0.00033488,-0.00012427,0.00001583,0.00015109,0.00000259,-0.0001091
 8,0.00017760,0.00008997,0.00016033,0.00002062,-0.00014131,-0.00059046,
 0.00229892,-0.00033827,-0.00000253,0.00025851,0.00049482,0.00003249,0.
 00006033,-0.00000464,-0.00001957,0.00001087,-0.00004169,-0.00001051,-0
 .00001797,-0.00006224,-0.00004215,0.00001084,-0.00018344,-0.00005181,-
 0.00002834,-0.00007813,0.00010565,0.00007472,-0.00007770,-0.00000792,0
 .00002933,-0.00001705,0.00003469,0.00000326,0.00000656,0.00027842,-0.0
 0023908,0.00003755,0.15040135,-0.00018213,-0.00004487,0.00014240,0.001
 61122,0.00073462,-0.00085691,-0.00010534,-0.00006287,0.00025933,-0.000
 43032,-0.00107302,0.00084751,0.00053380,-0.00076861,-0.00202978,-0.009
 79957,0.00933574,0.00114120,-0.00263028,-0.00591858,0.00204295,-0.0008
 1143,-0.00141180,-0.00033998,0.00042209,0.00010453,-0.00005625,0.00018
 477,0.00005184,-0.00009329,0.00001967,-0.00010530,-0.00015534,-0.00015
 275,-0.00030434,0.00007198,0.00025398,0.00034728,0.00036691,-0.0050134
 8,-0.00161574,-0.00246401,0.00408954,0.00262809,0.00401386,0.00356757,
 -0.00393925,-0.00172976,0.00096460,-0.00054611,0.00193809,-0.00091907,
 0.00104533,-0.00026198,-0.00028916,-0.00179096,-0.00291230,0.00330454,
 0.00051358,0.00245744,0.00175464,-0.00512772,0.00878826,-0.00839301,-0
 .02676059,0.05858143,-0.00160840,0.00084466,-0.00095920,-0.00009867,-0
 .00056067,-0.00022376,-0.00010209,-0.00030054,0.00010703,0.00000701,-0
 .00040242,-0.00015656,-0.00027818,-0.00002642,0.00007105,0.00017663,-0
 .00073142,-0.00057350,0.00039157,-0.00039650,0.00050146,0.00016115,-0.
 00004449,0.00001119,-0.00002247,0.00005963,-0.00010624,0.00003835,0.00
 010939,-0.00008503,-0.00019218,-0.00021468,-0.00034750,0.00041318,0.00
 008485,0.00079372,-0.00328046,0.00007571,-0.00065212,0.00002075,-0.000
 01214,-0.00004692,0.00004264,-0.00001817,0.00000962,-0.00012815,-0.000
 00607,-0.00003182,-0.00012969,0.00006690,0.00004399,-0.00001300,-0.000
 04016,-0.00011838,0.00000216,-0.00002556,-0.00003138,-0.00076789,0.000
 19686,-0.00078549,0.00012284,0.00016631,0.00000870,0.00001922,0.000017
 70,-0.00007621,0.00000791,0.00000516,-0.00004985,-0.00003056,0.0000009
 3,0.00001129,-0.00019954,-0.00016992,-0.00026707,-0.00175580,-0.001335
 30,0.00160713,-0.00017396,0.00008927,-0.00007200,-0.00007870,0.0002041
 9,0.00015389,-0.00000969,0.00021467,0.00013558,0.00016565,0.00020340,0
 .00041959,0.00132847,-0.00202688,-0.00007825,0.00004169,0.00065457,-0.
 00000876,0.00016008,-0.00006333,-0.00019047,0.00002039,-0.00001365,-0.
 00011012,-0.00002599,-0.00007230,-0.00009486,0.00011265,0.00014495,0.0
 0012621,-0.00003546,0.00002867,-0.00014642,-0.00003072,0.00003951,-0.0
 0008071,0.00000235,0.00006293,-0.00008738,0.00000359,0.00003591,0.0000
 3824,-0.00010432,-0.00088185,-0.00003139,0.01784777,0.03874503,0.00028
 130,0.00009552,-0.00022794,-0.00132581,-0.00061939,0.00143894,0.000201
 40,0.00004525,-0.00017444,0.00073893,0.00055782,-0.00110621,-0.0031388
 3,-0.00099514,0.00022387,0.00133551,0.00148503,0.00652980,0.05840341,-
 0.00249818,-0.03620083,-0.00095857,-0.00050991,-0.00120303,0.00004956,
 0.00021029,0.00009520,-0.00005211,-0.00009416,-0.00011067,-0.00004329,
 -0.00003137,0.00000995,-0.00008867,-0.00023791,-0.00003827,-0.00038123
 ,0.00002477,0.00051580,-0.00067595,0.00112102,0.00004445,0.00032099,0.
 00008154,0.00152205,-0.00069741,0.00046992,0.00008953,-0.00008423,0.00
 003297,-0.00040291,0.00004779,-0.00004831,-0.00060246,0.00055474,-0.00
 151655,-0.00128348,-0.00246869,0.00095647,0.00145832,-0.00464053,0.008
 73155,-0.02041186,0.01664172,0.06102715,-0.12201451,0.00124517,-0.0005
 4734,0.00045530,-0.00051048,0.00059814,-0.00019049,0.00020341,-0.00046
 589,-0.00020204,0.00037693,0.00023003,0.00026007,0.00027576,0.00034716
 ,0.00024324,-0.00029077,0.00066828,0.00029574,0.00016665,-0.00061926,-
 0.00057647,-0.00037735,-0.00006292,0.00029718,-0.00002101,-0.00005122,
 -0.00005689,-0.00010269,-0.00025807,0.00012918,0.00031037,0.00018783,0
 .00011417,-0.00046246,-0.00079261,-0.00013173,0.00348431,-0.00027418,-
 0.00135210,-0.00005024,-0.00006547,0.00002041,-0.00007323,0.00002762,-
 0.00002847,0.00014495,0.00000385,0.00003325,0.00011743,-0.00007548,-0.
 00005169,-0.00005874,-0.00003917,0.00008664,-0.00003867,0.00002704,-0.
 00001371,-0.00008673,0.00024988,-0.00044547,0.00022933,-0.00017956,-0.
 00015652,0.00000101,0.00000229,0.00003529,-0.00003469,-0.00003268,0.00
 001745,-0.00007561,-0.00005253,0.00003375,-0.00001854,-0.00004214,-0.0
 0006909,0.00070510,0.00155242,-0.00139838,-0.00009327,0.00005771,-0.00
 000627,0.00000561,-0.00006250,-0.00007904,-0.00002084,-0.00016640,-0.0
 0003140,-0.00024089,-0.00009662,-0.00004359,-0.00082373,0.00015436,0.0
 0049377,0.00070118,-0.00086623,-0.00096687,-0.00011255,0.00011992,0.00
 010036,0.00004983,0.00006718,0.00013282,0.00007502,0.00009402,0.000160
 72,0.00005714,-0.00009068,0.00005801,0.00000177,0.00002474,-0.00002939
 ,0.00004896,-0.00005672,0.00008029,-0.00004624,-0.00006482,0.00006716,
 -0.00002374,-0.00014969,-0.00002923,0.00004278,0.00079038,0.00041766,-
 0.06870025,-0.06837905,0.17417508\\-0.00000105,-0.00000008,0.00000050,
 -0.00000032,0.00000151,-0.00000185,-0.00000114,0.00000044,0.00000192,-
 0.00000144,-0.00000104,-0.00000089,-0.00000269,0.00000026,-0.00001090,
 0.00000786,0.00001072,0.00001604,-0.00000215,-0.00000956,-0.00002032,0
 .00000095,-0.00000091,0.00000294,0.00000185,-0.00000132,-0.00000341,-0
 .00000232,-0.00000302,0.00000087,0.00000095,0.00000055,0.00000141,0.00
 000197,-0.00000130,-0.00000291,-0.00000382,-0.00000327,-0.00000022,-0.
 00000242,-0.00000339,-0.00000350,-0.00000083,0.00000051,-0.00000266,0.
 00000036,0.00000044,-0.00000022,0.00000033,-0.00000001,-0.00000236,0.0
 0000091,0.00000054,-0.00000159,0.00000278,0.00000216,-0.00000050,0.000
 01288,-0.00001061,0.00001241,-0.00000845,0.00000900,-0.00000309,-0.000
 00348,-0.00000176,0.00000139,-0.00000144,0.00000240,-0.00000116,0.0000
 0104,-0.00000296,-0.00000164,0.00000023,0.00000202,0.00000174,-0.00000
 251,0.00000090,-0.00000137,0.00000010,-0.00000152,-0.00000171,0.000001
 98,0.00000182,0.00000346,0.00000130,-0.00000253,-0.00000022,-0.0000000
 8,0.00000091,-0.00000070,0.00000015,0.00000117,0.00000074,-0.00000070,
 0.00000089,0.00000124,0.00000042,0.00000017,0.00000141,0.00000056,0.00
 000134,0.00000040,-0.00000604,0.00000604,-0.00000059,-0.00000063,0.000
 00020,0.00000018,0.00000004,0.00000046,0.00000077,-0.00000003,0.000000
 04,0.00000045,-0.00000041,-0.00000035,0.00000047,0.00000013,-0.0000005
 0,0.00000042,-0.00000008,-0.00000007,0.00000133,-0.00000236,-0.0000009
 4,0.00000143,-0.00000034,-0.00000140,0.00000087,0.00000039,-0.00000166
 ,0.00000002,0.00000010,-0.00000166,-0.00000069,-0.00000013,-0.00000097
 ,-0.00000037,0.00000041,0.00000018,-0.00000057,0.00000066,-0.00000113,
 -0.00000040,0.00000026,-0.00000093,-0.00000141,0.00000034,-0.00000008,
 -0.00000140,0.00000006,0.00000044,-0.00000152,-0.00000027,0.00000051,-
 0.00000128,-0.00000056,-0.00000094,-0.00000049,-0.00000053,0.00000089,
 0.00000005,0.00000018,0.00000108,-0.00000109,0.00000006,0.00000115,-0.
 00000086,-0.00000059,0.00000179,-0.00000010,-0.00000113,0.00000056,-0.
 00000005,0.00000109,0.00000229,0.00000101,-0.00000029,0.00000146,0.000
 00123,-0.00000020,0.00000113,0.00000193,-0.00000022,0.00000059,0.00000
 119,-0.00000059,0.00000049,-0.00000004,0.00000890,-0.00000311,0.000014
 27\\\@
 The archive entry for this job was punched.


 AN AIRPLANE IS A COLLECTION OF SPARE PARTS
 FLYING IN CLOSE FORMATION.
 Job cpu time:       1 days  1 hours 15 minutes  3.7 seconds.
 Elapsed time:       0 days  0 hours 47 minutes 27.9 seconds.
 File lengths (MBytes):  RWF=   4816 Int=      0 D2E=      0 Chk=     40 Scr=      2
 Normal termination of Gaussian 16 at Fri Mar 15 01:09:33 2024.
