 Entering Gaussian System, Link 0=g16
 Initial command:
 /public/software/apps/Gaussian/g16/l1.exe "/tmp/Gau-73228.inp" -scrdir="/tmp/"
 Entering Link 1 = /public/software/apps/Gaussian/g16/l1.exe PID=     73229.
  
 Copyright (c) 1988-2019, Gaussian, Inc.  All Rights Reserved.
  
 This is part of the Gaussian(R) 16 program.  It is based on
 the Gaussian(R) 09 system (copyright 2009, Gaussian, Inc.),
 the Gaussian(R) 03 system (copyright 2003, Gaussian, Inc.),
 the Gaussian(R) 98 system (copyright 1998, Gaussian, Inc.),
 the Gaussian(R) 94 system (copyright 1995, Gaussian, Inc.),
 the Gaussian 92(TM) system (copyright 1992, Gaussian, Inc.),
 the Gaussian 90(TM) system (copyright 1990, Gaussian, Inc.),
 the Gaussian 88(TM) system (copyright 1988, Gaussian, Inc.),
 the Gaussian 86(TM) system (copyright 1986, Carnegie Mellon
 University), and the Gaussian 82(TM) system (copyright 1983,
 Carnegie Mellon University). Gaussian is a federally registered
 trademark of Gaussian, Inc.
  
 This software contains proprietary and confidential information,
 including trade secrets, belonging to Gaussian, Inc.
  
 This software is provided under written license and may be
 used, copied, transmitted, or stored only in accord with that
 written license.
  
 The following legend is applicable only to US Government
 contracts under FAR:
  
                    RESTRICTED RIGHTS LEGEND
  
 Use, reproduction and disclosure by the US Government is
 subject to restrictions as set forth in subparagraphs (a)
 and (c) of the Commercial Computer Software - Restricted
 Rights clause in FAR 52.227-19.
  
 Gaussian, Inc.
 340 Quinnipiac St., Bldg. 40, Wallingford CT 06492
  
  
 ---------------------------------------------------------------
 Warning -- This program may not be used in any manner that
 competes with the business of Gaussian, Inc. or will provide
 assistance to any competitor of Gaussian, Inc.  The licensee
 of this program is prohibited from giving any competitor of
 Gaussian, Inc. access to this program.  By using this program,
 the user acknowledges that Gaussian, Inc. is engaged in the
 business of creating and licensing software in the field of
 computational chemistry and represents and warrants to the
 licensee that it is not a competitor of Gaussian, Inc. and that
 it will not use this program in any manner prohibited above.
 ---------------------------------------------------------------
  

 Cite this work as:
 Gaussian 16, Revision C.01,
 M. J. Frisch, G. W. Trucks, H. B. Schlegel, G. E. Scuseria, 
 M. A. Robb, J. R. Cheeseman, G. Scalmani, V. Barone, 
 G. A. Petersson, H. Nakatsuji, X. Li, M. Caricato, A. V. Marenich, 
 J. Bloino, B. G. Janesko, R. Gomperts, B. Mennucci, H. P. Hratchian, 
 J. V. Ortiz, A. F. Izmaylov, J. L. Sonnenberg, D. Williams-Young, 
 F. Ding, F. Lipparini, F. Egidi, J. Goings, B. Peng, A. Petrone, 
 T. Henderson, D. Ranasinghe, V. G. Zakrzewski, J. Gao, N. Rega, 
 G. Zheng, W. Liang, M. Hada, M. Ehara, K. Toyota, R. Fukuda, 
 J. Hasegawa, M. Ishida, T. Nakajima, Y. Honda, O. Kitao, H. Nakai, 
 T. Vreven, K. Throssell, J. A. Montgomery, Jr., J. E. Peralta, 
 F. Ogliaro, M. J. Bearpark, J. J. Heyd, E. N. Brothers, K. N. Kudin, 
 V. N. Staroverov, T. A. Keith, R. Kobayashi, J. Normand, 
 K. Raghavachari, A. P. Rendell, J. C. Burant, S. S. Iyengar, 
 J. Tomasi, M. Cossi, J. M. Millam, M. Klene, C. Adamo, R. Cammi, 
 J. W. Ochterski, R. L. Martin, K. Morokuma, O. Farkas, 
 J. B. Foresman, and D. J. Fox, Gaussian, Inc., Wallingford CT, 2019.
 
 ******************************************
 Gaussian 16:  ES64L-G16RevC.01  3-Jul-2019
                 1-Aug-2024 
 ******************************************
 %nprocshared=32
 Will use up to   32 processors via shared memory.
 %mem=100GB
 ------------------------------------------
 #p opt freq b3lyp/def2svpp em=gd3bj nosymm
 ------------------------------------------
 1/18=20,19=15,26=3,38=1/1,3;
 2/9=110,12=2,15=1,17=6,18=5,40=1/2;
 3/5=43,7=202,11=2,25=1,30=1,71=1,74=-5,124=41/1,2,3;
 4//1;
 5/5=2,38=5/2;
 6/7=2,8=2,9=2,10=2,28=1/1;
 7/30=1/1,2,3,16;
 1/18=20,19=15,26=3/3(2);
 2/9=110,15=1/2;
 99//99;
 2/9=110,15=1/2;
 3/5=43,7=202,11=2,25=1,30=1,71=1,74=-5,124=41/1,2,3;
 4/5=5,16=3,69=1/1;
 5/5=2,38=5/2;
 7/30=1/1,2,3,16;
 1/18=20,19=15,26=3/3(-5);
 2/9=110,15=1/2;
 6/7=2,8=2,9=2,10=2,19=2,28=1/1;
 99/9=1/99;
 Leave Link    1 at Thu Aug  1 12:48:42 2024, MaxMem= 13421772800 cpu:               0.9 elap:               0.0
 (Enter /public/software/apps/Gaussian/g16/l101.exe)
 ------------------
 $$$$Title####2????
 ------------------
 Symbolic Z-matrix:
 Charge =  2 Multiplicity = 2
 N                     3.28112   0.83891   0.09041 
 C                     2.02482   1.51862   0.05535 
 O                     2.00925   2.77955   0.05544 
 C                     0.73721   0.7417   -0.07705 
 C                    -0.48445   1.52663   0.39184 
 C                    -1.43275   0.45204   0.86144 
 F                    -2.19833  -0.00515  -0.1993 
 F                    -2.26123   0.91771   1.86876 
 C                    -0.51717  -0.6534    1.36295 
 N                     0.79091  -0.48844   0.72182 
 H                     4.16957   1.38201   0.16776 
 H                     3.33445  -0.201     0.01679 
 H                     0.59857   0.48569  -1.15336 
 H                    -0.92293   2.13734  -0.42748 
 H                    -0.2267    2.18573   1.25172 
 H                    -0.9501   -1.65627   1.14716 
 H                    -0.38266  -0.56298   2.46252 
 H                     0.95744  -1.29983   0.08015 
 Cu                    2.69864  -0.74971   1.07847 
 
 ITRead=  0  0  0  0  0  0  0  0  0  0  0  0  0  0  0  0  0  0  0
 MicOpt= -1 -1 -1 -1 -1 -1 -1 -1 -1 -1 -1 -1 -1 -1 -1 -1 -1 -1 -1
 NAtoms=     19 NQM=       19 NQMF=       0 NMMI=      0 NMMIF=      0
                NMic=       0 NMicF=      0.
                    Isotopes and Nuclear Properties:
 (Nuclear quadrupole moments (NQMom) in fm**2, nuclear magnetic moments (NMagM)
  in nuclear magnetons)

  Atom         1           2           3           4           5           6           7           8           9          10
 IAtWgt=          14          12          16          12          12          12          19          19          12          14
 AtmWgt=  14.0030740  12.0000000  15.9949146  12.0000000  12.0000000  12.0000000  18.9984032  18.9984032  12.0000000  14.0030740
 NucSpn=           2           0           0           0           0           0           1           1           0           2
 AtZEff=  -0.0000000  -0.0000000  -0.0000000  -0.0000000  -0.0000000  -0.0000000  -0.0000000  -0.0000000  -0.0000000  -0.0000000
 NQMom=    2.0440000   0.0000000   0.0000000   0.0000000   0.0000000   0.0000000   0.0000000   0.0000000   0.0000000   2.0440000
 NMagM=    0.4037610   0.0000000   0.0000000   0.0000000   0.0000000   0.0000000   2.6288670   2.6288670   0.0000000   0.4037610
 AtZNuc=   7.0000000   6.0000000   8.0000000   6.0000000   6.0000000   6.0000000   9.0000000   9.0000000   6.0000000   7.0000000

  Atom        11          12          13          14          15          16          17          18          19
 IAtWgt=           1           1           1           1           1           1           1           1          63
 AtmWgt=   1.0078250   1.0078250   1.0078250   1.0078250   1.0078250   1.0078250   1.0078250   1.0078250  62.9295992
 NucSpn=           1           1           1           1           1           1           1           1           3
 AtZEff=  -0.0000000  -0.0000000  -0.0000000  -0.0000000  -0.0000000  -0.0000000  -0.0000000  -0.0000000  -0.0000000
 NQMom=    0.0000000   0.0000000   0.0000000   0.0000000   0.0000000   0.0000000   0.0000000   0.0000000 -22.0000000
 NMagM=    2.7928460   2.7928460   2.7928460   2.7928460   2.7928460   2.7928460   2.7928460   2.7928460   2.2233000
 AtZNuc=   1.0000000   1.0000000   1.0000000   1.0000000   1.0000000   1.0000000   1.0000000   1.0000000  29.0000000
 Leave Link  101 at Thu Aug  1 12:48:42 2024, MaxMem= 13421772800 cpu:               3.9 elap:               0.1
 (Enter /public/software/apps/Gaussian/g16/l103.exe)

 GradGradGradGradGradGradGradGradGradGradGradGradGradGradGradGradGradGrad
 Berny optimization.
 Initialization pass.
                           ----------------------------
                           !    Initial Parameters    !
                           ! (Angstroms and Degrees)  !
 --------------------------                            --------------------------
 ! Name  Definition              Value          Derivative Info.                !
 --------------------------------------------------------------------------------
 ! R1    R(1,2)                  1.4288         estimate D2E/DX2                !
 ! R2    R(1,11)                 1.0442         estimate D2E/DX2                !
 ! R3    R(1,12)                 1.0439         estimate D2E/DX2                !
 ! R4    R(1,19)                 1.9594         estimate D2E/DX2                !
 ! R5    R(2,3)                  1.261          estimate D2E/DX2                !
 ! R6    R(2,4)                  1.5097         estimate D2E/DX2                !
 ! R7    R(4,5)                  1.5259         estimate D2E/DX2                !
 ! R8    R(4,10)                 1.4678         estimate D2E/DX2                !
 ! R9    R(4,13)                 1.115          estimate D2E/DX2                !
 ! R10   R(5,6)                  1.5082         estimate D2E/DX2                !
 ! R11   R(5,14)                 1.112          estimate D2E/DX2                !
 ! R12   R(5,15)                 1.1137         estimate D2E/DX2                !
 ! R13   R(6,7)                  1.3858         estimate D2E/DX2                !
 ! R14   R(6,8)                  1.3849         estimate D2E/DX2                !
 ! R15   R(6,9)                  1.5205         estimate D2E/DX2                !
 ! R16   R(9,10)                 1.4661         estimate D2E/DX2                !
 ! R17   R(9,16)                 1.1134         estimate D2E/DX2                !
 ! R18   R(9,17)                 1.1115         estimate D2E/DX2                !
 ! R19   R(10,18)                1.0478         estimate D2E/DX2                !
 ! R20   R(10,19)                1.9583         estimate D2E/DX2                !
 ! R21   R(12,19)                1.3537         estimate D2E/DX2                !
 ! A1    A(2,1,11)             120.167          estimate D2E/DX2                !
 ! A2    A(2,1,12)             121.1378         estimate D2E/DX2                !
 ! A3    A(2,1,19)              97.8562         estimate D2E/DX2                !
 ! A4    A(11,1,12)            118.6791         estimate D2E/DX2                !
 ! A5    A(11,1,19)            129.5898         estimate D2E/DX2                !
 ! A6    A(1,2,3)              119.1127         estimate D2E/DX2                !
 ! A7    A(1,2,4)              120.4817         estimate D2E/DX2                !
 ! A8    A(3,2,4)              120.27           estimate D2E/DX2                !
 ! A9    A(2,4,5)              113.0273         estimate D2E/DX2                !
 ! A10   A(2,4,10)             110.6328         estimate D2E/DX2                !
 ! A11   A(2,4,13)             107.991          estimate D2E/DX2                !
 ! A12   A(5,4,10)             107.0477         estimate D2E/DX2                !
 ! A13   A(5,4,13)             108.3725         estimate D2E/DX2                !
 ! A14   A(10,4,13)            109.7252         estimate D2E/DX2                !
 ! A15   A(4,5,6)              103.4482         estimate D2E/DX2                !
 ! A16   A(4,5,14)             111.8265         estimate D2E/DX2                !
 ! A17   A(4,5,15)             110.8793         estimate D2E/DX2                !
 ! A18   A(6,5,14)             111.8883         estimate D2E/DX2                !
 ! A19   A(6,5,15)             109.0746         estimate D2E/DX2                !
 ! A20   A(14,5,15)            109.5807         estimate D2E/DX2                !
 ! A21   A(5,6,7)              110.1273         estimate D2E/DX2                !
 ! A22   A(5,6,8)              111.2876         estimate D2E/DX2                !
 ! A23   A(5,6,9)              104.0102         estimate D2E/DX2                !
 ! A24   A(7,6,8)              109.7068         estimate D2E/DX2                !
 ! A25   A(7,6,9)              110.1999         estimate D2E/DX2                !
 ! A26   A(8,6,9)              111.3952         estimate D2E/DX2                !
 ! A27   A(6,9,10)             108.1337         estimate D2E/DX2                !
 ! A28   A(6,9,16)             110.9024         estimate D2E/DX2                !
 ! A29   A(6,9,17)             109.8792         estimate D2E/DX2                !
 ! A30   A(10,9,16)            111.3164         estimate D2E/DX2                !
 ! A31   A(10,9,17)            108.3914         estimate D2E/DX2                !
 ! A32   A(16,9,17)            108.184          estimate D2E/DX2                !
 ! A33   A(4,10,9)             107.4385         estimate D2E/DX2                !
 ! A34   A(4,10,18)            108.7549         estimate D2E/DX2                !
 ! A35   A(4,10,19)            104.2759         estimate D2E/DX2                !
 ! A36   A(9,10,18)            108.8135         estimate D2E/DX2                !
 ! A37   A(9,10,19)            140.7639         estimate D2E/DX2                !
 ! A38   A(18,10,19)            81.5689         estimate D2E/DX2                !
 ! A39   A(1,19,10)             95.1399         estimate D2E/DX2                !
 ! A40   A(10,19,12)           105.1082         estimate D2E/DX2                !
 ! D1    D(11,1,2,3)             3.3092         estimate D2E/DX2                !
 ! D2    D(11,1,2,4)           179.086          estimate D2E/DX2                !
 ! D3    D(12,1,2,3)          -175.2067         estimate D2E/DX2                !
 ! D4    D(12,1,2,4)             0.5701         estimate D2E/DX2                !
 ! D5    D(19,1,2,3)           148.8272         estimate D2E/DX2                !
 ! D6    D(19,1,2,4)           -35.396          estimate D2E/DX2                !
 ! D7    D(2,1,19,10)           18.2983         estimate D2E/DX2                !
 ! D8    D(11,1,19,10)         158.8665         estimate D2E/DX2                !
 ! D9    D(1,2,4,5)            159.4554         estimate D2E/DX2                !
 ! D10   D(1,2,4,10)            39.4275         estimate D2E/DX2                !
 ! D11   D(1,2,4,13)           -80.669          estimate D2E/DX2                !
 ! D12   D(3,2,4,5)            -24.8168         estimate D2E/DX2                !
 ! D13   D(3,2,4,10)          -144.8447         estimate D2E/DX2                !
 ! D14   D(3,2,4,13)            95.0588         estimate D2E/DX2                !
 ! D15   D(2,4,5,6)           -151.2443         estimate D2E/DX2                !
 ! D16   D(2,4,5,14)            88.1799         estimate D2E/DX2                !
 ! D17   D(2,4,5,15)           -34.4465         estimate D2E/DX2                !
 ! D18   D(10,4,5,6)           -29.1836         estimate D2E/DX2                !
 ! D19   D(10,4,5,14)         -149.7594         estimate D2E/DX2                !
 ! D20   D(10,4,5,15)           87.6141         estimate D2E/DX2                !
 ! D21   D(13,4,5,6)            89.0992         estimate D2E/DX2                !
 ! D22   D(13,4,5,14)          -31.4767         estimate D2E/DX2                !
 ! D23   D(13,4,5,15)         -154.1031         estimate D2E/DX2                !
 ! D24   D(2,4,10,9)           139.1097         estimate D2E/DX2                !
 ! D25   D(2,4,10,18)         -103.2682         estimate D2E/DX2                !
 ! D26   D(2,4,10,19)          -17.4762         estimate D2E/DX2                !
 ! D27   D(5,4,10,9)            15.5607         estimate D2E/DX2                !
 ! D28   D(5,4,10,18)          133.1829         estimate D2E/DX2                !
 ! D29   D(5,4,10,19)         -141.0252         estimate D2E/DX2                !
 ! D30   D(13,4,10,9)         -101.8377         estimate D2E/DX2                !
 ! D31   D(13,4,10,18)          15.7845         estimate D2E/DX2                !
 ! D32   D(13,4,10,19)         101.5764         estimate D2E/DX2                !
 ! D33   D(4,5,6,7)            -87.3232         estimate D2E/DX2                !
 ! D34   D(4,5,6,8)            150.7906         estimate D2E/DX2                !
 ! D35   D(4,5,6,9)             30.7419         estimate D2E/DX2                !
 ! D36   D(14,5,6,7)            33.2106         estimate D2E/DX2                !
 ! D37   D(14,5,6,8)           -88.6755         estimate D2E/DX2                !
 ! D38   D(14,5,6,9)           151.2758         estimate D2E/DX2                !
 ! D39   D(15,5,6,7)           154.615          estimate D2E/DX2                !
 ! D40   D(15,5,6,8)            32.7288         estimate D2E/DX2                !
 ! D41   D(15,5,6,9)           -87.3199         estimate D2E/DX2                !
 ! D42   D(5,6,9,10)           -22.3631         estimate D2E/DX2                !
 ! D43   D(5,6,9,16)          -144.6759         estimate D2E/DX2                !
 ! D44   D(5,6,9,17)            95.7655         estimate D2E/DX2                !
 ! D45   D(7,6,9,10)            95.652          estimate D2E/DX2                !
 ! D46   D(7,6,9,16)           -26.6608         estimate D2E/DX2                !
 ! D47   D(7,6,9,17)          -146.2195         estimate D2E/DX2                !
 ! D48   D(8,6,9,10)          -142.339          estimate D2E/DX2                !
 ! D49   D(8,6,9,16)            95.3483         estimate D2E/DX2                !
 ! D50   D(8,6,9,17)           -24.2104         estimate D2E/DX2                !
 ! D51   D(6,9,10,4)             4.2463         estimate D2E/DX2                !
 ! D52   D(6,9,10,18)         -113.3377         estimate D2E/DX2                !
 ! D53   D(6,9,10,19)          146.7405         estimate D2E/DX2                !
 ! D54   D(16,9,10,4)          126.305          estimate D2E/DX2                !
 ! D55   D(16,9,10,18)           8.7211         estimate D2E/DX2                !
 ! D56   D(16,9,10,19)         -91.2007         estimate D2E/DX2                !
 ! D57   D(17,9,10,4)         -114.8291         estimate D2E/DX2                !
 ! D58   D(17,9,10,18)         127.5869         estimate D2E/DX2                !
 ! D59   D(17,9,10,19)          27.6651         estimate D2E/DX2                !
 ! D60   D(4,10,19,1)           -0.5077         estimate D2E/DX2                !
 ! D61   D(4,10,19,12)         -29.581          estimate D2E/DX2                !
 ! D62   D(9,10,19,1)         -143.6831         estimate D2E/DX2                !
 ! D63   D(9,10,19,12)        -172.7564         estimate D2E/DX2                !
 ! D64   D(18,10,19,1)         106.8102         estimate D2E/DX2                !
 ! D65   D(18,10,19,12)         77.737          estimate D2E/DX2                !
 --------------------------------------------------------------------------------
 Trust Radius=3.00D-01 FncErr=1.00D-07 GrdErr=1.00D-06 EigMax=2.50D+02 EigMin=1.00D-04
 Number of steps in this run=    114 maximum allowed number of steps=    114.
 GradGradGradGradGradGradGradGradGradGradGradGradGradGradGradGradGradGrad

 Leave Link  103 at Thu Aug  1 12:48:42 2024, MaxMem= 13421772800 cpu:               0.7 elap:               0.0
 (Enter /public/software/apps/Gaussian/g16/l202.exe)
                          Input orientation:                          
 ---------------------------------------------------------------------
 Center     Atomic      Atomic             Coordinates (Angstroms)
 Number     Number       Type             X           Y           Z
 ---------------------------------------------------------------------
      1          7           0        3.281118    0.838912    0.090408
      2          6           0        2.024816    1.518624    0.055347
      3          8           0        2.009253    2.779551    0.055435
      4          6           0        0.737205    0.741700   -0.077049
      5          6           0       -0.484449    1.526630    0.391841
      6          6           0       -1.432754    0.452037    0.861444
      7          9           0       -2.198333   -0.005148   -0.199299
      8          9           0       -2.261230    0.917710    1.868755
      9          6           0       -0.517165   -0.653403    1.362950
     10          7           0        0.790910   -0.488437    0.721820
     11          1           0        4.169565    1.382006    0.167761
     12          1           0        3.334449   -0.201003    0.016785
     13          1           0        0.598574    0.485688   -1.153356
     14          1           0       -0.922929    2.137336   -0.427478
     15          1           0       -0.226695    2.185730    1.251725
     16          1           0       -0.950095   -1.656270    1.147157
     17          1           0       -0.382656   -0.562979    2.462520
     18          1           0        0.957439   -1.299826    0.080154
     19         29           0        2.698635   -0.749714    1.078467
 ---------------------------------------------------------------------
                    Distance matrix (angstroms):
                    1          2          3          4          5
     1  N    0.000000
     2  C    1.428822   0.000000
     3  O    2.320548   1.261023   0.000000
     4  C    2.551271   1.509663   2.405929   0.000000
     5  C    3.839702   2.531739   2.810966   1.525913   0.000000
     6  C    4.792156   3.707046   4.232539   2.381889   1.508164
     7  F    5.551644   4.496856   5.052051   3.031519   2.373434
     8  F    5.821198   4.692519   4.999161   3.578791   2.389353
     9  C    4.274731   3.590152   4.458425   2.365027   2.386769
    10  N    2.891656   2.448470   3.550799   1.467758   2.407472
    11  H    1.044161   2.152034   2.575402   3.500146   4.661649
    12  H    1.043881   2.161884   3.262107   2.764628   4.208250
    13  H    2.977878   2.135904   2.951779   1.114988   2.155025
    14  H    4.430364   3.050430   3.040286   2.196963   1.111985
    15  H    3.932852   2.635461   2.604457   2.186313   1.113665
    16  H    5.024521   4.485766   5.442987   3.177408   3.304267
    17  H    4.584262   3.990423   4.763171   3.066869   2.943559
    18  H    3.158131   3.013896   4.212866   2.059380   3.188267
    19  Cu   1.959408   2.578015   3.738657   2.721533   3.973062
                    6          7          8          9         10
     6  C    0.000000
     7  F    1.385751   0.000000
     8  F    1.384882   2.265496   0.000000
     9  C    1.520463   2.384781   2.401249   0.000000
    10  N    2.418402   3.165060   3.550812   1.466057   0.000000
    11  H    5.721190   6.527561   6.668139   5.247552   3.901391
    12  H    4.885298   5.540463   5.999411   4.105089   2.655049
    13  H    2.861266   2.995636   4.183094   2.978959   2.121838
    14  H    2.182080   2.503789   2.924247   3.340434   3.339583
    15  H    2.147694   3.285236   2.475466   2.856120   2.909895
    16  H    2.181639   2.469260   2.977440   1.113435   2.139122
    17  H    2.167120   3.270037   2.464556   1.111451   2.100678
    18  H    3.064712   3.422453   4.298417   2.058612   1.047769
    19  Cu   4.308095   5.115404   5.291986   3.229795   1.958284
                   11         12         13         14         15
    11  H    0.000000
    12  H    1.796143   0.000000
    13  H    3.911613   3.053815   0.000000
    14  H    5.182502   4.877547   2.360045   0.000000
    15  H    4.598701   4.461313   3.058697   1.818463   0.000000
    16  H    6.033345   4.663996   3.504100   4.107513   3.910909
    17  H    5.456336   4.464249   3.890639   3.991952   3.007615
    18  H    4.185409   2.619466   2.199634   3.950640   3.863140
    19  Cu   2.745405   1.353703   3.304165   4.870180   4.147819
                   16         17         18         19
    16  H    0.000000
    17  H    1.802069   0.000000
    18  H    2.214550   2.830983   0.000000
    19  Cu   3.760292   3.383020   2.081109   0.000000
 Symmetry turned off by external request.
 Stoichiometry    C5H8CuF2N2O(2+,2)
 Framework group  C1[X(C5H8CuF2N2O)]
 Deg. of freedom    51
 Full point group                 C1      NOp   1
 Rotational constants (GHZ):           1.4995328           0.5600817           0.4554699
 Leave Link  202 at Thu Aug  1 12:48:43 2024, MaxMem= 13421772800 cpu:               1.1 elap:               0.0
 (Enter /public/software/apps/Gaussian/g16/l301.exe)
 Standard basis: def2SVPP (5D, 7F)
 Ernie: Thresh=  0.10000D-02 Tol=  0.10000D-05 Strict=F.
   180 basis functions,   353 primitive gaussians,   192 cartesian basis functions
    53 alpha electrons       52 beta electrons
       nuclear repulsion energy       955.1898703584 Hartrees.
 IExCor=  402 DFT=T Ex+Corr=B3LYP ExCW=0 ScaHFX=  0.200000
 ScaDFX=  0.800000  0.720000  1.000000  0.810000 ScalE2=  1.000000  1.000000
 IRadAn=      5 IRanWt=     -1 IRanGd=            0 ICorTp=0 IEmpDi=141
 NAtoms=   19 NActive=   19 NUniq=   19 SFac= 1.00D+00 NAtFMM=   60 NAOKFM=F Big=F
 Integral buffers will be    131072 words long.
 Raffenetti 2 integral format.
 Two-electron integral symmetry is turned off.
 R6Disp:  Grimme-D3(BJ) Dispersion energy=       -0.0374924089 Hartrees.
 Nuclear repulsion after empirical dispersion term =      955.1523779496 Hartrees.
 Leave Link  301 at Thu Aug  1 12:48:43 2024, MaxMem= 13421772800 cpu:               1.1 elap:               0.0
 (Enter /public/software/apps/Gaussian/g16/l302.exe)
 NPDir=0 NMtPBC=     1 NCelOv=     1 NCel=       1 NClECP=     1 NCelD=      1
         NCelK=      1 NCelE2=     1 NClLst=     1 CellRange=     0.0.
 One-electron integrals computed using PRISM.
   1 Symmetry operations used in ECPInt.
 ECPInt:  NShTT=    3741 NPrTT=   16484 LenC2=    3629 LenP2D=   11853.
 LDataN:  DoStor=T MaxTD1= 4 Len=   56
 NBasis=   180 RedAO= T EigKep=  7.35D-04  NBF=   180
 NBsUse=   180 1.00D-06 EigRej= -1.00D+00 NBFU=   180
 Precomputing XC quadrature grid using
 IXCGrd= 4 IRadAn=           5 IRanWt=          -1 IRanGd=           0 AccXCQ= 0.00D+00.
 Generated NRdTot=       0 NPtTot=           0 NUsed=           0 NTot=          32
 NSgBfM=   191   191   191   191   191 MxSgAt=    19 MxSgA2=    19.
 Leave Link  302 at Thu Aug  1 12:48:43 2024, MaxMem= 13421772800 cpu:               3.8 elap:               0.1
 (Enter /public/software/apps/Gaussian/g16/l303.exe)
 DipDrv:  MaxL=1.
 Leave Link  303 at Thu Aug  1 12:48:43 2024, MaxMem= 13421772800 cpu:               1.5 elap:               0.1
 (Enter /public/software/apps/Gaussian/g16/l401.exe)
 ExpMin= 3.30D-02 ExpMax= 7.64D+04 ExpMxC= 1.15D+04 IAcc=3 IRadAn=         5 AccDes= 0.00D+00
 Harris functional with IExCor=  402 and IRadAn=       5 diagonalized for initial guess.
 HarFok:  IExCor=  402 AccDes= 0.00D+00 IRadAn=         5 IDoV= 1 UseB2=F ITyADJ=14
 ICtDFT=  3500011 ScaDFX=  1.000000  1.000000  1.000000  1.000000
 FoFCou: FMM=F IPFlag=           0 FMFlag=      100000 FMFlg1=           0
         NFxFlg=           0 DoJE=T BraDBF=F KetDBF=T FulRan=T
         wScrn=  0.000000 ICntrl=       500 IOpCl=  0 I1Cent=   200000004 NGrid=           0
         NMat0=    1 NMatS0=      1 NMatT0=    0 NMatD0=    1 NMtDS0=    0 NMtDT0=    0
 Symmetry not used in FoFCou.
 Harris En= -2219.23728669029    
 JPrj=0 DoOrth=F DoCkMO=F.
 Initial guess <Sx>= 0.0000 <Sy>= 0.0000 <Sz>= 0.5000 <S**2>= 0.7500 S= 0.5000
 Leave Link  401 at Thu Aug  1 12:48:43 2024, MaxMem= 13421772800 cpu:               8.9 elap:               0.3
 (Enter /public/software/apps/Gaussian/g16/l502.exe)
 Two-electron integral symmetry not used.
 UHF open shell SCF:
 Using DIIS extrapolation, IDIIS=  1040.
 NGot= 13421772800 LenX= 13421690776 LenY= 13421653471
 Requested convergence on RMS density matrix=1.00D-08 within 128 cycles.
 Requested convergence on MAX density matrix=1.00D-06.
 Requested convergence on             energy=1.00D-06.
 No special actions if energy rises.
 Fock matrices will be formed incrementally for  20 cycles.

 Cycle   1  Pass 1  IDiag  1:
 FoFJK:  IHMeth= 1 ICntrl=       0 DoSepK=F KAlg= 0 I1Cent=           0 FoldK=F
 IRaf= 940000000 NMat=       1 IRICut=       1 DoRegI=T DoRafI=F ISym2E= 0 IDoP0=0 IntGTp=1.
 FoFCou: FMM=F IPFlag=           0 FMFlag=      100000 FMFlg1=           0
         NFxFlg=           0 DoJE=F BraDBF=F KetDBF=F FulRan=T
         wScrn=  0.000000 ICntrl=         0 IOpCl=  1 I1Cent=           0 NGrid=           0
         NMat0=    1 NMatS0=      1 NMatT0=    0 NMatD0=    1 NMtDS0=    0 NMtDT0=    0
 Symmetry not used in FoFCou.
 E= -2217.02302875460    
 DIIS: error= 1.24D-01 at cycle   1 NSaved=   1.
 NSaved= 1 IEnMin= 1 EnMin= -2217.02302875460     IErMin= 1 ErrMin= 1.24D-01
 ErrMax= 1.24D-01  0.00D+00 EMaxC= 1.00D-01 BMatC= 1.16D+01 BMatP= 1.16D+01
 IDIUse=3 WtCom= 0.00D+00 WtEn= 1.00D+00
 Coeff-Com:  0.100D+01
 Coeff-En:   0.100D+01
 Coeff:      0.100D+01
 Gap=     1.111 Goal=   None    Shift=    0.000
 Gap=     0.262 Goal=   None    Shift=    0.000
 GapD=    0.262 DampG=1.000 DampE=0.125 DampFc=0.1250 IDamp=-1.
 Damping current iteration by 1.25D-01
 RMSDP=2.73D-02 MaxDP=2.33D+00              OVMax= 9.50D-01

 Cycle   2  Pass 1  IDiag  1:
 RMSU=  3.40D-03    CP:  9.94D-01
 E= -2217.54049738902     Delta-E=       -0.517468634424 Rises=F Damp=T
 DIIS: error= 7.85D-02 at cycle   2 NSaved=   2.
 NSaved= 2 IEnMin= 2 EnMin= -2217.54049738902     IErMin= 2 ErrMin= 7.85D-02
 ErrMax= 7.85D-02  0.00D+00 EMaxC= 1.00D-01 BMatC= 4.49D+00 BMatP= 1.16D+01
 IDIUse=3 WtCom= 2.15D-01 WtEn= 7.85D-01
 Coeff-Com: -0.134D+01 0.234D+01
 Coeff-En:   0.000D+00 0.100D+01
 Coeff:     -0.288D+00 0.129D+01
 Gap=    -0.012 Goal=   None    Shift=    0.000
 Gap=     0.002 Goal=   None    Shift=    0.000
 RMSDP=1.08D-02 MaxDP=6.00D-01 DE=-5.17D-01 OVMax= 7.70D-01

 Cycle   3  Pass 1  IDiag  1:
 RMSU=  9.87D-03    CP:  9.60D-01  2.23D+00
 E= -2217.06821020115     Delta-E=        0.472287187875 Rises=F Damp=F
 DIIS: error= 9.28D-02 at cycle   3 NSaved=   3.
 NSaved= 3 IEnMin= 2 EnMin= -2217.54049738902     IErMin= 2 ErrMin= 7.85D-02
 ErrMax= 9.28D-02  0.00D+00 EMaxC= 1.00D-01 BMatC= 8.56D+00 BMatP= 4.49D+00
 IDIUse=2 WtCom= 0.00D+00 WtEn= 1.00D+00
 EnCoef did     7 forward-backward iterations
 Coeff-En:   0.493D+00 0.335D-02 0.504D+00
 Coeff:      0.493D+00 0.335D-02 0.504D+00
 Gap=     0.194 Goal=   None    Shift=    0.000
 Gap=     0.051 Goal=   None    Shift=    0.000
 RMSDP=1.30D-02 MaxDP=6.46D-01 DE= 4.72D-01 OVMax= 9.58D-01

 Cycle   4  Pass 1  IDiag  1:
 RMSU=  1.04D-02    CP:  9.52D-01  2.87D+00  2.42D-01
 E= -2213.97030267901     Delta-E=        3.097907522142 Rises=F Damp=F
 DIIS: error= 1.51D-01 at cycle   4 NSaved=   4.
 NSaved= 4 IEnMin= 2 EnMin= -2217.54049738902     IErMin= 2 ErrMin= 7.85D-02
 ErrMax= 1.51D-01  0.00D+00 EMaxC= 1.00D-01 BMatC= 1.09D+01 BMatP= 4.49D+00
 IDIUse=2 WtCom= 0.00D+00 WtEn= 1.00D+00
 EnCoef did   100 forward-backward iterations
 Coeff-En:   0.456D+00 0.270D-02 0.409D+00 0.132D+00
 Coeff:      0.456D+00 0.270D-02 0.409D+00 0.132D+00
 Gap=     0.345 Goal=   None    Shift=    0.000
 Gap=    -0.093 Goal=   None    Shift=    0.000
 RMSDP=1.18D-02 MaxDP=1.20D+00 DE= 3.10D+00 OVMax= 9.65D-01

 Cycle   5  Pass 1  IDiag  1:
 RMSU=  5.52D-03    CP:  9.59D-01  1.05D+00  5.72D-01  2.62D-01
 E= -2218.59707050274     Delta-E=       -4.626767823729 Rises=F Damp=F
 DIIS: error= 4.05D-02 at cycle   5 NSaved=   5.
 NSaved= 5 IEnMin= 5 EnMin= -2218.59707050274     IErMin= 5 ErrMin= 4.05D-02
 ErrMax= 4.05D-02  0.00D+00 EMaxC= 1.00D-01 BMatC= 1.14D+00 BMatP= 4.49D+00
 IDIUse=3 WtCom= 5.95D-01 WtEn= 4.05D-01
 EnCoef did   100 forward-backward iterations
 Coeff-Com: -0.301D+00 0.772D+00 0.152D+00-0.959D-01 0.473D+00
 Coeff-En:   0.181D+00 0.188D-02 0.000D+00 0.000D+00 0.817D+00
 Coeff:     -0.106D+00 0.460D+00 0.905D-01-0.571D-01 0.612D+00
 Gap=     0.382 Goal=   None    Shift=    0.000
 Gap=     0.008 Goal=   None    Shift=    0.000
 RMSDP=6.15D-03 MaxDP=4.31D-01 DE=-4.63D+00 OVMax= 6.37D-01

 Cycle   6  Pass 1  IDiag  1:
 RMSU=  3.87D-03    CP:  9.60D-01  8.68D-01  6.75D-01  3.82D-02  2.76D-01
 E= -2218.50455880771     Delta-E=        0.092511695026 Rises=F Damp=F
 DIIS: error= 5.21D-02 at cycle   6 NSaved=   6.
 NSaved= 6 IEnMin= 5 EnMin= -2218.59707050274     IErMin= 5 ErrMin= 4.05D-02
 ErrMax= 5.21D-02  0.00D+00 EMaxC= 1.00D-01 BMatC= 1.34D+00 BMatP= 1.14D+00
 IDIUse=2 WtCom= 0.00D+00 WtEn= 1.00D+00
 EnCoef did     5 forward-backward iterations
 Coeff-En:   0.751D-01 0.000D+00 0.000D+00 0.000D+00 0.547D+00 0.378D+00
 Coeff:      0.751D-01 0.000D+00 0.000D+00 0.000D+00 0.547D+00 0.378D+00
 Gap=     0.259 Goal=   None    Shift=    0.000
 Gap=    -0.010 Goal=   None    Shift=    0.000
 RMSDP=5.50D-03 MaxDP=3.92D-01 DE= 9.25D-02 OVMax= 9.16D-01

 Cycle   7  Pass 1  IDiag  1:
 RMSU=  3.27D-03    CP:  9.76D-01  3.71D-01  3.51D-01  7.17D-02  3.65D-01
                    CP:  3.84D-01
 E= -2218.38645201982     Delta-E=        0.118106787892 Rises=F Damp=F
 DIIS: error= 6.05D-02 at cycle   7 NSaved=   7.
 NSaved= 7 IEnMin= 5 EnMin= -2218.59707050274     IErMin= 5 ErrMin= 4.05D-02
 ErrMax= 6.05D-02  0.00D+00 EMaxC= 1.00D-01 BMatC= 2.66D+00 BMatP= 1.14D+00
 IDIUse=2 WtCom= 0.00D+00 WtEn= 1.00D+00
 EnCoef did     1 forward-backward iterations
 Coeff-En:   0.000D+00 0.000D+00 0.000D+00 0.000D+00 0.488D+00 0.263D+00
 Coeff-En:   0.250D+00
 Coeff:      0.000D+00 0.000D+00 0.000D+00 0.000D+00 0.488D+00 0.263D+00
 Coeff:      0.250D+00
 Gap=     0.243 Goal=   None    Shift=    0.000
 Gap=     0.055 Goal=   None    Shift=    0.000
 RMSDP=4.11D-03 MaxDP=3.24D-01 DE= 1.18D-01 OVMax= 5.71D-01

 Cycle   8  Pass 1  IDiag  1:
 RMSU=  2.40D-03    CP:  9.64D-01  7.25D-01  5.01D-01  1.62D-01  7.14D-01
                    CP:  4.27D-01  4.95D-01
 E= -2218.84640377922     Delta-E=       -0.459951759406 Rises=F Damp=F
 DIIS: error= 3.17D-03 at cycle   8 NSaved=   8.
 NSaved= 8 IEnMin= 8 EnMin= -2218.84640377922     IErMin= 8 ErrMin= 3.17D-03
 ErrMax= 3.17D-03  0.00D+00 EMaxC= 1.00D-01 BMatC= 1.63D-02 BMatP= 1.14D+00
 IDIUse=3 WtCom= 9.68D-01 WtEn= 3.17D-02
 Coeff-Com: -0.837D-01 0.115D+00-0.140D-02-0.310D-02 0.895D-01 0.839D-01
 Coeff-Com:  0.354D-01 0.764D+00
 Coeff-En:   0.000D+00 0.000D+00 0.000D+00 0.000D+00 0.000D+00 0.000D+00
 Coeff-En:   0.000D+00 0.100D+01
 Coeff:     -0.810D-01 0.111D+00-0.135D-02-0.300D-02 0.867D-01 0.812D-01
 Coeff:      0.343D-01 0.772D+00
 Gap=     0.202 Goal=   None    Shift=    0.000
 Gap=     0.030 Goal=   None    Shift=    0.000
 RMSDP=7.53D-04 MaxDP=2.87D-02 DE=-4.60D-01 OVMax= 5.46D-02

 Cycle   9  Pass 1  IDiag  1:
 RMSU=  6.17D-04    CP:  9.65D-01  7.34D-01  5.19D-01  1.52D-01  6.91D-01
                    CP:  4.88D-01  5.74D-01  1.02D+00
 E= -2218.84746600846     Delta-E=       -0.001062229237 Rises=F Damp=F
 DIIS: error= 2.82D-03 at cycle   9 NSaved=   9.
 NSaved= 9 IEnMin= 9 EnMin= -2218.84746600846     IErMin= 9 ErrMin= 2.82D-03
 ErrMax= 2.82D-03  0.00D+00 EMaxC= 1.00D-01 BMatC= 1.05D-02 BMatP= 1.63D-02
 IDIUse=3 WtCom= 9.72D-01 WtEn= 2.82D-02
 Coeff-Com: -0.565D-01 0.939D-01-0.950D-02-0.800D-03 0.235D-01 0.335D-01
 Coeff-Com: -0.143D-01 0.407D+00 0.523D+00
 Coeff-En:   0.000D+00 0.000D+00 0.000D+00 0.000D+00 0.000D+00 0.000D+00
 Coeff-En:   0.000D+00 0.389D+00 0.611D+00
 Coeff:     -0.549D-01 0.913D-01-0.923D-02-0.777D-03 0.228D-01 0.326D-01
 Coeff:     -0.139D-01 0.407D+00 0.526D+00
 Gap=     0.190 Goal=   None    Shift=    0.000
 Gap=     0.036 Goal=   None    Shift=    0.000
 RMSDP=3.70D-04 MaxDP=1.22D-02 DE=-1.06D-03 OVMax= 2.76D-02

 Cycle  10  Pass 1  IDiag  1:
 RMSU=  2.87D-04    CP:  9.64D-01  7.54D-01  5.21D-01  1.59D-01  7.06D-01
                    CP:  4.73D-01  5.34D-01  1.04D+00  8.16D-01
 E= -2218.84931182483     Delta-E=       -0.001845816368 Rises=F Damp=F
 DIIS: error= 2.84D-03 at cycle  10 NSaved=  10.
 NSaved=10 IEnMin=10 EnMin= -2218.84931182483     IErMin= 9 ErrMin= 2.82D-03
 ErrMax= 2.84D-03  0.00D+00 EMaxC= 1.00D-01 BMatC= 7.71D-03 BMatP= 1.05D-02
 IDIUse=3 WtCom= 9.72D-01 WtEn= 2.82D-02
 Coeff-Com: -0.603D-01 0.983D-01-0.181D-01-0.669D-03 0.187D-01 0.289D-01
 Coeff-Com:  0.993D-02 0.784D-01 0.272D+00 0.573D+00
 Coeff-En:   0.000D+00 0.000D+00 0.000D+00 0.000D+00 0.000D+00 0.000D+00
 Coeff-En:   0.000D+00 0.227D-01 0.000D+00 0.977D+00
 Coeff:     -0.586D-01 0.955D-01-0.176D-01-0.650D-03 0.182D-01 0.281D-01
 Coeff:      0.965D-02 0.769D-01 0.264D+00 0.584D+00
 Gap=     0.190 Goal=   None    Shift=    0.000
 Gap=     0.037 Goal=   None    Shift=    0.000
 RMSDP=1.27D-04 MaxDP=3.78D-03 DE=-1.85D-03 OVMax= 9.67D-03

 Cycle  11  Pass 1  IDiag  1:
 RMSU=  9.37D-05    CP:  9.64D-01  7.58D-01  5.22D-01  1.61D-01  7.12D-01
                    CP:  4.67D-01  5.32D-01  1.04D+00  9.21D-01  1.12D+00
 E= -2218.84952939412     Delta-E=       -0.000217569295 Rises=F Damp=F
 DIIS: error= 3.18D-03 at cycle  11 NSaved=  11.
 NSaved=11 IEnMin=11 EnMin= -2218.84952939412     IErMin= 9 ErrMin= 2.82D-03
 ErrMax= 3.18D-03  0.00D+00 EMaxC= 1.00D-01 BMatC= 7.87D-03 BMatP= 7.71D-03
 IDIUse=3 WtCom= 9.72D-01 WtEn= 2.82D-02
 Coeff-Com: -0.552D-01 0.857D-01-0.185D-01-0.668D-04 0.114D-01 0.245D-01
 Coeff-Com:  0.253D-01 0.147D-01 0.123D+00 0.151D+00 0.638D+00
 Coeff-En:   0.000D+00 0.000D+00 0.000D+00 0.000D+00 0.000D+00 0.000D+00
 Coeff-En:   0.000D+00 0.203D-01 0.000D+00 0.000D+00 0.980D+00
 Coeff:     -0.536D-01 0.833D-01-0.180D-01-0.649D-04 0.110D-01 0.238D-01
 Coeff:      0.246D-01 0.148D-01 0.119D+00 0.147D+00 0.648D+00
 Gap=     0.188 Goal=   None    Shift=    0.000
 Gap=     0.038 Goal=   None    Shift=    0.000
 RMSDP=7.82D-05 MaxDP=2.27D-03 DE=-2.18D-04 OVMax= 8.38D-03

 Cycle  12  Pass 1  IDiag  1:
 RMSU=  5.24D-05    CP:  9.64D-01  7.57D-01  5.20D-01  1.61D-01  7.13D-01
                    CP:  4.67D-01  5.38D-01  1.04D+00  9.53D-01  1.28D+00
                    CP:  1.12D+00
 E= -2218.84982756010     Delta-E=       -0.000298165976 Rises=F Damp=F
 DIIS: error= 2.80D-03 at cycle  12 NSaved=  12.
 NSaved=12 IEnMin=12 EnMin= -2218.84982756010     IErMin=12 ErrMin= 2.80D-03
 ErrMax= 2.80D-03  0.00D+00 EMaxC= 1.00D-01 BMatC= 6.07D-03 BMatP= 7.71D-03
 IDIUse=3 WtCom= 9.72D-01 WtEn= 2.80D-02
 Coeff-Com: -0.197D-01 0.249D-01-0.622D-02 0.197D-03-0.778D-02 0.298D-02
 Coeff-Com:  0.277D-01 0.117D+00 0.367D-02-0.109D+01-0.279D+00 0.223D+01
 Coeff-En:   0.000D+00 0.000D+00 0.000D+00 0.000D+00 0.000D+00 0.000D+00
 Coeff-En:   0.000D+00 0.000D+00 0.000D+00 0.000D+00 0.000D+00 0.100D+01
 Coeff:     -0.191D-01 0.242D-01-0.604D-02 0.192D-03-0.756D-02 0.289D-02
 Coeff:      0.270D-01 0.114D+00 0.357D-02-0.106D+01-0.271D+00 0.219D+01
 Gap=     0.186 Goal=   None    Shift=    0.000
 Gap=     0.041 Goal=   None    Shift=    0.000
 RMSDP=3.03D-04 MaxDP=1.03D-02 DE=-2.98D-04 OVMax= 4.33D-02

 Cycle  13  Pass 1  IDiag  1:
 RMSU=  1.58D-04    CP:  9.64D-01  7.57D-01  5.13D-01  1.66D-01  7.31D-01
                    CP:  4.41D-01  5.28D-01  1.03D+00  9.64D-01  1.48D+00
                    CP:  2.77D+00  2.85D+00
 E= -2218.85055597951     Delta-E=       -0.000728419407 Rises=F Damp=F
 DIIS: error= 1.28D-03 at cycle  13 NSaved=  13.
 NSaved=13 IEnMin=13 EnMin= -2218.85055597951     IErMin=13 ErrMin= 1.28D-03
 ErrMax= 1.28D-03  0.00D+00 EMaxC= 1.00D-01 BMatC= 1.84D-03 BMatP= 6.07D-03
 IDIUse=3 WtCom= 9.87D-01 WtEn= 1.28D-02
 Coeff-Com: -0.481D-02 0.538D-02-0.110D-02 0.350D-03-0.165D-01 0.419D-03
 Coeff-Com:  0.113D-01 0.117D+00 0.507D-01-0.546D+00-0.582D+00 0.142D+01
 Coeff-Com:  0.540D+00
 Coeff-En:   0.000D+00 0.000D+00 0.000D+00 0.000D+00 0.000D+00 0.000D+00
 Coeff-En:   0.000D+00 0.000D+00 0.000D+00 0.000D+00 0.000D+00 0.000D+00
 Coeff-En:   0.100D+01
 Coeff:     -0.475D-02 0.531D-02-0.109D-02 0.346D-03-0.163D-01 0.414D-03
 Coeff:      0.111D-01 0.115D+00 0.501D-01-0.539D+00-0.574D+00 0.141D+01
 Coeff:      0.546D+00
 Gap=     0.186 Goal=   None    Shift=    0.000
 Gap=     0.041 Goal=   None    Shift=    0.000
 RMSDP=8.66D-05 MaxDP=1.58D-03 DE=-7.28D-04 OVMax= 6.02D-03

 Cycle  14  Pass 1  IDiag  1:
 RMSU=  6.74D-05    CP:  9.65D-01  7.51D-01  5.10D-01  1.65D-01  7.28D-01
                    CP:  4.44D-01  5.29D-01  1.03D+00  9.51D-01  1.48D+00
                    CP:  2.80D+00  3.00D+00  1.18D+00
 E= -2218.85080281041     Delta-E=       -0.000246830904 Rises=F Damp=F
 DIIS: error= 8.57D-04 at cycle  14 NSaved=  14.
 NSaved=14 IEnMin=14 EnMin= -2218.85080281041     IErMin=14 ErrMin= 8.57D-04
 ErrMax= 8.57D-04  0.00D+00 EMaxC= 1.00D-01 BMatC= 5.87D-04 BMatP= 1.84D-03
 IDIUse=3 WtCom= 9.91D-01 WtEn= 8.57D-03
 Coeff-Com: -0.378D-02 0.626D-02-0.110D-02 0.203D-03-0.125D-01 0.369D-02
 Coeff-Com:  0.334D-02 0.203D-01 0.540D-01 0.130D+00-0.220D+00 0.105D+00
 Coeff-Com:  0.661D-01 0.849D+00
 Coeff-En:   0.000D+00 0.000D+00 0.000D+00 0.000D+00 0.000D+00 0.000D+00
 Coeff-En:   0.000D+00 0.000D+00 0.000D+00 0.000D+00 0.000D+00 0.000D+00
 Coeff-En:   0.000D+00 0.100D+01
 Coeff:     -0.374D-02 0.620D-02-0.109D-02 0.201D-03-0.124D-01 0.366D-02
 Coeff:      0.331D-02 0.201D-01 0.535D-01 0.129D+00-0.218D+00 0.104D+00
 Coeff:      0.655D-01 0.850D+00
 Gap=     0.186 Goal=   None    Shift=    0.000
 Gap=     0.041 Goal=   None    Shift=    0.000
 RMSDP=7.06D-05 MaxDP=2.28D-03 DE=-2.47D-04 OVMax= 7.47D-03

 Cycle  15  Pass 1  IDiag  1:
 RMSU=  3.36D-05    CP:  9.65D-01  7.49D-01  5.10D-01  1.64D-01  7.28D-01
                    CP:  4.45D-01  5.24D-01  1.04D+00  9.26D-01  1.45D+00
                    CP:  2.68D+00  3.00D+00  1.47D+00  1.42D+00
 E= -2218.85087414717     Delta-E=       -0.000071336760 Rises=F Damp=F
 DIIS: error= 5.41D-04 at cycle  15 NSaved=  15.
 NSaved=15 IEnMin=15 EnMin= -2218.85087414717     IErMin=15 ErrMin= 5.41D-04
 ErrMax= 5.41D-04  0.00D+00 EMaxC= 1.00D-01 BMatC= 3.25D-04 BMatP= 5.87D-04
 IDIUse=3 WtCom= 9.95D-01 WtEn= 5.41D-03
 Coeff-Com: -0.592D-02 0.894D-02 0.479D-04-0.676D-04-0.700D-02 0.365D-02
 Coeff-Com:  0.215D-02-0.389D-01 0.251D-01 0.295D+00 0.223D-01-0.430D+00
 Coeff-Com: -0.324D+00 0.325D+00 0.112D+01
 Coeff-En:   0.000D+00 0.000D+00 0.000D+00 0.000D+00 0.000D+00 0.000D+00
 Coeff-En:   0.000D+00 0.000D+00 0.000D+00 0.000D+00 0.000D+00 0.000D+00
 Coeff-En:   0.000D+00 0.000D+00 0.100D+01
 Coeff:     -0.589D-02 0.889D-02 0.476D-04-0.672D-04-0.696D-02 0.363D-02
 Coeff:      0.214D-02-0.387D-01 0.250D-01 0.294D+00 0.222D-01-0.428D+00
 Coeff:     -0.323D+00 0.323D+00 0.112D+01
 Gap=     0.185 Goal=   None    Shift=    0.000
 Gap=     0.041 Goal=   None    Shift=    0.000
 RMSDP=8.26D-05 MaxDP=2.33D-03 DE=-7.13D-05 OVMax= 8.55D-03

 Cycle  16  Pass 1  IDiag  1:
 RMSU=  1.97D-05    CP:  9.65D-01  7.46D-01  5.09D-01  1.63D-01  7.26D-01
                    CP:  4.47D-01  5.23D-01  1.04D+00  9.15D-01  1.47D+00
                    CP:  2.65D+00  3.00D+00  1.80D+00  2.16D+00  1.74D+00
 E= -2218.85093644909     Delta-E=       -0.000062301925 Rises=F Damp=F
 DIIS: error= 3.01D-04 at cycle  16 NSaved=  16.
 NSaved=16 IEnMin=16 EnMin= -2218.85093644909     IErMin=16 ErrMin= 3.01D-04
 ErrMax= 3.01D-04  0.00D+00 EMaxC= 1.00D-01 BMatC= 7.27D-05 BMatP= 3.25D-04
 IDIUse=3 WtCom= 9.97D-01 WtEn= 3.01D-03
 Coeff-Com: -0.198D-02 0.321D-02-0.163D-03-0.463D-04-0.985D-03 0.224D-02
 Coeff-Com: -0.127D-03-0.178D-01-0.197D-02 0.312D-03-0.512D-01-0.399D-01
 Coeff-Com: -0.131D+00-0.134D+00 0.328D+00 0.105D+01
 Coeff-En:   0.000D+00 0.000D+00 0.000D+00 0.000D+00 0.000D+00 0.000D+00
 Coeff-En:   0.000D+00 0.000D+00 0.000D+00 0.000D+00 0.000D+00 0.000D+00
 Coeff-En:   0.000D+00 0.000D+00 0.000D+00 0.100D+01
 Coeff:     -0.198D-02 0.320D-02-0.163D-03-0.462D-04-0.982D-03 0.223D-02
 Coeff:     -0.126D-03-0.177D-01-0.197D-02 0.311D-03-0.510D-01-0.398D-01
 Coeff:     -0.131D+00-0.134D+00 0.327D+00 0.105D+01
 Gap=     0.184 Goal=   None    Shift=    0.000
 Gap=     0.041 Goal=   None    Shift=    0.000
 RMSDP=6.88D-05 MaxDP=1.72D-03 DE=-6.23D-05 OVMax= 9.54D-03

 Cycle  17  Pass 1  IDiag  1:
 RMSU=  1.83D-05    CP:  9.65D-01  7.45D-01  5.08D-01  1.63D-01  7.27D-01
                    CP:  4.46D-01  5.19D-01  1.04D+00  9.21D-01  1.52D+00
                    CP:  2.80D+00  3.00D+00  2.08D+00  2.71D+00  2.11D+00
                    CP:  1.53D+00
 E= -2218.85095280381     Delta-E=       -0.000016354716 Rises=F Damp=F
 DIIS: error= 7.86D-05 at cycle  17 NSaved=  17.
 NSaved=17 IEnMin=17 EnMin= -2218.85095280381     IErMin=17 ErrMin= 7.86D-05
 ErrMax= 7.86D-05  0.00D+00 EMaxC= 1.00D-01 BMatC= 4.95D-06 BMatP= 7.27D-05
 IDIUse=1 WtCom= 1.00D+00 WtEn= 0.00D+00
 Coeff-Com: -0.489D-03 0.783D-03-0.522D-04 0.119D-05-0.421D-03 0.569D-03
 Coeff-Com: -0.273D-04 0.238D-02 0.191D-02-0.164D-01-0.421D-01 0.287D-01
 Coeff-Com:  0.159D-01 0.730D-02-0.105D+00 0.248D+00 0.858D+00
 Coeff:     -0.489D-03 0.783D-03-0.522D-04 0.119D-05-0.421D-03 0.569D-03
 Coeff:     -0.273D-04 0.238D-02 0.191D-02-0.164D-01-0.421D-01 0.287D-01
 Coeff:      0.159D-01 0.730D-02-0.105D+00 0.248D+00 0.858D+00
 Gap=     0.184 Goal=   None    Shift=    0.000
 Gap=     0.041 Goal=   None    Shift=    0.000
 RMSDP=1.44D-05 MaxDP=6.20D-04 DE=-1.64D-05 OVMax= 2.45D-03

 Cycle  18  Pass 1  IDiag  1:
 RMSU=  4.30D-06    CP:  9.65D-01  7.45D-01  5.07D-01  1.63D-01  7.27D-01
                    CP:  4.45D-01  5.18D-01  1.04D+00  9.18D-01  1.52D+00
                    CP:  2.83D+00  3.00D+00  2.14D+00  2.79D+00  2.16D+00
                    CP:  1.71D+00  1.18D+00
 E= -2218.85095358450     Delta-E=       -0.000000780687 Rises=F Damp=F
 DIIS: error= 4.84D-05 at cycle  18 NSaved=  18.
 NSaved=18 IEnMin=18 EnMin= -2218.85095358450     IErMin=18 ErrMin= 4.84D-05
 ErrMax= 4.84D-05  0.00D+00 EMaxC= 1.00D-01 BMatC= 2.38D-06 BMatP= 4.95D-06
 IDIUse=1 WtCom= 1.00D+00 WtEn= 0.00D+00
 Coeff-Com: -0.232D-03 0.331D-03 0.481D-05 0.590D-05-0.387D-03 0.518D-04
 Coeff-Com:  0.958D-04 0.337D-02 0.268D-02 0.448D-02-0.494D-02-0.347D-02
 Coeff-Com:  0.205D-01 0.229D-01-0.106D+00-0.415D-01 0.347D+00 0.755D+00
 Coeff:     -0.232D-03 0.331D-03 0.481D-05 0.590D-05-0.387D-03 0.518D-04
 Coeff:      0.958D-04 0.337D-02 0.268D-02 0.448D-02-0.494D-02-0.347D-02
 Coeff:      0.205D-01 0.229D-01-0.106D+00-0.415D-01 0.347D+00 0.755D+00
 Gap=     0.184 Goal=   None    Shift=    0.000
 Gap=     0.041 Goal=   None    Shift=    0.000
 RMSDP=9.08D-06 MaxDP=3.21D-04 DE=-7.81D-07 OVMax= 1.20D-03

 Cycle  19  Pass 1  IDiag  1:
 RMSU=  2.73D-06    CP:  9.65D-01  7.45D-01  5.07D-01  1.63D-01  7.27D-01
                    CP:  4.45D-01  5.18D-01  1.04D+00  9.15D-01  1.52D+00
                    CP:  2.82D+00  3.00D+00  2.17D+00  2.86D+00  2.24D+00
                    CP:  1.81D+00  1.25D+00  1.44D+00
 E= -2218.85095416799     Delta-E=       -0.000000583494 Rises=F Damp=F
 DIIS: error= 2.69D-05 at cycle  19 NSaved=  19.
 NSaved=19 IEnMin=19 EnMin= -2218.85095416799     IErMin=19 ErrMin= 2.69D-05
 ErrMax= 2.69D-05  0.00D+00 EMaxC= 1.00D-01 BMatC= 7.29D-07 BMatP= 2.38D-06
 IDIUse=1 WtCom= 1.00D+00 WtEn= 0.00D+00
 Coeff-Com: -0.823D-04 0.116D-03-0.182D-04 0.505D-05-0.256D-03-0.162D-04
 Coeff-Com:  0.919D-04 0.892D-03 0.180D-02 0.874D-02 0.132D-01-0.171D-01
 Coeff-Com:  0.510D-02 0.547D-02-0.304D-01-0.821D-01-0.103D+00 0.263D+00
 Coeff-Com:  0.934D+00
 Coeff:     -0.823D-04 0.116D-03-0.182D-04 0.505D-05-0.256D-03-0.162D-04
 Coeff:      0.919D-04 0.892D-03 0.180D-02 0.874D-02 0.132D-01-0.171D-01
 Coeff:      0.510D-02 0.547D-02-0.304D-01-0.821D-01-0.103D+00 0.263D+00
 Coeff:      0.934D+00
 Gap=     0.184 Goal=   None    Shift=    0.000
 Gap=     0.041 Goal=   None    Shift=    0.000
 RMSDP=8.40D-06 MaxDP=3.55D-04 DE=-5.83D-07 OVMax= 1.13D-03

 Cycle  20  Pass 1  IDiag  1:
 RMSU=  1.30D-06    CP:  9.65D-01  7.45D-01  5.07D-01  1.63D-01  7.28D-01
                    CP:  4.45D-01  5.17D-01  1.04D+00  9.13D-01  1.52D+00
                    CP:  2.80D+00  3.00D+00  2.20D+00  2.92D+00  2.31D+00
                    CP:  1.87D+00  1.29D+00  2.04D+00  1.78D+00
 E= -2218.85095443215     Delta-E=       -0.000000264165 Rises=F Damp=F
 DIIS: error= 1.30D-05 at cycle  20 NSaved=  20.
 NSaved=20 IEnMin=20 EnMin= -2218.85095443215     IErMin=20 ErrMin= 1.30D-05
 ErrMax= 1.30D-05  0.00D+00 EMaxC= 1.00D-01 BMatC= 1.89D-07 BMatP= 7.29D-07
 IDIUse=1 WtCom= 1.00D+00 WtEn= 0.00D+00
 Coeff-Com: -0.695D-04 0.104D-03-0.154D-04 0.566D-05-0.164D-03 0.392D-05
 Coeff-Com:  0.753D-04-0.542D-03 0.872D-03 0.377D-02 0.732D-02-0.958D-02
 Coeff-Com: -0.315D-02-0.982D-03 0.942D-02-0.138D-01-0.119D+00-0.138D+00
 Coeff-Com:  0.276D+00 0.987D+00
 Coeff:     -0.695D-04 0.104D-03-0.154D-04 0.566D-05-0.164D-03 0.392D-05
 Coeff:      0.753D-04-0.542D-03 0.872D-03 0.377D-02 0.732D-02-0.958D-02
 Coeff:     -0.315D-02-0.982D-03 0.942D-02-0.138D-01-0.119D+00-0.138D+00
 Coeff:      0.276D+00 0.987D+00
 Gap=     0.184 Goal=   None    Shift=    0.000
 Gap=     0.041 Goal=   None    Shift=    0.000
 RMSDP=4.83D-06 MaxDP=1.92D-04 DE=-2.64D-07 OVMax= 5.11D-04

 Cycle  21  Pass 1  IDiag  1:
 Restarting incremental Fock formation.
 E= -2218.85095452497     Delta-E=       -0.000000092812 Rises=F Damp=F
 DIIS: error= 7.97D-06 at cycle  21 NSaved=  20.
 NSaved=20 IEnMin=20 EnMin= -2218.85095452497     IErMin=20 ErrMin= 7.97D-06
 ErrMax= 7.97D-06  0.00D+00 EMaxC= 1.00D-01 BMatC= 5.47D-08 BMatP= 1.89D-07
 IDIUse=1 WtCom= 1.00D+00 WtEn= 0.00D+00
 Coeff-Com: -0.514D-04 0.810D-04-0.626D-05-0.590D-04 0.315D-04 0.334D-04
 Coeff-Com: -0.550D-03 0.278D-03-0.177D-02-0.407D-02 0.223D-02-0.260D-02
 Coeff-Com:  0.162D-02 0.132D-01 0.375D-01 0.642D-02-0.215D+00-0.359D+00
 Coeff-Com:  0.613D+00 0.909D+00
 Coeff:     -0.514D-04 0.810D-04-0.626D-05-0.590D-04 0.315D-04 0.334D-04
 Coeff:     -0.550D-03 0.278D-03-0.177D-02-0.407D-02 0.223D-02-0.260D-02
 Coeff:      0.162D-02 0.132D-01 0.375D-01 0.642D-02-0.215D+00-0.359D+00
 Coeff:      0.613D+00 0.909D+00
 Gap=     0.184 Goal=   None    Shift=    0.000
 Gap=     0.041 Goal=   None    Shift=    0.000
 RMSDP=3.27D-06 MaxDP=1.48D-04 DE=-9.28D-08 OVMax= 3.10D-04

 Cycle  22  Pass 1  IDiag  1:
 RMSU=  3.27D-06    CP:  1.00D+00
 E= -2218.85095455725     Delta-E=       -0.000000032279 Rises=F Damp=F
 DIIS: error= 5.21D-06 at cycle  22 NSaved=  20.
 NSaved=20 IEnMin=20 EnMin= -2218.85095455725     IErMin=20 ErrMin= 5.21D-06
 ErrMax= 5.21D-06  0.00D+00 EMaxC= 1.00D-01 BMatC= 2.13D-08 BMatP= 5.47D-08
 IDIUse=1 WtCom= 1.00D+00 WtEn= 0.00D+00
 Coeff-Com:  0.791D-05-0.782D-05 0.644D-06 0.166D-04-0.578D-05 0.131D-03
 Coeff-Com:  0.192D-03-0.639D-03-0.405D-02 0.179D-02 0.730D-03 0.200D-02
 Coeff-Com: -0.283D-02 0.183D-01 0.481D-01-0.169D-02-0.166D+00-0.227D+00
 Coeff-Com:  0.215D+00 0.112D+01
 Coeff:      0.791D-05-0.782D-05 0.644D-06 0.166D-04-0.578D-05 0.131D-03
 Coeff:      0.192D-03-0.639D-03-0.405D-02 0.179D-02 0.730D-03 0.200D-02
 Coeff:     -0.283D-02 0.183D-01 0.481D-01-0.169D-02-0.166D+00-0.227D+00
 Coeff:      0.215D+00 0.112D+01
 Gap=     0.184 Goal=   None    Shift=    0.000
 Gap=     0.041 Goal=   None    Shift=    0.000
 RMSDP=1.71D-06 MaxDP=6.94D-05 DE=-3.23D-08 OVMax= 1.89D-04

 Cycle  23  Pass 1  IDiag  1:
 RMSU=  6.38D-07    CP:  1.00D+00  1.48D+00
 E= -2218.85095456631     Delta-E=       -0.000000009068 Rises=F Damp=F
 DIIS: error= 2.08D-06 at cycle  23 NSaved=  20.
 NSaved=20 IEnMin=20 EnMin= -2218.85095456631     IErMin=20 ErrMin= 2.08D-06
 ErrMax= 2.08D-06  0.00D+00 EMaxC= 1.00D-01 BMatC= 3.90D-09 BMatP= 2.13D-08
 IDIUse=1 WtCom= 1.00D+00 WtEn= 0.00D+00
 Coeff-Com:  0.282D-05-0.214D-05 0.140D-05-0.266D-05 0.879D-04 0.155D-03
 Coeff-Com:  0.952D-03-0.947D-03-0.142D-02-0.826D-04 0.541D-03-0.182D-02
 Coeff-Com:  0.440D-02 0.220D-01 0.388D-01-0.890D-02-0.219D+00-0.688D-01
 Coeff-Com:  0.479D+00 0.755D+00
 Coeff:      0.282D-05-0.214D-05 0.140D-05-0.266D-05 0.879D-04 0.155D-03
 Coeff:      0.952D-03-0.947D-03-0.142D-02-0.826D-04 0.541D-03-0.182D-02
 Coeff:      0.440D-02 0.220D-01 0.388D-01-0.890D-02-0.219D+00-0.688D-01
 Coeff:      0.479D+00 0.755D+00
 Gap=     0.184 Goal=   None    Shift=    0.000
 Gap=     0.041 Goal=   None    Shift=    0.000
 RMSDP=5.21D-07 MaxDP=2.02D-05 DE=-9.07D-09 OVMax= 5.55D-05

 Cycle  24  Pass 1  IDiag  1:
 RMSU=  1.90D-07    CP:  1.00D+00  1.60D+00  1.49D+00
 E= -2218.85095456759     Delta-E=       -0.000000001278 Rises=F Damp=F
 DIIS: error= 6.77D-07 at cycle  24 NSaved=  20.
 NSaved=20 IEnMin=20 EnMin= -2218.85095456759     IErMin=20 ErrMin= 6.77D-07
 ErrMax= 6.77D-07  0.00D+00 EMaxC= 1.00D-01 BMatC= 5.49D-10 BMatP= 3.90D-09
 IDIUse=1 WtCom= 1.00D+00 WtEn= 0.00D+00
 Coeff-Com: -0.176D-05-0.231D-05 0.281D-05 0.139D-04 0.770D-04 0.812D-03
 Coeff-Com:  0.330D-03-0.147D-02-0.257D-03-0.126D-03-0.301D-03-0.376D-03
 Coeff-Com:  0.197D-02 0.221D-01 0.335D-01-0.799D-01-0.879D-01 0.223D-01
 Coeff-Com:  0.462D+00 0.627D+00
 Coeff:     -0.176D-05-0.231D-05 0.281D-05 0.139D-04 0.770D-04 0.812D-03
 Coeff:      0.330D-03-0.147D-02-0.257D-03-0.126D-03-0.301D-03-0.376D-03
 Coeff:      0.197D-02 0.221D-01 0.335D-01-0.799D-01-0.879D-01 0.223D-01
 Coeff:      0.462D+00 0.627D+00
 Gap=     0.184 Goal=   None    Shift=    0.000
 Gap=     0.041 Goal=   None    Shift=    0.000
 RMSDP=2.03D-07 MaxDP=7.09D-06 DE=-1.28D-09 OVMax= 2.44D-05

 Cycle  25  Pass 1  IDiag  1:
 RMSU=  7.05D-08    CP:  1.00D+00  1.63D+00  1.71D+00  1.15D+00
 E= -2218.85095456777     Delta-E=       -0.000000000184 Rises=F Damp=F
 DIIS: error= 3.66D-07 at cycle  25 NSaved=  20.
 NSaved=20 IEnMin=20 EnMin= -2218.85095456777     IErMin=20 ErrMin= 3.66D-07
 ErrMax= 3.66D-07  0.00D+00 EMaxC= 1.00D-01 BMatC= 1.13D-10 BMatP= 5.49D-10
 IDIUse=1 WtCom= 1.00D+00 WtEn= 0.00D+00
 Coeff-Com: -0.193D-06-0.108D-05-0.139D-04-0.247D-05-0.358D-04 0.148D-03
 Coeff-Com: -0.695D-04-0.540D-04-0.239D-03 0.239D-03 0.282D-03-0.276D-02
 Coeff-Com: -0.443D-02 0.181D-02 0.270D-01 0.664D-02-0.921D-01-0.829D-01
 Coeff-Com:  0.738D-01 0.107D+01
 Coeff:     -0.193D-06-0.108D-05-0.139D-04-0.247D-05-0.358D-04 0.148D-03
 Coeff:     -0.695D-04-0.540D-04-0.239D-03 0.239D-03 0.282D-03-0.276D-02
 Coeff:     -0.443D-02 0.181D-02 0.270D-01 0.664D-02-0.921D-01-0.829D-01
 Coeff:      0.738D-01 0.107D+01
 Gap=     0.184 Goal=   None    Shift=    0.000
 Gap=     0.041 Goal=   None    Shift=    0.000
 RMSDP=1.11D-07 MaxDP=4.14D-06 DE=-1.84D-10 OVMax= 9.88D-06

 Cycle  26  Pass 1  IDiag  1:
 RMSU=  4.39D-08    CP:  1.00D+00  1.66D+00  1.78D+00  1.26D+00  1.13D+00
 E= -2218.85095456782     Delta-E=       -0.000000000045 Rises=F Damp=F
 DIIS: error= 3.86D-08 at cycle  26 NSaved=  20.
 NSaved=20 IEnMin=20 EnMin= -2218.85095456782     IErMin=20 ErrMin= 3.86D-08
 ErrMax= 3.86D-08  0.00D+00 EMaxC= 1.00D-01 BMatC= 3.99D-12 BMatP= 1.13D-10
 IDIUse=1 WtCom= 1.00D+00 WtEn= 0.00D+00
 Coeff-Com: -0.107D-08-0.944D-05-0.995D-05-0.101D-03 0.131D-04 0.123D-03
 Coeff-Com:  0.148D-04-0.329D-04 0.131D-03 0.246D-03-0.126D-02-0.425D-02
 Coeff-Com: -0.413D-02 0.192D-01 0.139D-01-0.316D-01-0.854D-01-0.658D-01
 Coeff-Com:  0.390D+00 0.769D+00
 Coeff:     -0.107D-08-0.944D-05-0.995D-05-0.101D-03 0.131D-04 0.123D-03
 Coeff:      0.148D-04-0.329D-04 0.131D-03 0.246D-03-0.126D-02-0.425D-02
 Coeff:     -0.413D-02 0.192D-01 0.139D-01-0.316D-01-0.854D-01-0.658D-01
 Coeff:      0.390D+00 0.769D+00
 Gap=     0.184 Goal=   None    Shift=    0.000
 Gap=     0.041 Goal=   None    Shift=    0.000
 RMSDP=2.18D-08 MaxDP=9.61D-07 DE=-4.55D-11 OVMax= 2.13D-06

 Cycle  27  Pass 1  IDiag  1:
 RMSU=  1.08D-08    CP:  1.00D+00  1.67D+00  1.78D+00  1.26D+00  1.27D+00
                    CP:  1.18D+00
 E= -2218.85095456782     Delta-E=        0.000000000002 Rises=F Damp=F
 DIIS: error= 3.17D-08 at cycle  27 NSaved=  20.
 NSaved=20 IEnMin=19 EnMin= -2218.85095456782     IErMin=20 ErrMin= 3.17D-08
 ErrMax= 3.17D-08  0.00D+00 EMaxC= 1.00D-01 BMatC= 9.14D-13 BMatP= 3.99D-12
 IDIUse=1 WtCom= 1.00D+00 WtEn= 0.00D+00
 Coeff-Com: -0.479D-07-0.306D-05-0.377D-04-0.928D-05 0.622D-04 0.269D-04
 Coeff-Com:  0.280D-04-0.536D-04 0.127D-04-0.832D-04-0.965D-03-0.181D-02
 Coeff-Com:  0.351D-02 0.433D-02-0.158D-03-0.197D-01-0.348D-01-0.115D-02
 Coeff-Com:  0.303D+00 0.748D+00
 Coeff:     -0.479D-07-0.306D-05-0.377D-04-0.928D-05 0.622D-04 0.269D-04
 Coeff:      0.280D-04-0.536D-04 0.127D-04-0.832D-04-0.965D-03-0.181D-02
 Coeff:      0.351D-02 0.433D-02-0.158D-03-0.197D-01-0.348D-01-0.115D-02
 Coeff:      0.303D+00 0.748D+00
 Gap=     0.184 Goal=   None    Shift=    0.000
 Gap=     0.041 Goal=   None    Shift=    0.000
 RMSDP=1.21D-08 MaxDP=3.28D-07 DE= 1.82D-12 OVMax= 1.70D-06

 Cycle  28  Pass 1  IDiag  1:
 RMSU=  3.65D-09    CP:  1.00D+00  1.67D+00  1.77D+00  1.25D+00  1.27D+00
                    CP:  1.29D+00  1.13D+00
 E= -2218.85095456782     Delta-E=       -0.000000000000 Rises=F Damp=F
 DIIS: error= 1.86D-08 at cycle  28 NSaved=  20.
 NSaved=20 IEnMin=18 EnMin= -2218.85095456782     IErMin=20 ErrMin= 1.86D-08
 ErrMax= 1.86D-08  0.00D+00 EMaxC= 1.00D-01 BMatC= 2.71D-13 BMatP= 9.14D-13
 IDIUse=1 WtCom= 1.00D+00 WtEn= 0.00D+00
 Coeff-Com: -0.410D-06 0.290D-05 0.892D-05-0.659D-05 0.139D-05 0.300D-05
 Coeff-Com: -0.352D-04-0.630D-04 0.607D-04 0.189D-03 0.163D-03-0.841D-03
 Coeff-Com: -0.415D-03 0.144D-02 0.613D-02 0.182D-03-0.436D-01-0.852D-02
 Coeff-Com:  0.234D+00 0.811D+00
 Coeff:     -0.410D-06 0.290D-05 0.892D-05-0.659D-05 0.139D-05 0.300D-05
 Coeff:     -0.352D-04-0.630D-04 0.607D-04 0.189D-03 0.163D-03-0.841D-03
 Coeff:     -0.415D-03 0.144D-02 0.613D-02 0.182D-03-0.436D-01-0.852D-02
 Coeff:      0.234D+00 0.811D+00
 Gap=     0.184 Goal=   None    Shift=    0.000
 Gap=     0.041 Goal=   None    Shift=    0.000
 RMSDP=7.92D-09 MaxDP=1.90D-07 DE=-4.55D-13 OVMax= 1.07D-06

 SCF Done:  E(UB3LYP) =  -2218.85095457     A.U. after   28 cycles
            NFock= 28  Conv=0.79D-08     -V/T= 2.0034
 <Sx>= 0.0000 <Sy>= 0.0000 <Sz>= 0.5000 <S**2>= 0.7589 S= 0.5044
 <L.S>=  0.00000000000    
 KE= 2.211225572501D+03 PE=-7.151642635805D+03 EE= 1.766413730787D+03
 Annihilation of the first spin contaminant:
 S**2 before annihilation     0.7589,   after     0.7500
 Leave Link  502 at Thu Aug  1 12:48:56 2024, MaxMem= 13421772800 cpu:             419.6 elap:              13.2
 (Enter /public/software/apps/Gaussian/g16/l601.exe)
 Copying SCF densities to generalized density rwf, IOpCl= 1 IROHF=0.

 **********************************************************************

            Population analysis using the SCF Density.

 **********************************************************************

 Alpha  occ. eigenvalues -- -323.48883 -39.29520 -34.51429 -34.51226 -34.51010
 Alpha  occ. eigenvalues --  -24.98580 -24.97495 -19.58479 -14.79640 -14.78858
 Alpha  occ. eigenvalues --  -10.72822 -10.66080 -10.63337 -10.57051 -10.52561
 Alpha  occ. eigenvalues --   -4.76650  -3.26910  -3.26230  -3.25391  -1.51033
 Alpha  occ. eigenvalues --   -1.46356  -1.45424  -1.36115  -1.32995  -1.15483
 Alpha  occ. eigenvalues --   -1.12390  -1.04282  -1.00794  -0.96453  -0.94033
 Alpha  occ. eigenvalues --   -0.93762  -0.90917  -0.86512  -0.84841  -0.84202
 Alpha  occ. eigenvalues --   -0.81809  -0.81472  -0.80001  -0.78684  -0.76303
 Alpha  occ. eigenvalues --   -0.75442  -0.74990  -0.74235  -0.73732  -0.73101
 Alpha  occ. eigenvalues --   -0.72553  -0.72425  -0.70453  -0.69805  -0.68727
 Alpha  occ. eigenvalues --   -0.67613  -0.66932  -0.64069
 Alpha virt. eigenvalues --   -0.45677  -0.42499  -0.35573  -0.31224  -0.28347
 Alpha virt. eigenvalues --   -0.26988  -0.23437  -0.22974  -0.21982  -0.20439
 Alpha virt. eigenvalues --   -0.19297  -0.19084  -0.17128  -0.15736  -0.14773
 Alpha virt. eigenvalues --   -0.13146  -0.11233  -0.10136  -0.08933  -0.08186
 Alpha virt. eigenvalues --   -0.07445  -0.06903  -0.04099  -0.00977   0.06224
 Alpha virt. eigenvalues --    0.08247   0.12235   0.13491   0.14332   0.17638
 Alpha virt. eigenvalues --    0.18249   0.19488   0.20834   0.22734   0.23709
 Alpha virt. eigenvalues --    0.25010   0.26047   0.28854   0.30467   0.31574
 Alpha virt. eigenvalues --    0.34583   0.35647   0.36080   0.36472   0.37499
 Alpha virt. eigenvalues --    0.38925   0.41344   0.41900   0.44501   0.47424
 Alpha virt. eigenvalues --    0.49147   0.52279   0.52976   0.55797   0.61199
 Alpha virt. eigenvalues --    0.62969   0.64479   0.66935   0.70674   0.72531
 Alpha virt. eigenvalues --    0.76743   0.79917   0.81866   0.83451   0.90616
 Alpha virt. eigenvalues --    0.92619   0.94418   0.96673   0.99861   1.03847
 Alpha virt. eigenvalues --    1.06790   1.10877   1.12723   1.15328   1.16515
 Alpha virt. eigenvalues --    1.22535   1.24375   1.27027   1.33728   1.37959
 Alpha virt. eigenvalues --    1.40037   1.44595   1.46773   1.48157   1.48705
 Alpha virt. eigenvalues --    1.53760   1.56915   1.59432   1.63268   1.65056
 Alpha virt. eigenvalues --    1.66310   1.72225   1.74335   1.76950   1.84986
 Alpha virt. eigenvalues --    1.86678   1.87748   1.93822   1.98491   2.01206
 Alpha virt. eigenvalues --    2.03245   2.05791   2.07595   2.10758   2.17803
 Alpha virt. eigenvalues --    2.18859   2.21711   2.25961   2.29734   2.32037
 Alpha virt. eigenvalues --    2.40485   2.44923   2.52614   2.65246   2.66881
 Alpha virt. eigenvalues --    2.78710   2.79502   2.81986   2.83510   2.86426
 Alpha virt. eigenvalues --    2.91482   3.03337   3.07267   3.12887   3.19474
 Alpha virt. eigenvalues --    3.40102   3.53475
  Beta  occ. eigenvalues -- -323.48876 -39.29198 -34.51203 -34.50870 -34.50788
  Beta  occ. eigenvalues --  -24.98488 -24.97475 -19.57094 -14.79454 -14.78399
  Beta  occ. eigenvalues --  -10.72893 -10.66065 -10.63246 -10.57008 -10.52561
  Beta  occ. eigenvalues --   -4.75984  -3.26289  -3.25132  -3.24983  -1.50906
  Beta  occ. eigenvalues --   -1.45310  -1.44094  -1.35279  -1.32298  -1.14907
  Beta  occ. eigenvalues --   -1.12072  -1.03683  -1.00286  -0.96253  -0.93646
  Beta  occ. eigenvalues --   -0.93274  -0.89861  -0.85506  -0.84192  -0.83692
  Beta  occ. eigenvalues --   -0.81254  -0.80168  -0.79624  -0.78223  -0.75647
  Beta  occ. eigenvalues --   -0.74872  -0.74011  -0.73620  -0.73296  -0.72437
  Beta  occ. eigenvalues --   -0.71747  -0.70030  -0.69445  -0.67944  -0.67547
  Beta  occ. eigenvalues --   -0.65897  -0.63524
  Beta virt. eigenvalues --   -0.59450  -0.45352  -0.41984  -0.35408  -0.31023
  Beta virt. eigenvalues --   -0.28187  -0.26725  -0.23260  -0.22736  -0.21782
  Beta virt. eigenvalues --   -0.20302  -0.19166  -0.18977  -0.16883  -0.15534
  Beta virt. eigenvalues --   -0.14484  -0.12864  -0.10949  -0.09864  -0.08826
  Beta virt. eigenvalues --   -0.07941  -0.07289  -0.06573  -0.03677  -0.00682
  Beta virt. eigenvalues --    0.06312   0.08500   0.12418   0.13594   0.14446
  Beta virt. eigenvalues --    0.17895   0.18588   0.19744   0.21104   0.22885
  Beta virt. eigenvalues --    0.23980   0.25213   0.26259   0.29001   0.30663
  Beta virt. eigenvalues --    0.31762   0.34774   0.35864   0.36264   0.36702
  Beta virt. eigenvalues --    0.37639   0.39033   0.41629   0.42293   0.44710
  Beta virt. eigenvalues --    0.47654   0.49480   0.52693   0.53508   0.56044
  Beta virt. eigenvalues --    0.61435   0.63306   0.65103   0.67312   0.71331
  Beta virt. eigenvalues --    0.73239   0.77391   0.80293   0.83090   0.83742
  Beta virt. eigenvalues --    0.91323   0.92876   0.94598   0.96872   1.00512
  Beta virt. eigenvalues --    1.04282   1.06987   1.11020   1.12866   1.15492
  Beta virt. eigenvalues --    1.16586   1.22910   1.24445   1.27803   1.34164
  Beta virt. eigenvalues --    1.38167   1.40396   1.44830   1.46896   1.48477
  Beta virt. eigenvalues --    1.48813   1.53869   1.57097   1.59586   1.63586
  Beta virt. eigenvalues --    1.65341   1.66657   1.72296   1.74548   1.77377
  Beta virt. eigenvalues --    1.85274   1.86851   1.87869   1.94080   1.98783
  Beta virt. eigenvalues --    2.02036   2.03605   2.06478   2.08135   2.11878
  Beta virt. eigenvalues --    2.18851   2.19336   2.23794   2.27907   2.32149
  Beta virt. eigenvalues --    2.33150   2.41319   2.45573   2.53087   2.65779
  Beta virt. eigenvalues --    2.67812   2.78874   2.79632   2.82094   2.83647
  Beta virt. eigenvalues --    2.86484   2.93613   3.03485   3.07371   3.14425
  Beta virt. eigenvalues --    3.19546   3.40176   3.53534
          Condensed to atoms (all electrons):
               1          2          3          4          5          6
     1  N    6.563393   0.321526  -0.065292  -0.101508   0.005501  -0.000187
     2  C    0.321526   4.732718   0.613612   0.084821  -0.011195   0.004868
     3  O   -0.065292   0.613612   7.485336  -0.082640   0.008737   0.000321
     4  C   -0.101508   0.084821  -0.082640   5.574672   0.207539  -0.008839
     5  C    0.005501  -0.011195   0.008737   0.207539   5.222782   0.334825
     6  C   -0.000187   0.004868   0.000321  -0.008839   0.334825   4.302010
     7  F    0.000000   0.000218  -0.000000   0.008428  -0.051889   0.313625
     8  F    0.000000  -0.000055  -0.000000   0.004540  -0.055709   0.365817
     9  C    0.000194  -0.000408  -0.000066  -0.074736  -0.162959   0.322957
    10  N   -0.011634  -0.024861   0.001602   0.220758  -0.056223  -0.012333
    11  H    0.298402   0.003629   0.002813   0.006395  -0.000142   0.000008
    12  H    0.204958  -0.006157   0.000738   0.003246   0.000346  -0.000085
    13  H   -0.000650  -0.003625  -0.000859   0.318019   0.011523  -0.006659
    14  H   -0.000085  -0.004080   0.000701   0.007465   0.314694   0.013912
    15  H    0.000406  -0.007408  -0.001532  -0.011833   0.349263  -0.013025
    16  H   -0.000013  -0.000159   0.000001   0.001856   0.008166   0.013718
    17  H    0.000092   0.000670   0.000008   0.003508   0.002449  -0.000405
    18  H    0.000985   0.001125  -0.000055   0.004535   0.002056  -0.000699
    19  Cu   0.129187  -0.020774  -0.000231  -0.042899   0.004121  -0.001205
               7          8          9         10         11         12
     1  N    0.000000   0.000000   0.000194  -0.011634   0.298402   0.204958
     2  C    0.000218  -0.000055  -0.000408  -0.024861   0.003629  -0.006157
     3  O   -0.000000  -0.000000  -0.000066   0.001602   0.002813   0.000738
     4  C    0.008428   0.004540  -0.074736   0.220758   0.006395   0.003246
     5  C   -0.051889  -0.055709  -0.162959  -0.056223  -0.000142   0.000346
     6  C    0.313625   0.365817   0.322957  -0.012333   0.000008  -0.000085
     7  F    8.959544  -0.032329  -0.036606  -0.003531  -0.000000   0.000000
     8  F   -0.032329   8.905298  -0.045471   0.000874  -0.000000   0.000000
     9  C   -0.036606  -0.045471   5.118724   0.262211   0.000004   0.000002
    10  N   -0.003531   0.000874   0.262211   6.639228   0.000228  -0.005401
    11  H   -0.000000  -0.000000   0.000004   0.000228   0.317505  -0.004502
    12  H    0.000000   0.000000   0.000002  -0.005401  -0.004502   0.468204
    13  H    0.003327   0.000032   0.003841  -0.018027  -0.000091  -0.000172
    14  H    0.000919   0.001388   0.008050   0.003419   0.000002  -0.000011
    15  H    0.002894   0.005576   0.006413  -0.003598  -0.000008   0.000010
    16  H    0.002904   0.001483   0.322700  -0.008936   0.000000  -0.000016
    17  H    0.002654   0.006061   0.339561  -0.022207  -0.000004   0.000027
    18  H    0.000117  -0.000009  -0.011377   0.245330  -0.000045   0.000201
    19  Cu   0.000105  -0.000015  -0.000450   0.213070  -0.004516   0.052243
              13         14         15         16         17         18
     1  N   -0.000650  -0.000085   0.000406  -0.000013   0.000092   0.000985
     2  C   -0.003625  -0.004080  -0.007408  -0.000159   0.000670   0.001125
     3  O   -0.000859   0.000701  -0.001532   0.000001   0.000008  -0.000055
     4  C    0.318019   0.007465  -0.011833   0.001856   0.003508   0.004535
     5  C    0.011523   0.314694   0.349263   0.008166   0.002449   0.002056
     6  C   -0.006659   0.013912  -0.013025   0.013718  -0.000405  -0.000699
     7  F    0.003327   0.000919   0.002894   0.002904   0.002654   0.000117
     8  F    0.000032   0.001388   0.005576   0.001483   0.006061  -0.000009
     9  C    0.003841   0.008050   0.006413   0.322700   0.339561  -0.011377
    10  N   -0.018027   0.003419  -0.003598  -0.008936  -0.022207   0.245330
    11  H   -0.000091   0.000002  -0.000008   0.000000  -0.000004  -0.000045
    12  H   -0.000172  -0.000011   0.000010  -0.000016   0.000027   0.000201
    13  H    0.450726  -0.006084   0.003608   0.000202  -0.000222  -0.008879
    14  H   -0.006084   0.448505  -0.008298  -0.000247  -0.000320  -0.000083
    15  H    0.003608  -0.008298   0.487910  -0.000245   0.000056  -0.000258
    16  H    0.000202  -0.000247  -0.000245   0.450818  -0.006364  -0.006534
    17  H   -0.000222  -0.000320   0.000056  -0.006364   0.461564   0.002868
    18  H   -0.008879  -0.000083  -0.000258  -0.006534   0.002868   0.427983
    19  Cu   0.005030  -0.000067   0.000357   0.000650  -0.002521   0.001337
              19
     1  N    0.129187
     2  C   -0.020774
     3  O   -0.000231
     4  C   -0.042899
     5  C    0.004121
     6  C   -0.001205
     7  F    0.000105
     8  F   -0.000015
     9  C   -0.000450
    10  N    0.213070
    11  H   -0.004516
    12  H    0.052243
    13  H    0.005030
    14  H   -0.000067
    15  H    0.000357
    16  H    0.000650
    17  H   -0.002521
    18  H    0.001337
    19  Cu  28.086916
          Atomic-Atomic Spin Densities.
               1          2          3          4          5          6
     1  N    0.088479  -0.009294  -0.010504  -0.004457   0.000610  -0.000035
     2  C   -0.009294  -0.107847  -0.016752   0.078092  -0.003088  -0.000894
     3  O   -0.010504  -0.016752   0.546364  -0.010480   0.004001  -0.000135
     4  C   -0.004457   0.078092  -0.010480   0.034570  -0.010850   0.002290
     5  C    0.000610  -0.003088   0.004001  -0.010850   0.001151   0.001328
     6  C   -0.000035  -0.000894  -0.000135   0.002290   0.001328  -0.000164
     7  F   -0.000000  -0.000005   0.000000  -0.000048  -0.000364  -0.002244
     8  F   -0.000000   0.000004   0.000000  -0.000029  -0.000224  -0.000606
     9  C    0.000013   0.000182   0.000015   0.002004   0.001499   0.005932
    10  N    0.003911  -0.003569   0.000526  -0.042016   0.003652  -0.000740
    11  H    0.000594  -0.000224   0.000479  -0.000209  -0.000009   0.000001
    12  H    0.001188   0.000962   0.000096   0.001061  -0.000059   0.000006
    13  H    0.002129   0.002528   0.000928  -0.007941   0.002518  -0.000155
    14  H    0.000015  -0.000057   0.000078   0.000394   0.001049  -0.000173
    15  H    0.000128   0.001296   0.001558  -0.004193   0.001087  -0.000119
    16  H    0.000006   0.000053   0.000001  -0.000382   0.000154  -0.000429
    17  H   -0.000034  -0.000298  -0.000023   0.002248  -0.000763   0.000452
    18  H   -0.000705  -0.000471  -0.000031   0.004222  -0.000591   0.000098
    19  Cu   0.010208   0.002299   0.000001  -0.013503   0.001127  -0.000154
               7          8          9         10         11         12
     1  N   -0.000000  -0.000000   0.000013   0.003911   0.000594   0.001188
     2  C   -0.000005   0.000004   0.000182  -0.003569  -0.000224   0.000962
     3  O    0.000000   0.000000   0.000015   0.000526   0.000479   0.000096
     4  C   -0.000048  -0.000029   0.002004  -0.042016  -0.000209   0.001061
     5  C   -0.000364  -0.000224   0.001499   0.003652  -0.000009  -0.000059
     6  C   -0.002244  -0.000606   0.005932  -0.000740   0.000001   0.000006
     7  F    0.031002   0.000203  -0.002490   0.000511   0.000000   0.000000
     8  F    0.000203   0.006848  -0.000355   0.000009  -0.000000   0.000000
     9  C   -0.002490  -0.000355   0.012969  -0.014047   0.000001  -0.000003
    10  N    0.000511   0.000009  -0.014047   0.239925  -0.000167  -0.000848
    11  H    0.000000  -0.000000   0.000001  -0.000167  -0.003494   0.000323
    12  H    0.000000   0.000000  -0.000003  -0.000848   0.000323  -0.000352
    13  H   -0.000111  -0.000001   0.000761  -0.000552  -0.000040  -0.000218
    14  H   -0.000038   0.000018  -0.000039  -0.000021  -0.000001  -0.000000
    15  H    0.000005   0.000117   0.000141   0.000541  -0.000006  -0.000008
    16  H   -0.000591  -0.000079   0.006195  -0.001108  -0.000000  -0.000000
    17  H    0.000135   0.000338   0.005556  -0.003880   0.000002   0.000010
    18  H    0.000110   0.000005   0.000278  -0.001066   0.000024   0.000280
    19  Cu   0.000008   0.000003  -0.001753   0.005753  -0.000711  -0.000539
              13         14         15         16         17         18
     1  N    0.002129   0.000015   0.000128   0.000006  -0.000034  -0.000705
     2  C    0.002528  -0.000057   0.001296   0.000053  -0.000298  -0.000471
     3  O    0.000928   0.000078   0.001558   0.000001  -0.000023  -0.000031
     4  C   -0.007941   0.000394  -0.004193  -0.000382   0.002248   0.004222
     5  C    0.002518   0.001049   0.001087   0.000154  -0.000763  -0.000591
     6  C   -0.000155  -0.000173  -0.000119  -0.000429   0.000452   0.000098
     7  F   -0.000111  -0.000038   0.000005  -0.000591   0.000135   0.000110
     8  F   -0.000001   0.000018   0.000117  -0.000079   0.000338   0.000005
     9  C    0.000761  -0.000039   0.000141   0.006195   0.005556   0.000278
    10  N   -0.000552  -0.000021   0.000541  -0.001108  -0.003880  -0.001066
    11  H   -0.000040  -0.000001  -0.000006  -0.000000   0.000002   0.000024
    12  H   -0.000218  -0.000000  -0.000008  -0.000000   0.000010   0.000280
    13  H    0.026014  -0.000023   0.000312   0.000116  -0.000122  -0.001407
    14  H   -0.000023   0.000966  -0.000090   0.000003  -0.000004  -0.000007
    15  H    0.000312  -0.000090   0.002603   0.000024  -0.000264  -0.000039
    16  H    0.000116   0.000003   0.000024   0.010334  -0.001732  -0.000519
    17  H   -0.000122  -0.000004  -0.000264  -0.001732   0.021766   0.000437
    18  H   -0.001407  -0.000007  -0.000039  -0.000519   0.000437   0.003621
    19  Cu   0.000758   0.000015   0.000089   0.000185  -0.000874  -0.001659
              19
     1  N    0.010208
     2  C    0.002299
     3  O    0.000001
     4  C   -0.013503
     5  C    0.001127
     6  C   -0.000154
     7  F    0.000008
     8  F    0.000003
     9  C   -0.001753
    10  N    0.005753
    11  H   -0.000711
    12  H   -0.000539
    13  H    0.000758
    14  H    0.000015
    15  H    0.000089
    16  H    0.000185
    17  H   -0.000874
    18  H   -0.001659
    19  Cu   0.117203
 Mulliken charges and spin densities:
               1          2
     1  N   -0.345276   0.082252
     2  C    0.315535  -0.057081
     3  O    0.036807   0.516121
     4  C   -0.123329   0.030772
     5  C   -0.133885   0.002228
     6  C    0.371375   0.004260
     7  F   -0.170379   0.026083
     8  F   -0.157481   0.006252
     9  C   -0.052584   0.016858
    10  N   -0.419969   0.186813
    11  H    0.380320  -0.003438
    12  H    0.286369   0.001899
    13  H    0.248959   0.025493
    14  H    0.220222   0.002085
    15  H    0.189710   0.003181
    16  H    0.220014   0.012232
    17  H    0.212525   0.022954
    18  H    0.341403   0.002579
    19  Cu   0.579663   0.118458
 Sum of Mulliken charges =   2.00000   1.00000
 Mulliken charges and spin densities with hydrogens summed into heavy atoms:
               1          2
     1  N    0.321413   0.080714
     2  C    0.315535  -0.057081
     3  O    0.036807   0.516121
     4  C    0.125630   0.056265
     5  C    0.276047   0.007494
     6  C    0.371375   0.004260
     7  F   -0.170379   0.026083
     8  F   -0.157481   0.006252
     9  C    0.379955   0.052044
    10  N   -0.078566   0.189392
    19  Cu   0.579663   0.118458
 Electronic spatial extent (au):  <R**2>=           2679.2849
 Charge=              2.0000 electrons
 Dipole moment (field-independent basis, Debye):
    X=             17.9160    Y=             -0.4823    Z=              5.4455  Tot=             18.7315
 Quadrupole moment (field-independent basis, Debye-Ang):
   XX=             -6.3045   YY=            -48.7154   ZZ=            -54.5987
   XY=             -0.9692   XZ=             10.3175   YZ=             -5.6142
 Traceless Quadrupole moment (field-independent basis, Debye-Ang):
   XX=             30.2350   YY=            -12.1758   ZZ=            -18.0592
   XY=             -0.9692   XZ=             10.3175   YZ=             -5.6142
 Octapole moment (field-independent basis, Debye-Ang**2):
  XXX=             85.8609  YYY=            -92.4539  ZZZ=           -101.8913  XYY=            -21.8668
  XXY=            -24.6924  XXZ=             -4.1566  XZZ=            -28.3864  YZZ=            -38.0407
  YYZ=            -31.6087  XYZ=             -6.5251
 Hexadecapole moment (field-independent basis, Debye-Ang**3):
 XXXX=           -817.5927 YYYY=           -567.5969 ZZZZ=           -324.4616 XXXY=              2.0007
 XXXZ=            102.7522 YYYX=            -73.6143 YYYZ=             -1.5076 ZZZX=              6.4356
 ZZZY=            -10.9589 XXYY=           -266.1348 XXZZ=           -287.7483 YYZZ=           -146.6326
 XXYZ=            -33.3857 YYXZ=              6.5893 ZZXY=            -33.3103
 N-N= 9.551523779496D+02 E-N=-7.151642631108D+03  KE= 2.211225572501D+03
                          Isotropic Fermi Contact Couplings
        Atom                 a.u.       MegaHertz       Gauss      10(-4) cm-1
     1  N(14)              0.02921       9.43825       3.36780       3.14826
     2  C(13)              0.00017       0.18905       0.06746       0.06306
     3  O(17)              0.16329     -98.98671     -35.32092     -33.01841
     4  C(13)              0.01537      17.28240       6.16679       5.76479
     5  C(13)              0.00297       3.33544       1.19017       1.11258
     6  C(13)              0.00354       3.97803       1.41946       1.32693
     7  F(19)              0.01144      48.11784      17.16964      16.05038
     8  F(19)              0.00208       8.73199       3.11579       2.91268
     9  C(13)             -0.00760      -8.54657      -3.04963      -2.85083
    10  N(14)              0.15028      48.55621      17.32606      16.19661
    11  H(1)              -0.00144      -6.44342      -2.29917      -2.14929
    12  H(1)               0.00116       5.18900       1.85157       1.73087
    13  H(1)               0.01126      50.34216      17.96333      16.79234
    14  H(1)               0.00129       5.75028       2.05184       1.91809
    15  H(1)               0.00062       2.75876       0.98439       0.92022
    16  H(1)               0.00624      27.87392       9.94611       9.29774
    17  H(1)               0.01124      50.23287      17.92434      16.75588
    18  H(1)               0.00313      14.00370       4.99687       4.67113
    19  Cu(63)            -0.10423    -123.62641     -44.11298     -41.23733
 --------------------------------------------------------
       Center         ----  Spin Dipole Couplings  ----
                      3XX-RR        3YY-RR        3ZZ-RR
 --------------------------------------------------------
     1   Atom       -0.048471      0.008475      0.039996
     2   Atom        0.008399      0.082021     -0.090420
     3   Atom        1.755288     -1.025800     -0.729488
     4   Atom        0.026760     -0.013716     -0.013043
     5   Atom        0.005953     -0.000928     -0.005026
     6   Atom        0.000189      0.007511     -0.007700
     7   Atom       -0.029048      0.082398     -0.053349
     8   Atom       -0.020567      0.043352     -0.022785
     9   Atom        0.041015     -0.033793     -0.007222
    10   Atom        0.153793     -0.175848      0.022055
    11   Atom        0.011493     -0.001427     -0.010065
    12   Atom       -0.006149      0.008572     -0.002423
    13   Atom       -0.005934     -0.003282      0.009216
    14   Atom        0.004235     -0.001144     -0.003091
    15   Atom        0.004880     -0.001878     -0.003002
    16   Atom       -0.001655      0.008368     -0.006713
    17   Atom       -0.003504     -0.006810      0.010314
    18   Atom       -0.007072      0.009829     -0.002757
    19   Atom        0.619408     -0.169161     -0.450247
 --------------------------------------------------------
                        XY            XZ            YZ
[...]
 8399,0.36945111,0.00069873,-0.00172753,0.01397839,-0.01420502,0.004022
 14,-0.09709371,-0.01605660,-0.02747887,0.01160834,-0.04294358,0.052465
 06,0.57926093,-0.00281996,-0.00162870,-0.00081636,-0.03276548,0.005216
 86,0.00301464,0.00115112,0.00540554,0.00088882,-0.12889116,0.03141452,
 0.01943499,0.45576317,-0.00527388,-0.00089113,-0.00324748,-0.00422188,
 0.00881015,0.00548308,-0.00332905,0.00014829,-0.00095444,0.03220963,-0
 .08897719,-0.01367728,-0.01106316,0.55521460,-0.00187621,-0.00011754,-
 0.00068009,-0.00656076,0.00394254,0.00568220,0.00094420,-0.00047713,-0
 .00048575,0.01951567,-0.01744262,-0.08892467,0.09221815,0.02058348,0.5
 8923559,0.00147903,-0.00247247,-0.00386308,0.00487789,0.00164944,0.001
 36086,-0.00344531,0.00298345,0.00269911,-0.02305577,-0.00860420,0.0153
 3328,-0.08288597,-0.02578765,0.01597144,0.53368774,0.00332258,0.001532
 97,0.00370400,-0.00637787,0.00328990,0.00225441,0.00593925,-0.00378262
 ,-0.00209064,-0.00246545,0.00302824,-0.00599662,-0.03456728,-0.1202221
 3,0.03753725,0.03061558,0.45401648,-0.00179690,-0.00114570,-0.00214656
 ,0.00477178,-0.00383150,-0.00282983,-0.00648043,0.00330548,0.00140723,
 0.02574582,0.00604225,-0.00675542,0.01728213,0.02770968,-0.09758014,-0
 .08211589,0.06796806,0.51571085,-0.00062744,0.00039736,0.00062057,-0.0
 0042219,-0.00009596,-0.00020624,0.00002744,-0.00028128,-0.00027075,0.0
 0035584,-0.00032077,-0.00058458,-0.01381330,-0.02414183,-0.02003941,-0
 .14672867,-0.07465731,-0.07827693,0.16841695,-0.00102836,0.00028064,-0
 .00004064,-0.00057935,-0.00185258,-0.00117181,-0.00105856,0.00100738,0
 .00032386,0.00127562,-0.00104957,-0.00017925,-0.02925731,-0.02698185,-
 0.02393030,-0.06290765,-0.12779809,-0.06234635,0.09496092,0.15846581,-
 0.00005223,0.00055046,0.00130129,-0.00370533,0.00028347,-0.00009884,0.
 00219601,-0.00082876,-0.00072734,-0.00286916,-0.00097146,-0.00008038,-
 0.00382849,-0.00140616,0.00797862,-0.06784485,-0.07620228,-0.14715247,
 0.11504191,0.12112162,0.21619052,-0.00108431,0.00047681,0.00044622,-0.
 00092673,0.00135207,0.00082222,0.00097245,-0.00121324,-0.00088579,-0.0
 0363793,-0.00251971,0.00239004,-0.02018033,0.00614264,0.02187092,-0.19
 895393,0.05313120,0.12994770,0.02360860,-0.00009669,-0.00554847,0.2328
 8335,-0.00040761,-0.00084638,-0.00110639,0.00232838,-0.00000825,0.0001
 1359,-0.00146283,0.00072747,0.00058660,-0.00125644,-0.00077241,0.00319
 014,-0.01134454,0.01219274,0.00897879,0.05316757,-0.09594390,-0.063243
 19,0.01365854,-0.01484722,-0.03865028,-0.08193057,0.10913330,0.0011947
 2,-0.00007509,-0.00001721,0.00084195,-0.00026716,-0.00021510,0.0000099
 5,0.00033381,0.00059357,0.00087174,0.00298860,-0.00199580,0.02799794,-
 0.00614358,-0.01642188,0.11943322,-0.05180459,-0.19008973,0.01554732,-
 0.03979449,-0.04931803,-0.17054544,0.10354410,0.24871700,-0.00018839,0
 .00178354,0.00356786,-0.01109790,0.00124755,0.00062530,0.00648816,-0.0
 0298787,-0.00231947,-0.01355561,-0.01657438,0.00880764,-0.00458884,0.0
 0073034,0.00453663,-0.02703006,-0.00735671,-0.00161499,-0.03030740,0.0
 0061081,-0.04092050,-0.03408862,0.03089087,0.01123963,0.36820854,-0.00
 071358,-0.00164021,-0.00308346,0.00918363,-0.00212633,0.00164136,-0.00
 555747,0.00237175,0.00079340,-0.00988917,0.00310470,0.02799034,0.01563
 775,-0.02490663,0.02626040,-0.01239922,-0.07089597,0.01378943,-0.01068
 862,0.00899143,-0.00418997,0.02087451,-0.01230945,-0.00920967,0.150902
 84,0.59590938,-0.00101269,0.00067947,-0.00022896,0.00113523,-0.0002283
 1,0.00000583,0.00037180,-0.00055140,-0.00020615,0.00747797,0.01669810,
 -0.01529532,-0.00184046,0.01499130,-0.00816221,-0.01735461,0.02590289,
 -0.06357120,-0.02995572,0.00268064,-0.02444419,0.02042656,-0.01645201,
 0.00247538,0.02753158,0.01471355,0.53565852,-0.01399480,-0.00732341,-0
 .00366309,0.01778760,-0.02344848,0.01568374,-0.01024350,0.00107017,-0.
 00277683,-0.06677689,-0.01642818,0.01249395,-0.00108832,0.02000292,-0.
 00321238,-0.05756029,0.03227328,0.01183495,0.00428805,0.00130198,0.007
 92200,-0.00065666,0.00056134,-0.00503181,-0.09085170,-0.02517381,0.032
 01698,0.32740599,0.00223204,-0.00112693,-0.00006605,-0.01876761,-0.038
 27906,0.00352803,-0.00150718,0.00492927,-0.00025703,0.01460661,-0.1072
 0391,0.02487989,0.01829356,-0.02985040,0.00547680,0.00783323,-0.005291
 56,-0.01303442,0.00082166,0.00163416,0.00172637,0.00454370,-0.00392045
 ,0.00135156,-0.00613887,-0.09865604,-0.01666473,0.06961749,0.49213183,
 -0.00036075,0.00228955,0.00264043,0.00453037,-0.00778598,0.00932791,-0
 .00132976,-0.00233117,-0.00423639,-0.00656449,-0.00821281,-0.09838125,
 -0.01193101,0.00512106,0.00474226,0.02191826,-0.01526701,0.00256848,-0
 .00276874,0.00128286,-0.00285050,-0.00199397,0.00368018,0.00353978,0.0
 5708890,-0.00649925,-0.13438677,-0.01411991,0.14248491,0.47950019,-0.2
 5376961,-0.10855682,-0.11309399,-0.02335802,-0.01332146,-0.01244128,0.
 00380873,-0.00144657,0.00099397,-0.00172141,0.00309723,0.00091397,0.00
 010277,-0.00033224,-0.00034358,-0.00359444,0.00189679,-0.00151351,0.00
 063986,0.00027670,0.00111186,0.00089509,-0.00078392,-0.00053839,0.0030
 0523,-0.00223474,0.00010821,-0.00223143,0.00110944,0.00027568,0.263620
 36,-0.12392636,-0.12365871,-0.08452699,0.01515882,0.01657443,0.0130940
 7,-0.00178620,-0.00141935,-0.00043881,0.00418124,-0.00084649,-0.001329
 13,0.00021573,-0.00002423,0.00029759,0.00052460,0.00079324,-0.00050623
 ,-0.00000856,-0.00026215,-0.00010044,0.00001235,-0.00005389,0.00021446
 ,-0.00012207,-0.00015054,-0.00002861,-0.00113571,-0.00058482,0.0005709
 3,0.11696355,0.11402873,-0.09818080,-0.06679000,-0.11341531,0.00546579
 ,0.00569097,0.00470040,-0.00126422,-0.00039768,-0.00268064,-0.00043076
 ,-0.00321467,0.00122530,0.00089856,0.00088626,0.00015523,-0.00195332,-
 0.00033321,0.00017986,0.00032399,0.00045763,0.00052577,0.00055200,-0.0
 0020697,-0.00066632,0.00139823,-0.00072724,0.00008200,-0.00038249,0.00
 088728,-0.00048308,0.11739672,0.07732005,0.11881109,-0.08497554,0.0215
 8686,0.08382141,0.00007146,0.00106247,0.02703780,-0.00245283,0.0037047
 5,-0.00122318,-0.00052908,-0.00062682,-0.00216252,0.00007564,0.0005759
 8,-0.00026798,-0.00041267,-0.00009710,-0.00010835,0.00014983,0.0000885
 2,0.00012943,0.00031664,-0.00003366,-0.00022030,0.00015550,-0.00010766
 ,0.00020172,0.00007851,0.00022190,-0.00039892,0.01248399,-0.00455585,-
 0.02826477,0.07663910,0.00942335,-0.03651247,-0.04434403,0.00553437,-0
 .00768967,-0.01992753,0.00309437,-0.00243786,0.00179839,0.00032185,0.0
 0049762,0.00024417,0.00005293,-0.00002592,-0.00007171,0.00010800,-0.00
 014111,-0.00004499,-0.00011048,-0.00004499,-0.00005993,0.00004640,-0.0
 0004248,-0.00004758,-0.00001735,-0.00000985,0.00034967,0.00018329,-0.0
 0103974,-0.00071553,0.00549186,-0.00139844,-0.01506965,-0.01942698,0.0
 4845350,0.07214861,-0.06758084,-0.35120823,0.00203733,-0.00378152,0.00
 504249,0.00024190,0.00307839,0.00027861,-0.00109976,-0.00012682,-0.000
 33841,-0.00027327,-0.00034945,-0.00014371,0.00250672,-0.00128638,0.001
 34865,-0.00053183,-0.00024596,-0.00089650,-0.00074154,0.00054222,0.000
 38653,-0.00233405,0.00181058,-0.00014938,0.00202162,-0.00010495,-0.000
 47707,0.00545087,-0.00109333,-0.01225825,-0.08018198,0.06719854,0.3612
 6231,-0.00027108,-0.00024298,0.00319125,0.00344259,-0.00354507,-0.0291
 7559,-0.00343323,-0.00257264,0.00217673,-0.04824017,0.00533765,0.01748
 206,-0.00144025,0.00518653,0.02334078,-0.00136641,0.00347360,0.0004974
 8,-0.00021547,-0.00065159,-0.00030231,-0.00061316,-0.00111444,0.000355
 29,0.00130801,-0.00159128,0.00139967,-0.00006354,-0.00222534,0.0026188
 9,0.00008537,-0.00033581,0.00040778,-0.00160170,-0.00015156,-0.0007551
 7,0.05480371,-0.00061713,0.00003087,0.00106103,0.00444396,-0.00066209,
 -0.01755492,-0.00311663,-0.00204790,0.00164389,0.00262470,-0.04909730,
 -0.04996064,0.00286060,-0.00205388,-0.01184126,0.00007362,-0.00135391,
 -0.00027683,0.00009963,0.00012358,-0.00010454,0.00056732,0.00038135,-0
 .00054659,0.00202219,-0.00555456,0.00073461,-0.00623476,-0.00480974,0.
 03768505,-0.00009986,-0.00023650,0.00018238,-0.00033191,0.00042029,0.0
 0002865,-0.00249811,0.06229378,0.00055604,0.00011548,0.00054184,-0.002
 93463,-0.00626614,-0.00894479,-0.00051102,0.00163200,0.00025678,0.0249
 0223,-0.03456425,-0.30949509,0.00041152,-0.00162412,-0.00151544,0.0007
 0312,-0.00051557,0.00011027,-0.00023870,-0.00000737,-0.00016129,-0.000
 18366,0.00019143,0.00016600,-0.00125974,0.00214432,0.00004869,0.001955
 14,0.00086977,-0.00998989,-0.00016446,-0.00023283,0.00020617,-0.000694
 31,0.00012143,0.00046117,-0.02328152,0.03734998,0.32639537,-0.00077902
 ,-0.00023237,-0.00066331,-0.00166105,0.00107778,0.00047074,-0.00039742
 ,0.00048220,0.00040980,-0.01039570,0.00821434,-0.01789049,-0.11326743,
 0.04829775,-0.10814334,0.00967190,-0.00509095,0.01452569,0.00128472,0.
 00155409,0.00093361,-0.00054567,0.00013365,-0.00107955,0.00156385,-0.0
 0460356,0.00176347,-0.00277840,-0.00015406,0.00104645,-0.00033887,0.00
 006681,0.00006302,0.00000702,-0.00006260,0.00010919,0.00104339,-0.0002
 4090,-0.00039539,0.11804357,0.00002305,-0.00004834,0.00006522,-0.00023
 363,-0.00094513,-0.00050792,-0.00028515,0.00016340,0.00040032,0.005448
 40,-0.00375516,0.00839793,0.04660047,-0.08006267,0.07586786,0.01096485
 ,-0.01002283,0.01825428,0.00136502,0.00266411,-0.00092496,-0.00057073,
 0.00051192,-0.00065773,-0.00122542,-0.00353792,0.00079941,0.00101314,-
 0.00259250,0.00062707,0.00004441,-0.00004022,0.00004377,0.00003588,-0.
 00000791,-0.00001963,-0.00034961,0.00073145,0.00045551,-0.05225431,0.0
 8541202,0.00061943,-0.00002074,0.00026390,0.00064960,-0.00004097,-0.00
 008632,0.00027183,-0.00022960,0.00004703,0.00576531,-0.00519968,0.0101
 2012,-0.11030680,0.08331778,-0.22900033,-0.00575185,0.00304822,-0.0092
 8793,-0.00051128,-0.00240244,0.00071976,0.00097835,0.00031228,0.000474
 48,-0.00046729,0.00224247,-0.00070478,0.00241070,-0.00171688,-0.000260
 16,0.00013051,0.00000221,-0.00009012,-0.00002095,0.00005030,-0.0000021
 8,0.00050384,-0.00062924,0.00122933,0.11292880,-0.08488364,0.23773740,
 0.00115598,-0.00051826,0.00024944,0.00008718,0.00390987,0.00168418,0.0
 0033690,-0.00175523,-0.00117767,0.00078001,0.02100984,0.01874408,-0.05
 528110,-0.04009994,-0.03476313,-0.00350105,-0.01165819,-0.01273405,-0.
 00315670,-0.00451333,0.00116958,0.00017661,0.00070222,-0.00024018,-0.0
 0020106,0.00063920,-0.00123361,-0.00135620,0.00130724,0.00100241,0.000
 05887,0.00008107,-0.00013458,0.00011812,0.00014133,0.00000211,-0.00298
 628,0.00165933,0.00045284,-0.00096211,-0.01123935,-0.00761662,0.064037
 05,0.00000171,-0.00050165,-0.00019927,-0.00106573,0.00034640,-0.000406
 32,-0.00108135,0.00007551,0.00037249,-0.00132435,-0.00746861,-0.006240
 54,-0.03745233,-0.19992137,-0.12889389,-0.00380274,-0.01493306,-0.0132
 8337,-0.00186339,-0.00212610,0.00085810,0.00189404,0.00202436,-0.00040
 332,0.00007809,0.00081559,-0.00086787,0.00152758,-0.00139908,0.0011108
 4,0.00003127,0.00015178,-0.00000776,0.00007427,0.00003057,-0.00006797,
 0.00029964,-0.00028400,0.00030481,0.00207539,0.01197463,0.00699510,0.0
 4015004,0.21180333,-0.00014134,0.00001741,0.00007502,-0.00173930,-0.00
 168443,0.00048624,-0.00119592,0.00140325,-0.00013716,0.00240976,-0.004
 12926,-0.00468850,-0.03449163,-0.13164341,-0.16316303,0.00089487,0.011
 47628,0.01190343,0.00366050,0.00346640,0.00040932,-0.00016923,-0.00026
 392,0.00076950,-0.00043107,-0.00026494,-0.00030934,-0.00044444,0.00062
 685,-0.00113395,0.00000250,-0.00002375,0.00010165,-0.00005454,-0.00004
 318,0.00000695,0.00102647,-0.00095435,0.00026922,-0.00366651,-0.018472
 96,-0.01173559,0.03444123,0.13990991,0.16718931,0.00028550,-0.00036063
 ,-0.00015554,0.00017557,0.00008285,-0.00012968,-0.00015014,0.00025877,
 0.00015063,-0.00079847,0.00321516,0.00252895,-0.00224286,0.00255182,-0
 .00312645,0.00883650,0.02030784,-0.00670991,0.00152759,-0.00056886,0.0
 0233951,0.00037553,-0.00198722,0.00037095,-0.08087028,-0.09037220,0.02
 274219,-0.01120505,-0.02166574,0.00780855,-0.00016402,-0.00000407,-0.0
 0005923,0.00001491,0.00001812,0.00013252,-0.00005388,-0.00095707,0.000
 21303,0.00060915,0.00080022,-0.00021114,-0.00000102,-0.00008748,0.0000
 4678,0.08610464,0.00000900,-0.00001785,-0.00001803,-0.00011987,-0.0000
 8999,-0.00033574,-0.00000708,0.00009307,0.00019348,0.00165735,-0.00028
 902,-0.00188551,0.00187395,-0.00102864,0.00207686,-0.00675057,-0.01288
 536,0.00303029,-0.00080086,0.00205038,-0.00191693,0.00064399,0.0010204
 5,-0.00028916,-0.09582691,-0.28833483,0.05826052,0.00544161,0.01061909
 ,-0.00429983,-0.00004547,-0.00000197,-0.00002970,-0.00004372,0.0000170
 3,0.00003659,-0.00002684,0.00045878,-0.00019913,-0.00046390,-0.0004192
 7,0.00012447,-0.00002016,0.00014323,-0.00013922,0.09673499,0.29466854,
 0.00018834,-0.00003729,0.00016579,-0.00067493,0.00001895,-0.00116969,0
 .00029378,0.00030158,0.00045125,0.00311058,0.00049739,-0.00247047,0.00
 036552,0.00018157,-0.00096060,0.00230044,0.00920698,-0.00255812,0.0008
 4800,-0.00050175,0.00060982,-0.00009085,-0.00053228,0.00002719,0.02000
 250,0.04643710,-0.06184723,0.00896721,0.02166969,-0.00888437,0.0000497
 9,-0.00000588,-0.00001105,-0.00001955,0.00000709,-0.00002063,0.0002998
 0,0.00069624,-0.00019385,0.00001674,0.00037154,0.00005471,0.00006303,0
 .00028848,-0.00000658,-0.02782236,-0.05874243,0.06664999,0.00007808,-0
 .00017039,-0.00055227,0.00126369,-0.00032825,0.00019955,-0.00077696,0.
 00018891,0.00008740,0.00064597,0.00107728,-0.00063256,0.00209639,-0.00
 009079,0.00126890,-0.01107592,-0.01013635,-0.01953097,-0.00416908,0.00
 311375,-0.00287695,0.00165230,-0.00099667,0.00063501,-0.08329052,-0.05
 653558,-0.08853906,0.00551075,0.01596023,0.02876670,-0.00033829,-0.000
 01898,-0.00008159,-0.00000038,0.00005705,0.00025806,-0.00039553,-0.000
 08647,0.00001265,-0.00069473,-0.00006503,0.00040941,0.00028465,0.00045
 502,-0.00027259,-0.00214532,-0.00219264,-0.00775884,0.09371538,0.00016
 075,0.00020033,0.00065174,-0.00187190,0.00116904,0.00053582,0.00108812
 ,-0.00079321,-0.00068945,-0.00107469,-0.00131533,-0.00007426,-0.001082
 36,0.00054192,-0.00066531,0.01109921,0.00282767,0.01577509,0.00298931,
 -0.00025691,0.00124857,-0.00179231,0.00161089,0.00047725,-0.05914980,-
 0.10698381,-0.09811525,0.00654597,-0.00068529,-0.00399014,0.00046010,0
 .00004301,0.00020720,0.00004075,-0.00003076,-0.00038010,0.00019454,0.0
 0018150,-0.00014265,0.00033870,0.00020161,-0.00032708,0.00026694,-0.00
 033221,0.00061702,-0.00814442,-0.00695908,-0.02122558,0.04993081,0.109
 25082,-0.00008328,-0.00002986,0.00006385,0.00028015,0.00021127,-0.0006
 1926,-0.00007875,0.00017909,0.00017659,0.00062988,-0.00054816,0.000321
 06,0.00063182,0.00006672,0.00083698,-0.00775719,-0.00664508,-0.0103799
 5,-0.00139435,0.00155632,-0.00083763,0.00233409,-0.00031961,0.00113932
 ,-0.07789990,-0.09722519,-0.21512024,-0.00341092,-0.00987319,-0.016867
 17,0.00004878,0.00002655,0.00006874,0.00003160,-0.00010381,-0.00005500
 ,0.00007792,0.00016606,0.00002964,-0.00027516,-0.00004186,0.00030769,-
 0.00000383,0.00058090,-0.00004540,0.00175339,0.00348357,0.00941311,0.0
 8288892,0.10753645,0.23375030,0.00096865,-0.00028989,0.00074030,-0.004
 64930,-0.00262196,-0.00064867,0.00104008,0.00141393,0.00060376,0.00308
 293,0.00142405,0.00022733,-0.00115589,0.00076341,-0.00064522,0.0009787
 5,0.00281047,0.00350884,-0.00127307,-0.00203676,-0.00223183,-0.0001658
 6,-0.00036051,-0.00081728,0.00860086,0.01843973,0.02111955,-0.06726436
 ,-0.08844606,-0.07178623,0.00007574,0.00010546,0.00013069,-0.00026449,
 -0.00076101,-0.00015032,0.00033181,-0.00006791,0.00039220,-0.00030682,
 0.00020262,0.00025378,0.00024225,0.00026227,0.00002799,0.00031543,0.00
 021143,-0.00001513,-0.00312094,0.00002854,0.00178791,0.07025660,-0.000
 33166,-0.00019323,-0.00072649,0.00443668,-0.00274370,0.00277967,-0.002
 17900,-0.00084123,-0.00123970,-0.00896130,-0.01897481,-0.01645290,-0.0
 0076633,-0.00206820,0.00144281,0.00172209,0.00043610,-0.00035724,-0.00
 050933,-0.00015399,0.00030123,-0.00064236,0.00027576,0.00036768,0.0005
 3138,0.00198788,-0.00069606,-0.06751937,-0.20395889,-0.14885960,-0.000
 38057,-0.00004811,-0.00013059,-0.00006677,0.00010937,0.00029715,0.0000
 2350,0.00162717,-0.00014311,0.00043601,-0.00025356,-0.00033111,0.00017
 696,-0.00023782,-0.00001434,0.00066699,0.00074448,0.00145738,-0.000979
 59,0.00164955,0.00150367,0.07223843,0.21936691,0.00012385,-0.00035255,
 0.00042784,-0.00070983,0.00364784,-0.00148733,0.00091662,0.00013953,0.
 00102630,0.00446859,0.01435244,0.01062324,0.00007939,0.00069831,-0.000
 70174,0.00194702,-0.00068119,0.00006647,-0.00078816,-0.00009857,-0.000
 54299,-0.00029780,0.00015551,0.00047082,-0.00871041,-0.01612552,-0.018
 43135,-0.05470974,-0.16158635,-0.21101065,-0.00002990,0.00004398,-0.00
 011092,-0.00002486,0.00021163,0.00022468,0.00090222,0.00191987,0.00121
 064,-0.00002222,0.00027510,0.00010834,-0.00012188,0.00001311,0.0000405
 0,-0.00048449,0.00059094,0.00070340,0.00486124,-0.00042650,-0.00172232
 ,0.05570305,0.15830871,0.22054093,-0.01763960,-0.00555382,0.00292816,0
 .00954166,-0.00043320,-0.00268597,-0.00235303,0.00205727,0.00081343,-0
 .00510811,0.01058208,-0.00457967,0.00123179,-0.00212060,-0.00068821,0.
 00007864,-0.00136338,0.00276753,0.00041442,-0.00048393,-0.00066379,-0.
 00002738,0.00023586,-0.00002477,-0.01325977,0.00418924,0.00364120,-0.0
 2899974,0.00235777,-0.01380244,0.00074009,-0.00541600,0.00411498,0.000
 12597,-0.00394294,0.00115897,-0.00033418,-0.00010061,0.00006466,-0.000
 09639,-0.00027484,-0.00003563,0.00016789,-0.00017196,0.00009646,-0.000
 61378,-0.00027431,-0.00012406,0.00076044,-0.00002827,0.00043890,-0.007
 69235,0.00210423,-0.00310270,0.06306343,-0.01833901,-0.03759411,0.0183
 0188,0.01393723,-0.02286754,0.00322879,0.00004693,0.00241180,0.0009641
 5,0.00383331,-0.00957368,0.00381286,-0.00040990,0.00010654,0.00097539,
 0.00198285,-0.00265406,0.00219528,-0.00081405,0.00015596,-0.00073410,-
 0.00091942,0.00086618,-0.00003850,0.00060176,0.00192538,-0.00220593,0.
 00772494,-0.00991594,0.00310887,-0.00216967,-0.00286579,0.00123196,-0.
 00210090,-0.00014717,0.00204483,0.00078982,-0.00014886,0.00051043,0.00
 042593,0.00002636,-0.00031143,-0.00023959,-0.00016151,0.00011663,-0.00
 048908,0.00021097,-0.00008880,0.00081768,-0.00031973,-0.00052385,-0.00
 331625,0.00327632,-0.00108631,-0.00136257,0.07726889,0.00698083,0.0120
 4056,-0.02030119,-0.00740865,0.00889767,0.00264976,0.00099313,-0.00302
 855,-0.00203200,-0.00255328,0.00625752,-0.00161834,0.00026453,0.000006
 67,-0.00089130,0.00157242,-0.00027553,-0.00094389,-0.00047560,-0.00017
 041,-0.00062493,0.00068865,-0.00052019,-0.00003550,0.00115915,-0.00049
 770,0.00458672,-0.00755466,-0.00019756,-0.01335782,0.00164224,-0.00328
 384,0.00365949,0.00242022,0.01044670,-0.00346202,-0.00076560,0.0004006
 1,-0.00062474,-0.00013154,-0.00004931,0.00010464,0.00021665,-0.0000634
 4,-0.00003159,0.00061228,0.00005897,0.00004733,0.00085701,-0.00101283,
 -0.00046030,-0.00820071,0.00249282,-0.00143586,0.00968293,-0.03150215,
 0.03477155\\-0.00001796,0.00002519,-0.00001057,0.00003190,-0.00002579,
 0.00000346,-0.00000924,0.00001320,0.00000313,-0.00002390,0.00003680,-0
 .00001054,0.00001908,-0.00001815,-0.00000386,0.00000999,-0.00000427,-0
 .00000659,-0.00000437,-0.00000568,-0.00000064,-0.00000603,0.00000636,0
 .00000472,0.00001798,0.00000969,-0.00001962,-0.00004434,-0.00003013,0.
 00003663,0.00000324,-0.00000557,0.00000262,0.00000660,0.00000519,-0.00
 001313,0.00000524,-0.00000649,-0.00000030,-0.00000355,0.00000031,-0.00
 000056,-0.00000315,0.00000414,-0.00000124,-0.00000514,0.00000113,-0.00
 000165,0.00000029,-0.00000238,0.00000348,0.00000178,0.00000369,-0.0000
 0471,0.00002159,-0.00000723,0.00001938\\\@
 The archive entry for this job was punched.


 NO SCIENCE HAS EVER MADE MORE RAPID PROGRESS IN A
 SHORTER TIME THAN CHEMISTRY.
   -- MARTIN HEINRICH KLOPROTH, 1791
 (FIRST PROFESSOR OF CHEMISTRY AT THE UNIVERSITY OF BERLIN)
 Job cpu time:       0 days  0 hours 23 minutes 47.7 seconds.
 Elapsed time:       0 days  0 hours  0 minutes 45.1 seconds.
 File lengths (MBytes):  RWF=    175 Int=      0 D2E=      0 Chk=      5 Scr=      1
 Normal termination of Gaussian 16 at Thu Aug  1 12:52:45 2024.
