 
       ==============================================
       |                                            |
       |                 C R E S T                  |
       |                                            |
       |  Conformer-Rotamer Ensemble Sampling Tool  |
       |          based on the GFN methods          |
       |             P.Pracht, S.Grimme             |
       |          Universitaet Bonn, MCTC           |
       ==============================================
       Version 2.11.2, Fr 17. Dec 12:10:44 CEST 2021
  Using the xTB program. Compatible with xTB version 6.4.0
 
   Cite work conducted with this code as

   P. Pracht, F. Bohle, S. Grimme, PCCP, 2020, 22, 7169-7192.

   and  S. Grimme, JCTC, 2019, 15, 2847-2862.
 
   with help from:
   C.Bannwarth, F.Bohle, S.Ehlert, S.Grimme,
   C. Plett, P.Pracht, S. Spicher
 
   This program is distributed in the hope that it will be useful,
   but WITHOUT ANY WARRANTY; without even the implied warranty of
   MERCHANTABILITY or FITNESS FOR A PARTICULAR PURPOSE.

 Command line input:
 > crest 01181_r_0.xyz -T 28 -gfn2 -chrg 0 -uhf 0 -rthr 0.25 -shake 1 --mdlen 0.5

  -T 28 (CPUs/Threads selected)
  -gfn2 : Use of GFN2-xTB requested.
  -chrg 0
  -uhf 0
  -rthr 0.25
  --mdlen 0.5 (MD length in ps)
 
 -------------------------
 xTB Geometry Optimization
 -------------------------
 Geometry successfully optimized.
 
------------------------------------------------
Generating MTD length from a flexibility measure
------------------------------------------------
      -----------------------------------------------------------      
     |                   =====================                   |     
     |                           x T B                           |     
     |                   =====================                   |     
     |                         S. Grimme                         |     
     |          Mulliken Center for Theoretical Chemistry        |     
     |                    University of Bonn                     |     
      -----------------------------------------------------------      

   * xtb version 6.4.1 (afa7bdf) compiled by 'ehlert@majestix' on 2021-06-10

   xtb is free software: you can redistribute it and/or modify it under
   the terms of the GNU Lesser General Public License as published by
   the Free Software Foundation, either version 3 of the License, or
   (at your option) any later version.
   
   xtb is distributed in the hope that it will be useful,
   but WITHOUT ANY WARRANTY; without even the implied warranty of
   MERCHANTABILITY or FITNESS FOR A PARTICULAR PURPOSE.  See the
   GNU Lesser General Public License for more details.
   
   Cite this work as:
   * C. Bannwarth, E. Caldeweyher, S. Ehlert, A. Hansen, P. Pracht,
     J. Seibert, S. Spicher, S. Grimme, WIREs Comput. Mol. Sci., 2020, 11,
     e01493. DOI: 10.1002/wcms.1493
   
   for GFN2-xTB:
   * C. Bannwarth, S. Ehlert and S. Grimme., J. Chem. Theory Comput., 2019,
     15, 1652-1671. DOI: 10.1021/acs.jctc.8b01176
   for GFN1-xTB:
   * S. Grimme, C. Bannwarth, P. Shushkov, J. Chem. Theory Comput., 2017,
     13, 1989-2009. DOI: 10.1021/acs.jctc.7b00118
   for GFN0-xTB:
   * P. Pracht, E. Caldeweyher, S. Ehlert, S. Grimme, ChemRxiv, 2019, preprint.
     DOI: 10.26434/chemrxiv.8326202.v1
   for GFN-FF:
   * S. Spicher and S. Grimme, Angew. Chem. Int. Ed., 2020, 59, 15665-15673.
     DOI: 10.1002/anie.202004239
   
   for DFT-D4:
   * E. Caldeweyher, C. Bannwarth and S. Grimme, J. Chem. Phys., 2017,
     147, 034112. DOI: 10.1063/1.4993215
   * E. Caldeweyher, S. Ehlert, A. Hansen, H. Neugebauer, S. Spicher,
     C. Bannwarth and S. Grimme, J. Chem. Phys., 2019, 150, 154122.
     DOI: 10.1063/1.5090222
   * E. Caldeweyher, J.-M. Mewes, S. Ehlert and S. Grimme, Phys. Chem. Chem. Phys.
     2020, 22, 8499-8512. DOI: 10.1039/D0CP00502A
   
   for sTDA-xTB:
   * S. Grimme and C. Bannwarth, J. Chem. Phys., 2016, 145, 054103.
     DOI: 10.1063/1.4959605
   
   in the mass-spec context:
   * V. Asgeirsson, C. Bauer and S. Grimme, Chem. Sci., 2017, 8, 4879.
     DOI: 10.1039/c7sc00601b
   * J. Koopman and S. Grimme, ACS Omega 2019, 4, 12, 15120-15133.
     DOI: 10.1021/acsomega.9b02011
   
   for metadynamics refer to:
   * S. Grimme, J. Chem. Theory Comput., 2019, 155, 2847-2862
     DOI: 10.1021/acs.jctc.9b00143
   
   for SPH calculations refer to:
   * S. Spicher and S. Grimme, J. Chem. Theory Comput., 2021, 17, 1701-1714
     DOI: 10.1021/acs.jctc.0c01306
   
   with help from (in alphabetical order)
   P. Atkinson, C. Bannwarth, F. Bohle, G. Brandenburg, E. Caldeweyher
   M. Checinski, S. Dohm, S. Ehlert, S. Ehrlich, I. Gerasimov, J. Koopman
   C. Lavigne, S. Lehtola, F. März, M. Müller, F. Musil, H. Neugebauer
   J. Pisarek, C. Plett, P. Pracht, J. Seibert, P. Shushkov, S. Spicher
   M. Stahn, M. Steiner, T. Strunk, J. Stückrath, T. Rose, and J. Unsleber
   
 * started run on 2024/07/31 at 10:41:06.028     

           -------------------------------------------------
          |                Calculation Setup                |
           -------------------------------------------------

          program call               : xtb tmpcoord --gfn0 --sp
          hostname                   : node30
          coordinate file            : tmpcoord
          omp threads                :                    28
          number of atoms            :                    39
          number of electrons        :                   112
          charge                     :                     0
          spin                       :                   0.0
          first test random number   :      0.14819737179055

   ID    Z sym.   atoms
    1    6 c      1-5, 7-12, 15-23
    2    8 o      6
    3    7 n      13, 14
    4    1 h      24-39
########################################################################
[WARNING] Please study the warnings concerning your input carefully
-1- prog_main_parseArguments: The use of '--gfn0' is discouraged, please use '--gfn 0' next time
########################################################################

           -------------------------------------------------
          |                 G F N 0 - x T B                 |
           -------------------------------------------------

        Reference                      10.26434/chemrxiv.8326202.v1
      * Hamiltonian:
        H0-scaling (s, p, d)           2.000000    2.486800    2.270000
        zeta-weighting                 1.000000
      * Dispersion:
        s8                             2.850000
        a1                             0.800000
        a2                             4.600000
        s9                             0.000000
      * Repulsion:
        kExp                           1.500000
        rExp                           1.000000
      * Coulomb:
        alpha                          0.000000
        third order                    atomic
        anisotropic                    false
      * Polar bond correction:
        rad-shift                      0.053700
        strength                      -0.012900
        en-exp                         3.484700
        en-scale                       0.509700


          ...................................................
          :                      SETUP                      :
          :.................................................:
          :  # basis functions                 124          :
          :  # atomic orbitals                 124          :
          :  # shells                           78          :
          :  # electrons                       112          :
          :  electronic temp.          300.0000000     K    :
          :  accuracy                    1.0000000          :
          :  -> integral cutoff          0.2500000E+02      :
          :  -> integral neglect         0.1000000E-07      :
          ...................................................
  Checking positiv definite overlap ...  done.
 

         #    Occupation            Energy/Eh            Energy/eV
      -------------------------------------------------------------
         1        2.0000           -0.7134893             -19.4150
       ...           ...                  ...                  ...
        50        2.0000           -0.4396063             -11.9623
        51        2.0000           -0.4349560             -11.8358
        52        2.0000           -0.4340050             -11.8099
        53        2.0000           -0.4316088             -11.7447
        54        2.0000           -0.4291102             -11.6767
        55        2.0000           -0.4265805             -11.6078
        56        2.0000           -0.4099183             -11.1544 (HOMO)
        57                         -0.3085440              -8.3959 (LUMO)
        58                         -0.2800388              -7.6202
        59                         -0.2709623              -7.3733
        60                         -0.2681315              -7.2962
        61                         -0.2676583              -7.2834
       ...                                ...                  ...
       124                          0.6634394              18.0531
      -------------------------------------------------------------
                  HL-Gap            0.1013743 Eh            2.7585 eV
             Fermi-level            0.0000000 Eh            0.0000 eV

 EHT (total)                   0 d,  0 h,  0 min,  0.024 sec
 EHT setup                      ...        0 min,  0.000 sec (  2.032%)
 Coordination number            ...        0 min,  0.001 sec (  3.153%)
 EEQ model density              ...        0 min,  0.000 sec (  1.204%)
 D4 Dispersion                  ...        0 min,  0.002 sec (  8.729%)
 Integral evaluation            ...        0 min,  0.001 sec (  3.437%)
 Cholesky factorization         ...        0 min,  0.000 sec (  0.991%)
 Zeroth order Hamiltonian       ...        0 min,  0.017 sec ( 72.345%)
 Gradient calculation           ...        0 min,  0.001 sec (  5.640%)

         :::::::::::::::::::::::::::::::::::::::::::::::::::::
         ::                     SUMMARY                     ::
         :::::::::::::::::::::::::::::::::::::::::::::::::::::
         :: total energy             -60.161185561863 Eh    ::
         :: gradient norm              0.084637470479 Eh/a0 ::
         :: HOMO-LUMO gap              2.758534798254 eV    ::
         ::.................................................::
         :: H0 energy                -60.957603189820 Eh    ::
         :: repulsion energy           1.030310407241 Eh    ::
         :: electrostat energy        -0.134953745402 Eh    ::
         :: -> Gsolv                   0.000000000000 Eh    ::
         ::    -> Gsasa                0.000000000000 Eh    ::
         ::    -> Gshift               0.000000000000 Eh    ::
         :: dispersion energy         -0.025784543372 Eh    ::
         :: short-range corr.         -0.073154490510 Eh    ::
         :: add. restraining           0.000000000000 Eh    ::
         :: total charge              -0.000000000000 e     ::
         :::::::::::::::::::::::::::::::::::::::::::::::::::::

           -------------------------------------------------
          |                Property Printout                |
           -------------------------------------------------

    * Orbital Energies and Occupations

         #    Occupation            Energy/Eh            Energy/eV
      -------------------------------------------------------------
         1        2.0000           -0.7134893             -19.4150
       ...           ...                  ...                  ...
        44        2.0000           -0.4689354             -12.7604
        45        2.0000           -0.4681741             -12.7397
        46        2.0000           -0.4658968             -12.6777
        47        2.0000           -0.4617825             -12.5657
        48        2.0000           -0.4568177             -12.4306
        49        2.0000           -0.4446100             -12.0985
        50        2.0000           -0.4396063             -11.9623
        51        2.0000           -0.4349560             -11.8358
        52        2.0000           -0.4340050             -11.8099
        53        2.0000           -0.4316088             -11.7447
        54        2.0000           -0.4291102             -11.6767
        55        2.0000           -0.4265805             -11.6078
        56        2.0000           -0.4099183             -11.1544 (HOMO)
        57                         -0.3085440              -8.3959 (LUMO)
        58                         -0.2800388              -7.6202
        59                         -0.2709623              -7.3733
        60                         -0.2681315              -7.2962
        61                         -0.2676583              -7.2834
        62                         -0.2638448              -7.1796
        63                         -0.2142049              -5.8288
        64                         -0.1470607              -4.0017
        65                         -0.1451629              -3.9501
        66                         -0.1358802              -3.6975
        67                         -0.1265174              -3.4427
       ...                                ...                  ...
       124                          0.6634394              18.0531
      -------------------------------------------------------------
                  HL-Gap            0.1013743 Eh            2.7585 eV
             Fermi-level            0.0000000 Eh            0.0000 eV

     #   Z          covCN         q      C6AA      α(0)
     1   6 c        2.921    -0.083    31.689     9.202
     2   6 c        2.920    -0.073    31.428     9.164
     3   6 c        2.925    -0.120    32.720     9.351
     4   6 c        2.971     0.015    29.165     8.831
     5   6 c        3.833     0.131    20.665     6.547
     6   8 o        1.707    -0.468    22.019     6.349
     7   6 c        2.998     0.550    19.032     7.134
     8   6 c        2.967     0.335    22.490     7.754
     9   6 c        2.919    -0.212    35.440     9.732
    10   6 c        2.927    -0.025    30.164     8.979
    11   6 c        2.914    -0.197    34.965     9.666
    12   6 c        2.911     0.318    22.810     7.807
    13   7 n        1.843    -0.661    39.719     9.375
    14   7 n        1.838    -0.725    42.215     9.664
    15   6 c        3.927     0.274    18.392     6.171
    16   6 c        2.973     0.014    29.182     8.833
    17   6 c        2.924    -0.070    31.342     9.152
    18   6 c        2.920    -0.091    31.911     9.234
    19   6 c        2.920    -0.081    31.643     9.196
    20   6 c        2.920    -0.069    31.327     9.150
    21   6 c        2.925    -0.124    32.824     9.366
    22   6 c        2.924    -0.082    31.658     9.198
    23   6 c        2.920    -0.090    31.880     9.230
    24   1 h        0.926     0.094     1.838     2.120
    25   1 h        0.926     0.093     1.848     2.126
    26   1 h        0.926     0.092     1.863     2.134
    27   1 h        0.924     0.050     2.323     2.383
    28   1 h        0.926     0.142     1.446     1.880
    29   1 h        0.926     0.094     1.840     2.121
    30   1 h        0.926     0.110     1.700     2.039
    31   1 h        0.925     0.066     2.130     2.282
    32   1 h        0.924     0.047     2.352     2.399
    33   1 h        0.926     0.150     1.392     1.845
    34   1 h        0.926     0.100     1.780     2.087
    35   1 h        0.926     0.095     1.829     2.115
    36   1 h        0.926     0.094     1.844     2.124
    37   1 h        0.926     0.092     1.857     2.131
    38   1 h        0.926     0.119     1.621     1.991
    39   1 h        0.926     0.097     1.812     2.105

 Mol. C6AA /au·bohr⁶  :      21408.019345
 Mol. C8AA /au·bohr⁸  :     537167.926105
 Mol. α(0) /au        :        232.966252


Wiberg/Mayer (AO) data.
largest (>0.10) Wiberg bond orders for each atom

 ---------------------------------------------------------------------------
     #   Z sym  total        # sym  WBO       # sym  WBO       # sym  WBO
 ---------------------------------------------------------------------------
     1   6 c    3.987 --    23 c    1.439     2 c    1.436    24 h    0.973
                             4 c    0.110
     2   6 c    3.988 --     3 c    1.447     1 c    1.436    25 h    0.972
                            22 c    0.111
     3   6 c    3.988 --     2 c    1.447     4 c    1.406    26 h    0.970
                            23 c    0.111
     4   6 c    3.975 --    22 c    1.409     3 c    1.406     5 c    1.001
                             1 c    0.110
     5   6 c    3.955 --     4 c    1.001    27 h    0.967     6 o    0.966
                            15 c    0.916
     6   8 o    2.471 --     7 c    1.200     5 c    0.966    14 n    0.168
     7   6 c    3.887 --    14 n    1.552     6 o    1.200     8 c    1.033
     8   6 c    3.944 --     9 c    1.387    13 n    1.334     7 c    1.033
                            11 c    0.104
     9   6 c    3.986 --    10 c    1.440     8 c    1.387    28 h    0.969
                            12 c    0.102
    10   6 c    3.983 --     9 c    1.440    11 c    1.436    29 h    0.972
    11   6 c    3.987 --    10 c    1.436    12 c    1.420    30 h    0.973
                             8 c    0.104
    12   6 c    3.950 --    11 c    1.420    13 n    1.411    31 h    0.967
                             9 c    0.102
    13   7 n    2.960 --    12 c    1.411     8 c    1.334
    14   7 n    2.813 --     7 c    1.552    15 c    0.967     6 o    0.168
    15   6 c    3.953 --    16 c    0.994    14 n    0.967    32 h    0.962
                             5 c    0.916
    16   6 c    3.974 --    17 c    1.411    21 c    1.409    15 c    0.994
                            19 c    0.110
    17   6 c    3.989 --    18 c    1.444    16 c    1.411    33 h    0.968
                            20 c    0.111
    18   6 c    3.988 --    17 c    1.444    19 c    1.439    34 h    0.972
                            21 c    0.112
    19   6 c    3.987 --    18 c    1.439    20 c    1.436    35 h    0.973
                            16 c    0.110
    20   6 c    3.988 --    21 c    1.446    19 c    1.436    36 h    0.973
                            17 c    0.111
    21   6 c    3.988 --    20 c    1.446    16 c    1.409    37 h    0.970
                            18 c    0.112
    22   6 c    3.989 --    23 c    1.444     4 c    1.409    38 h    0.968
                             2 c    0.111
    23   6 c    3.988 --    22 c    1.444     1 c    1.439    39 h    0.972
                             3 c    0.111
    24   1 h    0.984 --     1 c    0.973
    25   1 h    0.984 --     2 c    0.972
    26   1 h    0.980 --     3 c    0.970
    27   1 h    0.994 --     5 c    0.967
    28   1 h    0.991 --     9 c    0.969
    29   1 h    0.984 --    10 c    0.972
    30   1 h    0.984 --    11 c    0.973
    31   1 h    0.997 --    12 c    0.967
    32   1 h    0.989 --    15 c    0.962
    33   1 h    0.987 --    17 c    0.968
    34   1 h    0.984 --    18 c    0.972
    35   1 h    0.983 --    19 c    0.973
    36   1 h    0.984 --    20 c    0.973
    37   1 h    0.980 --    21 c    0.970
    38   1 h    0.991 --    22 c    0.968
    39   1 h    0.984 --    23 c    0.972
 ---------------------------------------------------------------------------

Topologies differ in total number of bonds
Writing topology from bond orders to xtbtopo.mol

 dipole moment from electron density (au)
     X       Y       Z   
   0.0757  -2.7048  -0.2789  total (Debye):    6.914


           -------------------------------------------------
          | TOTAL ENERGY              -60.161185561863 Eh   |
          | GRADIENT NORM               0.084637470479 Eh/α |
          | HOMO-LUMO GAP               2.758534798254 eV   |
           -------------------------------------------------

------------------------------------------------------------------------
 * finished run on 2024/07/31 at 10:41:06.600     
------------------------------------------------------------------------
 total:
 * wall-time:     0 d,  0 h,  0 min,  0.572 sec
 *  cpu-time:     0 d,  0 h,  0 min,  6.789 sec
 * ratio c/w:    11.867 speedup
 SCF:
 * wall-time:     0 d,  0 h,  0 min,  0.024 sec
 *  cpu-time:     0 d,  0 h,  0 min,  0.527 sec
 * ratio c/w:    21.568 speedup

 Calculating WBOs... done.
      -----------------------------------------------------------      
     |                   =====================                   |     
     |                           x T B                           |     
     |                   =====================                   |     
     |                         S. Grimme                         |     
     |          Mulliken Center for Theoretical Chemistry        |     
     |                    University of Bonn                     |     
      -----------------------------------------------------------      

   * xtb version 6.4.1 (afa7bdf) compiled by 'ehlert@majestix' on 2021-06-10

   xtb is free software: you can redistribute it and/or modify it under
   the terms of the GNU Lesser General Public License as published by
   the Free Software Foundation, either version 3 of the License, or
   (at your option) any later version.
   
   xtb is distributed in the hope that it will be useful,
   but WITHOUT ANY WARRANTY; without even the implied warranty of
   MERCHANTABILITY or FITNESS FOR A PARTICULAR PURPOSE.  See the
   GNU Lesser General Public License for more details.
   
   Cite this work as:
   * C. Bannwarth, E. Caldeweyher, S. Ehlert, A. Hansen, P. Pracht,
     J. Seibert, S. Spicher, S. Grimme, WIREs Comput. Mol. Sci., 2020, 11,
     e01493. DOI: 10.1002/wcms.1493
   
   for GFN2-xTB:
   * C. Bannwarth, S. Ehlert and S. Grimme., J. Chem. Theory Comput., 2019,
     15, 1652-1671. DOI: 10.1021/acs.jctc.8b01176
   for GFN1-xTB:
   * S. Grimme, C. Bannwarth, P. Shushkov, J. Chem. Theory Comput., 2017,
     13, 1989-2009. DOI: 10.1021/acs.jctc.7b00118
   for GFN0-xTB:
   * P. Pracht, E. Caldeweyher, S. Ehlert, S. Grimme, ChemRxiv, 2019, preprint.
     DOI: 10.26434/chemrxiv.8326202.v1
   for GFN-FF:
   * S. Spicher and S. Grimme, Angew. Chem. Int. Ed., 2020, 59, 15665-15673.
     DOI: 10.1002/anie.202004239
   
   for DFT-D4:
   * E. Caldeweyher, C. Bannwarth and S. Grimme, J. Chem. Phys., 2017,
     147, 034112. DOI: 10.1063/1.4993215
   * E. Caldeweyher, S. Ehlert, A. Hansen, H. Neugebauer, S. Spicher,
     C. Bannwarth and S. Grimme, J. Chem. Phys., 2019, 150, 154122.
     DOI: 10.1063/1.5090222
   * E. Caldeweyher, J.-M. Mewes, S. Ehlert and S. Grimme, Phys. Chem. Chem. Phys.
     2020, 22, 8499-8512. DOI: 10.1039/D0CP00502A
   
   for sTDA-xTB:
   * S. Grimme and C. Bannwarth, J. Chem. Phys., 2016, 145, 054103.
     DOI: 10.1063/1.4959605
   
   in the mass-spec context:
   * V. Asgeirsson, C. Bauer and S. Grimme, Chem. Sci., 2017, 8, 4879.
     DOI: 10.1039/c7sc00601b
   * J. Koopman and S. Grimme, ACS Omega 2019, 4, 12, 15120-15133.
     DOI: 10.1021/acsomega.9b02011
   
   for metadynamics refer to:
   * S. Grimme, J. Chem. Theory Comput., 2019, 155, 2847-2862
     DOI: 10.1021/acs.jctc.9b00143
   
   for SPH calculations refer to:
   * S. Spicher and S. Grimme, J. Chem. Theory Comput., 2021, 17, 1701-1714
     DOI: 10.1021/acs.jctc.0c01306
   
   with help from (in alphabetical order)
   P. Atkinson, C. Bannwarth, F. Bohle, G. Brandenburg, E. Caldeweyher
   M. Checinski, S. Dohm, S. Ehlert, S. Ehrlich, I. Gerasimov, J. Koopman
   C. Lavigne, S. Lehtola, F. März, M. Müller, F. Musil, H. Neugebauer
   J. Pisarek, C. Plett, P. Pracht, J. Seibert, P. Shushkov, S. Spicher
   M. Stahn, M. Steiner, T. Strunk, J. Stückrath, T. Rose, and J. Unsleber
   
 * started run on 2024/07/31 at 10:41:06.660     

           -------------------------------------------------
          |                Calculation Setup                |
           -------------------------------------------------

          program call               : xtb tmpcoord --gfnff --sp
          hostname                   : node30
          coordinate file            : tmpcoord
          omp threads                :                    28
          number of atoms            :                    39
          number of electrons        :                   112
          charge                     :                     0
          spin                       :                   0.0
          first test random number   :      0.61914372473360

   ID    Z sym.   atoms
    1    6 c      1-5, 7-12, 15-23
    2    8 o      6
    3    7 n      13, 14
    4    1 h      24-39
 
          ==================== Thresholds ====================
          CN  :   150.00000
          rep :   500.00000
          disp:  2500.00000
          HB1 :   250.00000
          HB2 :   450.00000
 
          Pauling EN used:
          Z : 1  EN :  2.20
          Z : 6  EN :  2.55
          Z : 7  EN :  3.04
          Z : 8  EN :  3.44
          electric field strengths (au): 0.000
 
           ------------------------------------------------- 
          |           Force Field Initialization            |
           ------------------------------------------------- 
 
          distances ...
          ----------------------------------------
          generating topology and atomic info file ...
          pair mat ...
          computing topology distances matrix with Floyd-Warshall algo ...
          making topology EEQ charges ...
          #fragments for EEQ constrain: 1
          ----------------------------------------
          generating topology and atomic info file ...
          pair mat ...
          computing topology distances matrix with Floyd-Warshall algo ...
          making topology EEQ charges ...
          #fragments for EEQ constrain: 1
          rings ...
          # BATM   397
          # H in HB   14
          doing iterative Hueckel for 3 subsystem(s) ...
 
  atom   neighbors  erfCN metchar sp-hybrid imet pi  qest     coordinates
    1  c       3    2.81   0.00         2    0    1  -0.020   -6.774101   -2.074017   -2.655210
    2  c       3    2.81   0.00         2    0    1  -0.030   -7.265782   -1.873033   -0.093418
    3  c       3    2.82   0.00         2    0    1  -0.031   -5.293244   -1.763583    1.615382
    4  c       3    2.81   0.00         2    0    1  -0.007   -2.807473   -1.839764    0.776638
    5  c       4    3.55   0.00         3    0    0   0.081   -0.685126   -1.533571    2.638713
    6  o       2    1.92   0.00         3    0    1  -0.346    1.571574   -2.734309    1.799954
    7  c       3    2.99   0.00         2    0    1   0.152    3.363465   -0.902130    1.575854
    8  c       3    2.87   0.00         2    0    1   0.055    5.850562   -1.679738    0.657151
    9  c       3    2.81   0.00         2    0    1  -0.024    6.302112   -4.201715    0.032544
   10  c       3    2.82   0.00         2    0    1  -0.030    8.682829   -4.862012   -0.827267
   11  c       3    2.81   0.00         2    0    1  -0.017   10.512098   -2.999388   -1.033141
   12  c       3    2.86   0.00         2    0    1   0.034    9.859822   -0.543564   -0.368356
   13  n       2    1.95   0.00         2    0    1  -0.218    7.602782    0.107118    0.450678
   14  n       2    1.94   0.00         2    0    1  -0.232    2.741704    1.323169    2.184855
   15  c       4    3.57   0.00         3    0    0   0.042    0.141681    1.325550    2.963800
   16  c       3    2.82   0.00         2    0    1  -0.007   -1.462534    3.105154    1.423801
   17  c       3    2.82   0.00         2    0    1  -0.032   -0.797437    3.728844   -1.034425
   18  c       3    2.81   0.00         2    0    1  -0.031   -2.355976    5.254427   -2.474841
   19  c       3    2.81   0.00         2    0    1  -0.020   -4.595221    6.163162   -1.475832
   20  c       3    2.81   0.00         2    0    1  -0.031   -5.256705    5.565335    0.983560
   21  c       3    2.82   0.00         2    0    1  -0.032   -3.695977    4.047345    2.428059
   22  c       3    2.82   0.00         2    0    1  -0.031   -2.325608   -2.058296   -1.792174
   23  c       3    2.81   0.00         2    0    1  -0.030   -4.301348   -2.182271   -3.497986
   24  h       1    0.97   0.00         0    0    0   0.038   -8.315800   -2.151847   -3.989916
   25  h       1    0.97   0.00         0    0    0   0.054   -9.192406   -1.799691    0.575833
   26  h       1    0.97   0.00         0    0    0   0.052   -5.679769   -1.608930    3.614517
   27  h       1    0.97   0.00         0    0    0   0.042   -1.210290   -2.361049    4.464021
   28  h       1    0.97   0.00         0    0    0   0.061    4.812973   -5.579238    0.227450
   29  h       1    0.97   0.00         0    0    0   0.054    9.103069   -6.796990   -1.326910
   30  h       1    0.97   0.00         0    0    0   0.047   12.391993   -3.434988   -1.691639
   31  h       1    0.97   0.00         0    0    0   0.057   11.216570    0.980915   -0.500236
   32  h       1    0.97   0.00         0    0    0   0.043    0.049355    1.887539    4.955582
   33  h       1    0.97   0.00         0    0    0   0.051    0.962737    3.034398   -1.797244
   34  h       1    0.97   0.00         0    0    0   0.054   -1.822110    5.729786   -4.386735
   35  h       1    0.97   0.00         0    0    0   0.038   -5.817406    7.345226   -2.604971
   36  h       1    0.97   0.00         0    0    0   0.054   -6.992878    6.285420    1.779883
   37  h       1    0.97   0.00         0    0    0   0.051   -4.215956    3.587443    4.348999
   38  h       1    0.97   0.00         0    0    0   0.052   -0.396539   -2.139340   -2.453627
   39  h       1    0.97   0.00         0    0    0   0.054   -3.906017   -2.350989   -5.493161
 
          #atoms :   39
          #bonds :   42
          #angl  :   69
          #tors  :   121
          #nmol  :   1
          #optfrag :   1
           ------------------------------------------------- 
          |                   G F N - F F                   |
          |          A general generic force-field          |
          |                  Version 1.0.3                  | 
           ------------------------------------------------- 
          nhb123   1612 210 0

 E+G (total)                   0 d,  0 h,  0 min,  0.003 sec
 distance/D3 list               ...        0 min,  0.000 sec (  0.659%)
 non bonded repulsion           ...        0 min,  0.000 sec (  9.931%)
 dCN                            ...        0 min,  0.000 sec (  2.128%)
 EEQ energy and q               ...        0 min,  0.000 sec ( 12.779%)
 D3                             ...        0 min,  0.000 sec ( 12.237%)
 EEQ gradient                   ...        0 min,  0.000 sec (  8.318%)
 bonds                          ...        0 min,  0.000 sec (  9.526%)
 bend and torsion               ...        0 min,  0.001 sec ( 15.538%)
 bonded ATM                     ...        0 min,  0.000 sec (  1.524%)
 HB/XB (incl list setup)        ...        0 min,  0.001 sec ( 19.944%)

         :::::::::::::::::::::::::::::::::::::::::::::::::::::
         ::                     SUMMARY                     ::
         :::::::::::::::::::::::::::::::::::::::::::::::::::::
         :: total energy              -8.122554686715 Eh    ::
         :: gradient norm              0.069123739200 Eh/a0 ::
         ::.................................................::
         :: bond energy               -8.575048301663 Eh    ::
         :: angle energy               0.011297051859 Eh    ::
         :: torsion energy             0.007015270576 Eh    ::
         :: repulsion energy           0.568105518230 Eh    ::
         :: electrostat energy        -0.083620297372 Eh    ::
         :: dispersion energy         -0.038180035490 Eh    ::
         :: HB energy                 -0.000353054678 Eh    ::
         :: XB energy                  0.000000000000 Eh    ::
         :: bonded atm energy         -0.011770838177 Eh    ::
         :: external energy            0.000000000000 Eh    ::
         :: add. restraining           0.000000000000 Eh    ::
         :: total charge               0.000000000000 e     ::
         :::::::::::::::::::::::::::::::::::::::::::::::::::::

           -------------------------------------------------
          |                Property Printout                |
           -------------------------------------------------

           -------------------------------------------------
          | TOTAL ENERGY               -8.122554686715 Eh   |
          | GRADIENT NORM               0.069123739200 Eh/α |
           -------------------------------------------------

------------------------------------------------------------------------
 * finished run on 2024/07/31 at 10:41:06.719     
------------------------------------------------------------------------
 total:
 * wall-time:     0 d,  0 h,  0 min,  0.059 sec
 *  cpu-time:     0 d,  0 h,  0 min,  0.900 sec
 * ratio c/w:    15.321 speedup
 SCF:
 * wall-time:     0 d,  0 h,  0 min,  0.006 sec
 *  cpu-time:     0 d,  0 h,  0 min,  0.128 sec
 * ratio c/w:    22.641 speedup

 Calculating NCI flexibility... done.
     covalent flexibility measure :   0.039
 non-covalent flexibility measure :   1.000
 flexibility measure :   0.119
 t(MTD) / ps set by command line  :     0.5
 t(MTD) / ps    :     0.5
 Σ(t(MTD)) / ps :     7.0 (14 MTDs)
 
-------------------------------------
Starting a trial MTD to test settings
-------------------------------------
 Estimated runtime for one MTD (0.5 ps) on a single thread: 53 sec
 Estimated runtime for a batch of 14 MTDs on 28 threads: 27 sec
 
 list of Vbias parameters applied:
$metadyn    0.00300   1.300
$metadyn    0.00150   1.300
$metadyn    0.00075   1.300
$metadyn    0.00300   0.780
$metadyn    0.00150   0.780
$metadyn    0.00075   0.780
$metadyn    0.00300   0.468
$metadyn    0.00150   0.468
$metadyn    0.00075   0.468
$metadyn    0.00300   0.281
$metadyn    0.00150   0.281
$metadyn    0.00075   0.281
$metadyn    0.00100   0.100
$metadyn    0.00500   0.800
 
*******************************************************************************************
**                        N E W    I T E R A T I O N    C Y C L E                        **
*******************************************************************************************
 
========================================
            MTD Iteration  1
========================================
 
     ========================================
     |         Meta-MD (MTD) Sampling       |
     ========================================
 
Starting Meta-MD   1 with the settings:
     MD time /ps        :     0.5
     dt /fs             :     1.5
     dumpstep(trj) /fs  :     100
     dumpstep(Vbias)/ps :     1.0
     Vbias factor k /Eh :  0.1170
     Vbias exp α /bohr⁻²:    1.30
Starting Meta-MD   4 with the settings:
     MD time /ps        :     0.5
     dt /fs             :     1.5
     dumpstep(trj) /fs  :     100
     dumpstep(Vbias)/ps :     1.0
     Vbias factor k /Eh :  0.1170
     Vbias exp α /bohr⁻²:    0.78
Starting Meta-MD   3 with the settings:
     MD time /ps        :     0.5
     dt /fs             :     1.5
     dumpstep(trj) /fs  :     100
     dumpstep(Vbias)/ps :     1.0
     Vbias factor k /Eh :  0.0293
     Vbias exp α /bohr⁻²:    1.30
Starting Meta-MD   2 with the settings:
     MD time /ps        :     0.5
     dt /fs             :     1.5
     dumpstep(trj) /fs  :     100
     dumpstep(Vbias)/ps :     1.0
     Vbias factor k /Eh :  0.0585
     Vbias exp α /bohr⁻²:    1.30
Starting Meta-MD   5 with the settings:
     MD time /ps        :     0.5
     dt /fs             :     1.5
     dumpstep(trj) /fs  :     100
     dumpstep(Vbias)/ps :     1.0
     Vbias factor k /Eh :  0.0585
     Vbias exp α /bohr⁻²:    0.78
Starting Meta-MD   6 with the settings:
     MD time /ps        :     0.5
     dt /fs             :     1.5
     dumpstep(trj) /fs  :     100
     dumpstep(Vbias)/ps :     1.0
     Vbias factor k /Eh :  0.0293
     Vbias exp α /bohr⁻²:    0.78
Starting Meta-MD   7 with the settings:
     MD time /ps        :     0.5
     dt /fs             :     1.5
     dumpstep(trj) /fs  :     100
     dumpstep(Vbias)/ps :     1.0
     Vbias factor k /Eh :  0.1170
     Vbias exp α /bohr⁻²:    0.47
Starting Meta-MD  14 with the settings:
     MD time /ps        :     0.5
     dt /fs             :     1.5
     dumpstep(trj) /fs  :     100
     dumpstep(Vbias)/ps :     1.0
     Vbias factor k /Eh :  0.1950
     Vbias exp α /bohr⁻²:    0.80
Starting Meta-MD   9 with the settings:
     MD time /ps        :     0.5
     dt /fs             :     1.5
     dumpstep(trj) /fs  :     100
     dumpstep(Vbias)/ps :     1.0
     Vbias factor k /Eh :  0.0293
     Vbias exp α /bohr⁻²:    0.47
Starting Meta-MD  10 with the settings:
     MD time /ps        :     0.5
     dt /fs             :     1.5
     dumpstep(trj) /fs  :     100
     dumpstep(Vbias)/ps :     1.0
     Vbias factor k /Eh :  0.1170
     Vbias exp α /bohr⁻²:    0.28
Starting Meta-MD  13 with the settings:
     MD time /ps        :     0.5
     dt /fs             :     1.5
     dumpstep(trj) /fs  :     100
     dumpstep(Vbias)/ps :     1.0
     Vbias factor k /Eh :  0.0390
     Vbias exp α /bohr⁻²:    0.10
Starting Meta-MD   8 with the settings:
     MD time /ps        :     0.5
     dt /fs             :     1.5
     dumpstep(trj) /fs  :     100
     dumpstep(Vbias)/ps :     1.0
     Vbias factor k /Eh :  0.0585
     Vbias exp α /bohr⁻²:    0.47
Starting Meta-MD  12 with the settings:
     MD time /ps        :     0.5
     dt /fs             :     1.5
     dumpstep(trj) /fs  :     100
     dumpstep(Vbias)/ps :     1.0
     Vbias factor k /Eh :  0.0293
     Vbias exp α /bohr⁻²:    0.28
Starting Meta-MD  11 with the settings:
     MD time /ps        :     0.5
     dt /fs             :     1.5
     dumpstep(trj) /fs  :     100
     dumpstep(Vbias)/ps :     1.0
     Vbias factor k /Eh :  0.0585
     Vbias exp α /bohr⁻²:    0.28
*Meta-MTD 10 finished*
*Meta-MTD 5 finished*
*Meta-MTD 8 finished*
*Meta-MTD 1 finished*
*Meta-MTD 9 finished*
*Meta-MTD 14 finished*
*Meta-MTD 13 finished*
*Meta-MTD 4 finished*
*Meta-MTD 11 finished*
*Meta-MTD 3 finished*
*Meta-MTD 7 finished*
*Meta-MTD 6 finished*
*Meta-MTD 12 finished*
*Meta-MTD 2 finished*
 
-----------------------
Multilevel Optimization
-----------------------
 
 -------------------------
 1. crude pre-optimization
 -------------------------
 Optimizing all 70 structures from file "crest_rotamers_0.xyz" ...
 1 2 3 4 5 6 7 8 9 10 11 12 13 14 15 16 17 18 19 20 21 22 23 24 25 26 27 28 29 30 31 32 33 34 35 36 37 38 39 40 41 42 43 44 45 46 47 48 49 50 51 52 53 54 55 56 57 58 59 60 61 62 63 64 65 66 67 68 69 70
 done.
 running RMSDs...
 done.
 E lowest :   -60.87518
 57 structures remain within    12.00 kcal/mol window
 
 -------------------------------------
 2. optimization with tight thresholds
 -------------------------------------
 Optimizing all 58 structures from file "crest_rotamers_1.xyz" ...
 1 2 3 4 5 6 7 8 9 10 11 12 13 14 15 16 17 18 19 20 21 22 23 24 25 26 27 28 29 30 31 32 33 34 35 36 37 38 39 40 41 42 43 44 45 46 47 48 49 50 51 52 53 54 55 56 57 58
 done.
 running RMSDs...
 done.
 E lowest :   -60.87651
 5 structures remain within     6.00 kcal/mol window
 
 
========================================
            MTD Iteration  2
========================================
 
     ========================================
     |         Meta-MD (MTD) Sampling       |
     ========================================
 
Starting Meta-MD   1 with the settings:
     MD time /ps        :     0.5
     dt /fs             :     1.5
     dumpstep(trj) /fs  :     100
     dumpstep(Vbias)/ps :     1.0
     Vbias factor k /Eh :  0.1170
     Vbias exp α /bohr⁻²:    1.30
Starting Meta-MD   2 with the settings:
     MD time /ps        :     0.5
     dt /fs             :     1.5
     dumpstep(trj) /fs  :     100
     dumpstep(Vbias)/ps :     1.0
     Vbias factor k /Eh :  0.0585
     Vbias exp α /bohr⁻²:    1.30
Starting Meta-MD   3 with the settings:
     MD time /ps        :     0.5
     dt /fs             :     1.5
     dumpstep(trj) /fs  :     100
     dumpstep(Vbias)/ps :     1.0
     Vbias factor k /Eh :  0.0293
     Vbias exp α /bohr⁻²:    1.30
Starting Meta-MD   4 with the settings:
     MD time /ps        :     0.5
     dt /fs             :     1.5
     dumpstep(trj) /fs  :     100
     dumpstep(Vbias)/ps :     1.0
     Vbias factor k /Eh :  0.1170
     Vbias exp α /bohr⁻²:    0.78
Starting Meta-MD   5 with the settings:
     MD time /ps        :     0.5
     dt /fs             :     1.5
     dumpstep(trj) /fs  :     100
     dumpstep(Vbias)/ps :     1.0
     Vbias factor k /Eh :  0.0585
     Vbias exp α /bohr⁻²:    0.78
Starting Meta-MD   6 with the settings:
     MD time /ps        :     0.5
     dt /fs             :     1.5
     dumpstep(trj) /fs  :     100
     dumpstep(Vbias)/ps :     1.0
     Vbias factor k /Eh :  0.0293
     Vbias exp α /bohr⁻²:    0.78
Starting Meta-MD   7 with the settings:
     MD time /ps        :     0.5
     dt /fs             :     1.5
     dumpstep(trj) /fs  :     100
     dumpstep(Vbias)/ps :     1.0
     Vbias factor k /Eh :  0.1170
     Vbias exp α /bohr⁻²:    0.47
Starting Meta-MD   8 with the settings:
     MD time /ps        :     0.5
     dt /fs             :     1.5
     dumpstep(trj) /fs  :     100
     dumpstep(Vbias)/ps :     1.0
     Vbias factor k /Eh :  0.0585
     Vbias exp α /bohr⁻²:    0.47
Starting Meta-MD   9 with the settings:
     MD time /ps        :     0.5
     dt /fs             :     1.5
     dumpstep(trj) /fs  :     100
     dumpstep(Vbias)/ps :     1.0
     Vbias factor k /Eh :  0.0293
     Vbias exp α /bohr⁻²:    0.47
Starting Meta-MD  10 with the settings:
     MD time /ps        :     0.5
     dt /fs             :     1.5
     dumpstep(trj) /fs  :     100
     dumpstep(Vbias)/ps :     1.0
     Vbias factor k /Eh :  0.1170
     Vbias exp α /bohr⁻²:    0.28
Starting Meta-MD  11 with the settings:
     MD time /ps        :     0.5
     dt /fs             :     1.5
     dumpstep(trj) /fs  :     100
     dumpstep(Vbias)/ps :     1.0
     Vbias factor k /Eh :  0.0585
     Vbias exp α /bohr⁻²:    0.28
Starting Meta-MD  12 with the settings:
     MD time /ps        :     0.5
     dt /fs             :     1.5
     dumpstep(trj) /fs  :     100
     dumpstep(Vbias)/ps :     1.0
     Vbias factor k /Eh :  0.0293
     Vbias exp α /bohr⁻²:    0.28
*Meta-MTD 5 finished*
*Meta-MTD 2 finished*
*Meta-MTD 7 finished*
*Meta-MTD 11 finished*
*Meta-MTD 8 finished*
*Meta-MTD 3 finished*
*Meta-MTD 1 finished*
*Meta-MTD 12 finished*
*Meta-MTD 10 finished*
*Meta-MTD 6 finished*
*Meta-MTD 9 finished*
*Meta-MTD 4 finished*
 
-----------------------
Multilevel Optimization
-----------------------
 
 -------------------------
 1. crude pre-optimization
 -------------------------
 Optimizing all 60 structures from file "crest_rotamers_0.xyz" ...
 1 2 3 4 5 6 7 8 9 10 11 12 13 14 15 16 17 18 19 20 21 22 23 24 25 26 27 28 29 30 31 32 33 34 35 36 37 38 39 40 41 42 43 44 45 46 47 48 49 50 51 52 53 54 55 56 57 58 59 60
 done.
 running RMSDs...
 done.
 E lowest :   -60.87600
 53 structures remain within    12.00 kcal/mol window
 
 -------------------------------------
 2. optimization with tight thresholds
 -------------------------------------
 Optimizing all 54 structures from file "crest_rotamers_1.xyz" ...
 1 2 3 4 5 6 7 8 9 10 11 12 13 14 15 16 17 18 19 20 21 22 23 24 25 26 27 28 29 30 31 32 33 34 35 36 37 38 39 40 41 42 43 44 45 46 47 48 49 50 51 52 53 54
 done.
 running RMSDs...
 done.
 E lowest :   -60.87651
 5 structures remain within     6.00 kcal/mol window
 
========================================
            MTD Iterations done         
========================================
 Collecting ensmbles.
 running RMSDs...
 done.
 E lowest :   -60.87651
 8 structures remain within     6.00 kcal/mol window
 
-----------------------------------------------
Additional regular MDs on lowest 3 conformer(s)
-----------------------------------------------
Starting MD   1 with the settings:
     MD time /ps        :     0.2
     MD Temperature /K  :   400.0
     dt /fs             :     1.5
     dumpstep(trj) /fs  :     100
Starting MD   2 with the settings:
     MD time /ps        :     0.2
     MD Temperature /K  :   500.0
     dt /fs             :     1.5
     dumpstep(trj) /fs  :     100
Starting MD   3 with the settings:
     MD time /ps        :     0.2
     MD Temperature /K  :   400.0
     dt /fs             :     1.5
     dumpstep(trj) /fs  :     100
Starting MD   4 with the settings:
     MD time /ps        :     0.2
     MD Temperature /K  :   500.0
     dt /fs             :     1.5
     dumpstep(trj) /fs  :     100
Starting MD   5 with the settings:
     MD time /ps        :     0.2
     MD Temperature /K  :   400.0
     dt /fs             :     1.5
     dumpstep(trj) /fs  :     100
Starting MD   6 with the settings:
     MD time /ps        :     0.2
     MD Temperature /K  :   500.0
     dt /fs             :     1.5
     dumpstep(trj) /fs  :     100
*MD 1 finished*
*MD 2 finished*
*MD 3 finished*
*MD 5 finished*
*MD 6 finished*
*MD 4 finished*
 Appending file crest_rotamers_1.xyz with new structures
 
 -------------------------------------------
 Ensemble optimization with tight thresholds
 -------------------------------------------
 Optimizing all 20 structures from file "crest_rotamers_1.xyz" ...
 1 2 3 4 5 6 7 8 9 10 11 12 13 14 15 16 17 18 19 20
 done.
 running RMSDs...
 done.
 E lowest :   -60.87651
 8 structures remain within     6.00 kcal/mol window
 
 
     ========================================
     |        Structure Crossing (GC)       |
     ========================================
 =============================
  # threads =          28
 =============================
 input  file name : crest_rotamers_3.xyz
number of atoms                :    39
number of points on xyz files  :     8
conformer energy window  /kcal :    6.00
CN per atom difference cut-off :  0.3000
RMSD threshold                 :  0.5000
max. # of generated structures : 25
 reading xyz file ...
 # in E window                  8
 generating pairs ...          35
 generated pairs           :          28
 number of clash discarded :           0
 average rmsd w.r.t input  : 3.53676
 sd of ensemble            : 0.96913
 number of new structures      :           8
 removed identical structures  :          20
 writing            8  TMPCONF* dirs ...
 --------------------------
 GC: loose pre-optimization
 --------------------------
 Starting optimization of generated structures
 8 jobs to do.
 1 2 3 4 5 6 7 8 
 done.
 Now appending opt.xyz file with new structures
 running RMSDs...
 done.
 E lowest :   -60.87642
 8 structures remain within    10.00 kcal/mol window
 --------------------------------------
 GC: optimization with tight thresholds
 --------------------------------------
 Optimizing all 8 structures from file "crest_rotamers_1.xyz" ...
 1 2 3 4 5 6 7 8
 done.
 running RMSDs...
 done.
 E lowest :   -60.87651
 
 
   ================================================
   |           Final Geometry Optimization        |
   ================================================
 ------------------------------------------------
 Ensemble optimization with very tight thresholds
 ------------------------------------------------
 Optimizing all 9 structures from file "crest_rotamers_4.xyz" ...
 1 2 3 4 5 6 7 8 9
 done.
 running RMSDs...
 done.
 E lowest :   -60.87651
 8 structures remain within     6.00 kcal/mol window
 
 input  file name : crest_rotamers_5.xyz
 output file name : crest_rotamers_6.xyz
 number of atoms                :   39
 number of points on xyz files  :   9
 RMSD threshold                 :   0.2500
 Bconst threshold               :   0.0100
 population threshold           :   0.0500
 conformer energy window  /kcal :   6.0000
 # fragment in coord            :     1
 # bonds in reference structure :    42
   => # of C=C bonds :     7
 number of reliable points      :     9
 reference state Etot :  -60.8765107900000
 number of doubles removed by rot/RMSD         :           1
 total number unique points considered further :           8
       Erel/kcal        Etot weight/tot  conformer     set   degen     origin
       1   0.000   -60.87651    0.21715    0.86426       1       4     mtd2
       2   0.000   -60.87651    0.21710                                gc
       3   0.004   -60.87651    0.21584                                mtd10
       4   0.008   -60.87650    0.21416                                mtd10
       5   1.099   -60.87476    0.03401    0.13574       2       4     input
       6   1.101   -60.87476    0.03395                                gc
       7   1.101   -60.87476    0.03393                                mtd7
       8   1.102   -60.87475    0.03384                                gc
T /K                                  :   298.15
E lowest                              :   -60.87651
ensemble average energy (kcal)        :    0.152
ensemble entropy (J/mol K, cal/mol K) :   14.828    3.544
ensemble free energy (kcal/mol)       :   -1.057
population of lowest in %             :   86.426
 number of unique conformers for further calc            2
 list of relative energies saved as "crest.energies"
 
 -----------------
 Wall Time Summary
 -----------------
             test MD wall time :         0h : 0m :13s
                 MTD wall time :         0h : 0m :25s
      multilevel OPT wall time :         0h : 0m :22s
                  MD wall time :         0h : 0m : 7s
                  GC wall time :         0h : 0m : 2s
--------------------
Overall wall time  : 0h : 1m :12s
 
 CREST terminated normally.
