 
       ==============================================
       |                                            |
       |                 C R E S T                  |
       |                                            |
       |  Conformer-Rotamer Ensemble Sampling Tool  |
       |          based on the GFN methods          |
       |             P.Pracht, S.Grimme             |
       |          Universitaet Bonn, MCTC           |
       ==============================================
       Version 2.11.2, Fr 17. Dec 12:10:44 CEST 2021
  Using the xTB program. Compatible with xTB version 6.4.0
 
   Cite work conducted with this code as

   P. Pracht, F. Bohle, S. Grimme, PCCP, 2020, 22, 7169-7192.

   and  S. Grimme, JCTC, 2019, 15, 2847-2862.
 
   with help from:
   C.Bannwarth, F.Bohle, S.Ehlert, S.Grimme,
   C. Plett, P.Pracht, S. Spicher
 
   This program is distributed in the hope that it will be useful,
   but WITHOUT ANY WARRANTY; without even the implied warranty of
   MERCHANTABILITY or FITNESS FOR A PARTICULAR PURPOSE.

 Command line input:
 > crest 00125_r_0.xyz -T 28 -gfn2 -chrg 0 -uhf 0 -rthr 0.25 -shake 1 --mdlen 0.5

  -T 28 (CPUs/Threads selected)
  -gfn2 : Use of GFN2-xTB requested.
  -chrg 0
  -uhf 0
  -rthr 0.25
  --mdlen 0.5 (MD length in ps)
 
 -------------------------
 xTB Geometry Optimization
 -------------------------
 Geometry successfully optimized.
 
------------------------------------------------
Generating MTD length from a flexibility measure
------------------------------------------------
      -----------------------------------------------------------      
     |                   =====================                   |     
     |                           x T B                           |     
     |                   =====================                   |     
     |                         S. Grimme                         |     
     |          Mulliken Center for Theoretical Chemistry        |     
     |                    University of Bonn                     |     
      -----------------------------------------------------------      

   * xtb version 6.4.1 (afa7bdf) compiled by 'ehlert@majestix' on 2021-06-10

   xtb is free software: you can redistribute it and/or modify it under
   the terms of the GNU Lesser General Public License as published by
   the Free Software Foundation, either version 3 of the License, or
   (at your option) any later version.
   
   xtb is distributed in the hope that it will be useful,
   but WITHOUT ANY WARRANTY; without even the implied warranty of
   MERCHANTABILITY or FITNESS FOR A PARTICULAR PURPOSE.  See the
   GNU Lesser General Public License for more details.
   
   Cite this work as:
   * C. Bannwarth, E. Caldeweyher, S. Ehlert, A. Hansen, P. Pracht,
     J. Seibert, S. Spicher, S. Grimme, WIREs Comput. Mol. Sci., 2020, 11,
     e01493. DOI: 10.1002/wcms.1493
   
   for GFN2-xTB:
   * C. Bannwarth, S. Ehlert and S. Grimme., J. Chem. Theory Comput., 2019,
     15, 1652-1671. DOI: 10.1021/acs.jctc.8b01176
   for GFN1-xTB:
   * S. Grimme, C. Bannwarth, P. Shushkov, J. Chem. Theory Comput., 2017,
     13, 1989-2009. DOI: 10.1021/acs.jctc.7b00118
   for GFN0-xTB:
   * P. Pracht, E. Caldeweyher, S. Ehlert, S. Grimme, ChemRxiv, 2019, preprint.
     DOI: 10.26434/chemrxiv.8326202.v1
   for GFN-FF:
   * S. Spicher and S. Grimme, Angew. Chem. Int. Ed., 2020, 59, 15665-15673.
     DOI: 10.1002/anie.202004239
   
   for DFT-D4:
   * E. Caldeweyher, C. Bannwarth and S. Grimme, J. Chem. Phys., 2017,
     147, 034112. DOI: 10.1063/1.4993215
   * E. Caldeweyher, S. Ehlert, A. Hansen, H. Neugebauer, S. Spicher,
     C. Bannwarth and S. Grimme, J. Chem. Phys., 2019, 150, 154122.
     DOI: 10.1063/1.5090222
   * E. Caldeweyher, J.-M. Mewes, S. Ehlert and S. Grimme, Phys. Chem. Chem. Phys.
     2020, 22, 8499-8512. DOI: 10.1039/D0CP00502A
   
   for sTDA-xTB:
   * S. Grimme and C. Bannwarth, J. Chem. Phys., 2016, 145, 054103.
     DOI: 10.1063/1.4959605
   
   in the mass-spec context:
   * V. Asgeirsson, C. Bauer and S. Grimme, Chem. Sci., 2017, 8, 4879.
     DOI: 10.1039/c7sc00601b
   * J. Koopman and S. Grimme, ACS Omega 2019, 4, 12, 15120-15133.
     DOI: 10.1021/acsomega.9b02011
   
   for metadynamics refer to:
   * S. Grimme, J. Chem. Theory Comput., 2019, 155, 2847-2862
     DOI: 10.1021/acs.jctc.9b00143
   
   for SPH calculations refer to:
   * S. Spicher and S. Grimme, J. Chem. Theory Comput., 2021, 17, 1701-1714
     DOI: 10.1021/acs.jctc.0c01306
   
   with help from (in alphabetical order)
   P. Atkinson, C. Bannwarth, F. Bohle, G. Brandenburg, E. Caldeweyher
   M. Checinski, S. Dohm, S. Ehlert, S. Ehrlich, I. Gerasimov, J. Koopman
   C. Lavigne, S. Lehtola, F. März, M. Müller, F. Musil, H. Neugebauer
   J. Pisarek, C. Plett, P. Pracht, J. Seibert, P. Shushkov, S. Spicher
   M. Stahn, M. Steiner, T. Strunk, J. Stückrath, T. Rose, and J. Unsleber
   
 * started run on 2024/07/31 at 10:40:15.145     

           -------------------------------------------------
          |                Calculation Setup                |
           -------------------------------------------------

          program call               : xtb tmpcoord --gfn0 --sp
          hostname                   : node1
          coordinate file            : tmpcoord
          omp threads                :                    28
          number of atoms            :                    88
          number of electrons        :                   254
          charge                     :                     0
          spin                       :                   0.0
          first test random number   :      0.36179497221139

   ID    Z sym.   atoms
    1    8 o      1, 30
    2    6 c      2-29, 31-54
    3    1 h      55-88
########################################################################
[WARNING] Please study the warnings concerning your input carefully
-1- prog_main_parseArguments: The use of '--gfn0' is discouraged, please use '--gfn 0' next time
########################################################################

           -------------------------------------------------
          |                 G F N 0 - x T B                 |
           -------------------------------------------------

        Reference                      10.26434/chemrxiv.8326202.v1
      * Hamiltonian:
        H0-scaling (s, p, d)           2.000000    2.486800    2.270000
        zeta-weighting                 1.000000
      * Dispersion:
        s8                             2.850000
        a1                             0.800000
        a2                             4.600000
        s9                             0.000000
      * Repulsion:
        kExp                           1.500000
        rExp                           1.000000
      * Coulomb:
        alpha                          0.000000
        third order                    atomic
        anisotropic                    false
      * Polar bond correction:
        rad-shift                      0.053700
        strength                      -0.012900
        en-exp                         3.484700
        en-scale                       0.509700


          ...................................................
          :                      SETUP                      :
          :.................................................:
          :  # basis functions                 284          :
          :  # atomic orbitals                 284          :
          :  # shells                          176          :
          :  # electrons                       254          :
          :  electronic temp.          300.0000000     K    :
          :  accuracy                    1.0000000          :
          :  -> integral cutoff          0.2500000E+02      :
          :  -> integral neglect         0.1000000E-07      :
          ...................................................
  Checking positiv definite overlap ...  done.
 

         #    Occupation            Energy/Eh            Energy/eV
      -------------------------------------------------------------
         1        2.0000           -0.6944588             -18.8972
       ...           ...                  ...                  ...
       121        2.0000           -0.4265548             -11.6071
       122        2.0000           -0.4148755             -11.2893
       123        2.0000           -0.4147175             -11.2850
       124        2.0000           -0.4066977             -11.0668
       125        2.0000           -0.4063278             -11.0567
       126        2.0000           -0.3939563             -10.7201
       127        2.0000           -0.3911547             -10.6439 (HOMO)
       128                         -0.3075180              -8.3680 (LUMO)
       129                         -0.3068899              -8.3509
       130                         -0.2996504              -8.1539
       131                         -0.2988122              -8.1311
       132                         -0.2825713              -7.6892
       ...                                ...                  ...
       284                          0.6627599              18.0346
      -------------------------------------------------------------
                  HL-Gap            0.0836367 Eh            2.2759 eV
             Fermi-level            0.0000000 Eh            0.0000 eV

 EHT (total)                   0 d,  0 h,  0 min,  0.051 sec
 EHT setup                      ...        0 min,  0.002 sec (  3.219%)
 Coordination number            ...        0 min,  0.001 sec (  2.428%)
 EEQ model density              ...        0 min,  0.001 sec (  2.105%)
 D4 Dispersion                  ...        0 min,  0.003 sec (  6.630%)
 Integral evaluation            ...        0 min,  0.002 sec (  2.961%)
 Cholesky factorization         ...        0 min,  0.013 sec ( 25.980%)
 Zeroth order Hamiltonian       ...        0 min,  0.025 sec ( 48.935%)
 Gradient calculation           ...        0 min,  0.003 sec (  6.092%)

         :::::::::::::::::::::::::::::::::::::::::::::::::::::
         ::                     SUMMARY                     ::
         :::::::::::::::::::::::::::::::::::::::::::::::::::::
         :: total energy            -134.789408544025 Eh    ::
         :: gradient norm              0.043041270105 Eh/a0 ::
         :: HOMO-LUMO gap              2.275871616666 eV    ::
         ::.................................................::
         :: H0 energy               -137.114870696692 Eh    ::
         :: repulsion energy           2.548743496608 Eh    ::
         :: electrostat energy        -0.135413709412 Eh    ::
         :: -> Gsolv                   0.000000000000 Eh    ::
         ::    -> Gsasa                0.000000000000 Eh    ::
         ::    -> Gshift               0.000000000000 Eh    ::
         :: dispersion energy         -0.062689259946 Eh    ::
         :: short-range corr.         -0.025178374583 Eh    ::
         :: add. restraining           0.000000000000 Eh    ::
         :: total charge               0.000000000000 e     ::
         :::::::::::::::::::::::::::::::::::::::::::::::::::::

           -------------------------------------------------
          |                Property Printout                |
           -------------------------------------------------

    * Orbital Energies and Occupations

         #    Occupation            Energy/Eh            Energy/eV
      -------------------------------------------------------------
         1        2.0000           -0.6944588             -18.8972
       ...           ...                  ...                  ...
       115        2.0000           -0.4413829             -12.0106
       116        2.0000           -0.4409302             -11.9983
       117        2.0000           -0.4375637             -11.9067
       118        2.0000           -0.4371374             -11.8951
       119        2.0000           -0.4370945             -11.8939
       120        2.0000           -0.4269266             -11.6173
       121        2.0000           -0.4265548             -11.6071
       122        2.0000           -0.4148755             -11.2893
       123        2.0000           -0.4147175             -11.2850
       124        2.0000           -0.4066977             -11.0668
       125        2.0000           -0.4063278             -11.0567
       126        2.0000           -0.3939563             -10.7201
       127        2.0000           -0.3911547             -10.6439 (HOMO)
       128                         -0.3075180              -8.3680 (LUMO)
       129                         -0.3068899              -8.3509
       130                         -0.2996504              -8.1539
       131                         -0.2988122              -8.1311
       132                         -0.2825713              -7.6892
       133                         -0.2823427              -7.6829
       134                         -0.2671160              -7.2686
       135                         -0.2667828              -7.2595
       136                         -0.2667682              -7.2591
       137                         -0.2665269              -7.2526
       138                         -0.2509269              -6.8281
       ...                                ...                  ...
       284                          0.6627599              18.0346
      -------------------------------------------------------------
                  HL-Gap            0.0836367 Eh            2.2759 eV
             Fermi-level            0.0000000 Eh            0.0000 eV

     #   Z          covCN         q      C6AA      α(0)
     1   8 o        1.659    -0.558    23.999     6.627
     2   6 c        2.849     0.222    24.631     8.108
     3   6 c        2.970    -0.015    29.890     8.940
     4   6 c        2.978     0.090    27.384     8.557
     5   6 c        2.924    -0.129    32.955     9.385
     6   6 c        2.924    -0.119    32.679     9.345
     7   6 c        2.977     0.045    28.430     8.719
     8   6 c        2.973     0.043    28.471     8.725
     9   6 c        2.920    -0.119    32.690     9.346
    10   6 c        2.916    -0.141    33.313     9.435
    11   6 c        2.987     0.073    27.775     8.618
    12   6 c        2.918    -0.141    33.305     9.434
    13   6 c        2.916    -0.086    31.770     9.214
    14   6 c        2.916    -0.087    31.793     9.217
    15   6 c        2.918    -0.139    33.259     9.427
    16   6 c        2.985     0.076    27.696     8.606
    17   6 c        2.925    -0.177    34.361     9.583
    18   6 c        2.924    -0.125    32.854     9.370
    19   6 c        2.922    -0.098    32.110     9.263
    20   6 c        2.926    -0.200    35.049     9.678
    21   6 c        2.984     0.069    27.876     8.634
    22   6 c        2.919    -0.132    33.050     9.398
    23   6 c        2.916    -0.087    31.797     9.218
    24   6 c        2.917    -0.089    31.867     9.228
    25   6 c        2.917    -0.119    32.681     9.345
    26   6 c        2.988     0.031    28.765     8.770
    27   6 c        2.973    -0.092    31.922     9.239
    28   6 c        2.973    -0.093    31.950     9.243
    29   6 c        2.849     0.221    24.645     8.110
    30   8 o        1.659    -0.558    23.981     6.624
    31   6 c        2.970    -0.015    29.890     8.940
    32   6 c        2.978     0.090    27.379     8.556
    33   6 c        2.924    -0.130    32.983     9.388
    34   6 c        2.924    -0.119    32.676     9.345
    35   6 c        2.977     0.045    28.432     8.719
    36   6 c        2.973     0.043    28.470     8.725
    37   6 c        2.920    -0.120    32.712     9.350
    38   6 c        2.916    -0.141    33.314     9.435
    39   6 c        2.987     0.073    27.774     8.618
    40   6 c        2.918    -0.141    33.305     9.434
    41   6 c        2.916    -0.086    31.768     9.213
    42   6 c        2.916    -0.086    31.786     9.216
    43   6 c        2.918    -0.139    33.250     9.426
    44   6 c        2.985     0.076    27.696     8.606
    45   6 c        2.925    -0.176    34.343     9.580
    46   6 c        2.924    -0.124    32.839     9.368
    47   6 c        2.922    -0.097    32.083     9.259
    48   6 c        2.925    -0.199    35.042     9.677
    49   6 c        2.984     0.068    27.882     8.635
    50   6 c        2.919    -0.132    33.053     9.398
    51   6 c        2.916    -0.087    31.801     9.218
    52   6 c        2.917    -0.090    31.897     9.232
    53   6 c        2.917    -0.120    32.705     9.348
    54   6 c        2.988     0.032    28.729     8.765
    55   1 h        0.805     0.312     0.686     1.301
    56   1 h        0.926     0.106     1.732     2.058
    57   1 h        0.926     0.101     1.773     2.082
    58   1 h        0.926     0.104     1.745     2.066
    59   1 h        0.926     0.104     1.745     2.066
    60   1 h        0.926     0.102     1.765     2.078
    61   1 h        0.926     0.094     1.842     2.122
    62   1 h        0.926     0.094     1.841     2.122
    63   1 h        0.926     0.102     1.766     2.078
    64   1 h        0.926     0.110     1.696     2.037
    65   1 h        0.926     0.106     1.734     2.059
    66   1 h        0.926     0.134     1.504     1.918
    67   1 h        0.926     0.119     1.620     1.990
    68   1 h        0.926     0.101     1.779     2.086
    69   1 h        0.926     0.095     1.835     2.118
    70   1 h        0.926     0.097     1.814     2.106
    71   1 h        0.926     0.121     1.606     1.982
    72   1 h        0.805     0.314     0.681     1.296
    73   1 h        0.926     0.105     1.739     2.062
    74   1 h        0.926     0.101     1.773     2.083
    75   1 h        0.926     0.102     1.770     2.081
    76   1 h        0.926     0.104     1.751     2.070
    77   1 h        0.926     0.102     1.767     2.079
    78   1 h        0.926     0.094     1.841     2.122
    79   1 h        0.926     0.094     1.836     2.119
    80   1 h        0.926     0.104     1.753     2.070
    81   1 h        0.926     0.114     1.665     2.018
    82   1 h        0.926     0.106     1.732     2.058
    83   1 h        0.926     0.137     1.481     1.903
    84   1 h        0.926     0.119     1.619     1.990
    85   1 h        0.926     0.100     1.780     2.087
    86   1 h        0.926     0.094     1.839     2.121
    87   1 h        0.926     0.096     1.826     2.113
    88   1 h        0.926     0.118     1.630     1.996

 Mol. C6AA /au·bohr⁶  :     117737.854567
 Mol. C8AA /au·bohr⁸  :    3074886.033506
 Mol. α(0) /au        :        555.393925


Wiberg/Mayer (AO) data.
largest (>0.10) Wiberg bond orders for each atom

 ---------------------------------------------------------------------------
     #   Z sym  total        # sym  WBO       # sym  WBO       # sym  WBO
 ---------------------------------------------------------------------------
     1   8 o    2.318 --     2 c    1.136    55 h    0.967
     2   6 c    3.940 --    27 c    1.412     3 c    1.210     1 o    1.136
     3   6 c    3.976 --    20 c    1.516     2 c    1.210     4 c    1.040
     4   6 c    3.971 --    19 c    1.383     5 c    1.381     3 c    1.040
     5   6 c    3.982 --     6 c    1.462     4 c    1.381    56 h    0.969
                            18 c    0.104
     6   6 c    3.983 --     5 c    1.462     7 c    1.381    57 h    0.969
                            19 c    0.104
     7   6 c    3.972 --    18 c    1.382     6 c    1.381     8 c    1.046
     8   6 c    3.977 --    17 c    1.498     9 c    1.273     7 c    1.046
     9   6 c    3.986 --    10 c    1.572     8 c    1.273    58 h    0.969
    10   6 c    3.987 --     9 c    1.572    11 c    1.269    59 h    0.968
                            17 c    0.112
    11   6 c    3.977 --    12 c    1.280    10 c    1.269    16 c    1.250
    12   6 c    3.987 --    13 c    1.556    11 c    1.280    60 h    0.969
                            15 c    0.118
    13   6 c    3.982 --    12 c    1.556    14 c    1.319    61 h    0.973
    14   6 c    3.988 --    15 c    1.560    13 c    1.319    62 h    0.973
    15   6 c    3.982 --    14 c    1.560    16 c    1.272    63 h    0.969
                            12 c    0.118
    16   6 c    3.980 --    17 c    1.285    15 c    1.272    11 c    1.250
    17   6 c    3.985 --     8 c    1.498    16 c    1.285    64 h    0.965
                            10 c    0.112
    18   6 c    3.983 --    19 c    1.460     7 c    1.382    65 h    0.969
                             5 c    0.104
    19   6 c    3.983 --    18 c    1.460     4 c    1.383    66 h    0.968
                             6 c    0.104
    20   6 c    3.983 --     3 c    1.516    21 c    1.272    67 h    0.965
    21   6 c    3.978 --    22 c    1.281    20 c    1.272    26 c    1.241
    22   6 c    3.979 --    23 c    1.550    21 c    1.281    68 h    0.969
                            25 c    0.115
    23   6 c    3.975 --    22 c    1.550    24 c    1.320    69 h    0.973
    24   6 c    3.982 --    25 c    1.554    23 c    1.320    70 h    0.973
    25   6 c    3.987 --    24 c    1.554    26 c    1.274    71 h    0.967
                            22 c    0.115
    26   6 c    3.976 --    25 c    1.274    27 c    1.250    21 c    1.241
    27   6 c    3.965 --     2 c    1.412    26 c    1.250    28 c    0.993
    28   6 c    3.965 --    29 c    1.411    54 c    1.250    27 c    0.993
    29   6 c    3.940 --    28 c    1.411    31 c    1.210    30 o    1.136
    30   8 o    2.316 --    29 c    1.136    72 h    0.967
    31   6 c    3.976 --    48 c    1.517    29 c    1.210    32 c    1.038
    32   6 c    3.971 --    47 c    1.383    33 c    1.381    31 c    1.038
    33   6 c    3.982 --    34 c    1.461    32 c    1.381    73 h    0.969
                            46 c    0.104
    34   6 c    3.983 --    33 c    1.461    35 c    1.381    74 h    0.969
                            47 c    0.104
    35   6 c    3.972 --    46 c    1.381    34 c    1.381    36 c    1.047
    36   6 c    3.977 --    45 c    1.497    37 c    1.273    35 c    1.047
    37   6 c    3.986 --    38 c    1.572    36 c    1.273    75 h    0.969
    38   6 c    3.987 --    37 c    1.572    39 c    1.269    76 h    0.968
                            45 c    0.112
    39   6 c    3.977 --    40 c    1.280    38 c    1.269    44 c    1.249
    40   6 c    3.987 --    41 c    1.556    39 c    1.280    77 h    0.969
                            43 c    0.118
    41   6 c    3.982 --    40 c    1.556    42 c    1.319    78 h    0.973
    42   6 c    3.988 --    43 c    1.560    41 c    1.319    79 h    0.973
    43   6 c    3.982 --    42 c    1.560    44 c    1.272    80 h    0.969
                            40 c    0.118
    44   6 c    3.980 --    45 c    1.285    43 c    1.272    39 c    1.249
    45   6 c    3.985 --    36 c    1.497    44 c    1.285    81 h    0.965
                            38 c    0.112
    46   6 c    3.983 --    47 c    1.461    35 c    1.381    82 h    0.969
                            33 c    0.104
    47   6 c    3.983 --    46 c    1.461    32 c    1.383    83 h    0.968
                            34 c    0.104
    48   6 c    3.983 --    31 c    1.517    49 c    1.271    84 h    0.965
    49   6 c    3.978 --    50 c    1.281    48 c    1.271    54 c    1.241
    50   6 c    3.979 --    51 c    1.550    49 c    1.281    85 h    0.969
                            53 c    0.115
    51   6 c    3.975 --    50 c    1.550    52 c    1.320    86 h    0.973
    52   6 c    3.982 --    53 c    1.554    51 c    1.320    87 h    0.973
    53   6 c    3.987 --    52 c    1.554    54 c    1.274    88 h    0.966
                            50 c    0.115
    54   6 c    3.976 --    53 c    1.274    28 c    1.250    49 c    1.241
    55   1 h    0.988 --     1 o    0.967
    56   1 h    0.979 --     5 c    0.969
    57   1 h    0.978 --     6 c    0.969
    58   1 h    0.978 --     9 c    0.969
    59   1 h    0.978 --    10 c    0.968
    60   1 h    0.979 --    12 c    0.969
    61   1 h    0.984 --    13 c    0.973
    62   1 h    0.983 --    14 c    0.973
    63   1 h    0.979 --    15 c    0.969
    64   1 h    0.973 --    17 c    0.965
    65   1 h    0.978 --    18 c    0.969
    66   1 h    0.992 --    19 c    0.968
    67   1 h    0.973 --    20 c    0.965
    68   1 h    0.978 --    22 c    0.969
    69   1 h    0.983 --    23 c    0.973
    70   1 h    0.983 --    24 c    0.973
    71   1 h    0.981 --    25 c    0.967
    72   1 h    0.988 --    30 o    0.967
    73   1 h    0.979 --    33 c    0.969
    74   1 h    0.978 --    34 c    0.969
    75   1 h    0.978 --    37 c    0.969
    76   1 h    0.978 --    38 c    0.968
    77   1 h    0.979 --    40 c    0.969
    78   1 h    0.984 --    41 c    0.973
    79   1 h    0.983 --    42 c    0.973
    80   1 h    0.979 --    43 c    0.969
    81   1 h    0.973 --    45 c    0.965
    82   1 h    0.978 --    46 c    0.969
    83   1 h    0.990 --    47 c    0.968
    84   1 h    0.973 --    48 c    0.965
    85   1 h    0.978 --    50 c    0.969
    86   1 h    0.983 --    51 c    0.973
    87   1 h    0.983 --    52 c    0.973
    88   1 h    0.981 --    53 c    0.966
 ---------------------------------------------------------------------------

Topologies differ in total number of bonds
Writing topology from bond orders to xtbtopo.mol

 dipole moment from electron density (au)
     X       Y       Z   
  -0.1198  -0.3943   0.5516  total (Debye):    1.750


           -------------------------------------------------
          | TOTAL ENERGY             -134.789408544025 Eh   |
          | GRADIENT NORM               0.043041270105 Eh/α |
          | HOMO-LUMO GAP               2.275871616666 eV   |
           -------------------------------------------------

------------------------------------------------------------------------
 * finished run on 2024/07/31 at 10:40:15.260     
------------------------------------------------------------------------
 total:
 * wall-time:     0 d,  0 h,  0 min,  0.115 sec
 *  cpu-time:     0 d,  0 h,  0 min,  2.584 sec
 * ratio c/w:    22.469 speedup
 SCF:
 * wall-time:     0 d,  0 h,  0 min,  0.052 sec
 *  cpu-time:     0 d,  0 h,  0 min,  1.300 sec
 * ratio c/w:    25.057 speedup

 Calculating WBOs... done.
      -----------------------------------------------------------      
     |                   =====================                   |     
     |                           x T B                           |     
     |                   =====================                   |     
     |                         S. Grimme                         |     
     |          Mulliken Center for Theoretical Chemistry        |     
     |                    University of Bonn                     |     
      -----------------------------------------------------------      

   * xtb version 6.4.1 (afa7bdf) compiled by 'ehlert@majestix' on 2021-06-10

   xtb is free software: you can redistribute it and/or modify it under
   the terms of the GNU Lesser General Public License as published by
   the Free Software Foundation, either version 3 of the License, or
   (at your option) any later version.
   
   xtb is distributed in the hope that it will be useful,
   but WITHOUT ANY WARRANTY; without even the implied warranty of
   MERCHANTABILITY or FITNESS FOR A PARTICULAR PURPOSE.  See the
   GNU Lesser General Public License for more details.
   
   Cite this work as:
   * C. Bannwarth, E. Caldeweyher, S. Ehlert, A. Hansen, P. Pracht,
     J. Seibert, S. Spicher, S. Grimme, WIREs Comput. Mol. Sci., 2020, 11,
     e01493. DOI: 10.1002/wcms.1493
   
   for GFN2-xTB:
   * C. Bannwarth, S. Ehlert and S. Grimme., J. Chem. Theory Comput., 2019,
     15, 1652-1671. DOI: 10.1021/acs.jctc.8b01176
   for GFN1-xTB:
   * S. Grimme, C. Bannwarth, P. Shushkov, J. Chem. Theory Comput., 2017,
     13, 1989-2009. DOI: 10.1021/acs.jctc.7b00118
   for GFN0-xTB:
   * P. Pracht, E. Caldeweyher, S. Ehlert, S. Grimme, ChemRxiv, 2019, preprint.
     DOI: 10.26434/chemrxiv.8326202.v1
   for GFN-FF:
   * S. Spicher and S. Grimme, Angew. Chem. Int. Ed., 2020, 59, 15665-15673.
     DOI: 10.1002/anie.202004239
   
   for DFT-D4:
   * E. Caldeweyher, C. Bannwarth and S. Grimme, J. Chem. Phys., 2017,
     147, 034112. DOI: 10.1063/1.4993215
   * E. Caldeweyher, S. Ehlert, A. Hansen, H. Neugebauer, S. Spicher,
     C. Bannwarth and S. Grimme, J. Chem. Phys., 2019, 150, 154122.
     DOI: 10.1063/1.5090222
   * E. Caldeweyher, J.-M. Mewes, S. Ehlert and S. Grimme, Phys. Chem. Chem. Phys.
     2020, 22, 8499-8512. DOI: 10.1039/D0CP00502A
   
   for sTDA-xTB:
   * S. Grimme and C. Bannwarth, J. Chem. Phys., 2016, 145, 054103.
     DOI: 10.1063/1.4959605
   
   in the mass-spec context:
   * V. Asgeirsson, C. Bauer and S. Grimme, Chem. Sci., 2017, 8, 4879.
     DOI: 10.1039/c7sc00601b
   * J. Koopman and S. Grimme, ACS Omega 2019, 4, 12, 15120-15133.
     DOI: 10.1021/acsomega.9b02011
   
   for metadynamics refer to:
   * S. Grimme, J. Chem. Theory Comput., 2019, 155, 2847-2862
     DOI: 10.1021/acs.jctc.9b00143
   
   for SPH calculations refer to:
   * S. Spicher and S. Grimme, J. Chem. Theory Comput., 2021, 17, 1701-1714
     DOI: 10.1021/acs.jctc.0c01306
   
   with help from (in alphabetical order)
   P. Atkinson, C. Bannwarth, F. Bohle, G. Brandenburg, E. Caldeweyher
   M. Checinski, S. Dohm, S. Ehlert, S. Ehrlich, I. Gerasimov, J. Koopman
   C. Lavigne, S. Lehtola, F. März, M. Müller, F. Musil, H. Neugebauer
   J. Pisarek, C. Plett, P. Pracht, J. Seibert, P. Shushkov, S. Spicher
   M. Stahn, M. Steiner, T. Strunk, J. Stückrath, T. Rose, and J. Unsleber
   
 * started run on 2024/07/31 at 10:40:15.306     

           -------------------------------------------------
          |                Calculation Setup                |
           -------------------------------------------------

          program call               : xtb tmpcoord --gfnff --sp
          hostname                   : node1
          coordinate file            : tmpcoord
          omp threads                :                    28
          number of atoms            :                    88
          number of electrons        :                   254
          charge                     :                     0
          spin                       :                   0.0
          first test random number   :      0.97124495429723

   ID    Z sym.   atoms
    1    8 o      1, 30
    2    6 c      2-29, 31-54
    3    1 h      55-88
 
          ==================== Thresholds ====================
          CN  :   150.00000
          rep :   500.00000
          disp:  2500.00000
          HB1 :   250.00000
          HB2 :   450.00000
 
          Pauling EN used:
          Z : 1  EN :  2.20
          Z : 6  EN :  2.55
          Z : 8  EN :  3.44
          electric field strengths (au): 0.000
 
           ------------------------------------------------- 
          |           Force Field Initialization            |
           ------------------------------------------------- 
 
          distances ...
          ----------------------------------------
          generating topology and atomic info file ...
          pair mat ...
          computing topology distances matrix with Floyd-Warshall algo ...
          making topology EEQ charges ...
          #fragments for EEQ constrain: 1
          ----------------------------------------
          generating topology and atomic info file ...
          pair mat ...
          computing topology distances matrix with Floyd-Warshall algo ...
          making topology EEQ charges ...
          #fragments for EEQ constrain: 1
          rings ...
          # BATM   1036
          # H in HB   34
          doing iterative Hueckel for 1 subsystem(s) ...
 
  atom   neighbors  erfCN metchar sp-hybrid imet pi  qest     coordinates
    1  o       2    1.92   0.00         3    0    1  -0.442    3.148084   -0.588364   -1.982171
    2  c       3    2.82   0.00         2    0    1   0.093    3.224822    1.979456   -1.943188
    3  c       3    2.81   0.00         2    0    1  -0.010    5.254759    3.167745   -0.650738
    4  c       3    2.82   0.00         2    0    1   0.001    7.239192    1.662358    0.581821
    5  c       3    2.82   0.00         2    0    1  -0.037    8.026534    2.277536    3.017494
    6  c       3    2.82   0.00         2    0    1  -0.007    9.916453    0.918780    4.191420
    7  c       3    2.82   0.00         2    0    1  -0.024   11.099231   -1.083890    2.956977
    8  c       3    2.82   0.00         2    0    1  -0.014   13.136811   -2.506086    4.195229
    9  c       3    2.81   0.00         2    0    1  -0.012   12.941978   -3.144243    6.780099
   10  c       3    2.81   0.00         2    0    1  -0.043   14.818823   -4.452912    7.967594
   11  c       3    2.83   0.00         2    0    1  -0.010   17.016023   -5.196699    6.652946
   12  c       3    2.81   0.00         2    0    1  -0.039   18.992909   -6.541737    7.826395
   13  c       3    2.81   0.00         2    0    1  -0.028   21.093826   -7.231137    6.490970
   14  c       3    2.81   0.00         2    0    1  -0.038   21.312238   -6.605458    3.922075
   15  c       3    2.81   0.00         2    0    1  -0.032   19.427919   -5.302324    2.731138
   16  c       3    2.83   0.00         2    0    1  -0.021   17.233328   -4.565339    4.054900
   17  c       3    2.82   0.00         2    0    1  -0.012   15.259228   -3.224041    2.879432
   18  c       3    2.82   0.00         2    0    1  -0.007   10.310904   -1.692483    0.519883
   19  c       3    2.82   0.00         2    0    1  -0.037    8.404242   -0.349788   -0.647871
   20  c       3    2.82   0.00         2    0    1  -0.022    5.321810    5.759167   -0.550733
   21  c       3    2.83   0.00         2    0    1  -0.012    3.464690    7.271213   -1.708497
   22  c       3    2.81   0.00         2    0    1  -0.028    3.559814    9.932657   -1.633794
   23  c       3    2.81   0.00         2    0    1  -0.037    1.733310   11.351851   -2.783112
   24  c       3    2.81   0.00         2    0    1  -0.028   -0.267742   10.170368   -4.059626
   25  c       3    2.81   0.00         2    0    1  -0.037   -0.418406    7.593317   -4.163709
   26  c       3    2.83   0.00         2    0    1  -0.007    1.436505    6.079225   -2.993269
   27  c       3    2.82   0.00         2    0    1  -0.002    1.348708    3.402667   -3.067143
   28  c       3    2.82   0.00         2    0    1  -0.002   -0.793289    2.081513   -4.331369
   29  c       3    2.82   0.00         2    0    1   0.093   -2.986121    1.653783   -2.982927
   30  o       2    1.92   0.00         3    0    1  -0.442   -3.240966    2.468774   -0.559830
   31  c       3    2.81   0.00         2    0    1  -0.010   -5.058415    0.375972   -4.111585
   32  c       3    2.82   0.00         2    0    1   0.001   -7.390108   -0.093740   -2.674000
   33  c       3    2.82   0.00         2    0    1  -0.037   -9.731213    0.425784   -3.758454
   34  c       3    2.82   0.00         2    0    1  -0.007  -11.938864   -0.056295   -2.457820
   35  c       3    2.82   0.00         2    0    1  -0.024  -11.876472   -1.079417   -0.032065
   36  c       3    2.82   0.00         2    0    1  -0.014  -14.226391   -1.599365    1.351555
   37  c       3    2.81   0.00         2    0    1  -0.012  -16.331983   -2.624078    0.069279
   38  c       3    2.81   0.00         2    0    1  -0.043  -18.532066   -3.121310    1.317234
   39  c       3    2.83   0.00         2    0    1  -0.010  -18.773914   -2.618266    3.924363
   40  c       3    2.81   0.00         2    0    1  -0.039  -21.022322   -3.102775    5.267450
   41  c       3    2.81   0.00         2    0    1  -0.028  -21.184727   -2.593995    7.794714
   42  c       3    2.81   0.00         2    0    1  -0.038  -19.105346   -1.578533    9.092193
   43  c       3    2.81   0.00         2    0    1  -0.032  -16.900198   -1.086382    7.842334
   44  c       3    2.83   0.00         2    0    1  -0.021  -16.670443   -1.590277    5.233618
   45  c       3    2.82   0.00         2    0    1  -0.012  -14.423183   -1.104976    3.895021
   46  c       3    2.82   0.00         2    0    1  -0.007   -9.531052   -1.595083    1.047808
   47  c       3    2.82   0.00         2    0    1  -0.037   -7.321378   -1.109039   -0.248753
   48  c       3    2.82   0.00         2    0    1  -0.022   -4.851011   -0.406556   -6.575452
   49  c       3    2.83   0.00         2    0    1  -0.012   -2.647782    0.001128   -8.009671
   50  c       3    2.81   0.00         2    0    1  -0.028   -2.437245   -0.809258  -10.538812
   51  c       3    2.81   0.00         2    0    1  -0.037   -0.277677   -0.377745  -11.888391
   52  c       3    2.81   0.00         2    0    1  -0.028    1.764873    0.887727  -10.767658
   53  c       3    2.81   0.00         2    0    1  -0.037    1.624505    1.692388   -8.316626
   54  c       3    2.83   0.00         2    0    1  -0.007   -0.575582    1.266678   -6.874040
   55  h       1    0.97   0.01         0    0    0   0.228    1.669277   -1.128861   -2.914395
   56  h       1    0.97   0.00         0    0    0   0.061    7.122568    3.818930    4.006713
   57  h       1    0.97   0.00         0    0    0   0.029   10.515865    1.440321    6.072453
   58  h       1    0.97   0.00         0    0    0   0.023   11.255358   -2.614636    7.801322
   59  h       1    0.97   0.00         0    0    0   0.038   14.646425   -4.944635    9.943066
   60  h       1    0.97   0.00         0    0    0   0.042   18.815658   -7.017886    9.805078
   61  h       1    0.97   0.00         0    0    0   0.037   22.602650   -8.262016    7.401269
   62  h       1    0.97   0.00         0    0    0   0.041   22.986506   -7.164769    2.896149
   63  h       1    0.97   0.00         0    0    0   0.035   19.588726   -4.816462    0.753476
   64  h       1    0.97   0.00         0    0    0   0.024   15.459287   -2.722387    0.909122
   65  h       1    0.97   0.00         0    0    0   0.029   11.182176   -3.261231   -0.453809
   66  h       1    0.97   0.00         0    0    0   0.061    7.823407   -0.850737   -2.536931
   67  h       1    0.97   0.00         0    0    0   0.047    6.870164    6.680664    0.409280
   68  h       1    0.97   0.00         0    0    0   0.043    5.111173   10.826188   -0.651364
   69  h       1    0.97   0.00         0    0    0   0.053    1.819862   13.389960   -2.721861
   70  h       1    0.97   0.00         0    0    0   0.050   -1.692810   11.315602   -4.966641
   71  h       1    0.97   0.00         0    0    0   0.050   -1.954606    6.684263   -5.155407
   72  h       1    0.97   0.01         0    0    0   0.228   -1.755836    3.428787   -0.091027
   73  h       1    0.97   0.00         0    0    0   0.061   -9.811637    1.250943   -5.624953
   74  h       1    0.97   0.00         0    0    0   0.029  -13.734677    0.405440   -3.312829
   75  h       1    0.97   0.00         0    0    0   0.023  -16.163090   -3.050657   -1.920132
   76  h       1    0.97   0.00         0    0    0   0.038  -20.128621   -3.917154    0.321395
   77  h       1    0.97   0.00         0    0    0   0.042  -22.617756   -3.884894    4.259372
   78  h       1    0.97   0.00         0    0    0   0.037  -22.913856   -2.968547    8.813429
   79  h       1    0.97   0.00         0    0    0   0.041  -19.267018   -1.189611   11.089953
   80  h       1    0.97   0.00         0    0    0   0.035  -15.294587   -0.304460    8.833975
   81  h       1    0.97   0.00         0    0    0   0.024  -12.845699   -0.287121    4.902754
   82  h       1    0.97   0.00         0    0    0   0.029   -9.444564   -2.427943    2.909690
   83  h       1    0.97   0.00         0    0    0   0.061   -5.525509   -1.544529    0.613285
   84  h       1    0.97   0.00         0    0    0   0.047   -6.412821   -1.395011   -7.442763
   85  h       1    0.97   0.00         0    0    0   0.043   -4.022500   -1.776511  -11.388328
   86  h       1    0.97   0.00         0    0    0   0.053   -0.129846   -1.002259  -13.825750
   87  h       1    0.97   0.00         0    0    0   0.050    3.455160    1.225942  -11.860394
   88  h       1    0.97   0.00         0    0    0   0.050    3.193551    2.677352   -7.457432
 
          #atoms :   88
          #bonds :   97
          #angl  :   158
          #tors  :   300
          #nmol  :   1
          #optfrag :   1
           ------------------------------------------------- 
          |                   G F N - F F                   |
          |          A general generic force-field          |
          |                  Version 1.0.3                  | 
           ------------------------------------------------- 
          nhb123   7919 780 0

 E+G (total)                   0 d,  0 h,  0 min,  0.005 sec
 distance/D3 list               ...        0 min,  0.000 sec (  0.682%)
 non bonded repulsion           ...        0 min,  0.000 sec (  5.784%)
 dCN                            ...        0 min,  0.000 sec (  5.743%)
 EEQ energy and q               ...        0 min,  0.001 sec ( 11.358%)
 D3                             ...        0 min,  0.001 sec ( 13.919%)
 EEQ gradient                   ...        0 min,  0.000 sec (  6.853%)
 bonds                          ...        0 min,  0.000 sec ( 10.355%)
 bend and torsion               ...        0 min,  0.000 sec ( 10.462%)
 bonded ATM                     ...        0 min,  0.000 sec (  1.003%)
 HB/XB (incl list setup)        ...        0 min,  0.001 sec ( 29.361%)

         :::::::::::::::::::::::::::::::::::::::::::::::::::::
         ::                     SUMMARY                     ::
         :::::::::::::::::::::::::::::::::::::::::::::::::::::
         :: total energy             -19.093954689420 Eh    ::
         :: gradient norm              0.059481294067 Eh/a0 ::
         ::.................................................::
         :: bond energy              -20.261223637173 Eh    ::
         :: angle energy               0.003941366145 Eh    ::
         :: torsion energy             0.024631822699 Eh    ::
         :: repulsion energy           1.401505858027 Eh    ::
         :: electrostat energy        -0.147067517012 Eh    ::
         :: dispersion energy         -0.092286303156 Eh    ::
         :: HB energy                 -0.001663971668 Eh    ::
         :: XB energy                  0.000000000000 Eh    ::
         :: bonded atm energy         -0.021792307283 Eh    ::
         :: external energy            0.000000000000 Eh    ::
         :: add. restraining           0.000000000000 Eh    ::
         :: total charge               0.000000000000 e     ::
         :::::::::::::::::::::::::::::::::::::::::::::::::::::

           -------------------------------------------------
          |                Property Printout                |
           -------------------------------------------------

           -------------------------------------------------
          | TOTAL ENERGY              -19.093954689420 Eh   |
          | GRADIENT NORM               0.059481294067 Eh/α |
           -------------------------------------------------

------------------------------------------------------------------------
 * finished run on 2024/07/31 at 10:40:15.371     
------------------------------------------------------------------------
 total:
 * wall-time:     0 d,  0 h,  0 min,  0.065 sec
 *  cpu-time:     0 d,  0 h,  0 min,  1.241 sec
 * ratio c/w:    18.979 speedup
 SCF:
 * wall-time:     0 d,  0 h,  0 min,  0.008 sec
 *  cpu-time:     0 d,  0 h,  0 min,  0.192 sec
 * ratio c/w:    24.668 speedup

 Calculating NCI flexibility... done.
     covalent flexibility measure :   0.012
 non-covalent flexibility measure :   1.000
 flexibility measure :   0.059
 t(MTD) / ps set by command line  :     0.5
 t(MTD) / ps    :     0.5
 Σ(t(MTD)) / ps :     7.0 (14 MTDs)
 
-------------------------------------
Starting a trial MTD to test settings
-------------------------------------
 Estimated runtime for one MTD (0.5 ps) on a single thread: 4 min 5 sec
 Estimated runtime for a batch of 14 MTDs on 28 threads: 2 min 3 sec
 
 list of Vbias parameters applied:
$metadyn    0.00300   1.300
$metadyn    0.00150   1.300
$metadyn    0.00075   1.300
$metadyn    0.00300   0.780
$metadyn    0.00150   0.780
$metadyn    0.00075   0.780
$metadyn    0.00300   0.468
$metadyn    0.00150   0.468
$metadyn    0.00075   0.468
$metadyn    0.00300   0.281
$metadyn    0.00150   0.281
$metadyn    0.00075   0.281
$metadyn    0.00100   0.100
$metadyn    0.00500   0.800
 
*******************************************************************************************
**                        N E W    I T E R A T I O N    C Y C L E                        **
*******************************************************************************************
 
========================================
            MTD Iteration  1
========================================
 
     ========================================
     |         Meta-MD (MTD) Sampling       |
     ========================================
 
Starting Meta-MD   1 with the settings:
     MD time /ps        :     0.5
     dt /fs             :     1.5
     dumpstep(trj) /fs  :     100
     dumpstep(Vbias)/ps :     1.0
     Vbias factor k /Eh :  0.2640
     Vbias exp α /bohr⁻²:    1.30
Starting Meta-MD   9 with the settings:
     MD time /ps        :     0.5
     dt /fs             :     1.5
     dumpstep(trj) /fs  :     100
     dumpstep(Vbias)/ps :     1.0
     Vbias factor k /Eh :  0.0660
     Vbias exp α /bohr⁻²:    0.47
Starting Meta-MD   5 with the settings:
     MD time /ps        :     0.5
     dt /fs             :     1.5
     dumpstep(trj) /fs  :     100
     dumpstep(Vbias)/ps :     1.0
     Vbias factor k /Eh :  0.1320
     Vbias exp α /bohr⁻²:    0.78
Starting Meta-MD  14 with the settings:
     MD time /ps        :     0.5
     dt /fs             :     1.5
     dumpstep(trj) /fs  :     100
     dumpstep(Vbias)/ps :     1.0
     Vbias factor k /Eh :  0.4400
     Vbias exp α /bohr⁻²:    0.80
Starting Meta-MD   3 with the settings:
     MD time /ps        :     0.5
     dt /fs             :     1.5
     dumpstep(trj) /fs  :     100
     dumpstep(Vbias)/ps :     1.0
     Vbias factor k /Eh :  0.0660
     Vbias exp α /bohr⁻²:    1.30
Starting Meta-MD  10 with the settings:
     MD time /ps        :     0.5
     dt /fs             :     1.5
     dumpstep(trj) /fs  :     100
     dumpstep(Vbias)/ps :     1.0
     Vbias factor k /Eh :  0.2640
     Vbias exp α /bohr⁻²:    0.28
Starting Meta-MD   7 with the settings:
     MD time /ps        :     0.5
     dt /fs             :     1.5
     dumpstep(trj) /fs  :     100
     dumpstep(Vbias)/ps :     1.0
     Vbias factor k /Eh :  0.2640
     Vbias exp α /bohr⁻²:    0.47
Starting Meta-MD  12 with the settings:
     MD time /ps        :     0.5
     dt /fs             :     1.5
     dumpstep(trj) /fs  :     100
     dumpstep(Vbias)/ps :     1.0
     Vbias factor k /Eh :  0.0660
     Vbias exp α /bohr⁻²:    0.28
Starting Meta-MD   4 with the settings:
     MD time /ps        :     0.5
     dt /fs             :     1.5
     dumpstep(trj) /fs  :     100
     dumpstep(Vbias)/ps :     1.0
     Vbias factor k /Eh :  0.2640
     Vbias exp α /bohr⁻²:    0.78
Starting Meta-MD  13 with the settings:
     MD time /ps        :     0.5
     dt /fs             :     1.5
     dumpstep(trj) /fs  :     100
     dumpstep(Vbias)/ps :     1.0
     Vbias factor k /Eh :  0.0880
     Vbias exp α /bohr⁻²:    0.10
Starting Meta-MD   8 with the settings:
     MD time /ps        :     0.5
     dt /fs             :     1.5
     dumpstep(trj) /fs  :     100
     dumpstep(Vbias)/ps :     1.0
     Vbias factor k /Eh :  0.1320
     Vbias exp α /bohr⁻²:    0.47
Starting Meta-MD   2 with the settings:
     MD time /ps        :     0.5
     dt /fs             :     1.5
     dumpstep(trj) /fs  :     100
     dumpstep(Vbias)/ps :     1.0
     Vbias factor k /Eh :  0.1320
     Vbias exp α /bohr⁻²:    1.30
Starting Meta-MD   6 with the settings:
     MD time /ps        :     0.5
     dt /fs             :     1.5
     dumpstep(trj) /fs  :     100
     dumpstep(Vbias)/ps :     1.0
     Vbias factor k /Eh :  0.0660
     Vbias exp α /bohr⁻²:    0.78
Starting Meta-MD  11 with the settings:
     MD time /ps        :     0.5
     dt /fs             :     1.5
     dumpstep(trj) /fs  :     100
     dumpstep(Vbias)/ps :     1.0
     Vbias factor k /Eh :  0.1320
     Vbias exp α /bohr⁻²:    0.28
*Meta-MTD 12 finished*
*Meta-MTD 6 finished*
*Meta-MTD 9 finished*
*Meta-MTD 4 finished*
*Meta-MTD 2 finished*
*Meta-MTD 14 finished*
*Meta-MTD 5 finished*
*Meta-MTD 7 finished*
*Meta-MTD 1 finished*
*Meta-MTD 10 finished*
*Meta-MTD 11 finished*
*Meta-MTD 13 finished*
*Meta-MTD 3 finished*
*Meta-MTD 8 finished*
 
-----------------------
Multilevel Optimization
-----------------------
 
 -------------------------
 1. crude pre-optimization
 -------------------------
 Optimizing all 70 structures from file "crest_rotamers_0.xyz" ...
 1 2 3 4 5 6 7 8 9 10 11 12 13 14 15 16 17 18 19 20 21 22 23 24 25 26 27 28 29 30 31 32 33 34 35 36 37 38 39 40 41 42 43 44 45 46 47 48 49 50 51 52 53 54 55 56 57 58 59 60 61 62 63 64 65 66 67 68 69 70
 done.
 running RMSDs...
 done.
 E lowest :  -136.84317
 65 structures remain within    12.00 kcal/mol window
 
 -------------------------------------
 2. optimization with tight thresholds
 -------------------------------------
 Optimizing all 66 structures from file "crest_rotamers_1.xyz" ...
 1 2 3 4 5 6 7 8 9 10 11 12 13 14 15 16 17 18 19 20 21 22 23 24 25 26 27 28 29 30 31 32 33 34 35 36 37 38 39 40 41 42 43 44 45 46 47 48 49 50 51 52 53 54 55 56 57 58 59 60 61 62 63 64 65 66
 done.
 running RMSDs...
 done.
 E lowest :  -136.84442
 24 structures remain within     6.00 kcal/mol window
 
 
========================================
            MTD Iteration  2
========================================
 
     ========================================
     |         Meta-MD (MTD) Sampling       |
     ========================================
 
Starting Meta-MD   1 with the settings:
     MD time /ps        :     0.5
     dt /fs             :     1.5
     dumpstep(trj) /fs  :     100
     dumpstep(Vbias)/ps :     1.0
     Vbias factor k /Eh :  0.2640
     Vbias exp α /bohr⁻²:    1.30
Starting Meta-MD   2 with the settings:
     MD time /ps        :     0.5
     dt /fs             :     1.5
     dumpstep(trj) /fs  :     100
     dumpstep(Vbias)/ps :     1.0
     Vbias factor k /Eh :  0.1320
     Vbias exp α /bohr⁻²:    1.30
Starting Meta-MD   4 with the settings:
     MD time /ps        :     0.5
     dt /fs             :     1.5
     dumpstep(trj) /fs  :     100
     dumpstep(Vbias)/ps :     1.0
     Vbias factor k /Eh :  0.2640
     Vbias exp α /bohr⁻²:    0.78
Starting Meta-MD   5 with the settings:
     MD time /ps        :     0.5
     dt /fs             :     1.5
     dumpstep(trj) /fs  :     100
     dumpstep(Vbias)/ps :     1.0
     Vbias factor k /Eh :  0.1320
     Vbias exp α /bohr⁻²:    0.78
Starting Meta-MD   3 with the settings:
     MD time /ps        :     0.5
     dt /fs             :     1.5
     dumpstep(trj) /fs  :     100
     dumpstep(Vbias)/ps :     1.0
     Vbias factor k /Eh :  0.0660
     Vbias exp α /bohr⁻²:    1.30
Starting Meta-MD   6 with the settings:
     MD time /ps        :     0.5
     dt /fs             :     1.5
     dumpstep(trj) /fs  :     100
     dumpstep(Vbias)/ps :     1.0
     Vbias factor k /Eh :  0.0660
     Vbias exp α /bohr⁻²:    0.78
Starting Meta-MD   7 with the settings:
     MD time /ps        :     0.5
     dt /fs             :     1.5
     dumpstep(trj) /fs  :     100
     dumpstep(Vbias)/ps :     1.0
     Vbias factor k /Eh :  0.2640
     Vbias exp α /bohr⁻²:    0.47
Starting Meta-MD   8 with the settings:
     MD time /ps        :     0.5
     dt /fs             :     1.5
     dumpstep(trj) /fs  :     100
     dumpstep(Vbias)/ps :     1.0
     Vbias factor k /Eh :  0.1320
     Vbias exp α /bohr⁻²:    0.47
Starting Meta-MD   9 with the settings:
     MD time /ps        :     0.5
     dt /fs             :     1.5
     dumpstep(trj) /fs  :     100
     dumpstep(Vbias)/ps :     1.0
     Vbias factor k /Eh :  0.0660
     Vbias exp α /bohr⁻²:    0.47
Starting Meta-MD  12 with the settings:
     MD time /ps        :     0.5
     dt /fs             :     1.5
     dumpstep(trj) /fs  :     100
     dumpstep(Vbias)/ps :     1.0
     Vbias factor k /Eh :  0.0660
     Vbias exp α /bohr⁻²:    0.28
Starting Meta-MD  10 with the settings:
     MD time /ps        :     0.5
     dt /fs             :     1.5
     dumpstep(trj) /fs  :     100
     dumpstep(Vbias)/ps :     1.0
     Vbias factor k /Eh :  0.2640
     Vbias exp α /bohr⁻²:    0.28
Starting Meta-MD  11 with the settings:
     MD time /ps        :     0.5
     dt /fs             :     1.5
     dumpstep(trj) /fs  :     100
     dumpstep(Vbias)/ps :     1.0
     Vbias factor k /Eh :  0.1320
     Vbias exp α /bohr⁻²:    0.28
*Meta-MTD 11 finished*
*Meta-MTD 9 finished*
*Meta-MTD 1 finished*
*Meta-MTD 2 finished*
*Meta-MTD 3 finished*
*Meta-MTD 5 finished*
*Meta-MTD 8 finished*
*Meta-MTD 4 finished*
*Meta-MTD 12 finished*
*Meta-MTD 7 finished*
*Meta-MTD 6 finished*
*Meta-MTD 10 finished*
 
-----------------------
Multilevel Optimization
-----------------------
 
 -------------------------
 1. crude pre-optimization
 -------------------------
 Optimizing all 60 structures from file "crest_rotamers_0.xyz" ...
 1 2 3 4 5 6 7 8 9 10 11 12 13 14 15 16 17 18 19 20 21 22 23 24 25 26 27 28 29 30 31 32 33 34 35 36 37 38 39 40 41 42 43 44 45 46 47 48 49 50 51 52 53 54 55 56 57 58 59 60
 done.
 running RMSDs...
 done.
 E lowest :  -136.84384
 52 structures remain within    12.00 kcal/mol window
 
 -------------------------------------
 2. optimization with tight thresholds
 -------------------------------------
 Optimizing all 53 structures from file "crest_rotamers_1.xyz" ...
 1 2 3 4 5 6 7 8 9 10 11 12 13 14 15 16 17 18 19 20 21 22 23 24 25 26 27 28 29 30 31 32 33 34 35 36 37 38 39 40 41 42 43 44 45 46 47 48 49 50 51 52 53
 done.
 running RMSDs...
 done.
 E lowest :  -136.84444
 28 structures remain within     6.00 kcal/mol window
 
========================================
            MTD Iterations done         
========================================
 Collecting ensmbles.
 running RMSDs...
 done.
 E lowest :  -136.84444
 48 structures remain within     6.00 kcal/mol window
 
 -------------------------------
 Additional orientation sampling
 -------------------------------
 Optimizing all 82 structures from file "oh_ensemble.xyz" ...
 1 2 3 4 5 6 7 8 9 10 11 12 13 14 15 16 17 18 19 20 21 22 23 24 25 26 27 28 29 30 31 32 33 34 35 36 37 38 39 40 41 42 43 44 45 46 47 48 49 50 51 52 53 54 55 56 57 58 59 60 61 62 63 64 65 66 67 68 69 70 71 72 73 74 75 76 77 78 79 80 81 82
 done.
 running RMSDs...
 done.
 E lowest :  -136.84444
 111 structures remain within     6.00 kcal/mol window
 
-----------------------------------------------
Additional regular MDs on lowest 4 conformer(s)
-----------------------------------------------
Starting MD   1 with the settings:
     MD time /ps        :     0.2
     MD Temperature /K  :   400.0
     dt /fs             :     1.5
     dumpstep(trj) /fs  :     100
Starting MD   2 with the settings:
     MD time /ps        :     0.2
     MD Temperature /K  :   500.0
     dt /fs             :     1.5
     dumpstep(trj) /fs  :     100
Starting MD   3 with the settings:
     MD time /ps        :     0.2
     MD Temperature /K  :   400.0
     dt /fs             :     1.5
     dumpstep(trj) /fs  :     100
Starting MD   4 with the settings:
     MD time /ps        :     0.2
     MD Temperature /K  :   500.0
     dt /fs             :     1.5
     dumpstep(trj) /fs  :     100
Starting MD   5 with the settings:
     MD time /ps        :     0.2
     MD Temperature /K  :   400.0
     dt /fs             :     1.5
     dumpstep(trj) /fs  :     100
Starting MD   6 with the settings:
     MD time /ps        :     0.2
     MD Temperature /K  :   500.0
     dt /fs             :     1.5
     dumpstep(trj) /fs  :     100
Starting MD   7 with the settings:
     MD time /ps        :     0.2
     MD Temperature /K  :   400.0
     dt /fs             :     1.5
     dumpstep(trj) /fs  :     100
Starting MD   8 with the settings:
     MD time /ps        :     0.2
     MD Temperature /K  :   500.0
     dt /fs             :     1.5
     dumpstep(trj) /fs  :     100
*MD 1 finished*
*MD 5 finished*
*MD 2 finished*
*MD 7 finished*
*MD 8 finished*
*MD 4 finished*
*MD 3 finished*
*MD 6 finished*
 Appending file crest_rotamers_2.xyz with new structures
 
 -------------------------------------------
 Ensemble optimization with tight thresholds
 -------------------------------------------
 Optimizing all 127 structures from file "crest_rotamers_2.xyz" ...
 1 2 3 4 5 6 7 8 9 10 11 12 13 14 15 16 17 18 19 20 21 22 23 24 25 26 27 28 29 30 31 32 33 34 35 36 37 38 39 40 41 42 43 44 45 46 47 48 49 50 51 52 53 54 55 56 57 58 59 60 61 62 63 64 65 66 67 68 69 70 71 72 73 74 75 76 77 78 79 80 81 82 83 84 85 86 87 88 89 90 91 92 93 94 95 96 97 98 99 100 101 102 103 104 105 106 107 108 109 110 111 112 113 114 115 116 117 118 119 120 121 122 123 124 125 126 127
 done.
 running RMSDs...
 done.
 E lowest :  -136.84444
 112 structures remain within     6.00 kcal/mol window
 
 
     ========================================
     |        Structure Crossing (GC)       |
     ========================================
 =============================
  # threads =          28
 =============================
 input  file name : crest_rotamers_4.xyz
number of atoms                :    88
number of points on xyz files  :   112
conformer energy window  /kcal :    6.00
CN per atom difference cut-off :  0.3000
RMSD threshold                 :  0.5000
max. # of generated structures : 25
 reading xyz file ...
 # in E window                112
 generating pairs ...        6327
  97.3 % done
 generated pairs           :        4893
 number of clash discarded :        1323
 average rmsd w.r.t input  : 3.19336
 sd of ensemble            : 0.91608
 number of new structures      :           1
 removed identical structures  :          49
 writing            1  TMPCONF* dirs ...
 --------------------------
 GC: loose pre-optimization
 --------------------------
 Starting optimization of generated structures
 1 jobs to do.
 1 
 done.
 Now appending opt.xyz file with new structures
 running RMSDs...
 done.
 E lowest :  -136.84443
 1 structures remain within    10.00 kcal/mol window
 --------------------------------------
 GC: optimization with tight thresholds
 --------------------------------------
 Optimizing all 1 structures from file "crest_rotamers_1.xyz" ...
 1
 done.
 running RMSDs...
 done.
 E lowest :  -136.84444
 
 
   ================================================
   |           Final Geometry Optimization        |
   ================================================
 ------------------------------------------------
 Ensemble optimization with very tight thresholds
 ------------------------------------------------
 Optimizing all 112 structures from file "crest_rotamers_5.xyz" ...
 1 2 3 4 5 6 7 8 9 10 11 12 13 14 15 16 17 18 19 20 21 22 23 24 25 26 27 28 29 30 31 32 33 34 35 36 37 38 39 40 41 42 43 44 45 46 47 48 49 50 51 52 53 54 55 56 57 58 59 60 61 62 63 64 65 66 67 68 69 70 71 72 73 74 75 76 77 78 79 80 81 82 83 84 85 86 87 88 89 90 91 92 93 94 95 96 97 98 99 100 101 102 103 104 105 106 107 108 109 110 111 112
 done.
 running RMSDs...
 done.
 E lowest :  -136.84444
 111 structures remain within     6.00 kcal/mol window
 
 input  file name : crest_rotamers_6.xyz
 output file name : crest_rotamers_7.xyz
 number of atoms                :   88
 number of points on xyz files  :   112
 RMSD threshold                 :   0.2500
 Bconst threshold               :   0.0100
 population threshold           :   0.0500
 conformer energy window  /kcal :   6.0000
 # fragment in coord            :     1
 # bonds in reference structure :    97
   => # of C=C bonds :    20
 number of reliable points      :   112
 reference state Etot :  -136.844441810000
 number of doubles removed by rot/RMSD         :           1
 total number unique points considered further :         111
       Erel/kcal        Etot weight/tot  conformer     set   degen     origin
       1   0.000  -136.84444    0.02189    0.02189       1       1     mtd11
       2   0.001  -136.84444    0.02185    0.02185       2       1     md5
       3   0.011  -136.84442    0.02148    0.02148       3       1     md8
       4   0.016  -136.84442    0.02131    0.02131       4       1     mtd10
       5   0.047  -136.84437    0.02021    0.02021       5       1     mtd12
       6   0.056  -136.84435    0.01992    0.01992       6       1     mtd3
       7   0.084  -136.84431    0.01900    0.01900       7       1     mtd1
       8   0.090  -136.84430    0.01881    0.03708       8       2     mtd2
       9   0.107  -136.84427    0.01828                                mtd4
      10   0.117  -136.84426    0.01798    0.01798       9       1     mtd10
      11   0.096  -136.84429    0.01861    0.01861      10       1     mtd3
      12   0.122  -136.84425    0.01783    0.03527      11       2     mtd7
      13   0.135  -136.84423    0.01744                                mtd11
      14   0.138  -136.84422    0.01735    0.03449      12       2     mtd9
      15   0.145  -136.84421    0.01713                                mtd3
      16   0.122  -136.84425    0.01781    0.03519      13       2     mtd11
      17   0.137  -136.84422    0.01738                                mtd9
      18   0.142  -136.84422    0.01723    0.03358      14       2     md2
      19   0.173  -136.84417    0.01634                                mtd7
      20   0.155  -136.84419    0.01684    0.01684      15       1     mtd2
      21   0.208  -136.84411    0.01543    0.01543      16       1     mtd5
      22   0.213  -136.84410    0.01528    0.03038      17       2     mtd9
      23   0.221  -136.84409    0.01509                                mtd1
      24   0.233  -136.84407    0.01479    0.01479      18       1     mtd11
      25   0.238  -136.84406    0.01464    0.01464      19       1     mtd9
      26   0.239  -136.84406    0.01463    0.01463      20       1     mtd6
      27   0.241  -136.84406    0.01458    0.01458      21       1     mtd7
      28   0.242  -136.84406    0.01456    0.01456      22       1     mtd4
      29   0.220  -136.84409    0.01511    0.01511      23       1     mtd11
      30   0.259  -136.84403    0.01415    0.01415      24       1     mtd8
      31   0.270  -136.84401    0.01388    0.01388      25       1     mtd5
      32   0.293  -136.84398    0.01337    0.01337      26       1     mtd5
      33   0.294  -136.84397    0.01334    0.01334      27       1     mtd6
      34   0.312  -136.84394    0.01293    0.03825      28       3     mtd10
      35   0.331  -136.84391    0.01252                                mtd11
      36   0.318  -136.84393    0.01280                                mtd9
      37   0.334  -136.84391    0.01246    0.01246      29       1     hor
      38   0.347  -136.84389    0.01220    0.01220      30       1     mtd8
      39   0.323  -136.84393    0.01270    0.01270      31       1     mtd8
      40   0.357  -136.84387    0.01199    0.01199      32       1     hor
      41   0.364  -136.84386    0.01185    0.01185      33       1     mtd5
      42   0.366  -136.84386    0.01180    0.01180      34       1     mtd12
      43   0.367  -136.84386    0.01179    0.01179      35       1     mtd10
      44   0.371  -136.84385    0.01171    0.01171      36       1     mtd7
      45   0.373  -136.84385    0.01167    0.01167      37       1     mtd14
      46   0.393  -136.84382    0.01129    0.01129      38       1     hor
      47   0.418  -136.84377    0.01081    0.01081      39       1     mtd10
      48   0.513  -136.84362    0.00922    0.00922      40       1     mtd10
      49   0.770  -136.84321    0.00597    0.00597      41       1     mtd14
      50   0.781  -136.84320    0.00587    0.00587      42       1     hor
      51   0.808  -136.84315    0.00561    0.00561      43       1     hor
      52   0.823  -136.84313    0.00546    0.00546      44       1     hor
      53   0.829  -136.84312    0.00540    0.00540      45       1     hor
      54   0.833  -136.84311    0.00538    0.00538      46       1     mtd14
      55   0.841  -136.84310    0.00530    0.00530      47       1     hor
      56   0.843  -136.84310    0.00529    0.00529      48       1     hor
      57   0.869  -136.84306    0.00506    0.01007      49       2     hor
      58   0.874  -136.84305    0.00502                                hor
      59   0.887  -136.84303    0.00491    0.00976      50       2     hor
      60   0.894  -136.84302    0.00485                                hor
      61   0.900  -136.84301    0.00480    0.00480      51       1     hor
      62   0.910  -136.84299    0.00472    0.00943      52       2     hor
      63   0.911  -136.84299    0.00471                                hor
      64   0.873  -136.84305    0.00503    0.00503      53       1     hor
      65   0.912  -136.84299    0.00470    0.00470      54       1     hor
      66   0.899  -136.84301    0.00481    0.00481      55       1     hor
      67   0.914  -136.84298    0.00468    0.00468      56       1     hor
      68   0.915  -136.84298    0.00468    0.00468      57       1     hor
      69   0.919  -136.84298    0.00465    0.00465      58       1     hor
      70   0.882  -136.84304    0.00495    0.00495      59       1     hor
      71   0.926  -136.84297    0.00459    0.00459      60       1     hor
      72   0.939  -136.84295    0.00449    0.00449      61       1     hor
      73   0.941  -136.84294    0.00448    0.00448      62       1     hor
      74   0.942  -136.84294    0.00447    0.00447      63       1     hor
      75   0.954  -136.84292    0.00438    0.00873      64       2     hor
      76   0.958  -136.84291    0.00435                                mtd14
      77   0.974  -136.84289    0.00423    0.00423      65       1     hor
      78   0.981  -136.84288    0.00419    0.00419      66       1     hor
      79   0.993  -136.84286    0.00410    0.00818      67       2     hor
      80   0.996  -136.84285    0.00408                                hor
      81   1.006  -136.84284    0.00401    0.00401      68       1     hor
      82   0.955  -136.84292    0.00438    0.00438      69       1     hor
      83   0.986  -136.84287    0.00415    0.00415      70       1     hor
      84   1.009  -136.84283    0.00399    0.00399      71       1     hor
      85   1.016  -136.84282    0.00394    0.00394      72       1     hor
      86   1.025  -136.84281    0.00389    0.00764      73       2     hor
      87   1.046  -136.84277    0.00375                                hor
      88   1.037  -136.84279    0.00381    0.00381      74       1     hor
      89   1.058  -136.84276    0.00367    0.00730      75       2     hor
      90   1.066  -136.84274    0.00363                                hor
      91   1.068  -136.84274    0.00361    0.00361      76       1     hor
      92   1.071  -136.84273    0.00360    0.00360      77       1     hor
      93   1.063  -136.84275    0.00364    0.00364      78       1     hor
      94   1.074  -136.84273    0.00358    0.00711      79       2     hor
      95   1.081  -136.84272    0.00354                                hor
      96   1.097  -136.84269    0.00344    0.00344      80       1     hor
      97   1.108  -136.84268    0.00338    0.00338      81       1     hor
      98   1.114  -136.84267    0.00334    0.00659      82       2     hor
      99   1.132  -136.84264    0.00324                                hor
     100   1.142  -136.84262    0.00319    0.00319      83       1     hor
     101   1.144  -136.84262    0.00318    0.00623      84       2     hor
     102   1.169  -136.84258    0.00305                                hor
     103   1.149  -136.84261    0.00315    0.00315      85       1     hor
     104   1.171  -136.84258    0.00304    0.00304      86       1     hor
     105   1.182  -136.84256    0.00298    0.00298      87       1     hor
     106   1.209  -136.84251    0.00285    0.00285      88       1     hor
     107   1.218  -136.84250    0.00281    0.00281      89       1     hor
     108   1.218  -136.84250    0.00281    0.00281      90       1     hor
     109   1.315  -136.84235    0.00238    0.00238      91       1     hor
     110   1.475  -136.84209    0.00182    0.00182      92       1     hor
     111   1.527  -136.84201    0.00167    0.00167      93       1     hor
T /K                                  :   298.15
E lowest                              :  -136.84444
ensemble average energy (kcal)        :    0.396
ensemble entropy (J/mol K, cal/mol K) :   37.334    8.923
ensemble free energy (kcal/mol)       :   -2.660
population of lowest in %             :    2.189
 number of unique conformers for further calc           93
 list of relative energies saved as "crest.energies"
 
 -----------------
 Wall Time Summary
 -----------------
             test MD wall time :         0h : 1m : 1s
                 MTD wall time :         0h : 1m :57s
      multilevel OPT wall time :         0h : 2m :40s
                  MD wall time :         0h : 0m :49s
                  GC wall time :         0h : 0m : 1s
--------------------
Overall wall time  : 0h : 7m :12s
 
 CREST terminated normally.
