 
       ==============================================
       |                                            |
       |                 C R E S T                  |
       |                                            |
       |  Conformer-Rotamer Ensemble Sampling Tool  |
       |          based on the GFN methods          |
       |             P.Pracht, S.Grimme             |
       |          Universitaet Bonn, MCTC           |
       ==============================================
       Version 2.11.2, Fr 17. Dec 12:10:44 CEST 2021
  Using the xTB program. Compatible with xTB version 6.4.0
 
   Cite work conducted with this code as

   P. Pracht, F. Bohle, S. Grimme, PCCP, 2020, 22, 7169-7192.

   and  S. Grimme, JCTC, 2019, 15, 2847-2862.
 
   with help from:
   C.Bannwarth, F.Bohle, S.Ehlert, S.Grimme,
   C. Plett, P.Pracht, S. Spicher
 
   This program is distributed in the hope that it will be useful,
   but WITHOUT ANY WARRANTY; without even the implied warranty of
   MERCHANTABILITY or FITNESS FOR A PARTICULAR PURPOSE.

 Command line input:
 > crest 00207_r_0.xyz -T 28 -gfn2 -chrg 0 -uhf 0 -rthr 0.25 -shake 1 --mdlen 0.5

  -T 28 (CPUs/Threads selected)
  -gfn2 : Use of GFN2-xTB requested.
  -chrg 0
  -uhf 0
  -rthr 0.25
  --mdlen 0.5 (MD length in ps)
 
 -------------------------
 xTB Geometry Optimization
 -------------------------
 Geometry successfully optimized.
 
------------------------------------------------
Generating MTD length from a flexibility measure
------------------------------------------------
      -----------------------------------------------------------      
     |                   =====================                   |     
     |                           x T B                           |     
     |                   =====================                   |     
     |                         S. Grimme                         |     
     |          Mulliken Center for Theoretical Chemistry        |     
     |                    University of Bonn                     |     
      -----------------------------------------------------------      

   * xtb version 6.4.1 (afa7bdf) compiled by 'ehlert@majestix' on 2021-06-10

   xtb is free software: you can redistribute it and/or modify it under
   the terms of the GNU Lesser General Public License as published by
   the Free Software Foundation, either version 3 of the License, or
   (at your option) any later version.
   
   xtb is distributed in the hope that it will be useful,
   but WITHOUT ANY WARRANTY; without even the implied warranty of
   MERCHANTABILITY or FITNESS FOR A PARTICULAR PURPOSE.  See the
   GNU Lesser General Public License for more details.
   
   Cite this work as:
   * C. Bannwarth, E. Caldeweyher, S. Ehlert, A. Hansen, P. Pracht,
     J. Seibert, S. Spicher, S. Grimme, WIREs Comput. Mol. Sci., 2020, 11,
     e01493. DOI: 10.1002/wcms.1493
   
   for GFN2-xTB:
   * C. Bannwarth, S. Ehlert and S. Grimme., J. Chem. Theory Comput., 2019,
     15, 1652-1671. DOI: 10.1021/acs.jctc.8b01176
   for GFN1-xTB:
   * S. Grimme, C. Bannwarth, P. Shushkov, J. Chem. Theory Comput., 2017,
     13, 1989-2009. DOI: 10.1021/acs.jctc.7b00118
   for GFN0-xTB:
   * P. Pracht, E. Caldeweyher, S. Ehlert, S. Grimme, ChemRxiv, 2019, preprint.
     DOI: 10.26434/chemrxiv.8326202.v1
   for GFN-FF:
   * S. Spicher and S. Grimme, Angew. Chem. Int. Ed., 2020, 59, 15665-15673.
     DOI: 10.1002/anie.202004239
   
   for DFT-D4:
   * E. Caldeweyher, C. Bannwarth and S. Grimme, J. Chem. Phys., 2017,
     147, 034112. DOI: 10.1063/1.4993215
   * E. Caldeweyher, S. Ehlert, A. Hansen, H. Neugebauer, S. Spicher,
     C. Bannwarth and S. Grimme, J. Chem. Phys., 2019, 150, 154122.
     DOI: 10.1063/1.5090222
   * E. Caldeweyher, J.-M. Mewes, S. Ehlert and S. Grimme, Phys. Chem. Chem. Phys.
     2020, 22, 8499-8512. DOI: 10.1039/D0CP00502A
   
   for sTDA-xTB:
   * S. Grimme and C. Bannwarth, J. Chem. Phys., 2016, 145, 054103.
     DOI: 10.1063/1.4959605
   
   in the mass-spec context:
   * V. Asgeirsson, C. Bauer and S. Grimme, Chem. Sci., 2017, 8, 4879.
     DOI: 10.1039/c7sc00601b
   * J. Koopman and S. Grimme, ACS Omega 2019, 4, 12, 15120-15133.
     DOI: 10.1021/acsomega.9b02011
   
   for metadynamics refer to:
   * S. Grimme, J. Chem. Theory Comput., 2019, 155, 2847-2862
     DOI: 10.1021/acs.jctc.9b00143
   
   for SPH calculations refer to:
   * S. Spicher and S. Grimme, J. Chem. Theory Comput., 2021, 17, 1701-1714
     DOI: 10.1021/acs.jctc.0c01306
   
   with help from (in alphabetical order)
   P. Atkinson, C. Bannwarth, F. Bohle, G. Brandenburg, E. Caldeweyher
   M. Checinski, S. Dohm, S. Ehlert, S. Ehrlich, I. Gerasimov, J. Koopman
   C. Lavigne, S. Lehtola, F. März, M. Müller, F. Musil, H. Neugebauer
   J. Pisarek, C. Plett, P. Pracht, J. Seibert, P. Shushkov, S. Spicher
   M. Stahn, M. Steiner, T. Strunk, J. Stückrath, T. Rose, and J. Unsleber
   
 * started run on 2025/01/21 at 11:37:57.845     

           -------------------------------------------------
          |                Calculation Setup                |
           -------------------------------------------------

          program call               : xtb tmpcoord --gfn0 --sp
          hostname                   : node22
          coordinate file            : tmpcoord
          omp threads                :                    28
          number of atoms            :                    74
          number of electrons        :                   198
          charge                     :                     0
          spin                       :                   0.0
          first test random number   :      0.25760434889065

   ID    Z sym.   atoms
    1    6 c      1-19, 21-38, 40
    2    8 o      20, 39
    3    1 h      41-74
########################################################################
[WARNING] Please study the warnings concerning your input carefully
-1- prog_main_parseArguments: The use of '--gfn0' is discouraged, please use '--gfn 0' next time
########################################################################

           -------------------------------------------------
          |                 G F N 0 - x T B                 |
           -------------------------------------------------

        Reference                      10.26434/chemrxiv.8326202.v1
      * Hamiltonian:
        H0-scaling (s, p, d)           2.000000    2.486800    2.270000
        zeta-weighting                 1.000000
      * Dispersion:
        s8                             2.850000
        a1                             0.800000
        a2                             4.600000
        s9                             0.000000
      * Repulsion:
        kExp                           1.500000
        rExp                           1.000000
      * Coulomb:
        alpha                          0.000000
        third order                    atomic
        anisotropic                    false
      * Polar bond correction:
        rad-shift                      0.053700
        strength                      -0.012900
        en-exp                         3.484700
        en-scale                       0.509700


          ...................................................
          :                      SETUP                      :
          :.................................................:
          :  # basis functions                 228          :
          :  # atomic orbitals                 228          :
          :  # shells                          148          :
          :  # electrons                       198          :
          :  electronic temp.          300.0000000     K    :
          :  accuracy                    1.0000000          :
          :  -> integral cutoff          0.2500000E+02      :
          :  -> integral neglect         0.1000000E-07      :
          ...................................................
  Checking positiv definite overlap ...  done.
 

         #    Occupation            Energy/Eh            Energy/eV
      -------------------------------------------------------------
         1        2.0000           -0.6947440             -18.9049
       ...           ...                  ...                  ...
        93        2.0000           -0.4325319             -11.7698
        94        2.0000           -0.4312296             -11.7344
        95        2.0000           -0.4308649             -11.7244
        96        2.0000           -0.4123991             -11.2220
        97        2.0000           -0.4119793             -11.2105
        98        2.0000           -0.3936358             -10.7114
        99        2.0000           -0.3913643             -10.6496 (HOMO)
       100                         -0.3012806              -8.1983 (LUMO)
       101                         -0.3000538              -8.1649
       102                         -0.2737432              -7.4489
       103                         -0.2733375              -7.4379
       104                         -0.2684100              -7.3038
       ...                                ...                  ...
       228                          0.6558535              17.8467
      -------------------------------------------------------------
                  HL-Gap            0.0900838 Eh            2.4513 eV
             Fermi-level            0.0000000 Eh            0.0000 eV

 EHT (total)                   0 d,  0 h,  0 min,  0.044 sec
 EHT setup                      ...        0 min,  0.001 sec (  2.668%)
 Coordination number            ...        0 min,  0.001 sec (  2.450%)
 EEQ model density              ...        0 min,  0.001 sec (  1.872%)
 D4 Dispersion                  ...        0 min,  0.003 sec (  6.645%)
 Integral evaluation            ...        0 min,  0.001 sec (  3.024%)
 Cholesky factorization         ...        0 min,  0.010 sec ( 21.902%)
 Zeroth order Hamiltonian       ...        0 min,  0.024 sec ( 53.815%)
 Gradient calculation           ...        0 min,  0.003 sec (  5.954%)

         :::::::::::::::::::::::::::::::::::::::::::::::::::::
         ::                     SUMMARY                     ::
         :::::::::::::::::::::::::::::::::::::::::::::::::::::
         :: total energy            -105.436067602802 Eh    ::
         :: gradient norm              0.041826465630 Eh/a0 ::
         :: HOMO-LUMO gap              2.451304353581 eV    ::
         ::.................................................::
         :: H0 energy               -107.127115141038 Eh    ::
         :: repulsion energy           1.888944240762 Eh    ::
         :: electrostat energy        -0.122860759114 Eh    ::
         :: -> Gsolv                   0.000000000000 Eh    ::
         ::    -> Gsasa                0.000000000000 Eh    ::
         ::    -> Gshift               0.000000000000 Eh    ::
         :: dispersion energy         -0.049793928677 Eh    ::
         :: short-range corr.         -0.025242014735 Eh    ::
         :: add. restraining           0.000000000000 Eh    ::
         :: total charge               0.000000000000 e     ::
         :::::::::::::::::::::::::::::::::::::::::::::::::::::

           -------------------------------------------------
          |                Property Printout                |
           -------------------------------------------------

    * Orbital Energies and Occupations

         #    Occupation            Energy/Eh            Energy/eV
      -------------------------------------------------------------
         1        2.0000           -0.6947440             -18.9049
       ...           ...                  ...                  ...
        87        2.0000           -0.4547800             -12.3752
        88        2.0000           -0.4514936             -12.2858
        89        2.0000           -0.4458050             -12.1310
        90        2.0000           -0.4439251             -12.0798
        91        2.0000           -0.4399058             -11.9704
        92        2.0000           -0.4364169             -11.8755
        93        2.0000           -0.4325319             -11.7698
        94        2.0000           -0.4312296             -11.7344
        95        2.0000           -0.4308649             -11.7244
        96        2.0000           -0.4123991             -11.2220
        97        2.0000           -0.4119793             -11.2105
        98        2.0000           -0.3936358             -10.7114
        99        2.0000           -0.3913643             -10.6496 (HOMO)
       100                         -0.3012806              -8.1983 (LUMO)
       101                         -0.3000538              -8.1649
       102                         -0.2737432              -7.4489
       103                         -0.2733375              -7.4379
       104                         -0.2684100              -7.3038
       105                         -0.2683467              -7.3021
       106                         -0.2565964              -6.9823
       107                         -0.2559224              -6.9640
       108                         -0.2323384              -6.3222
       109                         -0.2297403              -6.2516
       110                         -0.1850877              -5.0365
       ...                                ...                  ...
       228                          0.6558535              17.8467
      -------------------------------------------------------------
                  HL-Gap            0.0900838 Eh            2.4513 eV
             Fermi-level            0.0000000 Eh            0.0000 eV

     #   Z          covCN         q      C6AA      α(0)
     1   6 c        3.756    -0.404    32.844     8.269
     2   6 c        3.855     0.088    21.391     6.659
     3   6 c        3.756    -0.404    32.839     8.269
     4   6 c        2.971     0.022    28.994     8.805
     5   6 c        2.925    -0.112    32.496     9.319
     6   6 c        2.917    -0.084    31.732     9.208
     7   6 c        2.923    -0.153    33.655     9.484
     8   6 c        2.976     0.063    28.006     8.654
     9   6 c        2.971    -0.051    30.835     9.080
    10   6 c        2.925    -0.179    34.414     9.590
    11   6 c        2.985     0.069    27.870     8.633
    12   6 c        2.919    -0.132    33.056     9.399
    13   6 c        2.915    -0.088    31.824     9.222
    14   6 c        2.916    -0.090    31.895     9.232
    15   6 c        2.918    -0.114    32.551     9.326
    16   6 c        2.989     0.022    28.964     8.801
    17   6 c        2.976    -0.005    29.651     8.904
    18   6 c        2.976    -0.005    29.647     8.904
    19   6 c        2.851     0.228    24.506     8.088
    20   8 o        1.659    -0.533    23.440     6.549
    21   6 c        2.971    -0.052    30.842     9.081
    22   6 c        2.976     0.063    27.998     8.652
    23   6 c        2.923    -0.153    33.649     9.483
    24   6 c        2.917    -0.084    31.731     9.208
    25   6 c        2.925    -0.112    32.497     9.319
    26   6 c        2.971     0.022    28.984     8.803
    27   6 c        3.855     0.088    21.390     6.659
    28   6 c        3.756    -0.404    32.838     8.269
    29   6 c        3.756    -0.404    32.846     8.270
    30   6 c        2.931    -0.160    33.862     9.513
    31   6 c        2.925    -0.179    34.425     9.592
    32   6 c        2.985     0.069    27.875     8.634
    33   6 c        2.919    -0.132    33.058     9.399
    34   6 c        2.915    -0.088    31.827     9.222
    35   6 c        2.916    -0.090    31.898     9.232
    36   6 c        2.918    -0.115    32.576     9.330
    37   6 c        2.989     0.021    29.003     8.807
    38   6 c        2.850     0.227    24.531     8.092
    39   8 o        1.659    -0.536    23.486     6.556
    40   6 c        2.931    -0.158    33.796     9.504
    41   1 h        0.925     0.125     1.577     1.964
    42   1 h        0.925     0.134     1.508     1.921
    43   1 h        0.925     0.130     1.533     1.936
    44   1 h        0.924     0.051     2.310     2.377
    45   1 h        0.925     0.124     1.581     1.967
    46   1 h        0.925     0.130     1.532     1.936
    47   1 h        0.925     0.130     1.537     1.938
    48   1 h        0.926     0.086     1.915     2.164
    49   1 h        0.926     0.090     1.877     2.142
    50   1 h        0.925     0.112     1.682     2.028
    51   1 h        0.926     0.115     1.654     2.011
    52   1 h        0.926     0.097     1.817     2.108
    53   1 h        0.926     0.090     1.877     2.143
    54   1 h        0.926     0.092     1.862     2.134
    55   1 h        0.926     0.112     1.678     2.026
    56   1 h        0.805     0.296     0.733     1.344
    57   1 h        0.925     0.120     1.615     1.987
    58   1 h        0.926     0.091     1.869     2.138
    59   1 h        0.926     0.086     1.914     2.164
    60   1 h        0.924     0.050     2.326     2.385
    61   1 h        0.925     0.131     1.531     1.935
    62   1 h        0.925     0.130     1.534     1.937
    63   1 h        0.925     0.124     1.583     1.968
    64   1 h        0.925     0.130     1.534     1.937
    65   1 h        0.925     0.132     1.519     1.927
    66   1 h        0.925     0.124     1.581     1.967
    67   1 h        0.925     0.101     1.778     2.085
    68   1 h        0.926     0.116     1.647     2.007
    69   1 h        0.926     0.097     1.816     2.107
    70   1 h        0.926     0.090     1.876     2.142
    71   1 h        0.926     0.092     1.860     2.133
    72   1 h        0.926     0.112     1.683     2.029
    73   1 h        0.805     0.298     0.727     1.340
    74   1 h        0.926     0.105     1.741     2.063

 Mol. C6AA /au·bohr⁶  :      69175.464423
 Mol. C8AA /au·bohr⁸  :    1750157.517674
 Mol. α(0) /au        :        418.405846


Wiberg/Mayer (AO) data.
largest (>0.10) Wiberg bond orders for each atom

 ---------------------------------------------------------------------------
     #   Z sym  total        # sym  WBO       # sym  WBO       # sym  WBO
 ---------------------------------------------------------------------------
     1   6 c    3.979 --     2 c    1.003    41 h    0.982    42 h    0.981
                            43 h    0.979
     2   6 c    3.991 --     1 c    1.003     3 c    1.002     4 c    1.001
                            44 h    0.974
     3   6 c    3.979 --     2 c    1.002    45 h    0.982    47 h    0.981
                            46 h    0.979
     4   6 c    3.974 --    40 c    1.427     5 c    1.401     2 c    1.001
                             7 c    0.105
     5   6 c    3.984 --     6 c    1.447     4 c    1.401    48 h    0.969
                             8 c    0.104
     6   6 c    3.987 --     5 c    1.447     7 c    1.436    49 h    0.972
                            40 c    0.107
     7   6 c    3.983 --     6 c    1.436     8 c    1.386    50 h    0.969
                             4 c    0.105
     8   6 c    3.975 --    40 c    1.390     7 c    1.386     9 c    1.029
                             5 c    0.104
     9   6 c    3.975 --    10 c    1.518    38 c    1.214     8 c    1.029
    10   6 c    3.985 --     9 c    1.518    11 c    1.274    51 h    0.965
    11   6 c    3.978 --    12 c    1.279    10 c    1.274    16 c    1.239
    12   6 c    3.980 --    13 c    1.553    11 c    1.279    52 h    0.969
                            15 c    0.115
    13   6 c    3.975 --    12 c    1.553    14 c    1.317    53 h    0.973
    14   6 c    3.983 --    15 c    1.558    13 c    1.317    54 h    0.972
    15   6 c    3.987 --    14 c    1.558    16 c    1.270    55 h    0.966
                            12 c    0.115
    16   6 c    3.977 --    15 c    1.270    17 c    1.260    11 c    1.239
    17   6 c    3.967 --    38 c    1.414    16 c    1.260    18 c    0.995
    18   6 c    3.967 --    19 c    1.414    37 c    1.261    17 c    0.995
    19   6 c    3.941 --    18 c    1.414    21 c    1.214    20 o    1.131
    20   8 o    2.304 --    19 c    1.131    56 h    0.966
    21   6 c    3.975 --    31 c    1.518    19 c    1.214    22 c    1.028
    22   6 c    3.975 --    30 c    1.390    23 c    1.387    21 c    1.028
                            25 c    0.104
    23   6 c    3.983 --    24 c    1.435    22 c    1.387    57 h    0.969
                            26 c    0.105
    24   6 c    3.987 --    25 c    1.447    23 c    1.435    58 h    0.972
                            30 c    0.107
    25   6 c    3.984 --    24 c    1.447    26 c    1.401    59 h    0.969
                            22 c    0.104
    26   6 c    3.974 --    30 c    1.426    25 c    1.401    27 c    1.001
                            23 c    0.105
    27   6 c    3.991 --    29 c    1.003    28 c    1.002    26 c    1.001
                            60 h    0.974
    28   6 c    3.979 --    27 c    1.002    63 h    0.982    62 h    0.981
                            61 h    0.979
    29   6 c    3.979 --    27 c    1.003    66 h    0.982    65 h    0.981
                            64 h    0.979
    30   6 c    3.982 --    26 c    1.426    22 c    1.390    67 h    0.966
                            24 c    0.107
    31   6 c    3.985 --    21 c    1.518    32 c    1.274    68 h    0.965
    32   6 c    3.978 --    33 c    1.279    31 c    1.274    37 c    1.239
    33   6 c    3.980 --    34 c    1.553    32 c    1.279    69 h    0.969
                            36 c    0.115
    34   6 c    3.975 --    33 c    1.553    35 c    1.317    70 h    0.973
    35   6 c    3.983 --    36 c    1.558    34 c    1.317    71 h    0.972
    36   6 c    3.987 --    35 c    1.558    37 c    1.270    72 h    0.966
                            33 c    0.115
    37   6 c    3.977 --    36 c    1.270    18 c    1.261    32 c    1.239
    38   6 c    3.941 --    17 c    1.414     9 c    1.214    39 o    1.131
    39   8 o    2.304 --    38 c    1.131    73 h    0.967
    40   6 c    3.982 --     4 c    1.427     8 c    1.390    74 h    0.966
                             6 c    0.107
    41   1 h    0.979 --     1 c    0.982
    42   1 h    0.982 --     1 c    0.981
    43   1 h    0.977 --     1 c    0.979
    44   1 h    0.975 --     2 c    0.974
    45   1 h    0.979 --     3 c    0.982
    46   1 h    0.977 --     3 c    0.979
    47   1 h    0.982 --     3 c    0.981
    48   1 h    0.977 --     5 c    0.969
    49   1 h    0.983 --     6 c    0.972
    50   1 h    0.981 --     7 c    0.969
    51   1 h    0.974 --    10 c    0.965
    52   1 h    0.978 --    12 c    0.969
    53   1 h    0.983 --    13 c    0.973
    54   1 h    0.983 --    14 c    0.972
    55   1 h    0.980 --    15 c    0.966
    56   1 h    0.986 --    20 o    0.966
    57   1 h    0.981 --    23 c    0.969
    58   1 h    0.983 --    24 c    0.972
    59   1 h    0.977 --    25 c    0.969
    60   1 h    0.975 --    27 c    0.974
    61   1 h    0.977 --    28 c    0.979
    62   1 h    0.982 --    28 c    0.981
    63   1 h    0.979 --    28 c    0.982
    64   1 h    0.977 --    29 c    0.979
    65   1 h    0.982 --    29 c    0.981
    66   1 h    0.979 --    29 c    0.982
    67   1 h    0.976 --    30 c    0.966
    68   1 h    0.974 --    31 c    0.965
    69   1 h    0.978 --    33 c    0.969
    70   1 h    0.983 --    34 c    0.973
    71   1 h    0.983 --    35 c    0.972
    72   1 h    0.980 --    36 c    0.966
    73   1 h    0.986 --    39 o    0.967
    74   1 h    0.976 --    40 c    0.966
 ---------------------------------------------------------------------------

Topologies differ in total number of bonds
Writing topology from bond orders to xtbtopo.mol

 dipole moment from electron density (au)
     X       Y       Z   
  -0.0104   1.8958   0.2581  total (Debye):    4.863


           -------------------------------------------------
          | TOTAL ENERGY             -105.436067602802 Eh   |
          | GRADIENT NORM               0.041826465630 Eh/α |
          | HOMO-LUMO GAP               2.451304353581 eV   |
           -------------------------------------------------

------------------------------------------------------------------------
 * finished run on 2025/01/21 at 11:37:57.983     
------------------------------------------------------------------------
 total:
 * wall-time:     0 d,  0 h,  0 min,  0.138 sec
 *  cpu-time:     0 d,  0 h,  0 min,  3.157 sec
 * ratio c/w:    22.868 speedup
 SCF:
 * wall-time:     0 d,  0 h,  0 min,  0.045 sec
 *  cpu-time:     0 d,  0 h,  0 min,  1.114 sec
 * ratio c/w:    25.001 speedup

 Calculating WBOs... done.
      -----------------------------------------------------------      
     |                   =====================                   |     
     |                           x T B                           |     
     |                   =====================                   |     
     |                         S. Grimme                         |     
     |          Mulliken Center for Theoretical Chemistry        |     
     |                    University of Bonn                     |     
      -----------------------------------------------------------      

   * xtb version 6.4.1 (afa7bdf) compiled by 'ehlert@majestix' on 2021-06-10

   xtb is free software: you can redistribute it and/or modify it under
   the terms of the GNU Lesser General Public License as published by
   the Free Software Foundation, either version 3 of the License, or
   (at your option) any later version.
   
   xtb is distributed in the hope that it will be useful,
   but WITHOUT ANY WARRANTY; without even the implied warranty of
   MERCHANTABILITY or FITNESS FOR A PARTICULAR PURPOSE.  See the
   GNU Lesser General Public License for more details.
   
   Cite this work as:
   * C. Bannwarth, E. Caldeweyher, S. Ehlert, A. Hansen, P. Pracht,
     J. Seibert, S. Spicher, S. Grimme, WIREs Comput. Mol. Sci., 2020, 11,
     e01493. DOI: 10.1002/wcms.1493
   
   for GFN2-xTB:
   * C. Bannwarth, S. Ehlert and S. Grimme., J. Chem. Theory Comput., 2019,
     15, 1652-1671. DOI: 10.1021/acs.jctc.8b01176
   for GFN1-xTB:
   * S. Grimme, C. Bannwarth, P. Shushkov, J. Chem. Theory Comput., 2017,
     13, 1989-2009. DOI: 10.1021/acs.jctc.7b00118
   for GFN0-xTB:
   * P. Pracht, E. Caldeweyher, S. Ehlert, S. Grimme, ChemRxiv, 2019, preprint.
     DOI: 10.26434/chemrxiv.8326202.v1
   for GFN-FF:
   * S. Spicher and S. Grimme, Angew. Chem. Int. Ed., 2020, 59, 15665-15673.
     DOI: 10.1002/anie.202004239
   
   for DFT-D4:
   * E. Caldeweyher, C. Bannwarth and S. Grimme, J. Chem. Phys., 2017,
     147, 034112. DOI: 10.1063/1.4993215
   * E. Caldeweyher, S. Ehlert, A. Hansen, H. Neugebauer, S. Spicher,
     C. Bannwarth and S. Grimme, J. Chem. Phys., 2019, 150, 154122.
     DOI: 10.1063/1.5090222
   * E. Caldeweyher, J.-M. Mewes, S. Ehlert and S. Grimme, Phys. Chem. Chem. Phys.
     2020, 22, 8499-8512. DOI: 10.1039/D0CP00502A
   
   for sTDA-xTB:
   * S. Grimme and C. Bannwarth, J. Chem. Phys., 2016, 145, 054103.
     DOI: 10.1063/1.4959605
   
   in the mass-spec context:
   * V. Asgeirsson, C. Bauer and S. Grimme, Chem. Sci., 2017, 8, 4879.
     DOI: 10.1039/c7sc00601b
   * J. Koopman and S. Grimme, ACS Omega 2019, 4, 12, 15120-15133.
     DOI: 10.1021/acsomega.9b02011
   
   for metadynamics refer to:
   * S. Grimme, J. Chem. Theory Comput., 2019, 155, 2847-2862
     DOI: 10.1021/acs.jctc.9b00143
   
   for SPH calculations refer to:
   * S. Spicher and S. Grimme, J. Chem. Theory Comput., 2021, 17, 1701-1714
     DOI: 10.1021/acs.jctc.0c01306
   
   with help from (in alphabetical order)
   P. Atkinson, C. Bannwarth, F. Bohle, G. Brandenburg, E. Caldeweyher
   M. Checinski, S. Dohm, S. Ehlert, S. Ehrlich, I. Gerasimov, J. Koopman
   C. Lavigne, S. Lehtola, F. März, M. Müller, F. Musil, H. Neugebauer
   J. Pisarek, C. Plett, P. Pracht, J. Seibert, P. Shushkov, S. Spicher
   M. Stahn, M. Steiner, T. Strunk, J. Stückrath, T. Rose, and J. Unsleber
   
 * started run on 2025/01/21 at 11:37:58.023     

           -------------------------------------------------
          |                Calculation Setup                |
           -------------------------------------------------

          program call               : xtb tmpcoord --gfnff --sp
          hostname                   : node22
          coordinate file            : tmpcoord
          omp threads                :                    28
          number of atoms            :                    74
          number of electrons        :                   198
          charge                     :                     0
          spin                       :                   0.0
          first test random number   :      0.29666712843660

   ID    Z sym.   atoms
    1    6 c      1-19, 21-38, 40
    2    8 o      20, 39
    3    1 h      41-74
 
          ==================== Thresholds ====================
          CN  :   150.00000
          rep :   500.00000
          disp:  2500.00000
          HB1 :   250.00000
          HB2 :   450.00000
 
          Pauling EN used:
          Z : 1  EN :  2.20
          Z : 6  EN :  2.55
          Z : 8  EN :  3.44
          electric field strengths (au): 0.000
 
           ------------------------------------------------- 
          |           Force Field Initialization            |
           ------------------------------------------------- 
 
          distances ...
          ----------------------------------------
          generating topology and atomic info file ...
          pair mat ...
          computing topology distances matrix with Floyd-Warshall algo ...
          making topology EEQ charges ...
          #fragments for EEQ constrain: 1
          ----------------------------------------
          generating topology and atomic info file ...
          pair mat ...
          computing topology distances matrix with Floyd-Warshall algo ...
          making topology EEQ charges ...
          #fragments for EEQ constrain: 1
          rings ...
          # BATM   856
          # H in HB   20
          doing iterative Hueckel for 1 subsystem(s) ...
 
  atom   neighbors  erfCN metchar sp-hybrid imet pi  qest     coordinates
    1  c       4    3.49   0.00         3    0    0  -0.072  -11.950205    7.999358    2.622363
    2  c       4    3.49   0.00         3    0    0  -0.027  -12.423294    5.416158    1.413060
    3  c       4    3.49   0.00         3    0    0  -0.072  -15.203519    4.660691    1.660450
    4  c       3    2.82   0.00         2    0    1   0.005  -10.734751    3.427065    2.563380
    5  c       3    2.82   0.00         2    0    1  -0.053  -10.847453    2.864061    5.128562
    6  c       3    2.81   0.00         2    0    1  -0.008   -9.302189    1.025030    6.155314
    7  c       3    2.82   0.00         2    0    1  -0.039   -7.608542   -0.276039    4.646139
    8  c       3    2.82   0.00         2    0    1  -0.004   -7.460148    0.261633    2.072854
    9  c       3    2.81   0.00         2    0    1  -0.012   -5.699960   -1.124104    0.412290
   10  c       3    2.82   0.00         2    0    1  -0.025   -6.576533   -2.281312   -1.736999
   11  c       3    2.83   0.00         2    0    1  -0.022   -4.963056   -3.658871   -3.337052
   12  c       3    2.81   0.00         2    0    1  -0.020   -5.855094   -4.870296   -5.537196
   13  c       3    2.81   0.00         2    0    1  -0.035   -4.247479   -6.204129   -7.054025
   14  c       3    2.81   0.00         2    0    1  -0.033   -1.675046   -6.387906   -6.432241
   15  c       3    2.81   0.00         2    0    1  -0.035   -0.751487   -5.235435   -4.314084
   16  c       3    2.83   0.00         2    0    1   0.006   -2.361232   -3.838187   -2.711829
   17  c       3    2.82   0.00         2    0    1  -0.001   -1.459157   -2.606644   -0.520482
   18  c       3    2.82   0.00         2    0    1  -0.001    1.260551   -2.681993    0.146060
   19  c       3    2.82   0.00         2    0    1   0.094    2.793912   -0.720694   -0.625108
   20  o       2    1.92   0.00         3    0    1  -0.454    1.747862    1.153852   -2.043395
   21  c       3    2.82   0.00         2    0    1  -0.012    5.404587   -0.720555   -0.019212
   22  c       3    2.82   0.00         2    0    1  -0.004    7.049433    1.367789   -0.861740
   23  c       3    2.82   0.00         2    0    1  -0.039    6.473260    3.873564   -0.296155
   24  c       3    2.81   0.00         2    0    1  -0.008    8.057902    5.789877   -1.106745
   25  c       3    2.82   0.00         2    0    1  -0.053   10.207906    5.236797   -2.484034
   26  c       3    2.82   0.00         2    0    1   0.005   10.823020    2.747418   -3.062183
   27  c       4    3.49   0.00         3    0    0  -0.027   13.170121    2.110667   -4.550844
   28  c       4    3.49   0.00         3    0    0  -0.072   15.543614    2.898284   -3.099319
   29  c       4    3.49   0.00         3    0    0  -0.072   13.106092    3.347807   -7.163236
   30  c       3    2.82   0.00         2    0    1  -0.039    9.229142    0.839981   -2.235764
   31  c       3    2.82   0.00         2    0    1  -0.025    6.396446   -2.701354    1.328985
   32  c       3    2.83   0.00         2    0    1  -0.022    4.881254   -4.720040    2.160335
   33  c       3    2.81   0.00         2    0    1  -0.020    5.882582   -6.750430    3.566953
   34  c       3    2.81   0.00         2    0    1  -0.035    4.368723   -8.691625    4.344504
   35  c       3    2.81   0.00         2    0    1  -0.033    1.784206   -8.686933    3.745783
   36  c       3    2.81   0.00         2    0    1  -0.035    0.755634   -6.746532    2.387611
   37  c       3    2.83   0.00         2    0    1   0.006    2.266996   -4.710773    1.561145
   38  c       3    2.82   0.00         2    0    1   0.094   -3.091401   -1.270009    1.009613
   39  o       2    1.92   0.00         3    0    1  -0.454   -2.120586   -0.077539    3.073183
   40  c       3    2.82   0.00         2    0    1  -0.039   -9.036277    2.110669    1.065177
   41  h       1    0.97   0.00         0    0    0   0.037  -13.082569    9.437955    1.687552
   42  h       1    0.97   0.00         0    0    0   0.037   -9.967516    8.516737    2.454791
   43  h       1    0.97   0.00         0    0    0   0.037  -12.449268    7.978939    4.615158
   44  h       1    0.97   0.00         0    0    0   0.024  -11.970406    5.556789   -0.602697
   45  h       1    0.97   0.00         0    0    0   0.037  -16.402400    6.048126    0.731140
   46  h       1    0.97   0.00         0    0    0   0.037  -15.756704    4.545584    3.635783
   47  h       1    0.97   0.00         0    0    0   0.037  -15.527777    2.826992    0.789212
   48  h       1    0.97   0.00         0    0    0   0.033  -12.156467    3.858339    6.336836
   49  h       1    0.97   0.00         0    0    0   0.018   -9.420755    0.591691    8.147004
   50  h       1    0.97   0.00         0    0    0   0.051   -6.454124   -1.757444    5.452294
   51  h       1    0.97   0.00         0    0    0   0.041   -8.564585   -2.170590   -2.194422
   52  h       1    0.97   0.00         0    0    0   0.039   -7.839605   -4.720266   -5.999017
   53  h       1    0.97   0.00         0    0    0   0.046   -4.941860   -7.126087   -8.738148
   54  h       1    0.97   0.00         0    0    0   0.043   -0.427527   -7.452938   -7.648172
   55  h       1    0.97   0.00         0    0    0   0.043    1.227331   -5.377039   -3.833538
   56  h       1    0.97   0.00         0    0    0   0.236    3.040337    2.373142   -2.473674
   57  h       1    0.97   0.00         0    0    0   0.051    4.830560    4.315125    0.836651
   58  h       1    0.97   0.00         0    0    0   0.018    7.612735    7.729957   -0.651970
   59  h       1    0.97   0.00         0    0    0   0.033   11.417861    6.758501   -3.102515
   60  h       1    0.97   0.00         0    0    0   0.024   13.226910    0.057288   -4.813217
   61  h       1    0.97   0.00         0    0    0   0.037   15.597548    4.935338   -2.837246
   62  h       1    0.97   0.00         0    0    0   0.037   15.579836    2.005674   -1.247678
   63  h       1    0.97   0.00         0    0    0   0.037   17.228452    2.332157   -4.132110
   64  h       1    0.97   0.00         0    0    0   0.037   13.139038    5.395920   -7.006267
   65  h       1    0.97   0.00         0    0    0   0.037   11.400877    2.801429   -8.173525
   66  h       1    0.97   0.00         0    0    0   0.037   14.737012    2.758338   -8.266985
   67  h       1    0.97   0.00         0    0    0   0.051    9.664543   -1.107155   -2.676237
   68  h       1    0.97   0.00         0    0    0   0.041    8.384490   -2.696770    1.799737
   69  h       1    0.97   0.00         0    0    0   0.039    7.875119   -6.737679    4.018354
   70  h       1    0.97   0.00         0    0    0   0.046    5.146823  -10.240835    5.422876
   71  h       1    0.97   0.00         0    0    0   0.043    0.611780  -10.237467    4.370593
   72  h       1    0.97   0.00         0    0    0   0.043   -1.231942   -6.743026    1.921941
   73  h       1    0.97   0.00         0    0    0   0.236   -3.454669    0.845423    3.915503
   74  h       1    0.97   0.00         0    0    0   0.051   -8.907964    2.528174   -0.930650
 
          #atoms :   74
          #bonds :   79
          #angl  :   134
          #tors  :   232
          #nmol  :   1
          #optfrag :   1
           ------------------------------------------------- 
          |                   G F N - F F                   |
          |          A general generic force-field          |
          |                  Version 1.0.3                  | 
           ------------------------------------------------- 
          nhb123   5353 497 0

 E+G (total)                   0 d,  0 h,  0 min,  0.004 sec
 distance/D3 list               ...        0 min,  0.000 sec (  0.783%)
 non bonded repulsion           ...        0 min,  0.000 sec (  7.133%)
 dCN                            ...        0 min,  0.000 sec (  5.124%)
 EEQ energy and q               ...        0 min,  0.000 sec ( 10.977%)
 D3                             ...        0 min,  0.001 sec ( 12.917%)
 EEQ gradient                   ...        0 min,  0.000 sec (  8.454%)
 bonds                          ...        0 min,  0.000 sec ( 10.270%)
 bend and torsion               ...        0 min,  0.001 sec ( 12.695%)
 bonded ATM                     ...        0 min,  0.000 sec (  1.572%)
 HB/XB (incl list setup)        ...        0 min,  0.001 sec ( 24.975%)

         :::::::::::::::::::::::::::::::::::::::::::::::::::::
         ::                     SUMMARY                     ::
         :::::::::::::::::::::::::::::::::::::::::::::::::::::
         :: total energy             -14.661619663209 Eh    ::
         :: gradient norm              0.054286652258 Eh/a0 ::
         ::.................................................::
         :: bond energy              -15.508531094794 Eh    ::
         :: angle energy               0.003250361098 Eh    ::
         :: torsion energy             0.021892631941 Eh    ::
         :: repulsion energy           1.051700910876 Eh    ::
         :: electrostat energy        -0.138901248529 Eh    ::
         :: dispersion energy         -0.073897734262 Eh    ::
         :: HB energy                 -0.001303060191 Eh    ::
         :: XB energy                  0.000000000000 Eh    ::
         :: bonded atm energy         -0.015830429347 Eh    ::
         :: external energy            0.000000000000 Eh    ::
         :: add. restraining           0.000000000000 Eh    ::
         :: total charge               0.000000000000 e     ::
         :::::::::::::::::::::::::::::::::::::::::::::::::::::

           -------------------------------------------------
          |                Property Printout                |
           -------------------------------------------------

           -------------------------------------------------
          | TOTAL ENERGY              -14.661619663209 Eh   |
          | GRADIENT NORM               0.054286652258 Eh/α |
           -------------------------------------------------

------------------------------------------------------------------------
 * finished run on 2025/01/21 at 11:37:58.061     
------------------------------------------------------------------------
 total:
 * wall-time:     0 d,  0 h,  0 min,  0.038 sec
 *  cpu-time:     0 d,  0 h,  0 min,  0.558 sec
 * ratio c/w:    14.833 speedup
 SCF:
 * wall-time:     0 d,  0 h,  0 min,  0.007 sec
 *  cpu-time:     0 d,  0 h,  0 min,  0.154 sec
 * ratio c/w:    23.187 speedup

 Calculating NCI flexibility... done.
     covalent flexibility measure :   0.070
 non-covalent flexibility measure :   1.000
 flexibility measure :   0.167
 t(MTD) / ps set by command line  :     0.5
 t(MTD) / ps    :     0.5
 Σ(t(MTD)) / ps :     7.0 (14 MTDs)
 
-------------------------------------
Starting a trial MTD to test settings
-------------------------------------
 Estimated runtime for one MTD (0.5 ps) on a single thread: 2 min 41 sec
 Estimated runtime for a batch of 14 MTDs on 28 threads: 1 min 21 sec
 
 list of Vbias parameters applied:
$metadyn    0.00300   1.300
$metadyn    0.00150   1.300
$metadyn    0.00075   1.300
$metadyn    0.00300   0.780
$metadyn    0.00150   0.780
$metadyn    0.00075   0.780
$metadyn    0.00300   0.468
$metadyn    0.00150   0.468
$metadyn    0.00075   0.468
$metadyn    0.00300   0.281
$metadyn    0.00150   0.281
$metadyn    0.00075   0.281
$metadyn    0.00100   0.100
$metadyn    0.00500   0.800
 
*******************************************************************************************
**                        N E W    I T E R A T I O N    C Y C L E                        **
*******************************************************************************************
 
========================================
            MTD Iteration  1
========================================
 
     ========================================
     |         Meta-MD (MTD) Sampling       |
     ========================================
 
Starting Meta-MD   1 with the settings:
     MD time /ps        :     0.5
     dt /fs             :     1.5
     dumpstep(trj) /fs  :     100
     dumpstep(Vbias)/ps :     1.0
     Vbias factor k /Eh :  0.2220
     Vbias exp α /bohr⁻²:    1.30
Starting Meta-MD   2 with the settings:
     MD time /ps        :     0.5
     dt /fs             :     1.5
     dumpstep(trj) /fs  :     100
     dumpstep(Vbias)/ps :     1.0
     Vbias factor k /Eh :  0.1110
     Vbias exp α /bohr⁻²:    1.30
Starting Meta-MD   5 with the settings:
     MD time /ps        :     0.5
     dt /fs             :     1.5
     dumpstep(trj) /fs  :     100
     dumpstep(Vbias)/ps :     1.0
     Vbias factor k /Eh :  0.1110
     Vbias exp α /bohr⁻²:    0.78
Starting Meta-MD   8 with the settings:
     MD time /ps        :     0.5
     dt /fs             :     1.5
     dumpstep(trj) /fs  :     100
     dumpstep(Vbias)/ps :     1.0
     Vbias factor k /Eh :  0.1110
     Vbias exp α /bohr⁻²:    0.47
Starting Meta-MD  14 with the settings:
     MD time /ps        :     0.5
     dt /fs             :     1.5
     dumpstep(trj) /fs  :     100
     dumpstep(Vbias)/ps :     1.0
     Vbias factor k /Eh :  0.3700
     Vbias exp α /bohr⁻²:    0.80
Starting Meta-MD   4 with the settings:
     MD time /ps        :     0.5
     dt /fs             :     1.5
     dumpstep(trj) /fs  :     100
     dumpstep(Vbias)/ps :     1.0
     Vbias factor k /Eh :  0.2220
     Vbias exp α /bohr⁻²:    0.78
Starting Meta-MD   9 with the settings:
     MD time /ps        :     0.5
     dt /fs             :     1.5
     dumpstep(trj) /fs  :     100
     dumpstep(Vbias)/ps :     1.0
     Vbias factor k /Eh :  0.0555
     Vbias exp α /bohr⁻²:    0.47
Starting Meta-MD  11 with the settings:
     MD time /ps        :     0.5
     dt /fs             :     1.5
     dumpstep(trj) /fs  :     100
     dumpstep(Vbias)/ps :     1.0
     Vbias factor k /Eh :  0.1110
     Vbias exp α /bohr⁻²:    0.28
Starting Meta-MD  10 with the settings:
     MD time /ps        :     0.5
     dt /fs             :     1.5
     dumpstep(trj) /fs  :     100
     dumpstep(Vbias)/ps :     1.0
     Vbias factor k /Eh :  0.2220
     Vbias exp α /bohr⁻²:    0.28
Starting Meta-MD   3 with the settings:
     MD time /ps        :     0.5
     dt /fs             :     1.5
     dumpstep(trj) /fs  :     100
     dumpstep(Vbias)/ps :     1.0
     Vbias factor k /Eh :  0.0555
     Vbias exp α /bohr⁻²:    1.30
Starting Meta-MD  12 with the settings:
     MD time /ps        :     0.5
     dt /fs             :     1.5
     dumpstep(trj) /fs  :     100
     dumpstep(Vbias)/ps :     1.0
     Vbias factor k /Eh :  0.0555
     Vbias exp α /bohr⁻²:    0.28
Starting Meta-MD  13 with the settings:
     MD time /ps        :     0.5
     dt /fs             :     1.5
     dumpstep(trj) /fs  :     100
     dumpstep(Vbias)/ps :     1.0
     Vbias factor k /Eh :  0.0740
     Vbias exp α /bohr⁻²:    0.10
Starting Meta-MD   7 with the settings:
     MD time /ps        :     0.5
     dt /fs             :     1.5
     dumpstep(trj) /fs  :     100
     dumpstep(Vbias)/ps :     1.0
     Vbias factor k /Eh :  0.2220
     Vbias exp α /bohr⁻²:    0.47
Starting Meta-MD   6 with the settings:
     MD time /ps        :     0.5
     dt /fs             :     1.5
     dumpstep(trj) /fs  :     100
     dumpstep(Vbias)/ps :     1.0
     Vbias factor k /Eh :  0.0555
     Vbias exp α /bohr⁻²:    0.78
*Meta-MTD 1 finished*
*Meta-MTD 8 finished*
*Meta-MTD 14 finished*
*Meta-MTD 11 finished*
*Meta-MTD 6 finished*
*Meta-MTD 2 finished*
*Meta-MTD 13 finished*
*Meta-MTD 7 finished*
*Meta-MTD 4 finished*
*Meta-MTD 10 finished*
*Meta-MTD 5 finished*
*Meta-MTD 9 finished*
*Meta-MTD 12 finished*
*Meta-MTD 3 finished*
 
-----------------------
Multilevel Optimization
-----------------------
 
 -------------------------
 1. crude pre-optimization
 -------------------------
 Optimizing all 70 structures from file "crest_rotamers_0.xyz" ...
 1 2 3 4 5 6 7 8 9 10 11 12 13 14 15 16 17 18 19 20 21 22 23 24 25 26 27 28 29 30 31 32 33 34 35 36 37 38 39 40 41 42 43 44 45 46 47 48 49 50 51 52 53 54 55 56 57 58 59 60 61 62 63 64 65 66 67 68 69 70
 done.
 running RMSDs...
 done.
 E lowest :  -106.87797
 68 structures remain within    12.00 kcal/mol window
 
 -------------------------------------
 2. optimization with tight thresholds
 -------------------------------------
 Optimizing all 69 structures from file "crest_rotamers_1.xyz" ...
 1 2 3 4 5 6 7 8 9 10 11 12 13 14 15 16 17 18 19 20 21 22 23 24 25 26 27 28 29 30 31 32 33 34 35 36 37 38 39 40 41 42 43 44 45 46 47 48 49 50 51 52 53 54 55 56 57 58 59 60 61 62 63 64 65 66 67 68 69
 done.
 running RMSDs...
 done.
 E lowest :  -106.87949
 33 structures remain within     6.00 kcal/mol window
 
 
========================================
            MTD Iteration  2
========================================
 
     ========================================
     |         Meta-MD (MTD) Sampling       |
     ========================================
 
Starting Meta-MD   1 with the settings:
     MD time /ps        :     0.5
     dt /fs             :     1.5
     dumpstep(trj) /fs  :     100
     dumpstep(Vbias)/ps :     1.0
     Vbias factor k /Eh :  0.2220
     Vbias exp α /bohr⁻²:    1.30
Starting Meta-MD   2 with the settings:
     MD time /ps        :     0.5
     dt /fs             :     1.5
     dumpstep(trj) /fs  :     100
     dumpstep(Vbias)/ps :     1.0
     Vbias factor k /Eh :  0.1110
     Vbias exp α /bohr⁻²:    1.30
Starting Meta-MD   3 with the settings:
     MD time /ps        :     0.5
     dt /fs             :     1.5
     dumpstep(trj) /fs  :     100
     dumpstep(Vbias)/ps :     1.0
     Vbias factor k /Eh :  0.0555
     Vbias exp α /bohr⁻²:    1.30
Starting Meta-MD   4 with the settings:
     MD time /ps        :     0.5
     dt /fs             :     1.5
     dumpstep(trj) /fs  :     100
     dumpstep(Vbias)/ps :     1.0
     Vbias factor k /Eh :  0.2220
     Vbias exp α /bohr⁻²:    0.78
Starting Meta-MD   5 with the settings:
     MD time /ps        :     0.5
     dt /fs             :     1.5
     dumpstep(trj) /fs  :     100
     dumpstep(Vbias)/ps :     1.0
     Vbias factor k /Eh :  0.1110
     Vbias exp α /bohr⁻²:    0.78
Starting Meta-MD   6 with the settings:
     MD time /ps        :     0.5
     dt /fs             :     1.5
     dumpstep(trj) /fs  :     100
     dumpstep(Vbias)/ps :     1.0
     Vbias factor k /Eh :  0.0555
     Vbias exp α /bohr⁻²:    0.78
Starting Meta-MD   7 with the settings:
     MD time /ps        :     0.5
     dt /fs             :     1.5
     dumpstep(trj) /fs  :     100
     dumpstep(Vbias)/ps :     1.0
     Vbias factor k /Eh :  0.2220
     Vbias exp α /bohr⁻²:    0.47
Starting Meta-MD   8 with the settings:
     MD time /ps        :     0.5
     dt /fs             :     1.5
     dumpstep(trj) /fs  :     100
     dumpstep(Vbias)/ps :     1.0
     Vbias factor k /Eh :  0.1110
     Vbias exp α /bohr⁻²:    0.47
Starting Meta-MD   9 with the settings:
     MD time /ps        :     0.5
     dt /fs             :     1.5
     dumpstep(trj) /fs  :     100
     dumpstep(Vbias)/ps :     1.0
     Vbias factor k /Eh :  0.0555
     Vbias exp α /bohr⁻²:    0.47
Starting Meta-MD  10 with the settings:
     MD time /ps        :     0.5
     dt /fs             :     1.5
     dumpstep(trj) /fs  :     100
     dumpstep(Vbias)/ps :     1.0
     Vbias factor k /Eh :  0.2220
     Vbias exp α /bohr⁻²:    0.28
Starting Meta-MD  11 with the settings:
     MD time /ps        :     0.5
     dt /fs             :     1.5
     dumpstep(trj) /fs  :     100
     dumpstep(Vbias)/ps :     1.0
     Vbias factor k /Eh :  0.1110
     Vbias exp α /bohr⁻²:    0.28
Starting Meta-MD  12 with the settings:
     MD time /ps        :     0.5
     dt /fs             :     1.5
     dumpstep(trj) /fs  :     100
     dumpstep(Vbias)/ps :     1.0
     Vbias factor k /Eh :  0.0555
     Vbias exp α /bohr⁻²:    0.28
*Meta-MTD 8 finished*
*Meta-MTD 4 finished*
*Meta-MTD 3 finished*
*Meta-MTD 11 finished*
*Meta-MTD 12 finished*
*Meta-MTD 7 finished*
*Meta-MTD 2 finished*
*Meta-MTD 9 finished*
*Meta-MTD 6 finished*
*Meta-MTD 1 finished*
*Meta-MTD 10 finished*
*Meta-MTD 5 finished*
 
-----------------------
Multilevel Optimization
-----------------------
 
 -------------------------
 1. crude pre-optimization
 -------------------------
 Optimizing all 60 structures from file "crest_rotamers_0.xyz" ...
 1 2 3 4 5 6 7 8 9 10 11 12 13 14 15 16 17 18 19 20 21 22 23 24 25 26 27 28 29 30 31 32 33 34 35 36 37 38 39 40 41 42 43 44 45 46 47 48 49 50 51 52 53 54 55 56 57 58 59 60
 done.
 running RMSDs...
 done.
 E lowest :  -106.87882
 53 structures remain within    12.00 kcal/mol window
 
 -------------------------------------
 2. optimization with tight thresholds
 -------------------------------------
 Optimizing all 54 structures from file "crest_rotamers_1.xyz" ...
 1 2 3 4 5 6 7 8 9 10 11 12 13 14 15 16 17 18 19 20 21 22 23 24 25 26 27 28 29 30 31 32 33 34 35 36 37 38 39 40 41 42 43 44 45 46 47 48 49 50 51 52 53 54
 done.
 running RMSDs...
 done.
 E lowest :  -106.87983
 28 structures remain within     6.00 kcal/mol window
 
 ...............................................
 A new lower conformer was found!
 Improved by    0.00034 Eh or    0.21353kcal/mol
 ...............................................
 
========================================
            MTD Iteration  3
========================================
 
     ========================================
     |         Meta-MD (MTD) Sampling       |
     ========================================
 
Starting Meta-MD   1 with the settings:
     MD time /ps        :     0.5
     dt /fs             :     1.5
     dumpstep(trj) /fs  :     100
     dumpstep(Vbias)/ps :     1.0
     Vbias factor k /Eh :  0.2220
     Vbias exp α /bohr⁻²:    1.30
Starting Meta-MD   2 with the settings:
     MD time /ps        :     0.5
     dt /fs             :     1.5
     dumpstep(trj) /fs  :     100
     dumpstep(Vbias)/ps :     1.0
     Vbias factor k /Eh :  0.1110
     Vbias exp α /bohr⁻²:    1.30
Starting Meta-MD   3 with the settings:
     MD time /ps        :     0.5
     dt /fs             :     1.5
     dumpstep(trj) /fs  :     100
     dumpstep(Vbias)/ps :     1.0
     Vbias factor k /Eh :  0.0555
     Vbias exp α /bohr⁻²:    1.30
Starting Meta-MD   4 with the settings:
     MD time /ps        :     0.5
     dt /fs             :     1.5
     dumpstep(trj) /fs  :     100
     dumpstep(Vbias)/ps :     1.0
     Vbias factor k /Eh :  0.2220
     Vbias exp α /bohr⁻²:    0.78
Starting Meta-MD   5 with the settings:
     MD time /ps        :     0.5
     dt /fs             :     1.5
     dumpstep(trj) /fs  :     100
     dumpstep(Vbias)/ps :     1.0
     Vbias factor k /Eh :  0.1110
     Vbias exp α /bohr⁻²:    0.78
Starting Meta-MD   6 with the settings:
     MD time /ps        :     0.5
     dt /fs             :     1.5
     dumpstep(trj) /fs  :     100
     dumpstep(Vbias)/ps :     1.0
     Vbias factor k /Eh :  0.0555
     Vbias exp α /bohr⁻²:    0.78
Starting Meta-MD   7 with the settings:
     MD time /ps        :     0.5
     dt /fs             :     1.5
     dumpstep(trj) /fs  :     100
     dumpstep(Vbias)/ps :     1.0
     Vbias factor k /Eh :  0.2220
     Vbias exp α /bohr⁻²:    0.47
Starting Meta-MD   8 with the settings:
     MD time /ps        :     0.5
     dt /fs             :     1.5
     dumpstep(trj) /fs  :     100
     dumpstep(Vbias)/ps :     1.0
     Vbias factor k /Eh :  0.1110
     Vbias exp α /bohr⁻²:    0.47
Starting Meta-MD   9 with the settings:
     MD time /ps        :     0.5
     dt /fs             :     1.5
     dumpstep(trj) /fs  :     100
     dumpstep(Vbias)/ps :     1.0
     Vbias factor k /Eh :  0.0555
     Vbias exp α /bohr⁻²:    0.47
Starting Meta-MD  10 with the settings:
     MD time /ps        :     0.5
     dt /fs             :     1.5
     dumpstep(trj) /fs  :     100
     dumpstep(Vbias)/ps :     1.0
     Vbias factor k /Eh :  0.2220
     Vbias exp α /bohr⁻²:    0.28
Starting Meta-MD  12 with the settings:
     MD time /ps        :     0.5
     dt /fs             :     1.5
     dumpstep(trj) /fs  :     100
     dumpstep(Vbias)/ps :     1.0
     Vbias factor k /Eh :  0.0555
     Vbias exp α /bohr⁻²:    0.28
Starting Meta-MD  11 with the settings:
     MD time /ps        :     0.5
     dt /fs             :     1.5
     dumpstep(trj) /fs  :     100
     dumpstep(Vbias)/ps :     1.0
     Vbias factor k /Eh :  0.1110
     Vbias exp α /bohr⁻²:    0.28
*Meta-MTD 4 finished*
*Meta-MTD 11 finished*
*Meta-MTD 2 finished*
*Meta-MTD 1 finished*
*Meta-MTD 6 finished*
*Meta-MTD 10 finished*
*Meta-MTD 5 finished*
*Meta-MTD 9 finished*
*Meta-MTD 7 finished*
*Meta-MTD 8 finished*
*Meta-MTD 12 finished*
*Meta-MTD 3 finished*
 
-----------------------
Multilevel Optimization
-----------------------
 
 -------------------------
 1. crude pre-optimization
 -------------------------
 Optimizing all 60 structures from file "crest_rotamers_0.xyz" ...
 1 2 3 4 5 6 7 8 9 10 11 12 13 14 15 16 17 18 19 20 21 22 23 24 25 26 27 28 29 30 31 32 33 34 35 36 37 38 39 40 41 42 43 44 45 46 47 48 49 50 51 52 53 54 55 56 57 58 59 60
 done.
 running RMSDs...
 done.
 E lowest :  -106.87915
 57 structures remain within    12.00 kcal/mol window
 
 -------------------------------------
 2. optimization with tight thresholds
 -------------------------------------
 Optimizing all 58 structures from file "crest_rotamers_1.xyz" ...
 1 2 3 4 5 6 7 8 9 10 11 12 13 14 15 16 17 18 19 20 21 22 23 24 25 26 27 28 29 30 31 32 33 34 35 36 37 38 39 40 41 42 43 44 45 46 47 48 49 50 51 52 53 54 55 56 57 58
 done.
 running RMSDs...
 done.
 E lowest :  -106.88046
 36 structures remain within     6.00 kcal/mol window
 
 ...............................................
 A new lower conformer was found!
 Improved by    0.00063 Eh or    0.39761kcal/mol
 ...............................................
 
========================================
            MTD Iteration  4
========================================
 
     ========================================
     |         Meta-MD (MTD) Sampling       |
     ========================================
 
Starting Meta-MD   1 with the settings:
     MD time /ps        :     0.5
     dt /fs             :     1.5
     dumpstep(trj) /fs  :     100
     dumpstep(Vbias)/ps :     1.0
     Vbias factor k /Eh :  0.2220
     Vbias exp α /bohr⁻²:    1.30
Starting Meta-MD   2 with the settings:
     MD time /ps        :     0.5
     dt /fs             :     1.5
     dumpstep(trj) /fs  :     100
     dumpstep(Vbias)/ps :     1.0
     Vbias factor k /Eh :  0.1110
     Vbias exp α /bohr⁻²:    1.30
Starting Meta-MD   3 with the settings:
     MD time /ps        :     0.5
     dt /fs             :     1.5
     dumpstep(trj) /fs  :     100
     dumpstep(Vbias)/ps :     1.0
     Vbias factor k /Eh :  0.0555
     Vbias exp α /bohr⁻²:    1.30
Starting Meta-MD   4 with the settings:
     MD time /ps        :     0.5
     dt /fs             :     1.5
     dumpstep(trj) /fs  :     100
     dumpstep(Vbias)/ps :     1.0
     Vbias factor k /Eh :  0.2220
     Vbias exp α /bohr⁻²:    0.78
Starting Meta-MD   5 with the settings:
     MD time /ps        :     0.5
     dt /fs             :     1.5
     dumpstep(trj) /fs  :     100
     dumpstep(Vbias)/ps :     1.0
     Vbias factor k /Eh :  0.1110
     Vbias exp α /bohr⁻²:    0.78
Starting Meta-MD   6 with the settings:
     MD time /ps        :     0.5
     dt /fs             :     1.5
     dumpstep(trj) /fs  :     100
     dumpstep(Vbias)/ps :     1.0
     Vbias factor k /Eh :  0.0555
     Vbias exp α /bohr⁻²:    0.78
Starting Meta-MD   7 with the settings:
     MD time /ps        :     0.5
     dt /fs             :     1.5
     dumpstep(trj) /fs  :     100
     dumpstep(Vbias)/ps :     1.0
     Vbias factor k /Eh :  0.2220
     Vbias exp α /bohr⁻²:    0.47
Starting Meta-MD   8 with the settings:
     MD time /ps        :     0.5
     dt /fs             :     1.5
     dumpstep(trj) /fs  :     100
     dumpstep(Vbias)/ps :     1.0
     Vbias factor k /Eh :  0.1110
     Vbias exp α /bohr⁻²:    0.47
Starting Meta-MD   9 with the settings:
     MD time /ps        :     0.5
     dt /fs             :     1.5
     dumpstep(trj) /fs  :     100
     dumpstep(Vbias)/ps :     1.0
     Vbias factor k /Eh :  0.0555
     Vbias exp α /bohr⁻²:    0.47
Starting Meta-MD  10 with the settings:
     MD time /ps        :     0.5
     dt /fs             :     1.5
     dumpstep(trj) /fs  :     100
     dumpstep(Vbias)/ps :     1.0
     Vbias factor k /Eh :  0.2220
     Vbias exp α /bohr⁻²:    0.28
Starting Meta-MD  11 with the settings:
     MD time /ps        :     0.5
     dt /fs             :     1.5
     dumpstep(trj) /fs  :     100
     dumpstep(Vbias)/ps :     1.0
     Vbias factor k /Eh :  0.1110
     Vbias exp α /bohr⁻²:    0.28
Starting Meta-MD  12 with the settings:
     MD time /ps        :     0.5
     dt /fs             :     1.5
     dumpstep(trj) /fs  :     100
     dumpstep(Vbias)/ps :     1.0
     Vbias factor k /Eh :  0.0555
     Vbias exp α /bohr⁻²:    0.28
*Meta-MTD 8 finished*
*Meta-MTD 6 finished*
*Meta-MTD 12 finished*
*Meta-MTD 9 finished*
*Meta-MTD 10 finished*
*Meta-MTD 4 finished*
*Meta-MTD 2 finished*
*Meta-MTD 11 finished*
*Meta-MTD 7 finished*
*Meta-MTD 5 finished*
*Meta-MTD 3 finished*
*Meta-MTD 1 finished*
 
-----------------------
Multilevel Optimization
-----------------------
 
 -------------------------
 1. crude pre-optimization
 -------------------------
 Optimizing all 60 structures from file "crest_rotamers_0.xyz" ...
 1 2 3 4 5 6 7 8 9 10 11 12 13 14 15 16 17 18 19 20 21 22 23 24 25 26 27 28 29 30 31 32 33 34 35 36 37 38 39 40 41 42 43 44 45 46 47 48 49 50 51 52 53 54 55 56 57 58 59 60
 done.
 running RMSDs...
 done.
 E lowest :  -106.87991
 54 structures remain within    12.00 kcal/mol window
 
 -------------------------------------
 2. optimization with tight thresholds
 -------------------------------------
 Optimizing all 55 structures from file "crest_rotamers_1.xyz" ...
 1 2 3 4 5 6 7 8 9 10 11 12 13 14 15 16 17 18 19 20 21 22 23 24 25 26 27 28 29 30 31 32 33 34 35 36 37 38 39 40 41 42 43 44 45 46 47 48 49 50 51 52 53 54 55
 done.
 running RMSDs...
 done.
 E lowest :  -106.88047
 39 structures remain within     6.00 kcal/mol window
 
========================================
            MTD Iterations done         
========================================
 Collecting ensmbles.
 running RMSDs...
 done.
 E lowest :  -106.88047
 132 structures remain within     6.00 kcal/mol window
 
 -------------------------------
 Additional orientation sampling
 -------------------------------
 Optimizing all 192 structures from file "oh_ensemble.xyz" ...
 1 2 3 4 5 6 7 8 9 10 11 12 13 14 15 16 17 18 19 20 21 22 23 24 25 26 27 28 29 30 31 32 33 34 35 36 37 38 39 40 41 42 43 44 45 46 47 48 49 50 51 52 53 54 55 56 57 58 59 60 61 62 63 64 65 66 67 68 69 70 71 72 73 74 75 76 77 78 79 80 81 82 83 84 85 86 87 88 89 90 91 92 93 94 95 96 97 98 99 100 101 102 103 104 105 106 107 108 109 110 111 112 113 114 115 116 117 118 119 120 121 122 123 124 125 126 127 128 129 130 131 132 133 134 135 136 137 138 139 140 141 142 143 144 145 146 147 148 149 150 151 152 153 154 155 156 157 158 159 160 161 162 163 164 165 166 167 168 169 170 171 172 173 174 175 176 177 178 179 180 181 182 183 184 185 186 187 188 189 190 191 192
 done.
 running RMSDs...
 done.
 E lowest :  -106.88059
 300 structures remain within     6.00 kcal/mol window
 
-----------------------------------------------
Additional regular MDs on lowest 4 conformer(s)
-----------------------------------------------
Starting MD   1 with the settings:
     MD time /ps        :     0.2
     MD Temperature /K  :   400.0
     dt /fs             :     1.5
     dumpstep(trj) /fs  :     100
Starting MD   2 with the settings:
     MD time /ps        :     0.2
     MD Temperature /K  :   500.0
     dt /fs             :     1.5
     dumpstep(trj) /fs  :     100
Starting MD   3 with the settings:
     MD time /ps        :     0.2
     MD Temperature /K  :   400.0
     dt /fs             :     1.5
     dumpstep(trj) /fs  :     100
Starting MD   4 with the settings:
     MD time /ps        :     0.2
     MD Temperature /K  :   500.0
     dt /fs             :     1.5
     dumpstep(trj) /fs  :     100
Starting MD   5 with the settings:
     MD time /ps        :     0.2
     MD Temperature /K  :   400.0
     dt /fs             :     1.5
     dumpstep(trj) /fs  :     100
Starting MD   8 with the settings:
     MD time /ps        :     0.2
     MD Temperature /K  :   500.0
     dt /fs             :     1.5
     dumpstep(trj) /fs  :     100
Starting MD   6 with the settings:
     MD time /ps        :     0.2
     MD Temperature /K  :   500.0
     dt /fs             :     1.5
     dumpstep(trj) /fs  :     100
Starting MD   7 with the settings:
     MD time /ps        :     0.2
     MD Temperature /K  :   400.0
     dt /fs             :     1.5
     dumpstep(trj) /fs  :     100
*MD 3 finished*
*MD 4 finished*
*MD 6 finished*
*MD 7 finished*
*MD 2 finished*
*MD 1 finished*
*MD 5 finished*
*MD 8 finished*
 Appending file crest_rotamers_2.xyz with new structures
 
 -------------------------------------------
 Ensemble optimization with tight thresholds
 -------------------------------------------
 Optimizing all 316 structures from file "crest_rotamers_2.xyz" ...
 1 2 3 4 5 6 7 8 9 10 11 12 13 14 15 16 17 18 19 20 21 22 23 24 25 26 27 28 29 30 31 32 33 34 35 36 37 38 39 40 41 42 43 44 45 46 47 48 49 50 51 52 53 54 55 56 57 58 59 60 61 62 63 64 65 66 67 68 69 70 71 72 73 74 75 76 77 78 79 80 81 82 83 84 85 86 87 88 89 90 91 92 93 94 95 96 97 98 99 100 101 102 103 104 105 106 107 108 109 110 111 112 113 114 115 116 117 118 119 120 121 122 123 124 125 126 127 128 129 130 131 132 133 134 135 136 137 138 139 140 141 142 143 144 145 146 147 148 149 150 151 152 153 154 155 156 157 158 159 160 161 162 163 164 165 166 167 168 169 170 171 172 173 174 175 176 177 178 179 180 181 182 183 184 185 186 187 188 189 190 191 192 193 194 195 196 197 198 199 200 201 202 203 204 205 206 207 208 209 210 211 212 213 214 215 216 217 218 219 220 221 222 223 224 225 226 227 228 229 230 231 232 233 234 235 236 237 238 239 240 241 242 243 244 245 246 247 248 249 250 251 252 253 254 255 256 257 258 259 260 261 262 263 264 265 266 267 268 269 270 271 272 273 274 275 276 277 278 279 280 281 282 283 284 285 286 287 288 289 290 291 292 293 294 295 296 297 298 299 300 301 302 303 304 305 306 307 308 309 310 311 312 313 314 315 316
 done.
 running RMSDs...
 done.
 E lowest :  -106.88059
 302 structures remain within     6.00 kcal/mol window
 
 ...............................................
 A new lower conformer was found!
 Improved by    0.00013 Eh or    0.08139kcal/mol
 ...............................................
 
*******************************************************************************************
**                        N E W    I T E R A T I O N    C Y C L E                        **
*******************************************************************************************
 
========================================
            MTD Iteration  1
========================================
 
     ========================================
     |         Meta-MD (MTD) Sampling       |
     ========================================
 
Starting Meta-MD   1 with the settings:
     MD time /ps        :     0.5
     dt /fs             :     1.5
     dumpstep(trj) /fs  :     100
     dumpstep(Vbias)/ps :     1.0
     Vbias factor k /Eh :  0.2220
     Vbias exp α /bohr⁻²:    1.30
Starting Meta-MD   2 with the settings:
     MD time /ps        :     0.5
     dt /fs             :     1.5
     dumpstep(trj) /fs  :     100
     dumpstep(Vbias)/ps :     1.0
     Vbias factor k /Eh :  0.1110
     Vbias exp α /bohr⁻²:    1.30
Starting Meta-MD   3 with the settings:
     MD time /ps        :     0.5
     dt /fs             :     1.5
     dumpstep(trj) /fs  :     100
     dumpstep(Vbias)/ps :     1.0
     Vbias factor k /Eh :  0.0555
     Vbias exp α /bohr⁻²:    1.30
Starting Meta-MD   4 with the settings:
     MD time /ps        :     0.5
     dt /fs             :     1.5
     dumpstep(trj) /fs  :     100
     dumpstep(Vbias)/ps :     1.0
     Vbias factor k /Eh :  0.2220
     Vbias exp α /bohr⁻²:    0.78
Starting Meta-MD   5 with the settings:
     MD time /ps        :     0.5
     dt /fs             :     1.5
     dumpstep(trj) /fs  :     100
     dumpstep(Vbias)/ps :     1.0
     Vbias factor k /Eh :  0.1110
     Vbias exp α /bohr⁻²:    0.78
Starting Meta-MD   6 with the settings:
     MD time /ps        :     0.5
     dt /fs             :     1.5
     dumpstep(trj) /fs  :     100
     dumpstep(Vbias)/ps :     1.0
     Vbias factor k /Eh :  0.0555
     Vbias exp α /bohr⁻²:    0.78
Starting Meta-MD   7 with the settings:
     MD time /ps        :     0.5
     dt /fs             :     1.5
     dumpstep(trj) /fs  :     100
     dumpstep(Vbias)/ps :     1.0
     Vbias factor k /Eh :  0.2220
     Vbias exp α /bohr⁻²:    0.47
Starting Meta-MD   8 with the settings:
     MD time /ps        :     0.5
     dt /fs             :     1.5
     dumpstep(trj) /fs  :     100
     dumpstep(Vbias)/ps :     1.0
     Vbias factor k /Eh :  0.1110
     Vbias exp α /bohr⁻²:    0.47
Starting Meta-MD   9 with the settings:
     MD time /ps        :     0.5
     dt /fs             :     1.5
     dumpstep(trj) /fs  :     100
     dumpstep(Vbias)/ps :     1.0
     Vbias factor k /Eh :  0.0555
     Vbias exp α /bohr⁻²:    0.47
Starting Meta-MD  10 with the settings:
     MD time /ps        :     0.5
     dt /fs             :     1.5
     dumpstep(trj) /fs  :     100
     dumpstep(Vbias)/ps :     1.0
     Vbias factor k /Eh :  0.2220
     Vbias exp α /bohr⁻²:    0.28
Starting Meta-MD  11 with the settings:
     MD time /ps        :     0.5
     dt /fs             :     1.5
     dumpstep(trj) /fs  :     100
     dumpstep(Vbias)/ps :     1.0
     Vbias factor k /Eh :  0.1110
     Vbias exp α /bohr⁻²:    0.28
Starting Meta-MD  12 with the settings:
     MD time /ps        :     0.5
     dt /fs             :     1.5
     dumpstep(trj) /fs  :     100
     dumpstep(Vbias)/ps :     1.0
     Vbias factor k /Eh :  0.0555
     Vbias exp α /bohr⁻²:    0.28
*Meta-MTD 6 finished*
*Meta-MTD 2 finished*
*Meta-MTD 10 finished*
*Meta-MTD 9 finished*
*Meta-MTD 4 finished*
*Meta-MTD 8 finished*
*Meta-MTD 5 finished*
*Meta-MTD 7 finished*
*Meta-MTD 1 finished*
*Meta-MTD 3 finished*
*Meta-MTD 12 finished*
*Meta-MTD 11 finished*
 
-----------------------
Multilevel Optimization
-----------------------
 
 -------------------------
 1. crude pre-optimization
 -------------------------
 Optimizing all 60 structures from file "crest_rotamers_0.xyz" ...
 1 2 3 4 5 6 7 8 9 10 11 12 13 14 15 16 17 18 19 20 21 22 23 24 25 26 27 28 29 30 31 32 33 34 35 36 37 38 39 40 41 42 43 44 45 46 47 48 49 50 51 52 53 54 55 56 57 58 59 60
 done.
 running RMSDs...
 done.
 E lowest :  -106.87996
 55 structures remain within    12.00 kcal/mol window
 
 -------------------------------------
 2. optimization with tight thresholds
 -------------------------------------
 Optimizing all 56 structures from file "crest_rotamers_1.xyz" ...
 1 2 3 4 5 6 7 8 9 10 11 12 13 14 15 16 17 18 19 20 21 22 23 24 25 26 27 28 29 30 31 32 33 34 35 36 37 38 39 40 41 42 43 44 45 46 47 48 49 50 51 52 53 54 55 56
 done.
 running RMSDs...
 done.
 E lowest :  -106.88080
 24 structures remain within     6.00 kcal/mol window
 
 ...............................................
 A new lower conformer was found!
 Improved by    0.00021 Eh or    0.13032kcal/mol
 ...............................................
 
========================================
            MTD Iteration  2
========================================
 
     ========================================
     |         Meta-MD (MTD) Sampling       |
     ========================================
 
Starting Meta-MD   1 with the settings:
     MD time /ps        :     0.5
     dt /fs             :     1.5
     dumpstep(trj) /fs  :     100
     dumpstep(Vbias)/ps :     1.0
     Vbias factor k /Eh :  0.2220
     Vbias exp α /bohr⁻²:    1.30
Starting Meta-MD   2 with the settings:
     MD time /ps        :     0.5
     dt /fs             :     1.5
     dumpstep(trj) /fs  :     100
     dumpstep(Vbias)/ps :     1.0
     Vbias factor k /Eh :  0.1110
     Vbias exp α /bohr⁻²:    1.30
Starting Meta-MD   3 with the settings:
     MD time /ps        :     0.5
     dt /fs             :     1.5
     dumpstep(trj) /fs  :     100
     dumpstep(Vbias)/ps :     1.0
     Vbias factor k /Eh :  0.0555
     Vbias exp α /bohr⁻²:    1.30
Starting Meta-MD   4 with the settings:
     MD time /ps        :     0.5
     dt /fs             :     1.5
     dumpstep(trj) /fs  :     100
     dumpstep(Vbias)/ps :     1.0
     Vbias factor k /Eh :  0.2220
     Vbias exp α /bohr⁻²:    0.78
Starting Meta-MD   5 with the settings:
     MD time /ps        :     0.5
     dt /fs             :     1.5
     dumpstep(trj) /fs  :     100
     dumpstep(Vbias)/ps :     1.0
     Vbias factor k /Eh :  0.1110
     Vbias exp α /bohr⁻²:    0.78
Starting Meta-MD   6 with the settings:
     MD time /ps        :     0.5
     dt /fs             :     1.5
     dumpstep(trj) /fs  :     100
     dumpstep(Vbias)/ps :     1.0
     Vbias factor k /Eh :  0.0555
     Vbias exp α /bohr⁻²:    0.78
Starting Meta-MD   7 with the settings:
     MD time /ps        :     0.5
     dt /fs             :     1.5
     dumpstep(trj) /fs  :     100
     dumpstep(Vbias)/ps :     1.0
     Vbias factor k /Eh :  0.2220
     Vbias exp α /bohr⁻²:    0.47
Starting Meta-MD   8 with the settings:
     MD time /ps        :     0.5
     dt /fs             :     1.5
     dumpstep(trj) /fs  :     100
     dumpstep(Vbias)/ps :     1.0
     Vbias factor k /Eh :  0.1110
     Vbias exp α /bohr⁻²:    0.47
Starting Meta-MD   9 with the settings:
     MD time /ps        :     0.5
     dt /fs             :     1.5
     dumpstep(trj) /fs  :     100
     dumpstep(Vbias)/ps :     1.0
     Vbias factor k /Eh :  0.0555
     Vbias exp α /bohr⁻²:    0.47
Starting Meta-MD  10 with the settings:
     MD time /ps        :     0.5
     dt /fs             :     1.5
     dumpstep(trj) /fs  :     100
     dumpstep(Vbias)/ps :     1.0
     Vbias factor k /Eh :  0.2220
     Vbias exp α /bohr⁻²:    0.28
Starting Meta-MD  11 with the settings:
     MD time /ps        :     0.5
     dt /fs             :     1.5
     dumpstep(trj) /fs  :     100
     dumpstep(Vbias)/ps :     1.0
     Vbias factor k /Eh :  0.1110
     Vbias exp α /bohr⁻²:    0.28
Starting Meta-MD  12 with the settings:
     MD time /ps        :     0.5
     dt /fs             :     1.5
     dumpstep(trj) /fs  :     100
     dumpstep(Vbias)/ps :     1.0
     Vbias factor k /Eh :  0.0555
     Vbias exp α /bohr⁻²:    0.28
*Meta-MTD 8 finished*
*Meta-MTD 3 finished*
*Meta-MTD 12 finished*
*Meta-MTD 2 finished*
*Meta-MTD 11 finished*
*Meta-MTD 9 finished*
*Meta-MTD 5 finished*
*Meta-MTD 1 finished*
*Meta-MTD 4 finished*
*Meta-MTD 10 finished*
*Meta-MTD 6 finished*
*Meta-MTD 7 finished*
 
-----------------------
Multilevel Optimization
-----------------------
 
 -------------------------
 1. crude pre-optimization
 -------------------------
 Optimizing all 60 structures from file "crest_rotamers_0.xyz" ...
 1 2 3 4 5 6 7 8 9 10 11 12 13 14 15 16 17 18 19 20 21 22 23 24 25 26 27 28 29 30 31 32 33 34 35 36 37 38 39 40 41 42 43 44 45 46 47 48 49 50 51 52 53 54 55 56 57 58 59 60
 done.
 running RMSDs...
 done.
 E lowest :  -106.88034
 55 structures remain within    12.00 kcal/mol window
 
 -------------------------------------
 2. optimization with tight thresholds
 -------------------------------------
 Optimizing all 56 structures from file "crest_rotamers_1.xyz" ...
 1 2 3 4 5 6 7 8 9 10 11 12 13 14 15 16 17 18 19 20 21 22 23 24 25 26 27 28 29 30 31 32 33 34 35 36 37 38 39 40 41 42 43 44 45 46 47 48 49 50 51 52 53 54 55 56
 done.
 running RMSDs...
 done.
 E lowest :  -106.88081
 24 structures remain within     6.00 kcal/mol window
 
========================================
            MTD Iterations done         
========================================
 Collecting ensmbles.
 running RMSDs...
 done.
 E lowest :  -106.88081
 47 structures remain within     6.00 kcal/mol window
 
 -------------------------------
 Additional orientation sampling
 -------------------------------
 Optimizing all 68 structures from file "oh_ensemble.xyz" ...
 1 2 3 4 5 6 7 8 9 10 11 12 13 14 15 16 17 18 19 20 21 22 23 24 25 26 27 28 29 30 31 32 33 34 35 36 37 38 39 40 41 42 43 44 45 46 47 48 49 50 51 52 53 54 55 56 57 58 59 60 61 62 63 64 65 66 67 68
 done.
 running RMSDs...
 done.
 E lowest :  -106.88081
 106 structures remain within     6.00 kcal/mol window
 
-----------------------------------------------
Additional regular MDs on lowest 4 conformer(s)
-----------------------------------------------
Starting MD   1 with the settings:
     MD time /ps        :     0.2
     MD Temperature /K  :   400.0
     dt /fs             :     1.5
     dumpstep(trj) /fs  :     100
Starting MD   2 with the settings:
     MD time /ps        :     0.2
     MD Temperature /K  :   500.0
     dt /fs             :     1.5
     dumpstep(trj) /fs  :     100
Starting MD   3 with the settings:
     MD time /ps        :     0.2
     MD Temperature /K  :   400.0
     dt /fs             :     1.5
     dumpstep(trj) /fs  :     100
Starting MD   4 with the settings:
     MD time /ps        :     0.2
     MD Temperature /K  :   500.0
     dt /fs             :     1.5
     dumpstep(trj) /fs  :     100
Starting MD   5 with the settings:
     MD time /ps        :     0.2
     MD Temperature /K  :   400.0
     dt /fs             :     1.5
     dumpstep(trj) /fs  :     100
Starting MD   6 with the settings:
     MD time /ps        :     0.2
     MD Temperature /K  :   500.0
     dt /fs             :     1.5
     dumpstep(trj) /fs  :     100
Starting MD   7 with the settings:
     MD time /ps        :     0.2
     MD Temperature /K  :   400.0
     dt /fs             :     1.5
     dumpstep(trj) /fs  :     100
Starting MD   8 with the settings:
     MD time /ps        :     0.2
     MD Temperature /K  :   500.0
     dt /fs             :     1.5
     dumpstep(trj) /fs  :     100
*MD 2 finished*
*MD 8 finished*
*MD 5 finished*
*MD 4 finished*
*MD 3 finished*
*MD 6 finished*
*MD 1 finished*
*MD 7 finished*
 Appending file crest_rotamers_2.xyz with new structures
 
 -------------------------------------------
 Ensemble optimization with tight thresholds
 -------------------------------------------
 Optimizing all 122 structures from file "crest_rotamers_2.xyz" ...
 1 2 3 4 5 6 7 8 9 10 11 12 13 14 15 16 17 18 19 20 21 22 23 24 25 26 27 28 29 30 31 32 33 34 35 36 37 38 39 40 41 42 43 44 45 46 47 48 49 50 51 52 53 54 55 56 57 58 59 60 61 62 63 64 65 66 67 68 69 70 71 72 73 74 75 76 77 78 79 80 81 82 83 84 85 86 87 88 89 90 91 92 93 94 95 96 97 98 99 100 101 102 103 104 105 106 107 108 109 110 111 112 113 114 115 116 117 118 119 120 121 122
 done.
 running RMSDs...
 done.
 E lowest :  -106.88081
 108 structures remain within     6.00 kcal/mol window
 
 
     ========================================
     |        Structure Crossing (GC)       |
     ========================================
 =============================
  # threads =          28
 =============================
 input  file name : crest_rotamers_4.xyz
number of atoms                :    74
number of points on xyz files  :   108
conformer energy window  /kcal :    6.00
CN per atom difference cut-off :  0.3000
RMSD threshold                 :  0.5000
max. # of generated structures : 25
 reading xyz file ...
 # in E window                108
 generating pairs ...        5885
  50.0 % done
 generated pairs           :        4801
 number of clash discarded :         977
 average rmsd w.r.t input  : 3.79238
 sd of ensemble            : 1.27059
 number of new structures      :           2
 removed identical structures  :          48
 writing            2  TMPCONF* dirs ...
 --------------------------
 GC: loose pre-optimization
 --------------------------
 Starting optimization of generated structures
 2 jobs to do.
 1 2 
 done.
 Now appending opt.xyz file with new structures
 running RMSDs...
 done.
 E lowest :  -106.88076
 2 structures remain within    10.00 kcal/mol window
 --------------------------------------
 GC: optimization with tight thresholds
 --------------------------------------
 Optimizing all 2 structures from file "crest_rotamers_1.xyz" ...
 1 2
 done.
 running RMSDs...
 done.
 E lowest :  -106.88081
 
 
   ================================================
   |           Final Geometry Optimization        |
   ================================================
 ------------------------------------------------
 Ensemble optimization with very tight thresholds
 ------------------------------------------------
 Optimizing all 109 structures from file "crest_rotamers_5.xyz" ...
 1 2 3 4 5 6 7 8 9 10 11 12 13 14 15 16 17 18 19 20 21 22 23 24 25 26 27 28 29 30 31 32 33 34 35 36 37 38 39 40 41 42 43 44 45 46 47 48 49 50 51 52 53 54 55 56 57 58 59 60 61 62 63 64 65 66 67 68 69 70 71 72 73 74 75 76 77 78 79 80 81 82 83 84 85 86 87 88 89 90 91 92 93 94 95 96 97 98 99 100 101 102 103 104 105 106 107 108 109
 done.
 running RMSDs...
 done.
 E lowest :  -106.88081
 109 structures remain within     6.00 kcal/mol window
 
 input  file name : crest_rotamers_6.xyz
 output file name : crest_rotamers_7.xyz
 number of atoms                :   74
 number of points on xyz files  :   109
 RMSD threshold                 :   0.2500
 Bconst threshold               :   0.0100
 population threshold           :   0.0500
 conformer energy window  /kcal :   6.0000
 # fragment in coord            :     1
 # bonds in reference structure :    79
   => # of C=C bonds :    10
 number of reliable points      :   109
 reference state Etot :  -106.880805500000
 number of doubles removed by rot/RMSD         :           0
 total number unique points considered further :         109
       Erel/kcal        Etot weight/tot  conformer     set   degen     origin
       1   0.000  -106.88081    0.01835    0.07308       1       4     mtd4
       2   0.003  -106.88080    0.01827                                mtd4
       3   0.003  -106.88080    0.01825                                mtd1
       4   0.005  -106.88080    0.01821                                md3
       5   0.008  -106.88079    0.01810    0.07201       2       4     mtd1
       6   0.009  -106.88079    0.01806                                md5
       7   0.017  -106.88078    0.01784                                md2
       8   0.011  -106.88079    0.01801                                md3
       9   0.013  -106.88078    0.01794    0.01794       3       1     mtd1
      10   0.029  -106.88076    0.01747    0.01747       4       1     mtd4
      11   0.030  -106.88076    0.01745    0.01745       5       1     mtd1
      12   0.034  -106.88075    0.01731    0.01731       6       1     mtd7
      13   0.075  -106.88069    0.01618    0.01618       7       1     mtd7
      14   0.132  -106.88059    0.01468    0.02928       8       2     input
      15   0.136  -106.88059    0.01460                                mtd7
      16   0.139  -106.88058    0.01452    0.02897       9       2     mtd8
      17   0.142  -106.88058    0.01444                                mtd8
      18   0.143  -106.88058    0.01442    0.01442      10       1     mtd10
      19   0.144  -106.88058    0.01439    0.02877      11       2     mtd4
      20   0.145  -106.88058    0.01438                                mtd4
      21   0.147  -106.88057    0.01432    0.02825      12       2     mtd5
      22   0.163  -106.88055    0.01393                                mtd5
      23   0.149  -106.88057    0.01426    0.01426      13       1     mtd10
      24   0.187  -106.88051    0.01338    0.01338      14       1     mtd9
      25   0.192  -106.88050    0.01328    0.01328      15       1     mtd9
      26   0.219  -106.88046    0.01269    0.01269      16       1     mtd3
      27   0.219  -106.88046    0.01268    0.02525      17       2     mtd2
      28   0.224  -106.88045    0.01257                                gc
      29   0.226  -106.88044    0.01252    0.01252      18       1     mtd3
      30   0.220  -106.88046    0.01267    0.01267      19       1     mtd10
      31   0.246  -106.88041    0.01212    0.01212      20       1     mtd10
      32   0.254  -106.88040    0.01195    0.01195      21       1     mtd2
      33   0.254  -106.88040    0.01195    0.01195      22       1     mtd10
      34   0.256  -106.88040    0.01192    0.01192      23       1     mtd5
      35   0.257  -106.88040    0.01190    0.01190      24       1     mtd6
      36   0.259  -106.88039    0.01186    0.01186      25       1     mtd10
      37   0.269  -106.88038    0.01165    0.02273      26       2     mtd4
      38   0.299  -106.88033    0.01108                                mtd4
      39   0.294  -106.88034    0.01117    0.01117      27       1     mtd3
      40   0.317  -106.88030    0.01074    0.01074      28       1     mtd8
      41   0.331  -106.88028    0.01051    0.01051      29       1     mtd2
      42   0.337  -106.88027    0.01039    0.01039      30       1     mtd11
      43   0.352  -106.88024    0.01013    0.01013      31       1     mtd12
      44   0.388  -106.88019    0.00954    0.02839      32       3     mtd7
      45   0.393  -106.88018    0.00945                                mtd12
      46   0.397  -106.88017    0.00940                                mtd7
      47   0.421  -106.88013    0.00902    0.00902      33       1     hor
      48   0.446  -106.88009    0.00865    0.00865      34       1     hor
      49   0.448  -106.88009    0.00861    0.01698      35       2     mtd8
      50   0.466  -106.88006    0.00837                                mtd8
      51   0.453  -106.88008    0.00855    0.00855      36       1     mtd7
      52   0.480  -106.88004    0.00816    0.00816      37       1     mtd8
      53   0.542  -106.87994    0.00736    0.01471      38       2     hor
      54   0.542  -106.87994    0.00735                                hor
      55   0.547  -106.87993    0.00730    0.01449      39       2     hor
      56   0.555  -106.87992    0.00719                                hor
      57   0.547  -106.87993    0.00729    0.00729      40       1     hor
      58   0.565  -106.87991    0.00708    0.00708      41       1     hor
      59   0.572  -106.87989    0.00699    0.02782      42       4     hor
      60   0.573  -106.87989    0.00698                                hor
      61   0.575  -106.87989    0.00695                                hor
      62   0.581  -106.87988    0.00689                                hor
      63   0.581  -106.87988    0.00689    0.00689      43       1     hor
      64   0.585  -106.87987    0.00685    0.00685      44       1     hor
      65   0.602  -106.87985    0.00664    0.00664      45       1     hor
      66   0.605  -106.87984    0.00662    0.00662      46       1     hor
      67   0.645  -106.87978    0.00619    0.00619      47       1     hor
      68   0.657  -106.87976    0.00606    0.00606      48       1     hor
      69   0.666  -106.87974    0.00597    0.00597      49       1     hor
      70   0.666  -106.87974    0.00597    0.01193      50       2     hor
      71   0.667  -106.87974    0.00596                                hor
      72   0.691  -106.87970    0.00572    0.00572      51       1     hor
      73   0.692  -106.87970    0.00572    0.00572      52       1     hor
      74   0.692  -106.87970    0.00572    0.00572      53       1     hor
      75   0.698  -106.87969    0.00566    0.01122      54       2     hor
      76   0.708  -106.87968    0.00556                                hor
      77   0.702  -106.87969    0.00562    0.00562      55       1     hor
      78   0.716  -106.87966    0.00549    0.00549      56       1     hor
      79   0.721  -106.87966    0.00544    0.00544      57       1     hor
      80   0.733  -106.87964    0.00533    0.01562      58       3     hor
      81   0.751  -106.87961    0.00517                                hor
      82   0.756  -106.87960    0.00512                                hor
      83   0.738  -106.87963    0.00528    0.00528      59       1     hor
      84   0.758  -106.87960    0.00511    0.00511      60       1     hor
      85   0.741  -106.87962    0.00526    0.00526      61       1     hor
      86   0.760  -106.87959    0.00510    0.00510      62       1     hor
      87   0.769  -106.87958    0.00502    0.00502      63       1     hor
      88   0.770  -106.87958    0.00500    0.00500      64       1     hor
      89   0.789  -106.87955    0.00485    0.00485      65       1     hor
      90   0.796  -106.87954    0.00479    0.00479      66       1     hor
      91   0.805  -106.87952    0.00472    0.00472      67       1     hor
      92   0.823  -106.87949    0.00458    0.00458      68       1     hor
      93   0.830  -106.87948    0.00453    0.00453      69       1     hor
      94   0.851  -106.87945    0.00437    0.00437      70       1     hor
      95   0.857  -106.87944    0.00432    0.00432      71       1     hor
      96   0.860  -106.87944    0.00430    0.00430      72       1     hor
      97   0.871  -106.87942    0.00423    0.00423      73       1     hor
      98   0.879  -106.87940    0.00417    0.00830      74       2     hor
      99   0.884  -106.87940    0.00413                                hor
     100   0.894  -106.87938    0.00406    0.00406      75       1     hor
     101   0.901  -106.87937    0.00402    0.00402      76       1     hor
     102   0.905  -106.87936    0.00399    0.00399      77       1     hor
     103   0.908  -106.87936    0.00397    0.00397      78       1     hor
     104   0.883  -106.87940    0.00414    0.00414      79       1     hor
     105   0.927  -106.87933    0.00384    0.00384      80       1     hor
     106   0.930  -106.87932    0.00383    0.00383      81       1     hor
     107   0.949  -106.87929    0.00370    0.00740      82       2     hor
     108   0.950  -106.87929    0.00370                                hor
     109   0.960  -106.87928    0.00364    0.00364      83       1     hor
T /K                                  :   298.15
E lowest                              :  -106.88081
ensemble average energy (kcal)        :    0.339
ensemble entropy (J/mol K, cal/mol K) :   38.000    9.082
ensemble free energy (kcal/mol)       :   -2.708
population of lowest in %             :    7.308
 number of unique conformers for further calc           83
 list of relative energies saved as "crest.energies"
 
 -----------------
 Wall Time Summary
 -----------------
             test MD wall time :         0h : 0m :40s
                 MTD wall time :         0h : 3m :38s
      multilevel OPT wall time :         0h : 4m :21s
                  MD wall time :         0h : 1m :10s
                  GC wall time :         0h : 0m : 3s
--------------------
Overall wall time  : 0h :10m : 4s
 
 CREST terminated normally.
