 
       ==============================================
       |                                            |
       |                 C R E S T                  |
       |                                            |
       |  Conformer-Rotamer Ensemble Sampling Tool  |
       |          based on the GFN methods          |
       |             P.Pracht, S.Grimme             |
       |          Universitaet Bonn, MCTC           |
       ==============================================
       Version 2.11.2, Fr 17. Dec 12:10:44 CEST 2021
  Using the xTB program. Compatible with xTB version 6.4.0
 
   Cite work conducted with this code as

   P. Pracht, F. Bohle, S. Grimme, PCCP, 2020, 22, 7169-7192.

   and  S. Grimme, JCTC, 2019, 15, 2847-2862.
 
   with help from:
   C.Bannwarth, F.Bohle, S.Ehlert, S.Grimme,
   C. Plett, P.Pracht, S. Spicher
 
   This program is distributed in the hope that it will be useful,
   but WITHOUT ANY WARRANTY; without even the implied warranty of
   MERCHANTABILITY or FITNESS FOR A PARTICULAR PURPOSE.

 Command line input:
 > crest 00247_r_0.xyz -T 28 -gfn2 -chrg 0 -uhf 0 -rthr 0.25 -shake 1 --mdlen 0.5

  -T 28 (CPUs/Threads selected)
  -gfn2 : Use of GFN2-xTB requested.
  -chrg 0
  -uhf 0
  -rthr 0.25
  --mdlen 0.5 (MD length in ps)
 
 -------------------------
 xTB Geometry Optimization
 -------------------------
 Geometry successfully optimized.
 
------------------------------------------------
Generating MTD length from a flexibility measure
------------------------------------------------
      -----------------------------------------------------------      
     |                   =====================                   |     
     |                           x T B                           |     
     |                   =====================                   |     
     |                         S. Grimme                         |     
     |          Mulliken Center for Theoretical Chemistry        |     
     |                    University of Bonn                     |     
      -----------------------------------------------------------      

   * xtb version 6.4.1 (afa7bdf) compiled by 'ehlert@majestix' on 2021-06-10

   xtb is free software: you can redistribute it and/or modify it under
   the terms of the GNU Lesser General Public License as published by
   the Free Software Foundation, either version 3 of the License, or
   (at your option) any later version.
   
   xtb is distributed in the hope that it will be useful,
   but WITHOUT ANY WARRANTY; without even the implied warranty of
   MERCHANTABILITY or FITNESS FOR A PARTICULAR PURPOSE.  See the
   GNU Lesser General Public License for more details.
   
   Cite this work as:
   * C. Bannwarth, E. Caldeweyher, S. Ehlert, A. Hansen, P. Pracht,
     J. Seibert, S. Spicher, S. Grimme, WIREs Comput. Mol. Sci., 2020, 11,
     e01493. DOI: 10.1002/wcms.1493
   
   for GFN2-xTB:
   * C. Bannwarth, S. Ehlert and S. Grimme., J. Chem. Theory Comput., 2019,
     15, 1652-1671. DOI: 10.1021/acs.jctc.8b01176
   for GFN1-xTB:
   * S. Grimme, C. Bannwarth, P. Shushkov, J. Chem. Theory Comput., 2017,
     13, 1989-2009. DOI: 10.1021/acs.jctc.7b00118
   for GFN0-xTB:
   * P. Pracht, E. Caldeweyher, S. Ehlert, S. Grimme, ChemRxiv, 2019, preprint.
     DOI: 10.26434/chemrxiv.8326202.v1
   for GFN-FF:
   * S. Spicher and S. Grimme, Angew. Chem. Int. Ed., 2020, 59, 15665-15673.
     DOI: 10.1002/anie.202004239
   
   for DFT-D4:
   * E. Caldeweyher, C. Bannwarth and S. Grimme, J. Chem. Phys., 2017,
     147, 034112. DOI: 10.1063/1.4993215
   * E. Caldeweyher, S. Ehlert, A. Hansen, H. Neugebauer, S. Spicher,
     C. Bannwarth and S. Grimme, J. Chem. Phys., 2019, 150, 154122.
     DOI: 10.1063/1.5090222
   * E. Caldeweyher, J.-M. Mewes, S. Ehlert and S. Grimme, Phys. Chem. Chem. Phys.
     2020, 22, 8499-8512. DOI: 10.1039/D0CP00502A
   
   for sTDA-xTB:
   * S. Grimme and C. Bannwarth, J. Chem. Phys., 2016, 145, 054103.
     DOI: 10.1063/1.4959605
   
   in the mass-spec context:
   * V. Asgeirsson, C. Bauer and S. Grimme, Chem. Sci., 2017, 8, 4879.
     DOI: 10.1039/c7sc00601b
   * J. Koopman and S. Grimme, ACS Omega 2019, 4, 12, 15120-15133.
     DOI: 10.1021/acsomega.9b02011
   
   for metadynamics refer to:
   * S. Grimme, J. Chem. Theory Comput., 2019, 155, 2847-2862
     DOI: 10.1021/acs.jctc.9b00143
   
   for SPH calculations refer to:
   * S. Spicher and S. Grimme, J. Chem. Theory Comput., 2021, 17, 1701-1714
     DOI: 10.1021/acs.jctc.0c01306
   
   with help from (in alphabetical order)
   P. Atkinson, C. Bannwarth, F. Bohle, G. Brandenburg, E. Caldeweyher
   M. Checinski, S. Dohm, S. Ehlert, S. Ehrlich, I. Gerasimov, J. Koopman
   C. Lavigne, S. Lehtola, F. März, M. Müller, F. Musil, H. Neugebauer
   J. Pisarek, C. Plett, P. Pracht, J. Seibert, P. Shushkov, S. Spicher
   M. Stahn, M. Steiner, T. Strunk, J. Stückrath, T. Rose, and J. Unsleber
   
 * started run on 2025/01/21 at 11:20:06.762     

           -------------------------------------------------
          |                Calculation Setup                |
           -------------------------------------------------

          program call               : xtb tmpcoord --gfn0 --sp
          hostname                   : node21
          coordinate file            : tmpcoord
          omp threads                :                    28
          number of atoms            :                    82
          number of electrons        :                   230
          charge                     :                     0
          spin                       :                   0.0
          first test random number   :      0.23543085996603

   ID    Z sym.   atoms
    1    6 c      1-20, 22-43, 45-48
    2    8 o      21, 44
    3    1 h      49-82
########################################################################
[WARNING] Please study the warnings concerning your input carefully
-1- prog_main_parseArguments: The use of '--gfn0' is discouraged, please use '--gfn 0' next time
########################################################################

           -------------------------------------------------
          |                 G F N 0 - x T B                 |
           -------------------------------------------------

        Reference                      10.26434/chemrxiv.8326202.v1
      * Hamiltonian:
        H0-scaling (s, p, d)           2.000000    2.486800    2.270000
        zeta-weighting                 1.000000
      * Dispersion:
        s8                             2.850000
        a1                             0.800000
        a2                             4.600000
        s9                             0.000000
      * Repulsion:
        kExp                           1.500000
        rExp                           1.000000
      * Coulomb:
        alpha                          0.000000
        third order                    atomic
        anisotropic                    false
      * Polar bond correction:
        rad-shift                      0.053700
        strength                      -0.012900
        en-exp                         3.484700
        en-scale                       0.509700


          ...................................................
          :                      SETUP                      :
          :.................................................:
          :  # basis functions                 260          :
          :  # atomic orbitals                 260          :
          :  # shells                          164          :
          :  # electrons                       230          :
          :  electronic temp.          300.0000000     K    :
          :  accuracy                    1.0000000          :
          :  -> integral cutoff          0.2500000E+02      :
          :  -> integral neglect         0.1000000E-07      :
          ...................................................
  Checking positiv definite overlap ...  done.
 

         #    Occupation            Energy/Eh            Energy/eV
      -------------------------------------------------------------
         1        2.0000           -0.6947891             -18.9062
       ...           ...                  ...                  ...
       109        2.0000           -0.4352261             -11.8431
       110        2.0000           -0.4222148             -11.4891
       111        2.0000           -0.4219431             -11.4817
       112        2.0000           -0.4090043             -11.1296
       113        2.0000           -0.4088511             -11.1254
       114        2.0000           -0.3930071             -10.6943
       115        2.0000           -0.3919625             -10.6658 (HOMO)
       116                         -0.3025337              -8.2324 (LUMO)
       117                         -0.3020328              -8.2187
       118                         -0.2856799              -7.7737
       119                         -0.2852797              -7.7629
       120                         -0.2682825              -7.3003
       ...                                ...                  ...
       260                          0.6577330              17.8978
      -------------------------------------------------------------
                  HL-Gap            0.0894288 Eh            2.4335 eV
             Fermi-level            0.0000000 Eh            0.0000 eV

 EHT (total)                   0 d,  0 h,  0 min,  0.045 sec
 EHT setup                      ...        0 min,  0.001 sec (  3.225%)
 Coordination number            ...        0 min,  0.001 sec (  2.437%)
 EEQ model density              ...        0 min,  0.001 sec (  2.001%)
 D4 Dispersion                  ...        0 min,  0.003 sec (  6.413%)
 Integral evaluation            ...        0 min,  0.001 sec (  3.077%)
 Cholesky factorization         ...        0 min,  0.011 sec ( 25.158%)
 Zeroth order Hamiltonian       ...        0 min,  0.022 sec ( 49.322%)
 Gradient calculation           ...        0 min,  0.003 sec (  6.393%)

         :::::::::::::::::::::::::::::::::::::::::::::::::::::
         ::                     SUMMARY                     ::
         :::::::::::::::::::::::::::::::::::::::::::::::::::::
         :: total energy            -122.202914683293 Eh    ::
         :: gradient norm              0.043533971138 Eh/a0 ::
         :: HOMO-LUMO gap              2.433480822007 eV    ::
         ::.................................................::
         :: H0 energy               -124.269338476657 Eh    ::
         :: repulsion energy           2.275750841396 Eh    ::
         :: electrostat energy        -0.127846057460 Eh    ::
         :: -> Gsolv                   0.000000000000 Eh    ::
         ::    -> Gsasa                0.000000000000 Eh    ::
         ::    -> Gshift               0.000000000000 Eh    ::
         :: dispersion energy         -0.056230990140 Eh    ::
         :: short-range corr.         -0.025250000432 Eh    ::
         :: add. restraining           0.000000000000 Eh    ::
         :: total charge               0.000000000000 e     ::
         :::::::::::::::::::::::::::::::::::::::::::::::::::::

           -------------------------------------------------
          |                Property Printout                |
           -------------------------------------------------

    * Orbital Energies and Occupations

         #    Occupation            Energy/Eh            Energy/eV
      -------------------------------------------------------------
         1        2.0000           -0.6947891             -18.9062
       ...           ...                  ...                  ...
       103        2.0000           -0.4426069             -12.0439
       104        2.0000           -0.4421891             -12.0326
       105        2.0000           -0.4373529             -11.9010
       106        2.0000           -0.4369501             -11.8900
       107        2.0000           -0.4368963             -11.8886
       108        2.0000           -0.4368201             -11.8865
       109        2.0000           -0.4352261             -11.8431
       110        2.0000           -0.4222148             -11.4891
       111        2.0000           -0.4219431             -11.4817
       112        2.0000           -0.4090043             -11.1296
       113        2.0000           -0.4088511             -11.1254
       114        2.0000           -0.3930071             -10.6943
       115        2.0000           -0.3919625             -10.6658 (HOMO)
       116                         -0.3025337              -8.2324 (LUMO)
       117                         -0.3020328              -8.2187
       118                         -0.2856799              -7.7737
       119                         -0.2852797              -7.7629
       120                         -0.2682825              -7.3003
       121                         -0.2682591              -7.2997
       122                         -0.2668711              -7.2619
       123                         -0.2668549              -7.2615
       124                         -0.2649989              -7.2110
       125                         -0.2643364              -7.1930
       126                         -0.2431301              -6.6159
       ...                                ...                  ...
       260                          0.6577330              17.8978
      -------------------------------------------------------------
                  HL-Gap            0.0894288 Eh            2.4335 eV
             Fermi-level            0.0000000 Eh            0.0000 eV

     #   Z          covCN         q      C6AA      α(0)
     1   6 c        3.758    -0.385    32.289     8.199
     2   6 c        2.966     0.096    27.256     8.537
     3   6 c        2.924    -0.124    32.813     9.364
     4   6 c        2.924    -0.123    32.786     9.360
     5   6 c        2.977     0.039    28.570     8.740
     6   6 c        2.976     0.039    28.582     8.742
     7   6 c        2.923    -0.121    32.735     9.353
     8   6 c        2.922    -0.117    32.635     9.339
     9   6 c        2.977     0.057    28.139     8.674
    10   6 c        2.970    -0.051    30.826     9.079
    11   6 c        2.925    -0.177    34.377     9.585
    12   6 c        2.985     0.070    27.852     8.630
    13   6 c        2.919    -0.131    33.019     9.393
    14   6 c        2.915    -0.086    31.785     9.216
    15   6 c        2.916    -0.089    31.864     9.227
    16   6 c        2.918    -0.112    32.500     9.319
    17   6 c        2.989     0.024    28.920     8.794
    18   6 c        2.976    -0.005    29.636     8.902
    19   6 c        2.976    -0.005    29.635     8.902
    20   6 c        2.850     0.227    24.535     8.092
    21   8 o        1.659    -0.531    23.397     6.543
    22   6 c        2.971    -0.051    30.835     9.080
    23   6 c        2.977     0.058    28.134     8.673
    24   6 c        2.921    -0.147    33.484     9.459
    25   6 c        2.923    -0.113    32.522     9.323
    26   6 c        2.976     0.038    28.585     8.743
    27   6 c        2.977     0.039    28.570     8.740
    28   6 c        2.924    -0.123    32.796     9.362
    29   6 c        2.924    -0.123    32.802     9.363
    30   6 c        2.966     0.096    27.256     8.537
    31   6 c        3.758    -0.385    32.291     8.199
    32   6 c        2.924    -0.123    32.803     9.363
    33   6 c        2.924    -0.123    32.794     9.362
    34   6 c        2.924    -0.120    32.722     9.351
    35   6 c        2.923    -0.120    32.704     9.349
    36   6 c        2.925    -0.178    34.399     9.588
    37   6 c        2.985     0.069    27.860     8.631
    38   6 c        2.919    -0.131    33.026     9.394
    39   6 c        2.915    -0.087    31.793     9.217
    40   6 c        2.916    -0.090    31.875     9.229
    41   6 c        2.918    -0.114    32.535     9.324
    42   6 c        2.989     0.022    28.969     8.801
    43   6 c        2.850     0.226    24.557     8.096
    44   8 o        1.659    -0.534    23.460     6.552
    45   6 c        2.921    -0.148    33.506     9.463
    46   6 c        2.923    -0.113    32.522     9.323
    47   6 c        2.924    -0.123    32.794     9.362
    48   6 c        2.924    -0.123    32.795     9.362
    49   1 h        0.924     0.128     1.550     1.947
    50   1 h        0.925     0.126     1.562     1.955
    51   1 h        0.925     0.126     1.563     1.955
    52   1 h        0.926     0.096     1.817     2.108
    53   1 h        0.926     0.099     1.790     2.092
    54   1 h        0.926     0.100     1.784     2.089
    55   1 h        0.926     0.106     1.727     2.055
    56   1 h        0.926     0.117     1.635     2.000
    57   1 h        0.926     0.099     1.791     2.093
    58   1 h        0.926     0.093     1.852     2.128
    59   1 h        0.926     0.094     1.837     2.120
    60   1 h        0.926     0.113     1.667     2.019
    61   1 h        0.805     0.298     0.728     1.340
    62   1 h        0.925     0.122     1.595     1.975
    63   1 h        0.926     0.101     1.774     2.083
    64   1 h        0.926     0.100     1.782     2.087
    65   1 h        0.926     0.096     1.818     2.109
    66   1 h        0.925     0.126     1.565     1.956
    67   1 h        0.925     0.126     1.562     1.954
    68   1 h        0.924     0.128     1.547     1.945
    69   1 h        0.926     0.097     1.813     2.106
    70   1 h        0.926     0.101     1.776     2.084
    71   1 h        0.926     0.099     1.791     2.093
    72   1 h        0.926     0.102     1.766     2.078
    73   1 h        0.926     0.118     1.626     1.994
    74   1 h        0.926     0.099     1.791     2.093
    75   1 h        0.926     0.093     1.853     2.129
    76   1 h        0.926     0.094     1.840     2.121
    77   1 h        0.926     0.112     1.676     2.024
    78   1 h        0.805     0.299     0.723     1.336
    79   1 h        0.925     0.114     1.663     2.017
    80   1 h        0.926     0.100     1.786     2.090
    81   1 h        0.926     0.101     1.777     2.085
    82   1 h        0.926     0.097     1.816     2.107

 Mol. C6AA /au·bohr⁶  :      95511.718193
 Mol. C8AA /au·bohr⁸  :    2466660.883369
 Mol. α(0) /au        :        497.601271


Wiberg/Mayer (AO) data.
largest (>0.10) Wiberg bond orders for each atom

 ---------------------------------------------------------------------------
     #   Z sym  total        # sym  WBO       # sym  WBO       # sym  WBO
 ---------------------------------------------------------------------------
     1   6 c    3.978 --     2 c    1.020    51 h    0.978    50 h    0.976
                            49 h    0.965
     2   6 c    3.970 --    48 c    1.409     3 c    1.407     1 c    1.020
                             5 c    0.103
     3   6 c    3.987 --     4 c    1.456     2 c    1.407    52 h    0.970
                            47 c    0.107
     4   6 c    3.986 --     3 c    1.456     5 c    1.385    53 h    0.969
                            48 c    0.106
     5   6 c    3.978 --    47 c    1.386     4 c    1.385     6 c    1.046
                             2 c    0.103
     6   6 c    3.974 --    46 c    1.386     7 c    1.379     5 c    1.046
     7   6 c    3.986 --     8 c    1.462     6 c    1.379    54 h    0.969
                            45 c    0.103
     8   6 c    3.983 --     7 c    1.462     9 c    1.382    55 h    0.969
                            46 c    0.104
     9   6 c    3.970 --     8 c    1.382    45 c    1.379    10 c    1.033
    10   6 c    3.975 --    11 c    1.516    43 c    1.213     9 c    1.033
    11   6 c    3.983 --    10 c    1.516    12 c    1.275    56 h    0.965
    12   6 c    3.978 --    13 c    1.279    11 c    1.275    17 c    1.239
    13   6 c    3.980 --    14 c    1.553    12 c    1.279    57 h    0.969
                            16 c    0.115
    14   6 c    3.975 --    13 c    1.553    15 c    1.317    58 h    0.973
    15   6 c    3.983 --    16 c    1.558    14 c    1.317    59 h    0.972
    16   6 c    3.987 --    15 c    1.558    17 c    1.271    60 h    0.966
                            13 c    0.115
    17   6 c    3.977 --    16 c    1.271    18 c    1.260    12 c    1.239
    18   6 c    3.967 --    43 c    1.415    17 c    1.260    19 c    0.995
    19   6 c    3.967 --    20 c    1.414    42 c    1.261    18 c    0.995
    20   6 c    3.941 --    19 c    1.414    22 c    1.214    21 o    1.131
    21   8 o    2.304 --    20 c    1.131    61 h    0.967
    22   6 c    3.975 --    36 c    1.516    20 c    1.214    23 c    1.031
    23   6 c    3.970 --    35 c    1.382    24 c    1.381    22 c    1.031
    24   6 c    3.983 --    25 c    1.451    23 c    1.381    62 h    0.968
                            34 c    0.103
    25   6 c    3.986 --    24 c    1.451    26 c    1.388    63 h    0.969
                            35 c    0.104
    26   6 c    3.974 --    25 c    1.388    34 c    1.379    27 c    1.045
    27   6 c    3.978 --    28 c    1.386    33 c    1.386    26 c    1.045
                            30 c    0.104
    28   6 c    3.986 --    29 c    1.454    27 c    1.386    64 h    0.969
                            32 c    0.107
    29   6 c    3.987 --    28 c    1.454    30 c    1.409    65 h    0.970
                            33 c    0.106
    30   6 c    3.970 --    29 c    1.409    32 c    1.408    31 c    1.020
                            27 c    0.104
    31   6 c    3.978 --    30 c    1.020    66 h    0.978    67 h    0.977
                            68 h    0.966
    32   6 c    3.987 --    33 c    1.455    30 c    1.408    69 h    0.970
                            28 c    0.107
    33   6 c    3.986 --    32 c    1.455    27 c    1.386    70 h    0.969
                            29 c    0.106
    34   6 c    3.986 --    35 c    1.463    26 c    1.379    71 h    0.969
                            24 c    0.103
    35   6 c    3.983 --    34 c    1.463    23 c    1.382    72 h    0.969
                            25 c    0.104
    36   6 c    3.983 --    22 c    1.516    37 c    1.275    73 h    0.965
    37   6 c    3.978 --    38 c    1.279    36 c    1.275    42 c    1.239
    38   6 c    3.980 --    39 c    1.553    37 c    1.279    74 h    0.969
                            41 c    0.115
    39   6 c    3.975 --    38 c    1.553    40 c    1.317    75 h    0.973
    40   6 c    3.983 --    41 c    1.558    39 c    1.317    76 h    0.972
    41   6 c    3.987 --    40 c    1.558    42 c    1.270    77 h    0.966
                            38 c    0.115
    42   6 c    3.977 --    41 c    1.270    19 c    1.261    37 c    1.239
    43   6 c    3.941 --    18 c    1.415    10 c    1.213    44 o    1.131
    44   8 o    2.304 --    43 c    1.131    78 h    0.967
    45   6 c    3.982 --    46 c    1.453     9 c    1.379    79 h    0.968
                             7 c    0.103
    46   6 c    3.986 --    45 c    1.453     6 c    1.386    80 h    0.969
                             8 c    0.104
    47   6 c    3.986 --    48 c    1.454     5 c    1.386    81 h    0.969
                             3 c    0.107
    48   6 c    3.987 --    47 c    1.454     2 c    1.409    82 h    0.970
                             4 c    0.106
    49   1 h    0.986 --     1 c    0.965
    50   1 h    0.980 --     1 c    0.976
    51   1 h    0.979 --     1 c    0.978
    52   1 h    0.980 --     3 c    0.970
    53   1 h    0.979 --     4 c    0.969
    54   1 h    0.978 --     7 c    0.969
    55   1 h    0.980 --     8 c    0.969
    56   1 h    0.974 --    11 c    0.965
    57   1 h    0.978 --    13 c    0.969
    58   1 h    0.983 --    14 c    0.973
    59   1 h    0.983 --    15 c    0.972
    60   1 h    0.980 --    16 c    0.966
    61   1 h    0.986 --    21 o    0.967
    62   1 h    0.981 --    24 c    0.968
    63   1 h    0.978 --    25 c    0.969
    64   1 h    0.979 --    28 c    0.969
    65   1 h    0.980 --    29 c    0.970
    66   1 h    0.979 --    31 c    0.978
    67   1 h    0.980 --    31 c    0.977
    68   1 h    0.986 --    31 c    0.966
    69   1 h    0.980 --    32 c    0.970
    70   1 h    0.979 --    33 c    0.969
    71   1 h    0.978 --    34 c    0.969
    72   1 h    0.980 --    35 c    0.969
    73   1 h    0.974 --    36 c    0.965
    74   1 h    0.978 --    38 c    0.969
    75   1 h    0.983 --    39 c    0.973
    76   1 h    0.983 --    40 c    0.972
    77   1 h    0.980 --    41 c    0.966
    78   1 h    0.986 --    44 o    0.967
    79   1 h    0.981 --    45 c    0.968
    80   1 h    0.978 --    46 c    0.969
    81   1 h    0.979 --    47 c    0.969
    82   1 h    0.980 --    48 c    0.970
 ---------------------------------------------------------------------------

Topologies differ in total number of bonds
Writing topology from bond orders to xtbtopo.mol

 dipole moment from electron density (au)
     X       Y       Z   
  -0.1845   0.0607   2.0192  total (Debye):    5.156


           -------------------------------------------------
          | TOTAL ENERGY             -122.202914683293 Eh   |
          | GRADIENT NORM               0.043533971138 Eh/α |
          | HOMO-LUMO GAP               2.433480822007 eV   |
           -------------------------------------------------

------------------------------------------------------------------------
 * finished run on 2025/01/21 at 11:20:06.974     
------------------------------------------------------------------------
 total:
 * wall-time:     0 d,  0 h,  0 min,  0.211 sec
 *  cpu-time:     0 d,  0 h,  0 min,  5.161 sec
 * ratio c/w:    24.413 speedup
 SCF:
 * wall-time:     0 d,  0 h,  0 min,  0.046 sec
 *  cpu-time:     0 d,  0 h,  0 min,  1.177 sec
 * ratio c/w:    25.508 speedup

 Calculating WBOs... done.
      -----------------------------------------------------------      
     |                   =====================                   |     
     |                           x T B                           |     
     |                   =====================                   |     
     |                         S. Grimme                         |     
     |          Mulliken Center for Theoretical Chemistry        |     
     |                    University of Bonn                     |     
      -----------------------------------------------------------      

   * xtb version 6.4.1 (afa7bdf) compiled by 'ehlert@majestix' on 2021-06-10

   xtb is free software: you can redistribute it and/or modify it under
   the terms of the GNU Lesser General Public License as published by
   the Free Software Foundation, either version 3 of the License, or
   (at your option) any later version.
   
   xtb is distributed in the hope that it will be useful,
   but WITHOUT ANY WARRANTY; without even the implied warranty of
   MERCHANTABILITY or FITNESS FOR A PARTICULAR PURPOSE.  See the
   GNU Lesser General Public License for more details.
   
   Cite this work as:
   * C. Bannwarth, E. Caldeweyher, S. Ehlert, A. Hansen, P. Pracht,
     J. Seibert, S. Spicher, S. Grimme, WIREs Comput. Mol. Sci., 2020, 11,
     e01493. DOI: 10.1002/wcms.1493
   
   for GFN2-xTB:
   * C. Bannwarth, S. Ehlert and S. Grimme., J. Chem. Theory Comput., 2019,
     15, 1652-1671. DOI: 10.1021/acs.jctc.8b01176
   for GFN1-xTB:
   * S. Grimme, C. Bannwarth, P. Shushkov, J. Chem. Theory Comput., 2017,
     13, 1989-2009. DOI: 10.1021/acs.jctc.7b00118
   for GFN0-xTB:
   * P. Pracht, E. Caldeweyher, S. Ehlert, S. Grimme, ChemRxiv, 2019, preprint.
     DOI: 10.26434/chemrxiv.8326202.v1
   for GFN-FF:
   * S. Spicher and S. Grimme, Angew. Chem. Int. Ed., 2020, 59, 15665-15673.
     DOI: 10.1002/anie.202004239
   
   for DFT-D4:
   * E. Caldeweyher, C. Bannwarth and S. Grimme, J. Chem. Phys., 2017,
     147, 034112. DOI: 10.1063/1.4993215
   * E. Caldeweyher, S. Ehlert, A. Hansen, H. Neugebauer, S. Spicher,
     C. Bannwarth and S. Grimme, J. Chem. Phys., 2019, 150, 154122.
     DOI: 10.1063/1.5090222
   * E. Caldeweyher, J.-M. Mewes, S. Ehlert and S. Grimme, Phys. Chem. Chem. Phys.
     2020, 22, 8499-8512. DOI: 10.1039/D0CP00502A
   
   for sTDA-xTB:
   * S. Grimme and C. Bannwarth, J. Chem. Phys., 2016, 145, 054103.
     DOI: 10.1063/1.4959605
   
   in the mass-spec context:
   * V. Asgeirsson, C. Bauer and S. Grimme, Chem. Sci., 2017, 8, 4879.
     DOI: 10.1039/c7sc00601b
   * J. Koopman and S. Grimme, ACS Omega 2019, 4, 12, 15120-15133.
     DOI: 10.1021/acsomega.9b02011
   
   for metadynamics refer to:
   * S. Grimme, J. Chem. Theory Comput., 2019, 155, 2847-2862
     DOI: 10.1021/acs.jctc.9b00143
   
   for SPH calculations refer to:
   * S. Spicher and S. Grimme, J. Chem. Theory Comput., 2021, 17, 1701-1714
     DOI: 10.1021/acs.jctc.0c01306
   
   with help from (in alphabetical order)
   P. Atkinson, C. Bannwarth, F. Bohle, G. Brandenburg, E. Caldeweyher
   M. Checinski, S. Dohm, S. Ehlert, S. Ehrlich, I. Gerasimov, J. Koopman
   C. Lavigne, S. Lehtola, F. März, M. Müller, F. Musil, H. Neugebauer
   J. Pisarek, C. Plett, P. Pracht, J. Seibert, P. Shushkov, S. Spicher
   M. Stahn, M. Steiner, T. Strunk, J. Stückrath, T. Rose, and J. Unsleber
   
 * started run on 2025/01/21 at 11:20:07.016     

           -------------------------------------------------
          |                Calculation Setup                |
           -------------------------------------------------

          program call               : xtb tmpcoord --gfnff --sp
          hostname                   : node21
          coordinate file            : tmpcoord
          omp threads                :                    28
          number of atoms            :                    82
          number of electrons        :                   230
          charge                     :                     0
          spin                       :                   0.0
          first test random number   :      0.06357798371656

   ID    Z sym.   atoms
    1    6 c      1-20, 22-43, 45-48
    2    8 o      21, 44
    3    1 h      49-82
 
          ==================== Thresholds ====================
          CN  :   150.00000
          rep :   500.00000
          disp:  2500.00000
          HB1 :   250.00000
          HB2 :   450.00000
 
          Pauling EN used:
          Z : 1  EN :  2.20
          Z : 6  EN :  2.55
          Z : 8  EN :  3.44
          electric field strengths (au): 0.000
 
           ------------------------------------------------- 
          |           Force Field Initialization            |
           ------------------------------------------------- 
 
          distances ...
          ----------------------------------------
          generating topology and atomic info file ...
          pair mat ...
          computing topology distances matrix with Floyd-Warshall algo ...
          making topology EEQ charges ...
          #fragments for EEQ constrain: 1
          ----------------------------------------
          generating topology and atomic info file ...
          pair mat ...
          computing topology distances matrix with Floyd-Warshall algo ...
          making topology EEQ charges ...
          #fragments for EEQ constrain: 1
          rings ...
          # BATM   936
          # H in HB   28
          doing iterative Hueckel for 1 subsystem(s) ...
 
  atom   neighbors  erfCN metchar sp-hybrid imet pi  qest     coordinates
    1  c       4    3.49   0.00         3    0    0  -0.064   19.055171   -2.338533   10.610594
    2  c       3    2.81   0.00         2    0    1  -0.014   16.984848   -1.725369    8.779728
    3  c       3    2.82   0.00         2    0    1  -0.045   16.977831    0.553935    7.475013
    4  c       3    2.82   0.00         2    0    1  -0.013   15.098191    1.109689    5.752048
    5  c       3    2.82   0.00         2    0    1  -0.015   13.165776   -0.610844    5.268564
    6  c       3    2.82   0.00         2    0    1  -0.025   11.180945   -0.040060    3.413760
    7  c       3    2.82   0.00         2    0    1  -0.006   10.132981    2.371137    3.244341
    8  c       3    2.82   0.00         2    0    1  -0.041    8.283130    2.905782    1.486046
    9  c       3    2.82   0.00         2    0    1   0.003    7.418953    1.046925   -0.165757
   10  c       3    2.81   0.00         2    0    1  -0.012    5.489497    1.649733   -2.083484
   11  c       3    2.82   0.00         2    0    1  -0.020    5.821568    3.682432   -3.661170
   12  c       3    2.83   0.00         2    0    1  -0.013    4.063671    4.275033   -5.563124
   13  c       3    2.81   0.00         2    0    1  -0.028    4.406557    6.345102   -7.206756
   14  c       3    2.81   0.00         2    0    1  -0.037    2.676675    6.867363   -9.050329
   15  c       3    2.81   0.00         2    0    1  -0.029    0.528829    5.336244   -9.333612
   16  c       3    2.81   0.00         2    0    1  -0.037    0.141814    3.316836   -7.771661
   17  c       3    2.83   0.00         2    0    1  -0.007    1.888136    2.732237   -5.843321
   18  c       3    2.82   0.00         2    0    1  -0.002    1.529523    0.670281   -4.184221
   19  c       3    2.82   0.00         2    0    1  -0.002   -0.761824   -0.929843   -4.379570
   20  c       3    2.82   0.00         2    0    1   0.096   -2.849102   -0.315574   -2.944912
   21  o       2    1.92   0.00         3    0    1  -0.443   -2.728977    1.786679   -1.465897
   22  c       3    2.81   0.00         2    0    1  -0.012   -5.077230   -1.798487   -3.087150
   23  c       3    2.82   0.00         2    0    1   0.003   -7.315648   -1.148918   -1.559873
   24  c       3    2.82   0.00         2    0    1  -0.041   -7.153899   -0.850882    1.053442
   25  c       3    2.82   0.00         2    0    1  -0.006   -9.277789   -0.277697    2.460516
   26  c       3    2.82   0.00         2    0    1  -0.025  -11.619787    0.035026    1.301648
   27  c       3    2.82   0.00         2    0    1  -0.015  -13.883397    0.645028    2.788674
   28  c       3    2.82   0.00         2    0    1  -0.013  -15.636535    2.400810    1.911525
   29  c       3    2.82   0.00         2    0    1  -0.045  -17.776961    2.955311    3.298486
   30  c       3    2.81   0.00         2    0    1  -0.014  -18.244266    1.767704    5.592855
   31  c       4    3.49   0.00         3    0    0  -0.064  -20.556564    2.385600    7.104888
   32  c       3    2.82   0.00         2    0    1  -0.045  -16.492719    0.018287    6.469427
   33  c       3    2.82   0.00         2    0    1  -0.013  -14.341924   -0.532263    5.097236
   34  c       3    2.82   0.00         2    0    1  -0.006  -11.775587   -0.264855   -1.311035
   35  c       3    2.82   0.00         2    0    1  -0.041   -9.661860   -0.856161   -2.717304
   36  c       3    2.82   0.00         2    0    1  -0.020   -5.145833   -3.837270   -4.689731
   37  c       3    2.83   0.00         2    0    1  -0.013   -3.045908   -4.522855   -6.166011
   38  c       3    2.81   0.00         2    0    1  -0.028   -3.097305   -6.626935   -7.801409
   39  c       3    2.81   0.00         2    0    1  -0.037   -1.031494   -7.247035   -9.219791
   40  c       3    2.81   0.00         2    0    1  -0.029    1.177459   -5.785853   -9.065085
   41  c       3    2.81   0.00         2    0    1  -0.037    1.287732   -3.735885   -7.498754
   42  c       3    2.83   0.00         2    0    1  -0.007   -0.811387   -3.048299   -6.004775
   43  c       3    2.82   0.00         2    0    1   0.096    3.286811    0.142477   -2.333889
   44  o       2    1.92   0.00         3    0    1  -0.443    2.824845   -1.831224   -0.747432
   45  c       3    2.82   0.00         2    0    1  -0.041    8.467291   -1.366164   -0.002916
   46  c       3    2.82   0.00         2    0    1  -0.006   10.316926   -1.897419    1.760653
   47  c       3    2.82   0.00         2    0    1  -0.013   13.172041   -2.894071    6.577257
   48  c       3    2.82   0.00         2    0    1  -0.045   15.049657   -3.435372    8.307860
   49  h       1    0.97   0.00         0    0    0   0.036   20.657308   -3.162218    9.608569
   50  h       1    0.97   0.00         0    0    0   0.036   19.713282   -0.643184   11.569034
   51  h       1    0.97   0.00         0    0    0   0.036   18.416806   -3.696216   12.015068
   52  h       1    0.97   0.00         0    0    0   0.035   18.469587    1.908116    7.813013
   53  h       1    0.97   0.00         0    0    0   0.021   15.149314    2.879998    4.736099
   54  h       1    0.97   0.00         0    0    0   0.026   10.755315    3.829446    4.530282
   55  h       1    0.97   0.00         0    0    0   0.062    7.471379    4.776588    1.390306
   56  h       1    0.97   0.00         0    0    0   0.045    7.499632    4.832362   -3.472940
   57  h       1    0.97   0.00         0    0    0   0.042    6.068688    7.510599   -6.977036
   58  h       1    0.97   0.00         0    0    0   0.052    2.948972    8.456640  -10.302633
   59  h       1    0.97   0.00         0    0    0   0.048   -0.819908    5.769931  -10.803910
   60  h       1    0.97   0.00         0    0    0   0.049   -1.508672    2.135872   -7.990471
   61  h       1    0.97   0.00         0    0    0   0.227   -4.330345    2.018447   -0.615939
   62  h       1    0.97   0.00         0    0    0   0.062   -5.364263   -1.139763    1.998740
   63  h       1    0.97   0.00         0    0    0   0.026   -9.114331   -0.042672    4.481918
   64  h       1    0.97   0.00         0    0    0   0.021  -15.299037    3.364575    0.143274
   65  h       1    0.97   0.00         0    0    0   0.035  -19.110273    4.330614    2.588446
   66  h       1    0.97   0.00         0    0    0   0.036  -22.077023    3.039989    5.886689
   67  h       1    0.97   0.00         0    0    0   0.036  -21.203538    0.743343    8.158461
   68  h       1    0.97   0.00         0    0    0   0.036  -20.134641    3.882109    8.458135
   69  h       1    0.97   0.00         0    0    0   0.035  -16.825505   -0.930983    8.247457
   70  h       1    0.97   0.00         0    0    0   0.021  -13.024218   -1.926454    5.796537
   71  h       1    0.97   0.00         0    0    0   0.026  -13.584583   -0.070833   -2.236872
   72  h       1    0.97   0.00         0    0    0   0.062   -9.808969   -1.084487   -4.740887
   73  h       1    0.97   0.00         0    0    0   0.045   -6.841330   -4.972263   -4.794151
   74  h       1    0.97   0.00         0    0    0   0.042   -4.807429   -7.739550   -7.908715
   75  h       1    0.97   0.00         0    0    0   0.052   -1.082200   -8.861482  -10.468508
   76  h       1    0.97   0.00         0    0    0   0.048    2.794755   -6.298130  -10.201323
   77  h       1    0.97   0.00         0    0    0   0.049    2.984249   -2.606329   -7.383421
   78  h       1    0.97   0.00         0    0    0   0.227    4.155560   -1.921784    0.501834
   79  h       1    0.97   0.00         0    0    0   0.062    7.886731   -2.818218   -1.320025
   80  h       1    0.97   0.00         0    0    0   0.026   11.142237   -3.763480    1.822128
   81  h       1    0.97   0.00         0    0    0   0.021   11.668591   -4.239834    6.264302
   82  h       1    0.97   0.00         0    0    0   0.035   15.012431   -5.214156    9.311704
 
          #atoms :   82
          #bonds :   89
          #angl  :   146
          #tors  :   264
          #nmol  :   1
          #optfrag :   1
           ------------------------------------------------- 
          |                   G F N - F F                   |
          |          A general generic force-field          |
          |                  Version 1.0.3                  | 
           ------------------------------------------------- 
          nhb123   6893 655 0

 E+G (total)                   0 d,  0 h,  0 min,  0.005 sec
 distance/D3 list               ...        0 min,  0.000 sec (  0.750%)
 non bonded repulsion           ...        0 min,  0.000 sec (  6.114%)
 dCN                            ...        0 min,  0.000 sec (  5.670%)
 EEQ energy and q               ...        0 min,  0.000 sec ( 10.918%)
 D3                             ...        0 min,  0.001 sec ( 13.642%)
 EEQ gradient                   ...        0 min,  0.000 sec (  7.508%)
 bonds                          ...        0 min,  0.001 sec ( 11.937%)
 bend and torsion               ...        0 min,  0.001 sec ( 11.494%)
 bonded ATM                     ...        0 min,  0.000 sec (  1.220%)
 HB/XB (incl list setup)        ...        0 min,  0.001 sec ( 26.086%)

         :::::::::::::::::::::::::::::::::::::::::::::::::::::
         ::                     SUMMARY                     ::
         :::::::::::::::::::::::::::::::::::::::::::::::::::::
         :: total energy             -17.225322382595 Eh    ::
         :: gradient norm              0.055041968997 Eh/a0 ::
         ::.................................................::
         :: bond energy              -18.255220515376 Eh    ::
         :: angle energy               0.003345238536 Eh    ::
         :: torsion energy             0.027513063706 Eh    ::
         :: repulsion energy           1.244118615852 Eh    ::
         :: electrostat energy        -0.142003012519 Eh    ::
         :: dispersion energy         -0.082917374236 Eh    ::
         :: HB energy                 -0.001348500655 Eh    ::
         :: XB energy                  0.000000000000 Eh    ::
         :: bonded atm energy         -0.018809897904 Eh    ::
         :: external energy            0.000000000000 Eh    ::
         :: add. restraining           0.000000000000 Eh    ::
         :: total charge               0.000000000000 e     ::
         :::::::::::::::::::::::::::::::::::::::::::::::::::::

           -------------------------------------------------
          |                Property Printout                |
           -------------------------------------------------

           -------------------------------------------------
          | TOTAL ENERGY              -17.225322382595 Eh   |
          | GRADIENT NORM               0.055041968997 Eh/α |
           -------------------------------------------------

------------------------------------------------------------------------
 * finished run on 2025/01/21 at 11:20:07.062     
------------------------------------------------------------------------
 total:
 * wall-time:     0 d,  0 h,  0 min,  0.045 sec
 *  cpu-time:     0 d,  0 h,  0 min,  0.732 sec
 * ratio c/w:    16.111 speedup
 SCF:
 * wall-time:     0 d,  0 h,  0 min,  0.008 sec
 *  cpu-time:     0 d,  0 h,  0 min,  0.185 sec
 * ratio c/w:    24.494 speedup

 Calculating NCI flexibility... done.
     covalent flexibility measure :   0.011
 non-covalent flexibility measure :   1.000
 flexibility measure :   0.057
 t(MTD) / ps set by command line  :     0.5
 t(MTD) / ps    :     0.5
 Σ(t(MTD)) / ps :     7.0 (14 MTDs)
 
-------------------------------------
Starting a trial MTD to test settings
-------------------------------------
 Estimated runtime for one MTD (0.5 ps) on a single thread: 3 min 31 sec
 Estimated runtime for a batch of 14 MTDs on 28 threads: 1 min 46 sec
 
 list of Vbias parameters applied:
$metadyn    0.00300   1.300
$metadyn    0.00150   1.300
$metadyn    0.00075   1.300
$metadyn    0.00300   0.780
$metadyn    0.00150   0.780
$metadyn    0.00075   0.780
$metadyn    0.00300   0.468
$metadyn    0.00150   0.468
$metadyn    0.00075   0.468
$metadyn    0.00300   0.281
$metadyn    0.00150   0.281
$metadyn    0.00075   0.281
$metadyn    0.00100   0.100
$metadyn    0.00500   0.800
 
*******************************************************************************************
**                        N E W    I T E R A T I O N    C Y C L E                        **
*******************************************************************************************
 
========================================
            MTD Iteration  1
========================================
 
     ========================================
     |         Meta-MD (MTD) Sampling       |
     ========================================
 
Starting Meta-MD   1 with the settings:
     MD time /ps        :     0.5
     dt /fs             :     1.5
     dumpstep(trj) /fs  :     100
     dumpstep(Vbias)/ps :     1.0
     Vbias factor k /Eh :  0.2460
     Vbias exp α /bohr⁻²:    1.30
Starting Meta-MD   2 with the settings:
     MD time /ps        :     0.5
     dt /fs             :     1.5
     dumpstep(trj) /fs  :     100
     dumpstep(Vbias)/ps :     1.0
     Vbias factor k /Eh :  0.1230
     Vbias exp α /bohr⁻²:    1.30
Starting Meta-MD   5 with the settings:
     MD time /ps        :     0.5
     dt /fs             :     1.5
     dumpstep(trj) /fs  :     100
     dumpstep(Vbias)/ps :     1.0
     Vbias factor k /Eh :  0.1230
     Vbias exp α /bohr⁻²:    0.78
Starting Meta-MD  14 with the settings:
     MD time /ps        :     0.5
     dt /fs             :     1.5
     dumpstep(trj) /fs  :     100
     dumpstep(Vbias)/ps :     1.0
     Vbias factor k /Eh :  0.4100
     Vbias exp α /bohr⁻²:    0.80
Starting Meta-MD   7 with the settings:
     MD time /ps        :     0.5
     dt /fs             :     1.5
     dumpstep(trj) /fs  :     100
     dumpstep(Vbias)/ps :     1.0
     Vbias factor k /Eh :  0.2460
     Vbias exp α /bohr⁻²:    0.47
Starting Meta-MD   4 with the settings:
     MD time /ps        :     0.5
     dt /fs             :     1.5
     dumpstep(trj) /fs  :     100
     dumpstep(Vbias)/ps :     1.0
     Vbias factor k /Eh :  0.2460
     Vbias exp α /bohr⁻²:    0.78
Starting Meta-MD   9 with the settings:
     MD time /ps        :     0.5
     dt /fs             :     1.5
     dumpstep(trj) /fs  :     100
     dumpstep(Vbias)/ps :     1.0
     Vbias factor k /Eh :  0.0615
     Vbias exp α /bohr⁻²:    0.47
Starting Meta-MD   8 with the settings:
     MD time /ps        :     0.5
     dt /fs             :     1.5
     dumpstep(trj) /fs  :     100
     dumpstep(Vbias)/ps :     1.0
     Vbias factor k /Eh :  0.1230
     Vbias exp α /bohr⁻²:    0.47
Starting Meta-MD   3 with the settings:
     MD time /ps        :     0.5
     dt /fs             :     1.5
     dumpstep(trj) /fs  :     100
     dumpstep(Vbias)/ps :     1.0
     Vbias factor k /Eh :  0.0615
     Vbias exp α /bohr⁻²:    1.30
Starting Meta-MD  11 with the settings:
     MD time /ps        :     0.5
     dt /fs             :     1.5
     dumpstep(trj) /fs  :     100
     dumpstep(Vbias)/ps :     1.0
     Vbias factor k /Eh :  0.1230
     Vbias exp α /bohr⁻²:    0.28
Starting Meta-MD  13 with the settings:
     MD time /ps        :     0.5
     dt /fs             :     1.5
     dumpstep(trj) /fs  :     100
     dumpstep(Vbias)/ps :     1.0
     Vbias factor k /Eh :  0.0820
     Vbias exp α /bohr⁻²:    0.10
Starting Meta-MD  12 with the settings:
     MD time /ps        :     0.5
     dt /fs             :     1.5
     dumpstep(trj) /fs  :     100
     dumpstep(Vbias)/ps :     1.0
     Vbias factor k /Eh :  0.0615
     Vbias exp α /bohr⁻²:    0.28
Starting Meta-MD   6 with the settings:
     MD time /ps        :     0.5
     dt /fs             :     1.5
     dumpstep(trj) /fs  :     100
     dumpstep(Vbias)/ps :     1.0
     Vbias factor k /Eh :  0.0615
     Vbias exp α /bohr⁻²:    0.78
Starting Meta-MD  10 with the settings:
     MD time /ps        :     0.5
     dt /fs             :     1.5
     dumpstep(trj) /fs  :     100
     dumpstep(Vbias)/ps :     1.0
     Vbias factor k /Eh :  0.2460
     Vbias exp α /bohr⁻²:    0.28
*Meta-MTD 9 finished*
*Meta-MTD 6 finished*
*Meta-MTD 7 finished*
*Meta-MTD 14 finished*
*Meta-MTD 2 finished*
*Meta-MTD 1 finished*
*Meta-MTD 12 finished*
*Meta-MTD 8 finished*
*Meta-MTD 5 finished*
*Meta-MTD 4 finished*
*Meta-MTD 3 finished*
*Meta-MTD 10 finished*
*Meta-MTD 13 finished*
*Meta-MTD 11 finished*
 
-----------------------
Multilevel Optimization
-----------------------
 
 -------------------------
 1. crude pre-optimization
 -------------------------
 Optimizing all 70 structures from file "crest_rotamers_0.xyz" ...
 1 2 3 4 5 6 7 8 9 10 11 12 13 14 15 16 17 18 19 20 21 22 23 24 25 26 27 28 29 30 31 32 33 34 35 36 37 38 39 40 41 42 43 44 45 46 47 48 49 50 51 52 53 54 55 56 57 58 59 60 61 62 63 64 65 66 67 68 69 70
 done.
 running RMSDs...
 done.
 E lowest :  -123.99251
 64 structures remain within    12.00 kcal/mol window
 
 -------------------------------------
 2. optimization with tight thresholds
 -------------------------------------
 Optimizing all 65 structures from file "crest_rotamers_1.xyz" ...
 1 2 3 4 5 6 7 8 9 10 11 12 13 14 15 16 17 18 19 20 21 22 23 24 25 26 27 28 29 30 31 32 33 34 35 36 37 38 39 40 41 42 43 44 45 46 47 48 49 50 51 52 53 54 55 56 57 58 59 60 61 62 63 64 65
 done.
 running RMSDs...
 done.
 E lowest :  -123.99415
 44 structures remain within     6.00 kcal/mol window
 
 
========================================
            MTD Iteration  2
========================================
 
     ========================================
     |         Meta-MD (MTD) Sampling       |
     ========================================
 
Starting Meta-MD   1 with the settings:
     MD time /ps        :     0.5
     dt /fs             :     1.5
     dumpstep(trj) /fs  :     100
     dumpstep(Vbias)/ps :     1.0
     Vbias factor k /Eh :  0.2460
     Vbias exp α /bohr⁻²:    1.30
Starting Meta-MD   2 with the settings:
     MD time /ps        :     0.5
     dt /fs             :     1.5
     dumpstep(trj) /fs  :     100
     dumpstep(Vbias)/ps :     1.0
     Vbias factor k /Eh :  0.1230
     Vbias exp α /bohr⁻²:    1.30
Starting Meta-MD   3 with the settings:
     MD time /ps        :     0.5
     dt /fs             :     1.5
     dumpstep(trj) /fs  :     100
     dumpstep(Vbias)/ps :     1.0
     Vbias factor k /Eh :  0.0615
     Vbias exp α /bohr⁻²:    1.30
Starting Meta-MD   4 with the settings:
     MD time /ps        :     0.5
     dt /fs             :     1.5
     dumpstep(trj) /fs  :     100
     dumpstep(Vbias)/ps :     1.0
     Vbias factor k /Eh :  0.2460
     Vbias exp α /bohr⁻²:    0.78
Starting Meta-MD   5 with the settings:
     MD time /ps        :     0.5
     dt /fs             :     1.5
     dumpstep(trj) /fs  :     100
     dumpstep(Vbias)/ps :     1.0
     Vbias factor k /Eh :  0.1230
     Vbias exp α /bohr⁻²:    0.78
Starting Meta-MD   6 with the settings:
     MD time /ps        :     0.5
     dt /fs             :     1.5
     dumpstep(trj) /fs  :     100
     dumpstep(Vbias)/ps :     1.0
     Vbias factor k /Eh :  0.0615
     Vbias exp α /bohr⁻²:    0.78
Starting Meta-MD   8 with the settings:
     MD time /ps        :     0.5
     dt /fs             :     1.5
     dumpstep(trj) /fs  :     100
     dumpstep(Vbias)/ps :     1.0
     Vbias factor k /Eh :  0.1230
     Vbias exp α /bohr⁻²:    0.47
Starting Meta-MD   7 with the settings:
     MD time /ps        :     0.5
     dt /fs             :     1.5
     dumpstep(trj) /fs  :     100
     dumpstep(Vbias)/ps :     1.0
     Vbias factor k /Eh :  0.2460
     Vbias exp α /bohr⁻²:    0.47
Starting Meta-MD  10 with the settings:
     MD time /ps        :     0.5
     dt /fs             :     1.5
     dumpstep(trj) /fs  :     100
     dumpstep(Vbias)/ps :     1.0
     Vbias factor k /Eh :  0.2460
     Vbias exp α /bohr⁻²:    0.28
Starting Meta-MD   9 with the settings:
     MD time /ps        :     0.5
     dt /fs             :     1.5
     dumpstep(trj) /fs  :     100
     dumpstep(Vbias)/ps :     1.0
     Vbias factor k /Eh :  0.0615
     Vbias exp α /bohr⁻²:    0.47
Starting Meta-MD  11 with the settings:
     MD time /ps        :     0.5
     dt /fs             :     1.5
     dumpstep(trj) /fs  :     100
     dumpstep(Vbias)/ps :     1.0
     Vbias factor k /Eh :  0.1230
     Vbias exp α /bohr⁻²:    0.28
Starting Meta-MD  12 with the settings:
     MD time /ps        :     0.5
     dt /fs             :     1.5
     dumpstep(trj) /fs  :     100
     dumpstep(Vbias)/ps :     1.0
     Vbias factor k /Eh :  0.0615
     Vbias exp α /bohr⁻²:    0.28
*Meta-MTD 2 finished*
*Meta-MTD 7 finished*
*Meta-MTD 4 finished*
*Meta-MTD 10 finished*
*Meta-MTD 8 finished*
*Meta-MTD 6 finished*
*Meta-MTD 9 finished*
*Meta-MTD 5 finished*
*Meta-MTD 1 finished*
*Meta-MTD 11 finished*
*Meta-MTD 3 finished*
*Meta-MTD 12 finished*
 
-----------------------
Multilevel Optimization
-----------------------
 
 -------------------------
 1. crude pre-optimization
 -------------------------
 Optimizing all 60 structures from file "crest_rotamers_0.xyz" ...
 1 2 3 4 5 6 7 8 9 10 11 12 13 14 15 16 17 18 19 20 21 22 23 24 25 26 27 28 29 30 31 32 33 34 35 36 37 38 39 40 41 42 43 44 45 46 47 48 49 50 51 52 53 54 55 56 57 58 59 60
 done.
 running RMSDs...
 done.
 E lowest :  -123.99355
 54 structures remain within    12.00 kcal/mol window
 
 -------------------------------------
 2. optimization with tight thresholds
 -------------------------------------
 Optimizing all 55 structures from file "crest_rotamers_1.xyz" ...
 1 2 3 4 5 6 7 8 9 10 11 12 13 14 15 16 17 18 19 20 21 22 23 24 25 26 27 28 29 30 31 32 33 34 35 36 37 38 39 40 41 42 43 44 45 46 47 48 49 50 51 52 53 54 55
 done.
 running RMSDs...
 done.
 E lowest :  -123.99449
 33 structures remain within     6.00 kcal/mol window
 
 ...............................................
 A new lower conformer was found!
 Improved by    0.00034 Eh or    0.21382kcal/mol
 ...............................................
 
========================================
            MTD Iteration  3
========================================
 
     ========================================
     |         Meta-MD (MTD) Sampling       |
     ========================================
 
Starting Meta-MD   1 with the settings:
     MD time /ps        :     0.5
     dt /fs             :     1.5
     dumpstep(trj) /fs  :     100
     dumpstep(Vbias)/ps :     1.0
     Vbias factor k /Eh :  0.2460
     Vbias exp α /bohr⁻²:    1.30
Starting Meta-MD   2 with the settings:
     MD time /ps        :     0.5
     dt /fs             :     1.5
     dumpstep(trj) /fs  :     100
     dumpstep(Vbias)/ps :     1.0
     Vbias factor k /Eh :  0.1230
     Vbias exp α /bohr⁻²:    1.30
Starting Meta-MD   3 with the settings:
     MD time /ps        :     0.5
     dt /fs             :     1.5
     dumpstep(trj) /fs  :     100
     dumpstep(Vbias)/ps :     1.0
     Vbias factor k /Eh :  0.0615
     Vbias exp α /bohr⁻²:    1.30
Starting Meta-MD   4 with the settings:
     MD time /ps        :     0.5
     dt /fs             :     1.5
     dumpstep(trj) /fs  :     100
     dumpstep(Vbias)/ps :     1.0
     Vbias factor k /Eh :  0.2460
     Vbias exp α /bohr⁻²:    0.78
Starting Meta-MD   5 with the settings:
     MD time /ps        :     0.5
     dt /fs             :     1.5
     dumpstep(trj) /fs  :     100
     dumpstep(Vbias)/ps :     1.0
     Vbias factor k /Eh :  0.1230
     Vbias exp α /bohr⁻²:    0.78
Starting Meta-MD   6 with the settings:
     MD time /ps        :     0.5
     dt /fs             :     1.5
     dumpstep(trj) /fs  :     100
     dumpstep(Vbias)/ps :     1.0
     Vbias factor k /Eh :  0.0615
     Vbias exp α /bohr⁻²:    0.78
Starting Meta-MD   7 with the settings:
     MD time /ps        :     0.5
     dt /fs             :     1.5
     dumpstep(trj) /fs  :     100
     dumpstep(Vbias)/ps :     1.0
     Vbias factor k /Eh :  0.2460
     Vbias exp α /bohr⁻²:    0.47
Starting Meta-MD   8 with the settings:
     MD time /ps        :     0.5
     dt /fs             :     1.5
     dumpstep(trj) /fs  :     100
     dumpstep(Vbias)/ps :     1.0
     Vbias factor k /Eh :  0.1230
     Vbias exp α /bohr⁻²:    0.47
Starting Meta-MD   9 with the settings:
     MD time /ps        :     0.5
     dt /fs             :     1.5
     dumpstep(trj) /fs  :     100
     dumpstep(Vbias)/ps :     1.0
     Vbias factor k /Eh :  0.0615
     Vbias exp α /bohr⁻²:    0.47
Starting Meta-MD  10 with the settings:
     MD time /ps        :     0.5
     dt /fs             :     1.5
     dumpstep(trj) /fs  :     100
     dumpstep(Vbias)/ps :     1.0
     Vbias factor k /Eh :  0.2460
     Vbias exp α /bohr⁻²:    0.28
Starting Meta-MD  12 with the settings:
     MD time /ps        :     0.5
     dt /fs             :     1.5
     dumpstep(trj) /fs  :     100
     dumpstep(Vbias)/ps :     1.0
     Vbias factor k /Eh :  0.0615
     Vbias exp α /bohr⁻²:    0.28
Starting Meta-MD  11 with the settings:
     MD time /ps        :     0.5
     dt /fs             :     1.5
     dumpstep(trj) /fs  :     100
     dumpstep(Vbias)/ps :     1.0
     Vbias factor k /Eh :  0.1230
     Vbias exp α /bohr⁻²:    0.28
*Meta-MTD 3 finished*
*Meta-MTD 9 finished*
*Meta-MTD 7 finished*
*Meta-MTD 10 finished*
*Meta-MTD 2 finished*
*Meta-MTD 6 finished*
*Meta-MTD 12 finished*
*Meta-MTD 1 finished*
*Meta-MTD 8 finished*
*Meta-MTD 11 finished*
*Meta-MTD 4 finished*
*Meta-MTD 5 finished*
 
-----------------------
Multilevel Optimization
-----------------------
 
 -------------------------
 1. crude pre-optimization
 -------------------------
 Optimizing all 60 structures from file "crest_rotamers_0.xyz" ...
 1 2 3 4 5 6 7 8 9 10 11 12 13 14 15 16 17 18 19 20 21 22 23 24 25 26 27 28 29 30 31 32 33 34 35 36 37 38 39 40 41 42 43 44 45 46 47 48 49 50 51 52 53 54 55 56 57 58 59 60
 done.
 running RMSDs...
 done.
 E lowest :  -123.99379
 53 structures remain within    12.00 kcal/mol window
 
 -------------------------------------
 2. optimization with tight thresholds
 -------------------------------------
 Optimizing all 54 structures from file "crest_rotamers_1.xyz" ...
 1 2 3 4 5 6 7 8 9 10 11 12 13 14 15 16 17 18 19 20 21 22 23 24 25 26 27 28 29 30 31 32 33 34 35 36 37 38 39 40 41 42 43 44 45 46 47 48 49 50 51 52 53 54
 done.
 running RMSDs...
 done.
 E lowest :  -123.99451
 37 structures remain within     6.00 kcal/mol window
 
========================================
            MTD Iterations done         
========================================
 Collecting ensmbles.
 running RMSDs...
 done.
 E lowest :  -123.99451
 111 structures remain within     6.00 kcal/mol window
 
 -------------------------------
 Additional orientation sampling
 -------------------------------
 Optimizing all 134 structures from file "oh_ensemble.xyz" ...
 1 2 3 4 5 6 7 8 9 10 11 12 13 14 15 16 17 18 19 20 21 22 23 24 25 26 27 28 29 30 31 32 33 34 35 36 37 38 39 40 41 42 43 44 45 46 47 48 49 50 51 52 53 54 55 56 57 58 59 60 61 62 63 64 65 66 67 68 69 70 71 72 73 74 75 76 77 78 79 80 81 82 83 84 85 86 87 88 89 90 91 92 93 94 95 96 97 98 99 100 101 102 103 104 105 106 107 108 109 110 111 112 113 114 115 116 117 118 119 120 121 122 123 124 125 126 127 128 129 130 131 132 133 134
 done.
 running RMSDs...
 done.
 E lowest :  -123.99552
 232 structures remain within     6.00 kcal/mol window
 
-----------------------------------------------
Additional regular MDs on lowest 4 conformer(s)
-----------------------------------------------
Starting MD   1 with the settings:
     MD time /ps        :     0.2
     MD Temperature /K  :   400.0
     dt /fs             :     1.5
     dumpstep(trj) /fs  :     100
Starting MD   2 with the settings:
     MD time /ps        :     0.2
     MD Temperature /K  :   500.0
     dt /fs             :     1.5
     dumpstep(trj) /fs  :     100
Starting MD   3 with the settings:
     MD time /ps        :     0.2
     MD Temperature /K  :   400.0
     dt /fs             :     1.5
     dumpstep(trj) /fs  :     100
Starting MD   4 with the settings:
     MD time /ps        :     0.2
     MD Temperature /K  :   500.0
     dt /fs             :     1.5
     dumpstep(trj) /fs  :     100
Starting MD   5 with the settings:
     MD time /ps        :     0.2
     MD Temperature /K  :   400.0
     dt /fs             :     1.5
     dumpstep(trj) /fs  :     100
Starting MD   8 with the settings:
     MD time /ps        :     0.2
     MD Temperature /K  :   500.0
     dt /fs             :     1.5
     dumpstep(trj) /fs  :     100
Starting MD   6 with the settings:
     MD time /ps        :     0.2
     MD Temperature /K  :   500.0
     dt /fs             :     1.5
     dumpstep(trj) /fs  :     100
Starting MD   7 with the settings:
     MD time /ps        :     0.2
     MD Temperature /K  :   400.0
     dt /fs             :     1.5
     dumpstep(trj) /fs  :     100
*MD 7 finished*
*MD 6 finished*
*MD 1 finished*
*MD 5 finished*
*MD 2 finished*
*MD 3 finished*
*MD 8 finished*
*MD 4 finished*
 Appending file crest_rotamers_2.xyz with new structures
 
 -------------------------------------------
 Ensemble optimization with tight thresholds
 -------------------------------------------
 Optimizing all 248 structures from file "crest_rotamers_2.xyz" ...
 1 2 3 4 5 6 7 8 9 10 11 12 13 14 15 16 17 18 19 20 21 22 23 24 25 26 27 28 29 30 31 32 33 34 35 36 37 38 39 40 41 42 43 44 45 46 47 48 49 50 51 52 53 54 55 56 57 58 59 60 61 62 63 64 65 66 67 68 69 70 71 72 73 74 75 76 77 78 79 80 81 82 83 84 85 86 87 88 89 90 91 92 93 94 95 96 97 98 99 100 101 102 103 104 105 106 107 108 109 110 111 112 113 114 115 116 117 118 119 120 121 122 123 124 125 126 127 128 129 130 131 132 133 134 135 136 137 138 139 140 141 142 143 144 145 146 147 148 149 150 151 152 153 154 155 156 157 158 159 160 161 162 163 164 165 166 167 168 169 170 171 172 173 174 175 176 177 178 179 180 181 182 183 184 185 186 187 188 189 190 191 192 193 194 195 196 197 198 199 200 201 202 203 204 205 206 207 208 209 210 211 212 213 214 215 216 217 218 219 220 221 222 223 224 225 226 227 228 229 230 231 232 233 234 235 236 237 238 239 240 241 242 243 244 245 246 247 248
 done.
 running RMSDs...
 done.
 E lowest :  -123.99559
 239 structures remain within     6.00 kcal/mol window
 
 ...............................................
 A new lower conformer was found!
 Improved by    0.00109 Eh or    0.68703kcal/mol
 ...............................................
 
*******************************************************************************************
**                        N E W    I T E R A T I O N    C Y C L E                        **
*******************************************************************************************
 
========================================
            MTD Iteration  1
========================================
 
     ========================================
     |         Meta-MD (MTD) Sampling       |
     ========================================
 
Starting Meta-MD   1 with the settings:
     MD time /ps        :     0.5
     dt /fs             :     1.5
     dumpstep(trj) /fs  :     100
     dumpstep(Vbias)/ps :     1.0
     Vbias factor k /Eh :  0.2460
     Vbias exp α /bohr⁻²:    1.30
Starting Meta-MD   2 with the settings:
     MD time /ps        :     0.5
     dt /fs             :     1.5
     dumpstep(trj) /fs  :     100
     dumpstep(Vbias)/ps :     1.0
     Vbias factor k /Eh :  0.1230
     Vbias exp α /bohr⁻²:    1.30
Starting Meta-MD   4 with the settings:
     MD time /ps        :     0.5
     dt /fs             :     1.5
     dumpstep(trj) /fs  :     100
     dumpstep(Vbias)/ps :     1.0
     Vbias factor k /Eh :  0.2460
     Vbias exp α /bohr⁻²:    0.78
Starting Meta-MD   3 with the settings:
     MD time /ps        :     0.5
     dt /fs             :     1.5
     dumpstep(trj) /fs  :     100
     dumpstep(Vbias)/ps :     1.0
     Vbias factor k /Eh :  0.0615
     Vbias exp α /bohr⁻²:    1.30
Starting Meta-MD   5 with the settings:
     MD time /ps        :     0.5
     dt /fs             :     1.5
     dumpstep(trj) /fs  :     100
     dumpstep(Vbias)/ps :     1.0
     Vbias factor k /Eh :  0.1230
     Vbias exp α /bohr⁻²:    0.78
Starting Meta-MD   6 with the settings:
     MD time /ps        :     0.5
     dt /fs             :     1.5
     dumpstep(trj) /fs  :     100
     dumpstep(Vbias)/ps :     1.0
     Vbias factor k /Eh :  0.0615
     Vbias exp α /bohr⁻²:    0.78
Starting Meta-MD   7 with the settings:
     MD time /ps        :     0.5
     dt /fs             :     1.5
     dumpstep(trj) /fs  :     100
     dumpstep(Vbias)/ps :     1.0
     Vbias factor k /Eh :  0.2460
     Vbias exp α /bohr⁻²:    0.47
Starting Meta-MD   8 with the settings:
     MD time /ps        :     0.5
     dt /fs             :     1.5
     dumpstep(trj) /fs  :     100
     dumpstep(Vbias)/ps :     1.0
     Vbias factor k /Eh :  0.1230
     Vbias exp α /bohr⁻²:    0.47
Starting Meta-MD   9 with the settings:
     MD time /ps        :     0.5
     dt /fs             :     1.5
     dumpstep(trj) /fs  :     100
     dumpstep(Vbias)/ps :     1.0
     Vbias factor k /Eh :  0.0615
     Vbias exp α /bohr⁻²:    0.47
Starting Meta-MD  10 with the settings:
     MD time /ps        :     0.5
     dt /fs             :     1.5
     dumpstep(trj) /fs  :     100
     dumpstep(Vbias)/ps :     1.0
     Vbias factor k /Eh :  0.2460
     Vbias exp α /bohr⁻²:    0.28
Starting Meta-MD  12 with the settings:
     MD time /ps        :     0.5
     dt /fs             :     1.5
     dumpstep(trj) /fs  :     100
     dumpstep(Vbias)/ps :     1.0
     Vbias factor k /Eh :  0.0615
     Vbias exp α /bohr⁻²:    0.28
Starting Meta-MD  11 with the settings:
     MD time /ps        :     0.5
     dt /fs             :     1.5
     dumpstep(trj) /fs  :     100
     dumpstep(Vbias)/ps :     1.0
     Vbias factor k /Eh :  0.1230
     Vbias exp α /bohr⁻²:    0.28
*Meta-MTD 4 finished*
*Meta-MTD 11 finished*
*Meta-MTD 9 finished*
*Meta-MTD 5 finished*
*Meta-MTD 2 finished*
*Meta-MTD 6 finished*
*Meta-MTD 1 finished*
*Meta-MTD 3 finished*
*Meta-MTD 8 finished*
*Meta-MTD 7 finished*
*Meta-MTD 12 finished*
*Meta-MTD 10 finished*
 
-----------------------
Multilevel Optimization
-----------------------
 
 -------------------------
 1. crude pre-optimization
 -------------------------
 Optimizing all 60 structures from file "crest_rotamers_0.xyz" ...
 1 2 3 4 5 6 7 8 9 10 11 12 13 14 15 16 17 18 19 20 21 22 23 24 25 26 27 28 29 30 31 32 33 34 35 36 37 38 39 40 41 42 43 44 45 46 47 48 49 50 51 52 53 54 55 56 57 58 59 60
 done.
 running RMSDs...
 done.
 E lowest :  -123.99502
 54 structures remain within    12.00 kcal/mol window
 
 -------------------------------------
 2. optimization with tight thresholds
 -------------------------------------
 Optimizing all 55 structures from file "crest_rotamers_1.xyz" ...
 1 2 3 4 5 6 7 8 9 10 11 12 13 14 15 16 17 18 19 20 21 22 23 24 25 26 27 28 29 30 31 32 33 34 35 36 37 38 39 40 41 42 43 44 45 46 47 48 49 50 51 52 53 54 55
 done.
 running RMSDs...
 done.
 E lowest :  -123.99561
 45 structures remain within     6.00 kcal/mol window
 
========================================
            MTD Iterations done         
========================================
 Collecting ensmbles.
 running RMSDs...
 done.
 E lowest :  -123.99561
 45 structures remain within     6.00 kcal/mol window
 
 -------------------------------
 Additional orientation sampling
 -------------------------------
 Optimizing all 68 structures from file "oh_ensemble.xyz" ...
 1 2 3 4 5 6 7 8 9 10 11 12 13 14 15 16 17 18 19 20 21 22 23 24 25 26 27 28 29 30 31 32 33 34 35 36 37 38 39 40 41 42 43 44 45 46 47 48 49 50 51 52 53 54 55 56 57 58 59 60 61 62 63 64 65 66 67 68
 done.
 running RMSDs...
 done.
 E lowest :  -123.99561
 95 structures remain within     6.00 kcal/mol window
 
-----------------------------------------------
Additional regular MDs on lowest 4 conformer(s)
-----------------------------------------------
Starting MD   1 with the settings:
     MD time /ps        :     0.2
     MD Temperature /K  :   400.0
     dt /fs             :     1.5
     dumpstep(trj) /fs  :     100
Starting MD   2 with the settings:
     MD time /ps        :     0.2
     MD Temperature /K  :   500.0
     dt /fs             :     1.5
     dumpstep(trj) /fs  :     100
Starting MD   3 with the settings:
     MD time /ps        :     0.2
     MD Temperature /K  :   400.0
     dt /fs             :     1.5
     dumpstep(trj) /fs  :     100
Starting MD   4 with the settings:
     MD time /ps        :     0.2
     MD Temperature /K  :   500.0
     dt /fs             :     1.5
     dumpstep(trj) /fs  :     100
Starting MD   5 with the settings:
     MD time /ps        :     0.2
     MD Temperature /K  :   400.0
     dt /fs             :     1.5
     dumpstep(trj) /fs  :     100
Starting MD   6 with the settings:
     MD time /ps        :     0.2
     MD Temperature /K  :   500.0
     dt /fs             :     1.5
     dumpstep(trj) /fs  :     100
Starting MD   7 with the settings:
     MD time /ps        :     0.2
     MD Temperature /K  :   400.0
     dt /fs             :     1.5
     dumpstep(trj) /fs  :     100
Starting MD   8 with the settings:
     MD time /ps        :     0.2
     MD Temperature /K  :   500.0
     dt /fs             :     1.5
     dumpstep(trj) /fs  :     100
*MD 8 finished*
*MD 5 finished*
*MD 4 finished*
*MD 6 finished*
*MD 3 finished*
*MD 7 finished*
*MD 2 finished*
*MD 1 finished*
 Appending file crest_rotamers_2.xyz with new structures
 
 -------------------------------------------
 Ensemble optimization with tight thresholds
 -------------------------------------------
 Optimizing all 111 structures from file "crest_rotamers_2.xyz" ...
 1 2 3 4 5 6 7 8 9 10 11 12 13 14 15 16 17 18 19 20 21 22 23 24 25 26 27 28 29 30 31 32 33 34 35 36 37 38 39 40 41 42 43 44 45 46 47 48 49 50 51 52 53 54 55 56 57 58 59 60 61 62 63 64 65 66 67 68 69 70 71 72 73 74 75 76 77 78 79 80 81 82 83 84 85 86 87 88 89 90 91 92 93 94 95 96 97 98 99 100 101 102 103 104 105 106 107 108 109 110 111
 done.
 running RMSDs...
 done.
 E lowest :  -123.99562
 95 structures remain within     6.00 kcal/mol window
 
 
     ========================================
     |        Structure Crossing (GC)       |
     ========================================
 =============================
  # threads =          28
 =============================
 input  file name : crest_rotamers_4.xyz
number of atoms                :    82
number of points on xyz files  :    95
conformer energy window  /kcal :    6.00
CN per atom difference cut-off :  0.3000
RMSD threshold                 :  0.5000
max. # of generated structures : 25
 reading xyz file ...
 # in E window                 95
 generating pairs ...        4559
 generated pairs           :        3535
 number of clash discarded :         930
 average rmsd w.r.t input  : 2.65071
 sd of ensemble            : 0.79566
 number of new structures      :           1
 removed identical structures  :          49
 writing            1  TMPCONF* dirs ...
 --------------------------
 GC: loose pre-optimization
 --------------------------
 Starting optimization of generated structures
 1 jobs to do.
 1 
 done.
 Now appending opt.xyz file with new structures
 running RMSDs...
 done.
 E lowest :  -123.99408
 1 structures remain within    10.00 kcal/mol window
 --------------------------------------
 GC: optimization with tight thresholds
 --------------------------------------
 Optimizing all 1 structures from file "crest_rotamers_1.xyz" ...
 1
 done.
 running RMSDs...
 done.
 E lowest :  -123.99562
 
 
   ================================================
   |           Final Geometry Optimization        |
   ================================================
 ------------------------------------------------
 Ensemble optimization with very tight thresholds
 ------------------------------------------------
 Optimizing all 96 structures from file "crest_rotamers_5.xyz" ...
 1 2 3 4 5 6 7 8 9 10 11 12 13 14 15 16 17 18 19 20 21 22 23 24 25 26 27 28 29 30 31 32 33 34 35 36 37 38 39 40 41 42 43 44 45 46 47 48 49 50 51 52 53 54 55 56 57 58 59 60 61 62 63 64 65 66 67 68 69 70 71 72 73 74 75 76 77 78 79 80 81 82 83 84 85 86 87 88 89 90 91 92 93 94 95 96
 done.
 running RMSDs...
 done.
 E lowest :  -123.99562
 96 structures remain within     6.00 kcal/mol window
 
 input  file name : crest_rotamers_6.xyz
 output file name : crest_rotamers_7.xyz
 number of atoms                :   82
 number of points on xyz files  :   96
 RMSD threshold                 :   0.2500
 Bconst threshold               :   0.0100
 population threshold           :   0.0500
 conformer energy window  /kcal :   6.0000
 # fragment in coord            :     1
 # bonds in reference structure :    89
   => # of C=C bonds :    16
 number of reliable points      :    96
 reference state Etot :  -123.995621770000
 number of doubles removed by rot/RMSD         :           0
 total number unique points considered further :          96
       Erel/kcal        Etot weight/tot  conformer     set   degen     origin
       1   0.000  -123.99562    0.02215    0.06474       1       3     md4
       2   0.021  -123.99559    0.02138                                md3
       3   0.026  -123.99558    0.02121                                mtd12
       4   0.001  -123.99562    0.02209    0.06331       2       3     md1
       5   0.042  -123.99555    0.02063                                hor
       6   0.043  -123.99555    0.02058                                mtd10
       7   0.022  -123.99559    0.02132    0.04319       3       2     mtd6
       8   0.008  -123.99561    0.02186                                md2
       9   0.043  -123.99555    0.02060    0.04092       4       2     mtd5
      10   0.051  -123.99554    0.02032                                mtd4
      11   0.024  -123.99558    0.02127    0.04190       5       2     mtd3
      12   0.042  -123.99555    0.02063                                mtd11
      13   0.051  -123.99554    0.02032    0.02032       6       1     mtd10
      14   0.063  -123.99552    0.01991    0.05921       7       3     mtd9
      15   0.077  -123.99550    0.01945                                mtd3
      16   0.065  -123.99552    0.01985                                mtd12
      17   0.066  -123.99552    0.01980    0.01980       8       1     mtd8
      18   0.098  -123.99547    0.01879    0.03745       9       2     mtd3
      19   0.101  -123.99546    0.01867                                mtd1
      20   0.116  -123.99544    0.01821    0.01821      10       1     mtd12
      21   0.125  -123.99542    0.01794    0.01794      11       1     mtd11
      22   0.100  -123.99546    0.01869    0.01869      12       1     mtd3
      23   0.127  -123.99542    0.01787    0.01787      13       1     mtd6
      24   0.139  -123.99540    0.01753    0.01753      14       1     mtd11
      25   0.156  -123.99537    0.01702    0.01702      15       1     mtd4
      26   0.168  -123.99535    0.01668    0.01668      16       1     mtd1
      27   0.185  -123.99533    0.01621    0.01621      17       1     mtd2
      28   0.193  -123.99531    0.01599    0.01599      18       1     mtd5
      29   0.203  -123.99530    0.01571    0.01571      19       1     mtd4
      30   0.207  -123.99529    0.01563    0.01563      20       1     mtd4
      31   0.220  -123.99527    0.01528    0.01528      21       1     mtd8
      32   0.235  -123.99525    0.01490    0.01490      22       1     mtd1
      33   0.316  -123.99512    0.01299    0.01299      23       1     mtd5
      34   0.321  -123.99511    0.01289    0.01289      24       1     mtd9
      35   0.323  -123.99511    0.01285    0.02529      25       2     mtd5
      36   0.342  -123.99508    0.01244                                mtd9
      37   0.350  -123.99506    0.01228    0.01228      26       1     mtd2
      38   0.374  -123.99503    0.01179    0.02335      27       2     mtd8
      39   0.385  -123.99501    0.01157                                mtd9
      40   0.377  -123.99502    0.01173    0.01173      28       1     mtd7
      41   0.435  -123.99493    0.01063    0.02081      29       2     mtd8
      42   0.461  -123.99489    0.01018                                mtd2
      43   0.438  -123.99492    0.01057    0.01057      30       1     mtd7
      44   0.668  -123.99456    0.00718    0.00718      31       1     mtd7
      45   0.732  -123.99445    0.00644    0.00644      32       1     mtd7
      46   0.763  -123.99441    0.00612    0.00612      33       1     hor
      47   0.767  -123.99440    0.00608    0.01215      34       2     hor
      48   0.767  -123.99440    0.00607                                hor
      49   0.802  -123.99434    0.00573    0.01139      35       2     hor
      50   0.809  -123.99433    0.00566                                hor
      51   0.810  -123.99433    0.00565    0.01691      36       3     hor
      52   0.807  -123.99434    0.00568                                gc
      53   0.818  -123.99432    0.00558                                hor
      54   0.816  -123.99432    0.00560    0.00560      37       1     hor
      55   0.823  -123.99431    0.00553    0.01095      38       2     hor
      56   0.834  -123.99429    0.00542                                hor
      57   0.849  -123.99427    0.00529    0.01583      39       3     mtd10
      58   0.849  -123.99427    0.00529                                hor
      59   0.854  -123.99426    0.00525                                hor
      60   0.831  -123.99430    0.00545    0.00545      40       1     hor
      61   0.836  -123.99429    0.00541    0.01065      41       2     hor
      62   0.855  -123.99426    0.00524                                hor
      63   0.851  -123.99427    0.00527    0.00527      42       1     hor
      64   0.838  -123.99429    0.00539    0.00539      43       1     hor
      65   0.861  -123.99425    0.00518    0.00518      44       1     hor
      66   0.862  -123.99425    0.00517    0.00517      45       1     hor
      67   0.867  -123.99424    0.00513    0.00513      46       1     hor
      68   0.874  -123.99423    0.00508    0.00508      47       1     hor
      69   0.884  -123.99421    0.00498    0.00992      48       2     hor
      70   0.890  -123.99420    0.00494                                hor
      71   0.897  -123.99419    0.00488    0.00976      49       2     hor
      72   0.897  -123.99419    0.00488                                hor
      73   0.889  -123.99421    0.00495    0.00495      50       1     hor
      74   0.910  -123.99417    0.00477    0.00477      51       1     hor
      75   0.917  -123.99416    0.00471    0.00936      52       2     hor
      76   0.926  -123.99415    0.00465                                hor
      77   0.937  -123.99413    0.00456    0.00456      53       1     hor
      78   0.893  -123.99420    0.00491    0.00491      54       1     hor
      79   0.938  -123.99413    0.00455    0.00455      55       1     hor
      80   0.946  -123.99411    0.00450    0.00450      56       1     hor
      81   0.910  -123.99417    0.00477    0.00477      57       1     hor
      82   0.951  -123.99411    0.00446    0.00879      58       2     hor
      83   0.967  -123.99408    0.00434                                hor
      84   0.980  -123.99406    0.00424    0.01275      59       3     hor
      85   0.994  -123.99404    0.00414                                hor
      86   0.963  -123.99409    0.00437                                hor
      87   1.002  -123.99402    0.00409    0.00813      60       2     hor
      88   1.008  -123.99402    0.00404                                hor
      89   1.016  -123.99400    0.00399    0.00399      61       1     hor
      90   0.967  -123.99408    0.00433    0.00433      62       1     hor
      91   0.973  -123.99407    0.00429    0.00846      63       2     hor
      92   0.989  -123.99404    0.00417                                hor
      93   1.023  -123.99399    0.00395    0.00771      64       2     hor
      94   1.050  -123.99395    0.00377                                hor
      95   1.049  -123.99395    0.00378    0.00378      65       1     hor
      96   1.528  -123.99319    0.00168    0.00168      66       1     hor
T /K                                  :   298.15
E lowest                              :  -123.99562
ensemble average energy (kcal)        :    0.331
ensemble entropy (J/mol K, cal/mol K) :   36.324    8.682
ensemble free energy (kcal/mol)       :   -2.588
population of lowest in %             :    6.474
 number of unique conformers for further calc           66
 list of relative energies saved as "crest.energies"
 
 -----------------
 Wall Time Summary
 -----------------
             test MD wall time :         0h : 0m :52s
                 MTD wall time :         0h : 3m :13s
      multilevel OPT wall time :         0h : 4m :25s
                  MD wall time :         0h : 1m :18s
                  GC wall time :         0h : 0m : 2s
--------------------
Overall wall time  : 0h :10m : 1s
 
 CREST terminated normally.
