 Entering Gaussian System, Link 0=g16
 Initial command:
 /public/apps/g16-C01//g16/l1.exe "/public/home/ljq/tmp/Gau-53180.inp" -scrdir="/public/home/ljq/tmp/"
 Entering Link 1 = /public/apps/g16-C01//g16/l1.exe PID=     53181.
  
 Copyright (c) 1988-2019, Gaussian, Inc.  All Rights Reserved.
  
 This is part of the Gaussian(R) 16 program.  It is based on
 the Gaussian(R) 09 system (copyright 2009, Gaussian, Inc.),
 the Gaussian(R) 03 system (copyright 2003, Gaussian, Inc.),
 the Gaussian(R) 98 system (copyright 1998, Gaussian, Inc.),
 the Gaussian(R) 94 system (copyright 1995, Gaussian, Inc.),
 the Gaussian 92(TM) system (copyright 1992, Gaussian, Inc.),
 the Gaussian 90(TM) system (copyright 1990, Gaussian, Inc.),
 the Gaussian 88(TM) system (copyright 1988, Gaussian, Inc.),
 the Gaussian 86(TM) system (copyright 1986, Carnegie Mellon
 University), and the Gaussian 82(TM) system (copyright 1983,
 Carnegie Mellon University). Gaussian is a federally registered
 trademark of Gaussian, Inc.
  
 This software contains proprietary and confidential information,
 including trade secrets, belonging to Gaussian, Inc.
  
 This software is provided under written license and may be
 used, copied, transmitted, or stored only in accord with that
 written license.
  
 The following legend is applicable only to US Government
 contracts under FAR:
  
                    RESTRICTED RIGHTS LEGEND
  
 Use, reproduction and disclosure by the US Government is
 subject to restrictions as set forth in subparagraphs (a)
 and (c) of the Commercial Computer Software - Restricted
 Rights clause in FAR 52.227-19.
  
 Gaussian, Inc.
 340 Quinnipiac St., Bldg. 40, Wallingford CT 06492
  
  
 ---------------------------------------------------------------
 Warning -- This program may not be used in any manner that
 competes with the business of Gaussian, Inc. or will provide
 assistance to any competitor of Gaussian, Inc.  The licensee
 of this program is prohibited from giving any competitor of
 Gaussian, Inc. access to this program.  By using this program,
 the user acknowledges that Gaussian, Inc. is engaged in the
 business of creating and licensing software in the field of
 computational chemistry and represents and warrants to the
 licensee that it is not a competitor of Gaussian, Inc. and that
 it will not use this program in any manner prohibited above.
 ---------------------------------------------------------------
  

 Cite this work as:
 Gaussian 16, Revision C.01,
 M. J. Frisch, G. W. Trucks, H. B. Schlegel, G. E. Scuseria, 
 M. A. Robb, J. R. Cheeseman, G. Scalmani, V. Barone, 
 G. A. Petersson, H. Nakatsuji, X. Li, M. Caricato, A. V. Marenich, 
 J. Bloino, B. G. Janesko, R. Gomperts, B. Mennucci, H. P. Hratchian, 
 J. V. Ortiz, A. F. Izmaylov, J. L. Sonnenberg, D. Williams-Young, 
 F. Ding, F. Lipparini, F. Egidi, J. Goings, B. Peng, A. Petrone, 
 T. Henderson, D. Ranasinghe, V. G. Zakrzewski, J. Gao, N. Rega, 
 G. Zheng, W. Liang, M. Hada, M. Ehara, K. Toyota, R. Fukuda, 
 J. Hasegawa, M. Ishida, T. Nakajima, Y. Honda, O. Kitao, H. Nakai, 
 T. Vreven, K. Throssell, J. A. Montgomery, Jr., J. E. Peralta, 
 F. Ogliaro, M. J. Bearpark, J. J. Heyd, E. N. Brothers, K. N. Kudin, 
 V. N. Staroverov, T. A. Keith, R. Kobayashi, J. Normand, 
 K. Raghavachari, A. P. Rendell, J. C. Burant, S. S. Iyengar, 
 J. Tomasi, M. Cossi, J. M. Millam, M. Klene, C. Adamo, R. Cammi, 
 J. W. Ochterski, R. L. Martin, K. Morokuma, O. Farkas, 
 J. B. Foresman, and D. J. Fox, Gaussian, Inc., Wallingford CT, 2019.
 
 ******************************************
 Gaussian 16:  ES64L-G16RevC.01  3-Jul-2019
                24-Feb-2024 
 ******************************************
 %nproc=40
 Will use up to   40 processors via shared memory.
 %mem=56GB
 ------------------------------------------
 #p opt freq b3lyp/def2svpp em=gd3bj nosymm
 ------------------------------------------
 1/18=20,19=15,26=3,38=1/1,3;
 2/9=110,12=2,15=1,17=6,18=5,40=1/2;
 3/5=43,7=202,11=2,25=1,30=1,71=1,74=-5,124=41/1,2,3;
 4//1;
 5/5=2,38=5/2;
 6/7=2,8=2,9=2,10=2,28=1/1;
 7/30=1/1,2,3,16;
 1/18=20,19=15,26=3/3(2);
 2/9=110,15=1/2;
 99//99;
 2/9=110,15=1/2;
 3/5=43,7=202,11=2,25=1,30=1,71=1,74=-5,124=41/1,2,3;
 4/5=5,16=3,69=1/1;
 5/5=2,38=5/2;
 7/30=1/1,2,3,16;
 1/18=20,19=15,26=3/3(-5);
 2/9=110,15=1/2;
 6/7=2,8=2,9=2,10=2,19=2,28=1/1;
 99/9=1/99;
 Leave Link    1 at Sat Feb 24 22:37:18 2024, MaxMem=  7516192768 cpu:               1.5 elap:               0.2
 (Enter /public/apps/g16-C01//g16/l101.exe)
 ----------------------
 $$$$Singlemol####0????
 ----------------------
 Symbolic Z-matrix:
 Charge =  0 Multiplicity = 1
 O                    -0.39387   4.15031  -0.75888 
 C                    -1.18062   3.11592  -0.33956 
 C                    -2.44431   3.35288   0.22806 
 C                    -3.22705   2.3123    0.64164 
 C                    -2.78874   0.98082   0.50313 
 C                    -3.59094  -0.10115   0.92191 
 C                    -3.15211  -1.39156   0.7709 
 O                    -3.83418  -2.51228   1.13863 
 C                    -5.08676  -2.3632    1.76798 
 C                    -6.16675  -1.79055   0.88094 
 C                    -7.24222  -1.11332   1.44154 
 C                    -8.24173  -0.6       0.63488 
 C                    -8.17165  -0.75224  -0.73981 
 C                    -7.10183  -1.42583  -1.30329 
 C                    -6.106    -1.94722  -0.49675 
 C                    -1.88713  -1.63452   0.18675 
 C                    -1.0952   -0.60517  -0.22095 
 C                    -1.51545   0.73598  -0.07153 
 C                    -0.70851   1.82324  -0.48494 
 C                     0.63577   1.59579  -1.07099 
 C                     0.83379   1.76692  -2.42663 
 O                    -0.17054   2.12074  -3.27367 
 C                     2.10252   1.54971  -2.99484 
 C                     3.15573   1.17625  -2.21317 
 C                     2.99919   1.00313  -0.8225 
 C                     4.08471   0.62531  -0.00544 
 C                     3.91731   0.46314   1.34586 
 O                     4.89191   0.10558   2.23326 
 C                     6.20454  -0.07135   1.75311 
 C                     6.38037  -1.25791   0.8352 
 C                     7.41557  -1.2745   -0.09085 
 C                     7.59118  -2.36521  -0.92304 
 C                     6.7294   -3.44625  -0.84239 
 C                     5.69589  -3.43421   0.0781 
 C                     5.52458  -2.34739   0.91682 
 C                     2.64485   0.67833   1.92059 
 C                     1.58304   1.04419   1.14973 
 C                     1.72184   1.21587  -0.24549 
 H                    -0.8207    4.98953  -0.55174 
 H                    -2.78504   4.37464   0.33737 
 H                    -4.19598   2.50214   1.07957 
 H                    -4.55676   0.12358   1.347 
 H                    -4.98702  -1.75857   2.68084 
 H                    -5.36284  -3.38231   2.06402 
 H                    -7.29493  -0.98858   2.51435 
 H                    -9.07471  -0.07592   1.08011 
 H                    -8.94939  -0.34603  -1.36931 
 H                    -7.04213  -1.54794  -2.37466 
 H                    -5.2712   -2.47468  -0.93419 
 H                    -1.57512  -2.66131   0.07722 
 H                    -0.1315   -0.80251  -0.66525 
 H                    -0.97304   2.28116  -2.76025 
 H                     2.20656   1.68811  -4.05952 
 H                     4.12816   1.00903  -2.65311 
 H                     5.03889   0.46114  -0.4818 
 H                     6.80539  -0.22186   2.65826 
 H                     6.5584    0.8445    1.25806 
 H                     8.08506  -0.42811  -0.15929 
 H                     8.39941  -2.36906  -1.63968 
 H                     6.86355  -4.29487  -1.4967 
 H                     5.02067  -4.27446   0.14532 
 H                     4.71941  -2.33595   1.63654 
 H                     2.54671   0.54616   2.98695 
 H                     0.61774   1.20863   1.6047 
 
 ITRead=  0  0  0  0  0  0  0  0  0  0  0  0  0  0  0  0  0  0  0  0
 ITRead=  0  0  0  0  0  0  0  0  0  0  0  0  0  0  0  0  0  0  0  0
 ITRead=  0  0  0  0  0  0  0  0  0  0  0  0  0  0  0  0  0  0  0  0
 ITRead=  0  0  0  0
 MicOpt= -1 -1 -1 -1 -1 -1 -1 -1 -1 -1 -1 -1 -1 -1 -1 -1 -1 -1 -1 -1
 MicOpt= -1 -1 -1 -1 -1 -1 -1 -1 -1 -1 -1 -1 -1 -1 -1 -1 -1 -1 -1 -1
 MicOpt= -1 -1 -1 -1 -1 -1 -1 -1 -1 -1 -1 -1 -1 -1 -1 -1 -1 -1 -1 -1
 MicOpt= -1 -1 -1 -1
 NAtoms=     64 NQM=       64 NQMF=       0 NMMI=      0 NMMIF=      0
                NMic=       0 NMicF=      0.
                    Isotopes and Nuclear Properties:
 (Nuclear quadrupole moments (NQMom) in fm**2, nuclear magnetic moments (NMagM)
  in nuclear magnetons)

  Atom         1           2           3           4           5           6           7           8           9          10
 IAtWgt=          16          12          12          12          12          12          12          16          12          12
 AtmWgt=  15.9949146  12.0000000  12.0000000  12.0000000  12.0000000  12.0000000  12.0000000  15.9949146  12.0000000  12.0000000
 NucSpn=           0           0           0           0           0           0           0           0           0           0
 AtZEff=  -0.0000000  -0.0000000  -0.0000000  -0.0000000  -0.0000000  -0.0000000  -0.0000000  -0.0000000  -0.0000000  -0.0000000
 NQMom=    0.0000000   0.0000000   0.0000000   0.0000000   0.0000000   0.0000000   0.0000000   0.0000000   0.0000000   0.0000000
 NMagM=    0.0000000   0.0000000   0.0000000   0.0000000   0.0000000   0.0000000   0.0000000   0.0000000   0.0000000   0.0000000
 AtZNuc=   8.0000000   6.0000000   6.0000000   6.0000000   6.0000000   6.0000000   6.0000000   8.0000000   6.0000000   6.0000000

  Atom        11          12          13          14          15          16          17          18          19          20
 IAtWgt=          12          12          12          12          12          12          12          12          12          12
 AtmWgt=  12.0000000  12.0000000  12.0000000  12.0000000  12.0000000  12.0000000  12.0000000  12.0000000  12.0000000  12.0000000
 NucSpn=           0           0           0           0           0           0           0           0           0           0
 AtZEff=  -0.0000000  -0.0000000  -0.0000000  -0.0000000  -0.0000000  -0.0000000  -0.0000000  -0.0000000  -0.0000000  -0.0000000
 NQMom=    0.0000000   0.0000000   0.0000000   0.0000000   0.0000000   0.0000000   0.0000000   0.0000000   0.0000000   0.0000000
 NMagM=    0.0000000   0.0000000   0.0000000   0.0000000   0.0000000   0.0000000   0.0000000   0.0000000   0.0000000   0.0000000
 AtZNuc=   6.0000000   6.0000000   6.0000000   6.0000000   6.0000000   6.0000000   6.0000000   6.0000000   6.0000000   6.0000000

  Atom        21          22          23          24          25          26          27          28          29          30
 IAtWgt=          12          16          12          12          12          12          12          16          12          12
 AtmWgt=  12.0000000  15.9949146  12.0000000  12.0000000  12.0000000  12.0000000  12.0000000  15.9949146  12.0000000  12.0000000
 NucSpn=           0           0           0           0           0           0           0           0           0           0
 AtZEff=  -0.0000000  -0.0000000  -0.0000000  -0.0000000  -0.0000000  -0.0000000  -0.0000000  -0.0000000  -0.0000000  -0.0000000
 NQMom=    0.0000000   0.0000000   0.0000000   0.0000000   0.0000000   0.0000000   0.0000000   0.0000000   0.0000000   0.0000000
 NMagM=    0.0000000   0.0000000   0.0000000   0.0000000   0.0000000   0.0000000   0.0000000   0.0000000   0.0000000   0.0000000
 AtZNuc=   6.0000000   8.0000000   6.0000000   6.0000000   6.0000000   6.0000000   6.0000000   8.0000000   6.0000000   6.0000000

  Atom        31          32          33          34          35          36          37          38          39          40
 IAtWgt=          12          12          12          12          12          12          12          12           1           1
 AtmWgt=  12.0000000  12.0000000  12.0000000  12.0000000  12.0000000  12.0000000  12.0000000  12.0000000   1.0078250   1.0078250
 NucSpn=           0           0           0           0           0           0           0           0           1           1
 AtZEff=  -0.0000000  -0.0000000  -0.0000000  -0.0000000  -0.0000000  -0.0000000  -0.0000000  -0.0000000  -0.0000000  -0.0000000
 NQMom=    0.0000000   0.0000000   0.0000000   0.0000000   0.0000000   0.0000000   0.0000000   0.0000000   0.0000000   0.0000000
 NMagM=    0.0000000   0.0000000   0.0000000   0.0000000   0.0000000   0.0000000   0.0000000   0.0000000   2.7928460   2.7928460
 AtZNuc=   6.0000000   6.0000000   6.0000000   6.0000000   6.0000000   6.0000000   6.0000000   6.0000000   1.0000000   1.0000000

  Atom        41          42          43          44          45          46          47          48          49          50
 IAtWgt=           1           1           1           1           1           1           1           1           1           1
 AtmWgt=   1.0078250   1.0078250   1.0078250   1.0078250   1.0078250   1.0078250   1.0078250   1.0078250   1.0078250   1.0078250
 NucSpn=           1           1           1           1           1           1           1           1           1           1
 AtZEff=  -0.0000000  -0.0000000  -0.0000000  -0.0000000  -0.0000000  -0.0000000  -0.0000000  -0.0000000  -0.0000000  -0.0000000
 NQMom=    0.0000000   0.0000000   0.0000000   0.0000000   0.0000000   0.0000000   0.0000000   0.0000000   0.0000000   0.0000000
 NMagM=    2.7928460   2.7928460   2.7928460   2.7928460   2.7928460   2.7928460   2.7928460   2.7928460   2.7928460   2.7928460
 AtZNuc=   1.0000000   1.0000000   1.0000000   1.0000000   1.0000000   1.0000000   1.0000000   1.0000000   1.0000000   1.0000000

  Atom        51          52          53          54          55          56          57          58          59          60
 IAtWgt=           1           1           1           1           1           1           1           1           1           1
 AtmWgt=   1.0078250   1.0078250   1.0078250   1.0078250   1.0078250   1.0078250   1.0078250   1.0078250   1.0078250   1.0078250
 NucSpn=           1           1           1           1           1           1           1           1           1           1
 AtZEff=  -0.0000000  -0.0000000  -0.0000000  -0.0000000  -0.0000000  -0.0000000  -0.0000000  -0.0000000  -0.0000000  -0.0000000
 NQMom=    0.0000000   0.0000000   0.0000000   0.0000000   0.0000000   0.0000000   0.0000000   0.0000000   0.0000000   0.0000000
 NMagM=    2.7928460   2.7928460   2.7928460   2.7928460   2.7928460   2.7928460   2.7928460   2.7928460   2.7928460   2.7928460
 AtZNuc=   1.0000000   1.0000000   1.0000000   1.0000000   1.0000000   1.0000000   1.0000000   1.0000000   1.0000000   1.0000000

  Atom        61          62          63          64
 IAtWgt=           1           1           1           1
 AtmWgt=   1.0078250   1.0078250   1.0078250   1.0078250
 NucSpn=           1           1           1           1
 AtZEff=  -0.0000000  -0.0000000  -0.0000000  -0.0000000
 NQMom=    0.0000000   0.0000000   0.0000000   0.0000000
 NMagM=    2.7928460   2.7928460   2.7928460   2.7928460
 AtZNuc=   1.0000000   1.0000000   1.0000000   1.0000000
 Leave Link  101 at Sat Feb 24 22:37:20 2024, MaxMem=  7516192768 cpu:              19.8 elap:               1.5
 (Enter /public/apps/g16-C01//g16/l103.exe)

 GradGradGradGradGradGradGradGradGradGradGradGradGradGradGradGradGradGrad
 Berny optimization.
 Initialization pass.
                           ----------------------------
                           !    Initial Parameters    !
                           ! (Angstroms and Degrees)  !
 --------------------------                            --------------------------
 ! Name  Definition              Value          Derivative Info.                !
 --------------------------------------------------------------------------------
 ! R1    R(1,2)                  1.3656         estimate D2E/DX2                !
 ! R2    R(1,39)                 0.964          estimate D2E/DX2                !
 ! R3    R(2,3)                  1.4054         estimate D2E/DX2                !
 ! R4    R(2,19)                 1.3838         estimate D2E/DX2                !
 ! R5    R(3,4)                  1.3662         estimate D2E/DX2                !
 ! R6    R(3,40)                 1.0826         estimate D2E/DX2                !
 ! R7    R(4,5)                  1.4086         estimate D2E/DX2                !
 ! R8    R(4,41)                 1.0801         estimate D2E/DX2                !
 ! R9    R(5,6)                  1.4105         estimate D2E/DX2                !
 ! R10   R(5,18)                 1.4183         estimate D2E/DX2                !
 ! R11   R(6,7)                  1.3713         estimate D2E/DX2                !
 ! R12   R(6,42)                 1.0789         estimate D2E/DX2                !
 ! R13   R(7,8)                  1.3625         estimate D2E/DX2                !
 ! R14   R(7,16)                 1.4144         estimate D2E/DX2                !
 ! R15   R(8,9)                  1.4097         estimate D2E/DX2                !
 ! R16   R(9,10)                 1.5103         estimate D2E/DX2                !
 ! R17   R(9,43)                 1.0995         estimate D2E/DX2                !
 ! R18   R(9,44)                 1.0966         estimate D2E/DX2                !
 ! R19   R(10,11)                1.3891         estimate D2E/DX2                !
 ! R20   R(10,15)                1.3879         estimate D2E/DX2                !
 ! R21   R(11,12)                1.3832         estimate D2E/DX2                !
 ! R22   R(11,45)                1.0813         estimate D2E/DX2                !
 ! R23   R(12,13)                1.3849         estimate D2E/DX2                !
 ! R24   R(12,46)                1.0802         estimate D2E/DX2                !
 ! R25   R(13,14)                1.3841         estimate D2E/DX2                !
 ! R26   R(13,47)                1.0799         estimate D2E/DX2                !
 ! R27   R(14,15)                1.3835         estimate D2E/DX2                !
 ! R28   R(14,48)                1.08           estimate D2E/DX2                !
 ! R29   R(15,49)                1.08           estimate D2E/DX2                !
 ! R30   R(16,17)                1.3612         estimate D2E/DX2                !
 ! R31   R(16,50)                1.0787         estimate D2E/DX2                !
 ! R32   R(17,18)                1.4134         estimate D2E/DX2                !
 ! R33   R(17,51)                1.0794         estimate D2E/DX2                !
 ! R34   R(18,19)                1.4157         estimate D2E/DX2                !
 ! R35   R(19,20)                1.484          estimate D2E/DX2                !
 ! R36   R(20,21)                1.3807         estimate D2E/DX2                !
 ! R37   R(20,38)                1.4161         estimate D2E/DX2                !
 ! R38   R(21,22)                1.3606         estimate D2E/DX2                !
 ! R39   R(21,23)                1.407          estimate D2E/DX2                !
 ! R40   R(22,52)                0.9661         estimate D2E/DX2                !
 ! R41   R(23,24)                1.3637         estimate D2E/DX2                !
 ! R42   R(23,53)                1.0787         estimate D2E/DX2                !
 ! R43   R(24,25)                1.4101         estimate D2E/DX2                !
 ! R44   R(24,54)                1.0803         estimate D2E/DX2                !
 ! R45   R(25,26)                1.4102         estimate D2E/DX2                !
 ! R46   R(25,38)                1.4177         estimate D2E/DX2                !
 ! R47   R(26,27)                1.3712         estimate D2E/DX2                !
 ! R48   R(26,55)                1.079          estimate D2E/DX2                !
 ! R49   R(27,28)                1.3657         estimate D2E/DX2                !
 ! R50   R(27,36)                1.4127         estimate D2E/DX2                !
 ! R51   R(28,29)                1.4088         estimate D2E/DX2                !
 ! R52   R(29,30)                1.5104         estimate D2E/DX2                !
 ! R53   R(29,56)                1.0968         estimate D2E/DX2                !
 ! R54   R(29,57)                1.0996         estimate D2E/DX2                !
 ! R55   R(30,31)                1.3891         estimate D2E/DX2                !
 ! R56   R(30,35)                1.3878         estimate D2E/DX2                !
 ! R57   R(31,32)                1.3831         estimate D2E/DX2                !
 ! R58   R(31,58)                1.0813         estimate D2E/DX2                !
 ! R59   R(32,33)                1.3848         estimate D2E/DX2                !
 ! R60   R(32,59)                1.0802         estimate D2E/DX2                !
 ! R61   R(33,34)                1.3841         estimate D2E/DX2                !
 ! R62   R(33,60)                1.0799         estimate D2E/DX2                !
 ! R63   R(34,35)                1.3835         estimate D2E/DX2                !
 ! R64   R(34,61)                1.08           estimate D2E/DX2                !
 ! R65   R(35,62)                1.08           estimate D2E/DX2                !
 ! R66   R(36,37)                1.3622         estimate D2E/DX2                !
 ! R67   R(36,63)                1.079          estimate D2E/DX2                !
 ! R68   R(37,38)                1.4126         estimate D2E/DX2                !
 ! R69   R(37,64)                1.0797         estimate D2E/DX2                !
 ! A1    A(2,1,39)             109.776          estimate D2E/DX2                !
 ! A2    A(1,2,3)              120.9525         estimate D2E/DX2                !
 ! A3    A(1,2,19)             118.6048         estimate D2E/DX2                !
 ! A4    A(3,2,19)             120.4427         estimate D2E/DX2                !
 ! A5    A(2,3,4)              120.5964         estimate D2E/DX2                !
 ! A6    A(2,3,40)             118.8742         estimate D2E/DX2                !
 ! A7    A(4,3,40)             120.5285         estimate D2E/DX2                !
 ! A8    A(3,4,5)              120.7913         estimate D2E/DX2                !
 ! A9    A(3,4,41)             120.187          estimate D2E/DX2                !
 ! A10   A(5,4,41)             119.0216         estimate D2E/DX2                !
 ! A11   A(4,5,6)              121.2595         estimate D2E/DX2                !
 ! A12   A(4,5,18)             118.8414         estimate D2E/DX2                !
 ! A13   A(6,5,18)             119.899          estimate D2E/DX2                !
 ! A14   A(5,6,7)              120.4721         estimate D2E/DX2                !
 ! A15   A(5,6,42)             117.796          estimate D2E/DX2                !
 ! A16   A(7,6,42)             121.7263         estimate D2E/DX2                !
 ! A17   A(6,7,8)              125.7382         estimate D2E/DX2                !
 ! A18   A(6,7,16)             119.56           estimate D2E/DX2                !
 ! A19   A(8,7,16)             114.7017         estimate D2E/DX2                !
 ! A20   A(7,8,9)              118.5748         estimate D2E/DX2                !
 ! A21   A(8,9,10)             114.4094         estimate D2E/DX2                !
 ! A22   A(8,9,43)             110.3784         estimate D2E/DX2                !
 ! A23   A(8,9,44)             104.2377         estimate D2E/DX2                !
 ! A24   A(10,9,43)            110.1202         estimate D2E/DX2                !
 ! A25   A(10,9,44)            109.3235         estimate D2E/DX2                !
 ! A26   A(43,9,44)            108.046          estimate D2E/DX2                !
 ! A27   A(9,10,11)            120.0956         estimate D2E/DX2                !
 ! A28   A(9,10,15)            120.5901         estimate D2E/DX2                !
 ! A29   A(11,10,15)           119.3099         estimate D2E/DX2                !
 ! A30   A(10,11,12)           120.334          estimate D2E/DX2                !
 ! A31   A(10,11,45)           119.6289         estimate D2E/DX2                !
 ! A32   A(12,11,45)           120.0371         estimate D2E/DX2                !
 ! A33   A(11,12,13)           120.102          estimate D2E/DX2                !
 ! A34   A(11,12,46)           119.7971         estimate D2E/DX2                !
 ! A35   A(13,12,46)           120.1003         estimate D2E/DX2                !
 ! A36   A(12,13,14)           119.7834         estimate D2E/DX2                !
 ! A37   A(12,13,47)           120.0561         estimate D2E/DX2                !
 ! A38   A(14,13,47)           120.1604         estimate D2E/DX2                !
 ! A39   A(13,14,15)           120.1607         estimate D2E/DX2                !
 ! A40   A(13,14,48)           120.1073         estimate D2E/DX2                !
 ! A41   A(15,14,48)           119.7319         estimate D2E/DX2                !
 ! A42   A(10,15,14)           120.3074         estimate D2E/DX2                !
 ! A43   A(10,15,49)           119.407          estimate D2E/DX2                !
 ! A44   A(14,15,49)           120.2846         estimate D2E/DX2                !
 ! A45   A(7,16,17)            120.9394         estimate D2E/DX2                !
 ! A46   A(7,16,50)            117.6547         estimate D2E/DX2                !
 ! A47   A(17,16,50)           121.406          estimate D2E/DX2                !
 ! A48   A(16,17,18)           120.857          estimate D2E/DX2                !
 ! A49   A(16,17,51)           120.2955         estimate D2E/DX2                !
 ! A50   A(18,17,51)           118.8475         estimate D2E/DX2                !
 ! A51   A(5,18,17)            118.2683         estimate D2E/DX2                !
 ! A52   A(5,18,19)            119.833          estimate D2E/DX2                !
 ! A53   A(17,18,19)           121.8975         estimate D2E/DX2                !
 ! A54   A(2,19,18)            119.4896         estimate D2E/DX2                !
 ! A55   A(2,19,20)            119.5838         estimate D2E/DX2                !
 ! A56   A(18,19,20)           120.9266         estimate D2E/DX2                !
 ! A57   A(19,20,21)           119.9127         estimate D2E/DX2                !
 ! A58   A(19,20,38)           120.3738         estimate D2E/DX2                !
 ! A59   A(21,20,38)           119.7109         estimate D2E/DX2                !
 ! A60   A(20,21,22)           122.5211         estimate D2E/DX2                !
 ! A61   A(20,21,23)           120.445          estimate D2E/DX2                !
 ! A62   A(22,21,23)           117.021          estimate D2E/DX2                !
 ! A63   A(21,22,52)           108.9944         estimate D2E/DX2                !
 ! A64   A(21,23,24)           120.4774         estimate D2E/DX2                !
 ! A65   A(21,23,53)           117.7598         estimate D2E/DX2                !
 ! A66   A(24,23,53)           121.7628         estimate D2E/DX2                !
 ! A67   A(23,24,25)           120.8749         estimate D2E/DX2                !
 ! A68   A(23,24,54)           120.2741         estimate D2E/DX2                !
 ! A69   A(25,24,54)           118.851          estimate D2E/DX2                !
 ! A70   A(24,25,26)           121.2543         estimate D2E/DX2                !
 ! A71   A(24,25,38)           118.8814         estimate D2E/DX2                !
 ! A72   A(26,25,38)           119.8643         estimate D2E/DX2                !
 ! A73   A(25,26,27)           120.5753         estimate D2E/DX2                !
 ! A74   A(25,26,55)           117.7529         estimate D2E/DX2                !
 ! A75   A(27,26,55)           121.669          estimate D2E/DX2                !
 ! A76   A(26,27,28)           125.7437         estimate D2E/DX2                !
 ! A77   A(26,27,36)           119.5283         estimate D2E/DX2                !
 ! A78   A(28,27,36)           114.7275         estimate D2E/DX2                !
 ! A79   A(27,28,29)           118.445          estimate D2E/DX2                !
 ! A80   A(28,29,30)           114.471          estimate D2E/DX2                !
 ! A81   A(28,29,56)           104.2638         estimate D2E/DX2                !
 ! A82   A(28,29,57)           110.4059         estimate D2E/DX2                !
 ! A83   A(30,29,56)           109.2659         estimate D2E/DX2                !
 ! A84   A(30,29,57)           110.075          estimate D2E/DX2                !
 ! A85   A(56,29,57)           108.0319         estimate D2E/DX2                !
 ! A86   A(29,30,31)           120.0849         estimate D2E/DX2                !
 ! A87   A(29,30,35)           120.6095         estimate D2E/DX2                !
 ! A88   A(31,30,35)           119.3008         estimate D2E/DX2                !
 ! A89   A(30,31,32)           120.3419         estimate D2E/DX2                !
 ! A90   A(30,31,58)           119.6209         estimate D2E/DX2                !
 ! A91   A(32,31,58)           120.0371         estimate D2E/DX2                !
 ! A92   A(31,32,33)           120.1014         estimate D2E/DX2                !
 ! A93   A(31,32,59)           119.8006         estimate D2E/DX2                !
 ! A94   A(33,32,59)           120.0973         estimate D2E/DX2                !
 ! A95   A(32,33,34)           119.7775         estimate D2E/DX2                !
 ! A96   A(32,33,60)           120.0546         estimate D2E/DX2                !
 ! A97   A(34,33,60)           120.1679         estimate D2E/DX2                !
 ! A98   A(33,34,35)           120.1644         estimate D2E/DX2                !
 ! A99   A(33,34,61)           120.0979         estimate D2E/DX2                !
 ! A100  A(35,34,61)           119.7376         estimate D2E/DX2                !
 ! A101  A(30,35,34)           120.3116         estimate D2E/DX2                !
 ! A102  A(30,35,62)           119.3804         estimate D2E/DX2                !
 ! A103  A(34,35,62)           120.3067         estimate D2E/DX2                !
 ! A104  A(27,36,37)           120.8502         estimate D2E/DX2                !
 ! A105  A(27,36,63)           117.7314         estimate D2E/DX2                !
 ! A106  A(37,36,63)           121.4181         estimate D2E/DX2                !
 ! A107  A(36,37,38)           120.9974         estimate D2E/DX2                !
 ! A108  A(36,37,64)           119.9559         estimate D2E/DX2                !
 ! A109  A(38,37,64)           119.0467         estimate D2E/DX2                !
 ! A110  A(20,38,25)           119.6054         estimate D2E/DX2                !
 ! A111  A(20,38,37)           122.2101         estimate D2E/DX2                !
 ! A112  A(25,38,37)           118.1839         estimate D2E/DX2                !
 ! D1    D(39,1,2,3)             3.3134         estimate D2E/DX2                !
 ! D2    D(39,1,2,19)         -176.7081         estimate D2E/DX2                !
 ! D3    D(1,2,3,4)            179.8122         estimate D2E/DX2                !
 ! D4    D(1,2,3,40)            -0.5324         estimate D2E/DX2                !
 ! D5    D(19,2,3,4)            -0.1659         estimate D2E/DX2                !
 ! D6    D(19,2,3,40)          179.4895         estimate D2E/DX2                !
 ! D7    D(1,2,19,18)         -179.2345         estimate D2E/DX2                !
 ! D8    D(1,2,19,20)            0.7915         estimate D2E/DX2                !
 ! D9    D(3,2,19,18)            0.7442         estimate D2E/DX2                !
 ! D10   D(3,2,19,20)         -179.2298         estimate D2E/DX2                !
 ! D11   D(2,3,4,5)             -0.2949         estimate D2E/DX2                !
 ! D12   D(2,3,4,41)           179.8248         estimate D2E/DX2                !
 ! D13   D(40,3,4,5)          -179.9445         estimate D2E/DX2                !
 ! D14   D(40,3,4,41)            0.1751         estimate D2E/DX2                !
 ! D15   D(3,4,5,6)           -179.7484         estimate D2E/DX2                !
 ! D16   D(3,4,5,18)             0.1624         estimate D2E/DX2                !
 ! D17   D(41,4,5,6)             0.1333         estimate D2E/DX2                !
 ! D18   D(41,4,5,18)         -179.9558         estimate D2E/DX2                !
 ! D19   D(4,5,6,7)            179.5449         estimate D2E/DX2                !
 ! D20   D(4,5,6,42)             0.4012         estimate D2E/DX2                !
 ! D21   D(18,5,6,7)            -0.3649         estimate D2E/DX2                !
 ! D22   D(18,5,6,42)         -179.5087         estimate D2E/DX2                !
 ! D23   D(4,5,18,17)         -179.1776         estimate D2E/DX2                !
 ! D24   D(4,5,18,19)            0.4181         estimate D2E/DX2                !
 ! D25   D(6,5,18,17)            0.7345         estimate D2E/DX2                !
 ! D26   D(6,5,18,19)         -179.6698         estimate D2E/DX2                !
 ! D27   D(5,6,7,8)            179.8432         estimate D2E/DX2                !
 ! D28   D(5,6,7,16)            -0.1954         estimate D2E/DX2                !
 ! D29   D(42,6,7,8)            -1.0474         estimate D2E/DX2                !
 ! D30   D(42,6,7,16)          178.914          estimate D2E/DX2                !
 ! D31   D(6,7,8,9)             -2.0076         estimate D2E/DX2                !
 ! D32   D(16,7,8,9)           178.0293         estimate D2E/DX2                !
 ! D33   D(6,7,16,17)            0.3808         estimate D2E/DX2                !
 ! D34   D(6,7,16,50)         -179.6291         estimate D2E/DX2                !
 ! D35   D(8,7,16,17)         -179.6537         estimate D2E/DX2                !
 ! D36   D(8,7,16,50)            0.3364         estimate D2E/DX2                !
 ! D37   D(7,8,9,10)            67.1855         estimate D2E/DX2                !
 ! D38   D(7,8,9,43)           -57.6733         estimate D2E/DX2                !
 ! D39   D(7,8,9,44)          -173.4707         estimate D2E/DX2                !
 ! D40   D(8,9,10,11)         -154.7272         estimate D2E/DX2                !
 ! D41   D(8,9,10,15)           26.0431         estimate D2E/DX2                !
 ! D42   D(43,9,10,11)         -29.7319         estimate D2E/DX2                !
 ! D43   D(43,9,10,15)         151.0383         estimate D2E/DX2                !
 ! D44   D(44,9,10,11)          88.8275         estimate D2E/DX2                !
 ! D45   D(44,9,10,15)         -90.4022         estimate D2E/DX2                !
 ! D46   D(9,10,11,12)        -179.2697         estimate D2E/DX2                !
 ! D47   D(9,10,11,45)           0.7389         estimate D2E/DX2                !
 ! D48   D(15,10,11,12)         -0.0302         estimate D2E/DX2                !
 ! D49   D(15,10,11,45)        179.9785         estimate D2E/DX2                !
 ! D50   D(9,10,15,14)         179.6869         estimate D2E/DX2                !
 ! D51   D(9,10,15,49)          -0.6808         estimate D2E/DX2                !
 ! D52   D(11,10,15,14)          0.4512         estimate D2E/DX2                !
 ! D53   D(11,10,15,49)       -179.9166         estimate D2E/DX2                !
 ! D54   D(10,11,12,13)         -0.3652         estimate D2E/DX2                !
 ! D55   D(10,11,12,46)        179.9258         estimate D2E/DX2                !
 ! D56   D(45,11,12,13)        179.6261         estimate D2E/DX2                !
 ! D57   D(45,11,12,46)         -0.0829         estimate D2E/DX2                !
 ! D58   D(11,12,13,14)          0.3399         estimate D2E/DX2                !
 ! D59   D(11,12,13,47)       -179.633          estimate D2E/DX2                !
 ! D60   D(46,12,13,14)       -179.9519         estimate D2E/DX2                !
 ! D61   D(46,12,13,47)          0.0751         estimate D2E/DX2                !
 ! D62   D(12,13,14,15)          0.0805         estimate D2E/DX2                !
 ! D63   D(12,13,14,48)        179.9751         estimate D2E/DX2                !
 ! D64   D(47,13,14,15)       -179.9466         estimate D2E/DX2                !
 ! D65   D(47,13,14,48)         -0.052          estimate D2E/DX2                !
 ! D66   D(13,14,15,10)         -0.4783         estimate D2E/DX2                !
 ! D67   D(13,14,15,49)        179.8926         estimate D2E/DX2                !
 ! D68   D(48,14,15,10)        179.6267         estimate D2E/DX2                !
 ! D69   D(48,14,15,49)         -0.0023         estimate D2E/DX2                !
 ! D70   D(7,16,17,18)           0.0068         estimate D2E/DX2                !
 ! D71   D(7,16,17,51)         179.9838         estimate D2E/DX2                !
 ! D72   D(50,16,17,18)       -179.983          estimate D2E/DX2                !
 ! D73   D(50,16,17,51)         -0.006          estimate D2E/DX2                !
 ! D74   D(16,17,18,5)          -0.5592         estimate D2E/DX2                !
 ! D75   D(16,17,18,19)        179.8539         estimate D2E/DX2                !
 ! D76   D(51,17,18,5)         179.4635         estimate D2E/DX2                !
 ! D77   D(51,17,18,19)         -0.1234         estimate D2E/DX2                !
 ! D78   D(5,18,19,2)           -0.8679         estimate D2E/DX2                !
 ! D79   D(5,18,19,20)         179.1057         estimate D2E/DX2                !
 ! D80   D(17,18,19,2)         178.7127         estimate D2E/DX2                !
 ! D81   D(17,18,19,20)         -1.3137         estimate D2E/DX2                !
 ! D82   D(2,19,20,21)         -73.8321         estimate D2E/DX2                !
 ! D83   D(2,19,20,38)         105.5707         estimate D2E/DX2                !
 ! D84   D(18,19,20,21)        106.1943         estimate D2E/DX2                !
 ! D85   D(18,19,20,38)        -74.4029         estimate D2E/DX2                !
 ! D86   D(19,20,21,22)         -1.1164         estimate D2E/DX2                !
 ! D87   D(19,20,21,23)       -179.7742         estimate D2E/DX2                !
 ! D88   D(38,20,21,22)        179.4769         estimate D2E/DX2                !
 ! D89   D(38,20,21,23)          0.819          estimate D2E/DX2                !
 ! D90   D(19,20,38,25)       -179.9845         estimate D2E/DX2                !
 ! D91   D(19,20,38,37)         -0.2953         estimate D2E/DX2                !
 ! D92   D(21,20,38,25)         -0.5805         estimate D2E/DX2                !
 ! D93   D(21,20,38,37)        179.1087         estimate D2E/DX2                !
 ! D94   D(20,21,22,52)          4.0007         estimate D2E/DX2                !
 ! D95   D(23,21,22,52)       -177.2981         estimate D2E/DX2                !
 ! D96   D(20,21,23,24)         -0.4527         estimate D2E/DX2                !
 ! D97   D(20,21,23,53)        179.5074         estimate D2E/DX2                !
 ! D98   D(22,21,23,24)       -179.1824         estimate D2E/DX2                !
 ! D99   D(22,21,23,53)          0.7777         estimate D2E/DX2                !
 ! D100  D(21,23,24,25)         -0.1636         estimate D2E/DX2                !
 ! D101  D(21,23,24,54)        179.9163         estimate D2E/DX2                !
 ! D102  D(53,23,24,25)        179.8779         estimate D2E/DX2                !
 ! D103  D(53,23,24,54)         -0.0421         estimate D2E/DX2                !
 ! D104  D(23,24,25,26)       -179.5961         estimate D2E/DX2                !
 ! D105  D(23,24,25,38)          0.3916         estimate D2E/DX2                !
 ! D106  D(54,24,25,26)          0.3251         estimate D2E/DX2                !
 ! D107  D(54,24,25,38)       -179.6873         estimate D2E/DX2                !
 ! D108  D(24,25,26,27)        179.8849         estimate D2E/DX2                !
 ! D109  D(24,25,26,55)         -0.711          estimate D2E/DX2                !
 ! D110  D(38,25,26,27)         -0.1026         estimate D2E/DX2                !
 ! D111  D(38,25,26,55)        179.3015         estimate D2E/DX2                !
 ! D112  D(24,25,38,20)         -0.0196         estimate D2E/DX2                !
 ! D113  D(24,25,38,37)       -179.7212         estimate D2E/DX2                !
 ! D114  D(26,25,38,20)        179.9683         estimate D2E/DX2                !
 ! D115  D(26,25,38,37)          0.2666         estimate D2E/DX2                !
 ! D116  D(25,26,27,28)       -179.7705         estimate D2E/DX2                !
 ! D117  D(25,26,27,36)         -0.0439         estimate D2E/DX2                !
 ! D118  D(55,26,27,28)          0.8491         estimate D2E/DX2                !
 ! D119  D(55,26,27,36)       -179.4243         estimate D2E/DX2                !
 ! D120  D(26,27,28,29)          2.4773         estimate D2E/DX2                !
 ! D121  D(36,27,28,29)       -177.2607         estimate D2E/DX2                !
 ! D122  D(26,27,36,37)          0.0198         estimate D2E/DX2                !
 ! D123  D(26,27,36,63)       -179.7781         estimate D2E/DX2                !
 ! D124  D(28,27,36,37)        179.7754         estimate D2E/DX2                !
 ! D125  D(28,27,36,63)         -0.0225         estimate D2E/DX2                !
 ! D126  D(27,28,29,30)        -67.7182         estimate D2E/DX2                !
 ! D127  D(27,28,29,56)        172.9576         estimate D2E/DX2                !
 ! D128  D(27,28,29,57)         57.1498         estimate D2E/DX2                !
 ! D129  D(28,29,30,31)        155.2858         estimate D2E/DX2                !
 ! D130  D(28,29,30,35)        -25.5218         estimate D2E/DX2                !
 ! D131  D(56,29,30,31)        -88.2372         estimate D2E/DX2                !
 ! D132  D(56,29,30,35)         90.9553         estimate D2E/DX2                !
 ! D133  D(57,29,30,31)         30.2432         estimate D2E/DX2                !
 ! D134  D(57,29,30,35)       -150.5643         estimate D2E/DX2                !
 ! D135  D(29,30,31,32)        179.2243         estimate D2E/DX2                !
 ! D136  D(29,30,31,58)         -0.8352         estimate D2E/DX2                !
 ! D137  D(35,30,31,32)          0.0213         estimate D2E/DX2                !
 ! D138  D(35,30,31,58)        179.9617         estimate D2E/DX2                !
 ! D139  D(29,30,35,34)       -179.6355         estimate D2E/DX2                !
 ! D140  D(29,30,35,62)          0.7863         estimate D2E/DX2                !
 ! D141  D(31,30,35,34)         -0.4368         estimate D2E/DX2                !
 ! D142  D(31,30,35,62)        179.985          estimate D2E/DX2                !
 ! D143  D(30,31,32,33)          0.3524         estimate D2E/DX2                !
 ! D144  D(30,31,32,59)       -179.9703         estimate D2E/DX2                !
 ! D145  D(58,31,32,33)       -179.5878         estimate D2E/DX2                !
 ! D146  D(58,31,32,59)          0.0895         estimate D2E/DX2                !
 ! D147  D(31,32,33,34)         -0.3109         estimate D2E/DX2                !
 ! D148  D(31,32,33,60)        179.6237         estimate D2E/DX2                !
 ! D149  D(59,32,33,34)       -179.9873         estimate D2E/DX2                !
 ! D150  D(59,32,33,60)         -0.0527         estimate D2E/DX2                !
 ! D151  D(32,33,34,35)         -0.104          estimate D2E/DX2                !
 ! D152  D(32,33,34,61)        179.9905         estimate D2E/DX2                !
 ! D153  D(60,33,34,35)        179.9614         estimate D2E/DX2                !
 ! D154  D(60,33,34,61)          0.0559         estimate D2E/DX2                !
 ! D155  D(33,34,35,30)          0.4801         estimate D2E/DX2                !
 ! D156  D(33,34,35,62)       -179.9456         estimate D2E/DX2                !
 ! D157  D(61,34,35,30)       -179.614          estimate D2E/DX2                !
 ! D158  D(61,34,35,62)         -0.0397         estimate D2E/DX2                !
 ! D159  D(27,36,37,38)          0.1535         estimate D2E/DX2                !
 ! D160  D(27,36,37,64)       -179.7623         estimate D2E/DX2                !
 ! D161  D(63,36,37,38)        179.9439         estimate D2E/DX2                !
 ! D162  D(63,36,37,64)          0.0281         estimate D2E/DX2                !
 ! D163  D(36,37,38,20)       -179.9873         estimate D2E/DX2                !
 ! D164  D(36,37,38,25)         -0.2939         estimate D2E/DX2                !
 ! D165  D(64,37,38,20)         -0.0707         estimate D2E/DX2                !
 ! D166  D(64,37,38,25)        179.6227         estimate D2E/DX2                !
 --------------------------------------------------------------------------------
 Trust Radius=3.00D-01 FncErr=1.00D-07 GrdErr=1.00D-06 EigMax=2.50D+02 EigMin=1.00D-04
 Number of steps in this run=    357 maximum allowed number of steps=    384.
 GradGradGradGradGradGradGradGradGradGradGradGradGradGradGradGradGradGrad

 Leave Link  103 at Sat Feb 24 22:37:21 2024, MaxMem=  7516192768 cpu:               1.4 elap:               0.1
 (Enter /public/apps/g16-C01//g16/l202.exe)
 Symmetry turned off by external request.
 Stoichiometry    C34H26O4
 Framework group  C1[X(C34H26O4)]
 Deg. of freedom   186
 Full point group                 C1      NOp   1
                          Input orientation:                          
 ---------------------------------------------------------------------
 Center     Atomic      Atomic             Coordinates (Angstroms)
 Number     Number       Type             X           Y           Z
 ---------------------------------------------------------------------
      1          8           0       -0.393872    4.150314   -0.758881
      2          6           0       -1.180619    3.115917   -0.339557
      3          6           0       -2.444312    3.352878    0.228056
      4          6           0       -3.227053    2.312298    0.641637
      5          6           0       -2.788743    0.980817    0.503133
      6          6           0       -3.590941   -0.101146    0.921907
      7          6           0       -3.152105   -1.391557    0.770896
      8          8           0       -3.834181   -2.512281    1.138632
      9          6           0       -5.086764   -2.363198    1.767983
     10          6           0       -6.166750   -1.790549    0.880935
     11          6           0       -7.242223   -1.113323    1.441535
     12          6           0       -8.241726   -0.600001    0.634880
     13          6           0       -8.171654   -0.752242   -0.739813
     14          6           0       -7.101830   -1.425834   -1.303293
     15          6           0       -6.105995   -1.947217   -0.496751
     16          6           0       -1.887134   -1.634519    0.186753
     17          6           0       -1.095197   -0.605165   -0.220950
     18          6           0       -1.515454    0.735977   -0.071530
     19          6           0       -0.708505    1.823244   -0.484937
     20          6           0        0.635769    1.595794   -1.070992
     21          6           0        0.833793    1.766923   -2.426625
     22          8           0       -0.170537    2.120738   -3.273673
     23          6           0        2.102519    1.549714   -2.994835
     24          6           0        3.155728    1.176246   -2.213169
     25          6           0        2.999185    1.003128   -0.822503
     26          6           0        4.084711    0.625307   -0.005436
     27          6           0        3.917306    0.463138    1.345858
     28          8           0        4.891905    0.105582    2.233261
     29          6           0        6.204539   -0.071353    1.753112
     30          6           0        6.380366   -1.257913    0.835199
     31          6           0        7.415572   -1.274501   -0.090850
     32          6           0        7.591182   -2.365214   -0.923042
     33          6           0        6.729404   -3.446246   -0.842390
     34          6           0        5.695885   -3.434214    0.078096
     35          6           0        5.524583   -2.347387    0.916819
     36          6           0        2.644847    0.678328    1.920589
     37          6           0        1.583038    1.044186    1.149734
     38          6           0        1.721836    1.215867   -0.245492
     39          1           0       -0.820700    4.989532   -0.551738
     40          1           0       -2.785036    4.374644    0.337365
     41          1           0       -4.195983    2.502136    1.079571
     42          1           0       -4.556760    0.123582    1.346995
     43          1           0       -4.987024   -1.758565    2.680843
     44          1           0       -5.362839   -3.382305    2.064020
     45          1           0       -7.294932   -0.988581    2.514354
     46          1           0       -9.074706   -0.075919    1.080108
     47          1           0       -8.949394   -0.346025   -1.369307
     48          1           0       -7.042132   -1.547941   -2.374657
     49          1           0       -5.271203   -2.474679   -0.934186
     50          1           0       -1.575120   -2.661308    0.077223
     51          1           0       -0.131495   -0.802507   -0.665245
     52          1           0       -0.973040    2.281164   -2.760249
     53          1           0        2.206556    1.688110   -4.059515
     54          1           0        4.128158    1.009030   -2.653112
     55          1           0        5.038886    0.461140   -0.481803
     56          1           0        6.805391   -0.221861    2.658259
     57          1           0        6.558399    0.844503    1.258061
     58          1           0        8.085059   -0.428107   -0.159291
     59          1           0        8.399408   -2.369064   -1.639681
     60          1           0        6.863551   -4.294868   -1.496703
     61          1           0        5.020669   -4.274457    0.145316
     62          1           0        4.719414   -2.335954    1.636539
     63          1           0        2.546710    0.546159    2.986945
     64          1           0        0.617742    1.208634    1.604699
 ---------------------------------------------------------------------
 Rotational constants (GHZ):           0.1822917           0.0445385           0.0402353
 Leave Link  202 at Sat Feb 24 22:37:21 2024, MaxMem=  7516192768 cpu:               2.3 elap:               0.2
 (Enter /public/apps/g16-C01//g16/l301.exe)
 Standard basis: def2SVPP (5D, 7F)
 Ernie: Thresh=  0.10000D-02 Tol=  0.10000D-05 Strict=F.
   584 basis functions,  1054 primitive gaussians,   622 cartesian basis functions
   131 alpha electrons      131 beta electrons
       nuclear repulsion energy      3804.1423321145 Hartrees.
 IExCor=  402 DFT=T Ex+Corr=B3LYP ExCW=0 ScaHFX=  0.200000
 ScaDFX=  0.800000  0.720000  1.000000  0.810000 ScalE2=  1.000000  1.000000
 IRadAn=      5 IRanWt=     -1 IRanGd=            0 ICorTp=0 IEmpDi=141
 NAtoms=   64 NActive=   64 NUniq=   64 SFac= 1.00D+00 NAtFMM=   60 NAOKFM=T Big=T
 Integral buffers will be    131072 words long.
 Raffenetti 2 integral format.
 Two-electron integral symmetry is turned off.
 R6Disp:  Grimme-D3(BJ) Dispersion energy=       -0.1622219388 Hartrees.
 Nuclear repulsion after empirical dispersion term =     3803.9801101757 Hartrees.
 Leave Link  301 at Sat Feb 24 22:37:21 2024, MaxMem=  7516192768 cpu:               2.2 elap:               0.2
 (Enter /public/apps/g16-C01//g16/l302.exe)
 NPDir=0 NMtPBC=     1 NCelOv=     1 NCel=       1 NClECP=     1 NCelD=      1
         NCelK=      1 NCelE2=     1 NClLst=     1 CellRange=     0.0.
 One-electron integrals computed using PRISM.
   1 Symmetry operations used in ECPInt.
 ECPInt:  NShTT=   39340 NPrTT=  157652 LenC2=   30205 LenP2D=   75308.
 LDataN:  DoStor=T MaxTD1= 4 Len=   56
 NBasis=   584 RedAO= T EigKep=  1.72D-04  NBF=   584
 NBsUse=   584 1.00D-06 EigRej= -1.00D+00 NBFU=   584
 Precomputing XC quadrature grid using
 IXCGrd= 4 IRadAn=           5 IRanWt=          -1 IRanGd=           0 AccXCQ= 0.00D+00.
 Generated NRdTot=       0 NPtTot=           0 NUsed=           0 NTot=          32
 NSgBfM=   607   607   607   607   607 MxSgAt=    64 MxSgA2=    64.
 Leave Link  302 at Sat Feb 24 22:37:29 2024, MaxMem=  7516192768 cpu:             115.2 elap:               7.9
 (Enter /public/apps/g16-C01//g16/l303.exe)
 DipDrv:  MaxL=1.
 Leave Link  303 at Sat Feb 24 22:37:30 2024, MaxMem=  7516192768 cpu:               7.2 elap:               0.6
 (Enter /public/apps/g16-C01//g16/l401.exe)
 ExpMin= 1.22D-01 ExpMax= 2.27D+03 ExpMxC= 3.41D+02 IAcc=3 IRadAn=         5 AccDes= 0.00D+00
 Harris functional with IExCor=  402 and IRadAn=       5 diagonalized for initial guess.
 HarFok:  IExCor=  402 AccDes= 0.00D+00 IRadAn=         5 IDoV= 1 UseB2=F ITyADJ=14
 ICtDFT=  3500011 ScaDFX=  1.000000  1.000000  1.000000  1.000000
 FoFCou: FMM=F IPFlag=           0 FMFlag=      100000 FMFlg1=        2001
         NFxFlg=           0 DoJE=T BraDBF=F KetDBF=T FulRan=T
         wScrn=  0.000000 ICntrl=       500 IOpCl=  0 I1Cent=   200000004 NGrid=           0
         NMat0=    1 NMatS0=      1 NMatT0=    0 NMatD0=    1 NMtDS0=    0 NMtDT0=    0
 Symmetry not used in FoFCou.
 Harris En= -1611.08185795174    
 JPrj=0 DoOrth=F DoCkMO=F.
 Leave Link  401 at Sat Feb 24 22:37:41 2024, MaxMem=  7516192768 cpu:             156.3 elap:              10.5
 (Enter /public/apps/g16-C01//g16/l502.exe)
 Two-electron integral symmetry not used.
 Closed shell SCF:
 Using DIIS extrapolation, IDIIS=  1040.
 NGot=  7516192768 LenX=  7515387388 LenY=  7514999882
 Requested convergence on RMS density matrix=1.00D-08 within 128 cycles.
 Requested convergence on MAX density matrix=1.00D-06.
 Requested convergence on             energy=1.00D-06.
 No special actions if energy rises.
 Fock matrices will be formed incrementally for  20 cycles.
 Integral accuracy reduced to 1.0D-05 until final iterations.

 Cycle   1  Pass 0  IDiag  1:
 FoFJK:  IHMeth= 1 ICntrl=       0 DoSepK=F KAlg= 0 I1Cent=           0 FoldK=F
 IRaf= 870000000 NMat=       1 IRICut=       1 DoRegI=T DoRafI=F ISym2E= 0 IDoP0=0 IntGTp=1.
 FoFCou: FMM=T IPFlag=           0 FMFlag=      100000 FMFlg1=        2001
         NFxFlg=           0 DoJE=F BraDBF=F KetDBF=F FulRan=T
         wScrn=  0.000000 ICntrl=         0 IOpCl=  0 I1Cent=           0 NGrid=           0
         NMat0=    1 NMatS0=      1 NMatT0=    0 NMatD0=    1 NMtDS0=    0 NMtDT0=    0
 Symmetry not used in FoFCou.
 FMM levels:  10  Number of levels for PrismC:   9
 E= -1610.36884690201    
 DIIS: error= 2.51D-02 at cycle   1 NSaved=   1.
 NSaved= 1 IEnMin= 1 EnMin= -1610.36884690201     IErMin= 1 ErrMin= 2.51D-02
 ErrMax= 2.51D-02  0.00D+00 EMaxC= 1.00D-01 BMatC= 6.42D-01 BMatP= 6.42D-01
 IDIUse=3 WtCom= 7.49D-01 WtEn= 2.51D-01
 Coeff-Com:  0.100D+01
 Coeff-En:   0.100D+01
 Coeff:      0.100D+01
 Gap=     0.173 Goal=   None    Shift=    0.000
 GapD=    0.173 DampG=1.000 DampE=0.500 DampFc=0.5000 IDamp=-1.
 Damping current iteration by 5.00D-01
 RMSDP=5.26D-03 MaxDP=1.64D-01              OVMax= 1.47D-01

 Cycle   2  Pass 0  IDiag  1:
 RMSU=  2.30D-03    CP:  9.30D-01
 E= -1610.71479084815     Delta-E=       -0.345943946139 Rises=F Damp=T
 DIIS: error= 4.16D-03 at cycle   2 NSaved=   2.
 NSaved= 2 IEnMin= 2 EnMin= -1610.71479084815     IErMin= 2 ErrMin= 4.16D-03
 ErrMax= 4.16D-03  0.00D+00 EMaxC= 1.00D-01 BMatC= 3.17D-02 BMatP= 6.42D-01
 IDIUse=3 WtCom= 9.58D-01 WtEn= 4.16D-02
 Coeff-Com:  0.127D-01 0.987D+00
 Coeff-En:   0.147D-02 0.999D+00
 Coeff:      0.122D-01 0.988D+00
 Gap=     0.225 Goal=   None    Shift=    0.000
 RMSDP=1.81D-03 MaxDP=9.79D-02 DE=-3.46D-01 OVMax= 1.13D-01

 Cycle   3  Pass 0  IDiag  1:
 RMSU=  1.57D-03    CP:  8.86D-01  1.18D+00
 E= -1611.06666857566     Delta-E=       -0.351877727508 Rises=F Damp=F
 DIIS: error= 5.81D-03 at cycle   3 NSaved=   3.
 NSaved= 3 IEnMin= 3 EnMin= -1611.06666857566     IErMin= 2 ErrMin= 4.16D-03
 ErrMax= 5.81D-03  0.00D+00 EMaxC= 1.00D-01 BMatC= 3.24D-02 BMatP= 3.17D-02
 IDIUse=3 WtCom= 9.42D-01 WtEn= 5.81D-02
 Coeff-Com: -0.353D-01 0.519D+00 0.517D+00
 Coeff-En:   0.000D+00 0.000D+00 0.100D+01
 Coeff:     -0.332D-01 0.488D+00 0.545D+00
 Gap=     0.148 Goal=   None    Shift=    0.000
 RMSDP=6.55D-04 MaxDP=2.53D-02 DE=-3.52D-01 OVMax= 5.07D-02

 Cycle   4  Pass 0  IDiag  1:
 RMSU=  5.14D-04    CP:  8.85D-01  1.24D+00  7.56D-01
 E= -1611.09174424942     Delta-E=       -0.025075673768 Rises=F Damp=F
 DIIS: error= 2.68D-03 at cycle   4 NSaved=   4.
 NSaved= 4 IEnMin= 4 EnMin= -1611.09174424942     IErMin= 4 ErrMin= 2.68D-03
 ErrMax= 2.68D-03  0.00D+00 EMaxC= 1.00D-01 BMatC= 8.63D-03 BMatP= 3.17D-02
 IDIUse=3 WtCom= 9.73D-01 WtEn= 2.68D-02
 Coeff-Com: -0.223D-01 0.149D+00 0.353D+00 0.520D+00
 Coeff-En:   0.000D+00 0.000D+00 0.242D+00 0.758D+00
 Coeff:     -0.217D-01 0.145D+00 0.350D+00 0.526D+00
 Gap=     0.146 Goal=   None    Shift=    0.000
 RMSDP=2.54D-04 MaxDP=8.61D-03 DE=-2.51D-02 OVMax= 2.04D-02

 Cycle   5  Pass 0  IDiag  1:
 RMSU=  1.43D-04    CP:  8.83D-01  1.24D+00  8.24D-01  6.53D-01
 E= -1611.10044669711     Delta-E=       -0.008702447683 Rises=F Damp=F
 DIIS: error= 5.96D-04 at cycle   5 NSaved=   5.
 NSaved= 5 IEnMin= 5 EnMin= -1611.10044669711     IErMin= 5 ErrMin= 5.96D-04
 ErrMax= 5.96D-04  0.00D+00 EMaxC= 1.00D-01 BMatC= 4.46D-04 BMatP= 8.63D-03
 IDIUse=3 WtCom= 9.94D-01 WtEn= 5.96D-03
 Coeff-Com: -0.864D-02 0.380D-01 0.146D+00 0.280D+00 0.545D+00
 Coeff-En:   0.000D+00 0.000D+00 0.000D+00 0.000D+00 0.100D+01
 Coeff:     -0.859D-02 0.377D-01 0.145D+00 0.278D+00 0.548D+00
 Gap=     0.146 Goal=   None    Shift=    0.000
 RMSDP=7.63D-05 MaxDP=5.81D-03 DE=-8.70D-03 OVMax= 5.69D-03

 Cycle   6  Pass 0  IDiag  1:
 RMSU=  6.62D-05    CP:  8.83D-01  1.25D+00  8.17D-01  6.89D-01  7.98D-01
 E= -1611.10081801619     Delta-E=       -0.000371319077 Rises=F Damp=F
 DIIS: error= 3.32D-04 at cycle   6 NSaved=   6.
 NSaved= 6 IEnMin= 6 EnMin= -1611.10081801619     IErMin= 6 ErrMin= 3.32D-04
 ErrMax= 3.32D-04  0.00D+00 EMaxC= 1.00D-01 BMatC= 9.15D-05 BMatP= 4.46D-04
 IDIUse=3 WtCom= 9.97D-01 WtEn= 3.32D-03
 Coeff-Com: -0.300D-02 0.700D-02 0.485D-01 0.109D+00 0.350D+00 0.488D+00
 Coeff-En:   0.000D+00 0.000D+00 0.000D+00 0.000D+00 0.161D+00 0.839D+00
 Coeff:     -0.299D-02 0.698D-02 0.483D-01 0.108D+00 0.350D+00 0.490D+00
 Gap=     0.146 Goal=   None    Shift=    0.000
 RMSDP=3.52D-05 MaxDP=2.49D-03 DE=-3.71D-04 OVMax= 3.59D-03

 Cycle   7  Pass 0  IDiag  1:
 RMSU=  2.46D-05    CP:  8.83D-01  1.25D+00  8.23D-01  6.83D-01  8.11D-01
                    CP:  6.47D-01
 E= -1611.10092305243     Delta-E=       -0.000105036246 Rises=F Damp=F
 DIIS: error= 1.18D-04 at cycle   7 NSaved=   7.
 NSaved= 7 IEnMin= 7 EnMin= -1611.10092305243     IErMin= 7 ErrMin= 1.18D-04
 ErrMax= 1.18D-04  0.00D+00 EMaxC= 1.00D-01 BMatC= 1.27D-05 BMatP= 9.15D-05
 IDIUse=3 WtCom= 9.99D-01 WtEn= 1.18D-03
 Coeff-Com: -0.119D-02 0.911D-03 0.189D-01 0.464D-01 0.187D+00 0.330D+00
 Coeff-Com:  0.418D+00
 Coeff-En:   0.000D+00 0.000D+00 0.000D+00 0.000D+00 0.000D+00 0.000D+00
 Coeff-En:   0.100D+01
 Coeff:     -0.119D-02 0.910D-03 0.189D-01 0.464D-01 0.186D+00 0.329D+00
 Coeff:      0.419D+00
 Gap=     0.146 Goal=   None    Shift=    0.000
 RMSDP=1.32D-05 MaxDP=5.23D-04 DE=-1.05D-04 OVMax= 1.33D-03

 Cycle   8  Pass 0  IDiag  1:
 RMSU=  1.24D-05    CP:  8.83D-01  1.25D+00  8.23D-01  6.82D-01  8.02D-01
                    CP:  7.00D-01  9.30D-01
 E= -1611.10094215191     Delta-E=       -0.000019099476 Rises=F Damp=F
 DIIS: error= 2.86D-05 at cycle   8 NSaved=   8.
 NSaved= 8 IEnMin= 8 EnMin= -1611.10094215191     IErMin= 8 ErrMin= 2.86D-05
 ErrMax= 2.86D-05  0.00D+00 EMaxC= 1.00D-01 BMatC= 6.44D-07 BMatP= 1.27D-05
 IDIUse=1 WtCom= 1.00D+00 WtEn= 0.00D+00
 Coeff-Com: -0.401D-03-0.156D-03 0.666D-02 0.171D-01 0.780D-01 0.145D+00
 Coeff-Com:  0.237D+00 0.516D+00
 Coeff:     -0.401D-03-0.156D-03 0.666D-02 0.171D-01 0.780D-01 0.145D+00
 Coeff:      0.237D+00 0.516D+00
 Gap=     0.146 Goal=   None    Shift=    0.000
 RMSDP=1.16D-05 MaxDP=3.76D-04 DE=-1.91D-05 OVMax= 3.33D-04

 Cycle   9  Pass 0  IDiag  1:
 RMSU=  9.09D-06    CP:  8.83D-01  1.25D+00  8.24D-01  6.82D-01  8.01D-01
                    CP:  6.99D-01  1.11D+00  1.46D+00
 E= -1611.10094325667     Delta-E=       -0.000001104760 Rises=F Damp=F
 DIIS: error= 1.98D-05 at cycle   9 NSaved=   9.
 NSaved= 9 IEnMin= 9 EnMin= -1611.10094325667     IErMin= 9 ErrMin= 1.98D-05
 ErrMax= 1.98D-05  0.00D+00 EMaxC= 1.00D-01 BMatC= 1.47D-07 BMatP= 6.44D-07
 IDIUse=1 WtCom= 1.00D+00 WtEn= 0.00D+00
 Coeff-Com: -0.128D-03-0.198D-03 0.227D-02 0.590D-02 0.298D-01 0.566D-01
 Coeff-Com:  0.103D+00 0.330D+00 0.473D+00
 Coeff:     -0.128D-03-0.198D-03 0.227D-02 0.590D-02 0.298D-01 0.566D-01
 Coeff:      0.103D+00 0.330D+00 0.473D+00
 Gap=     0.146 Goal=   None    Shift=    0.000
 RMSDP=1.20D-05 MaxDP=3.81D-04 DE=-1.10D-06 OVMax= 6.93D-05

 Cycle  10  Pass 0  IDiag  1:
 RMSU=  6.72D-06    CP:  8.83D-01  1.25D+00  8.24D-01  6.81D-01  7.99D-01
                    CP:  7.00D-01  1.22D+00  1.89D+00  1.87D+00
 E= -1611.10094176893     Delta-E=        0.000001487734 Rises=F Damp=F
 DIIS: error= 2.63D-05 at cycle  10 NSaved=  10.
 NSaved=10 IEnMin= 9 EnMin= -1611.10094325667     IErMin= 9 ErrMin= 1.98D-05
 ErrMax= 2.63D-05  0.00D+00 EMaxC= 1.00D-01 BMatC= 1.50D-07 BMatP= 1.47D-07
 IDIUse=1 WtCom= 1.00D+00 WtEn= 0.00D+00
 Coeff-Com: -0.122D-03-0.229D-03 0.221D-02 0.578D-02 0.299D-01 0.570D-01
 Coeff-Com:  0.106D+00 0.360D+00 0.573D+00-0.133D+00
 Coeff:     -0.122D-03-0.229D-03 0.221D-02 0.578D-02 0.299D-01 0.570D-01
 Coeff:      0.106D+00 0.360D+00 0.573D+00-0.133D+00
 Gap=     0.146 Goal=   None    Shift=    0.000
 RMSDP=3.38D-06 MaxDP=1.48D-04 DE= 1.49D-06 OVMax= 8.00D-06

 Initial convergence to 1.0D-05 achieved.  Increase integral accuracy.
 Cycle  11  Pass 1  IDiag  1:
 E= -1611.10081289390     Delta-E=        0.000128875036 Rises=F Damp=F
 DIIS: error= 5.22D-04 at cycle   1 NSaved=   1.
 NSaved= 1 IEnMin= 1 EnMin= -1611.10081289390     IErMin= 1 ErrMin= 5.22D-04
 ErrMax= 5.22D-04  0.00D+00 EMaxC= 1.00D-01 BMatC= 4.47D-05 BMatP= 4.47D-05
 IDIUse=3 WtCom= 9.95D-01 WtEn= 5.22D-03
 Coeff-Com:  0.100D+01
 Coeff-En:   0.100D+01
 Coeff:      0.100D+01
 Gap=     0.146 Goal=   None    Shift=    0.000
 RMSDP=3.38D-06 MaxDP=1.48D-04 DE= 1.29D-04 OVMax= 9.70D-04

 Cycle  12  Pass 1  IDiag  1:
 RMSU=  3.95D-04    CP:  1.00D+00
 E= -1611.10085828014     Delta-E=       -0.000045386245 Rises=F Damp=F
 DIIS: error= 6.96D-06 at cycle   2 NSaved=   2.
 NSaved= 2 IEnMin= 2 EnMin= -1611.10085828014     IErMin= 2 ErrMin= 6.96D-06
 ErrMax= 6.96D-06  0.00D+00 EMaxC= 1.00D-01 BMatC= 2.35D-08 BMatP= 4.47D-05
 IDIUse=1 WtCom= 1.00D+00 WtEn= 0.00D+00
 Coeff-Com: -0.883D-02 0.101D+01
 Coeff:     -0.883D-02 0.101D+01
 Gap=     0.146 Goal=   None    Shift=    0.000
 RMSDP=5.56D-06 MaxDP=1.52D-04 DE=-4.54D-05 OVMax= 1.24D-04

 Cycle  13  Pass 1  IDiag  1:
 RMSU=  1.80D-06    CP:  1.00D+00  1.01D+00
 E= -1611.10085824159     Delta-E=        0.000000038552 Rises=F Damp=F
 DIIS: error= 6.48D-06 at cycle   3 NSaved=   3.
 NSaved= 3 IEnMin= 2 EnMin= -1611.10085828014     IErMin= 3 ErrMin= 6.48D-06
 ErrMax= 6.48D-06  0.00D+00 EMaxC= 1.00D-01 BMatC= 6.16D-08 BMatP= 2.35D-08
 IDIUse=1 WtCom= 1.00D+00 WtEn= 0.00D+00
 Coeff-Com: -0.608D-02 0.648D+00 0.358D+00
 Coeff:     -0.608D-02 0.648D+00 0.358D+00
 Gap=     0.146 Goal=   None    Shift=    0.000
 RMSDP=6.76D-07 MaxDP=2.65D-05 DE= 3.86D-08 OVMax= 8.92D-05

 Cycle  14  Pass 1  IDiag  1:
 RMSU=  5.84D-07    CP:  1.00D+00  1.01D+00  8.12D-01
 E= -1611.10085830983     Delta-E=       -0.000000068243 Rises=F Damp=F
 DIIS: error= 6.24D-07 at cycle   4 NSaved=   4.
 NSaved= 4 IEnMin= 4 EnMin= -1611.10085830983     IErMin= 4 ErrMin= 6.24D-07
 ErrMax= 6.24D-07  0.00D+00 EMaxC= 1.00D-01 BMatC= 6.21D-10 BMatP= 2.35D-08
 IDIUse=1 WtCom= 1.00D+00 WtEn= 0.00D+00
 Coeff-Com: -0.193D-02 0.201D+00 0.144D+00 0.657D+00
 Coeff:     -0.193D-02 0.201D+00 0.144D+00 0.657D+00
 Gap=     0.146 Goal=   None    Shift=    0.000
 RMSDP=1.04D-07 MaxDP=4.85D-06 DE=-6.82D-08 OVMax= 9.15D-06

 Cycle  15  Pass 1  IDiag  1:
 RMSU=  8.91D-08    CP:  1.00D+00  1.01D+00  8.31D-01  9.43D-01
 E= -1611.10085831029     Delta-E=       -0.000000000453 Rises=F Damp=F
 DIIS: error= 4.00D-07 at cycle   5 NSaved=   5.
 NSaved= 5 IEnMin= 5 EnMin= -1611.10085831029     IErMin= 5 ErrMin= 4.00D-07
 ErrMax= 4.00D-07  0.00D+00 EMaxC= 1.00D-01 BMatC= 2.13D-10 BMatP= 6.21D-10
 IDIUse=1 WtCom= 1.00D+00 WtEn= 0.00D+00
 Coeff-Com: -0.101D-03 0.853D-02 0.245D-01 0.398D+00 0.569D+00
 Coeff:     -0.101D-03 0.853D-02 0.245D-01 0.398D+00 0.569D+00
 Gap=     0.146 Goal=   None    Shift=    0.000
 RMSDP=4.13D-08 MaxDP=1.41D-06 DE=-4.53D-10 OVMax= 4.52D-06

 Cycle  16  Pass 1  IDiag  1:
 RMSU=  2.46D-08    CP:  1.00D+00  1.01D+00  8.34D-01  9.69D-01  6.90D-01
 E= -1611.10085831050     Delta-E=       -0.000000000216 Rises=F Damp=F
 DIIS: error= 1.26D-07 at cycle   6 NSaved=   6.
 NSaved= 6 IEnMin= 6 EnMin= -1611.10085831050     IErMin= 6 ErrMin= 1.26D-07
 ErrMax= 1.26D-07  0.00D+00 EMaxC= 1.00D-01 BMatC= 1.83D-11 BMatP= 2.13D-10
 IDIUse=1 WtCom= 1.00D+00 WtEn= 0.00D+00
 Coeff-Com:  0.211D-04-0.347D-02 0.882D-02 0.216D+00 0.352D+00 0.427D+00
 Coeff:      0.211D-04-0.347D-02 0.882D-02 0.216D+00 0.352D+00 0.427D+00
 Gap=     0.146 Goal=   None    Shift=    0.000
 RMSDP=1.26D-08 MaxDP=5.07D-07 DE=-2.16D-10 OVMax= 1.70D-06

 Cycle  17  Pass 1  IDiag  1:
 RMSU=  7.35D-09    CP:  1.00D+00  1.01D+00  8.35D-01  9.67D-01  6.86D-01
                    CP:  5.89D-01
 E= -1611.10085831053     Delta-E=       -0.000000000030 Rises=F Damp=F
 DIIS: error= 3.50D-08 at cycle   7 NSaved=   7.
 NSaved= 7 IEnMin= 7 EnMin= -1611.10085831053     IErMin= 7 ErrMin= 3.50D-08
 ErrMax= 3.50D-08  0.00D+00 EMaxC= 1.00D-01 BMatC= 1.12D-12 BMatP= 1.83D-11
 IDIUse=1 WtCom= 1.00D+00 WtEn= 0.00D+00
 Coeff-Com:  0.219D-04-0.292D-02 0.347D-02 0.103D+00 0.173D+00 0.256D+00
 Coeff-Com:  0.468D+00
 Coeff:      0.219D-04-0.292D-02 0.347D-02 0.103D+00 0.173D+00 0.256D+00
 Coeff:      0.468D+00
 Gap=     0.146 Goal=   None    Shift=    0.000
 RMSDP=3.52D-09 MaxDP=2.45D-07 DE=-3.00D-11 OVMax= 4.72D-07

 SCF Done:  E(RB3LYP) =  -1611.10085831     A.U. after   17 cycles
            NFock= 17  Conv=0.35D-08     -V/T= 2.0093
 KE= 1.596330074839D+03 PE=-1.135075557115D+04 EE= 4.339344527826D+03
 Leave Link  502 at Sat Feb 24 22:40:27 2024, MaxMem=  7516192768 cpu:            2728.6 elap:             166.2
 (Enter /public/apps/g16-C01//g16/l601.exe)
 Copying SCF densities to generalized density rwf, IOpCl= 0 IROHF=0.

 **********************************************************************

            Population analysis using the SCF Density.

 **********************************************************************

 Alpha  occ. eigenvalues --  -19.16719 -19.16490 -19.15820 -19.14572 -10.25229
 Alpha  occ. eigenvalues --  -10.24580 -10.24541 -10.23881 -10.23457 -10.23441
 Alpha  occ. eigenvalues --  -10.19892 -10.19436 -10.19425 -10.19367 -10.19337
 Alpha  occ. eigenvalues --  -10.19276 -10.19187 -10.19100 -10.19046 -10.18875
 Alpha  occ. eigenvalues --  -10.18792 -10.18627 -10.18519 -10.18474 -10.18324
 Alpha  occ. eigenvalues --  -10.18323 -10.18252 -10.18238 -10.18154 -10.18061
 Alpha  occ. eigenvalues --  -10.18050 -10.18038 -10.17903 -10.17639 -10.17408
 Alpha  occ. eigenvalues --  -10.17326 -10.17248 -10.17009  -1.06463  -1.05732
 Alpha  occ. eigenvalues --   -1.05513  -1.03838  -0.87888  -0.86312  -0.86151
 Alpha  occ. eigenvalues --   -0.85640  -0.82293  -0.80976  -0.78986  -0.77717
 Alpha  occ. eigenvalues --   -0.76968  -0.75249  -0.74841  -0.74263  -0.73915
 Alpha  occ. eigenvalues --   -0.72988  -0.72649  -0.70108  -0.68968  -0.68028
 Alpha  occ. eigenvalues --   -0.64102  -0.62911  -0.62286  -0.61239  -0.61034
 Alpha  occ. eigenvalues --   -0.60790  -0.60252  -0.59136  -0.58308  -0.57601
 Alpha  occ. eigenvalues --   -0.55880  -0.54570  -0.54272  -0.53163  -0.52108
 Alpha  occ. eigenvalues --   -0.51897  -0.51226  -0.50491  -0.49149  -0.48526
 Alpha  occ. eigenvalues --   -0.48133  -0.47237  -0.46978  -0.46554  -0.46300
 Alpha  occ. eigenvalues --   -0.45254  -0.44789  -0.44743  -0.44518  -0.43998
 Alpha  occ. eigenvalues --   -0.43694  -0.43477  -0.43031  -0.42582  -0.42455
 Alpha  occ. eigenvalues --   -0.41967  -0.41794  -0.41149  -0.40652  -0.40337
 Alpha  occ. eigenvalues --   -0.39607  -0.38870  -0.38401  -0.38211  -0.38084
 Alpha  occ. eigenvalues --   -0.37740  -0.37041  -0.36870  -0.36466  -0.36068
 Alpha  occ. eigenvalues --   -0.35681  -0.35181  -0.35072  -0.34585  -0.34439
 Alpha  occ. eigenvalues --   -0.33481  -0.33176  -0.32748  -0.31719  -0.30526
 Alpha  occ. eigenvalues --   -0.29155  -0.27517  -0.26392  -0.26196  -0.25751
 Alpha  occ. eigenvalues --   -0.25616  -0.25022  -0.23904  -0.22492  -0.20538
 Alpha  occ. eigenvalues --   -0.19159
 Alpha virt. eigenvalues --   -0.04527  -0.03097  -0.01549  -0.01375  -0.00905
 Alpha virt. eigenvalues --   -0.00764  -0.00266   0.01158   0.02460   0.03665
 Alpha virt. eigenvalues --    0.04157   0.05962   0.06521   0.07001   0.07774
 Alpha virt. eigenvalues --    0.07923   0.08675   0.09105   0.09254   0.09762
 Alpha virt. eigenvalues --    0.09863   0.10253   0.10519   0.10878   0.11440
 Alpha virt. eigenvalues --    0.11765   0.11821   0.12179   0.12472   0.12722
 Alpha virt. eigenvalues --    0.12857   0.13741   0.15266   0.15506   0.15702
 Alpha virt. eigenvalues --    0.15943   0.16097   0.16509   0.16921   0.17649
 Alpha virt. eigenvalues --    0.18737   0.19345   0.19497   0.20019   0.20888
 Alpha virt. eigenvalues --    0.23165   0.23807   0.24043   0.24293   0.25018
 Alpha virt. eigenvalues --    0.26351   0.26989   0.27487   0.28091   0.28678
 Alpha virt. eigenvalues --    0.28951   0.29121   0.29456   0.29801   0.30217
 Alpha virt. eigenvalues --    0.30371   0.30865   0.31024   0.31549   0.31672
 Alpha virt. eigenvalues --    0.31939   0.32227   0.33023   0.33582   0.34447
 Alpha virt. eigenvalues --    0.34704   0.34928   0.35647   0.35914   0.36253
 Alpha virt. eigenvalues --    0.37186   0.37302   0.37723   0.38967   0.39349
 Alpha virt. eigenvalues --    0.40322   0.40652   0.41000   0.41812   0.42357
 Alpha virt. eigenvalues --    0.42677   0.42841   0.43318   0.43526   0.43785
 Alpha virt. eigenvalues --    0.44442   0.44719   0.45289   0.45448   0.45924
 Alpha virt. eigenvalues --    0.46101   0.46330   0.46893   0.47133   0.47246
 Alpha virt. eigenvalues --    0.47442   0.47741   0.47815   0.48163   0.48406
 Alpha virt. eigenvalues --    0.48808   0.49289   0.49715   0.50100   0.50307
 Alpha virt. eigenvalues --    0.50569   0.50951   0.51162   0.51880   0.52798
 Alpha virt. eigenvalues --    0.52971   0.53113   0.53544   0.54357   0.54672
 Alpha virt. eigenvalues --    0.54805   0.55152   0.55187   0.56032   0.56410
 Alpha virt. eigenvalues --    0.57219   0.57481   0.58273   0.58592   0.58699
 Alpha virt. eigenvalues --    0.59527   0.59860   0.60559   0.61096   0.61370
 Alpha virt. eigenvalues --    0.61531   0.62090   0.62395   0.62788   0.63266
 Alpha virt. eigenvalues --    0.63612   0.64005   0.64543   0.64991   0.65454
 Alpha virt. eigenvalues --    0.65689   0.66340   0.66844   0.67060   0.67475
 Alpha virt. eigenvalues --    0.67727   0.67939   0.68178   0.68354   0.68698
 Alpha virt. eigenvalues --    0.69018   0.69310   0.69545   0.70041   0.70127
 Alpha virt. eigenvalues --    0.70494   0.70762   0.70877   0.71237   0.71332
 Alpha virt. eigenvalues --    0.72009   0.72438   0.72953   0.73263   0.73795
 Alpha virt. eigenvalues --    0.73844   0.74534   0.74638   0.75060   0.75402
 Alpha virt. eigenvalues --    0.75807   0.75902   0.76406   0.76597   0.77575
 Alpha virt. eigenvalues --    0.78001   0.78080   0.78469   0.79105   0.79163
 Alpha virt. eigenvalues --    0.79836   0.80189   0.80416   0.81241   0.81925
 Alpha virt. eigenvalues --    0.82568   0.82654   0.82806   0.83012   0.83921
 Alpha virt. eigenvalues --    0.84840   0.85274   0.85389   0.85732   0.87218
 Alpha virt. eigenvalues --    0.88016   0.89355   0.89839   0.90445   0.90853
 Alpha virt. eigenvalues --    0.91579   0.92046   0.92906   0.93793   0.94445
 Alpha virt. eigenvalues --    0.95021   0.95755   0.96466   0.97805   1.02152
 Alpha virt. eigenvalues --    1.02692   1.03720   1.04371   1.05305   1.06078
 Alpha virt. eigenvalues --    1.06572   1.07574   1.08168   1.08923   1.09312
 Alpha virt. eigenvalues --    1.10398   1.11500   1.12122   1.12967   1.13513
 Alpha virt. eigenvalues --    1.14054   1.16200   1.16914   1.17361   1.20583
 Alpha virt. eigenvalues --    1.20789   1.21856   1.23115   1.24531   1.25383
 Alpha virt. eigenvalues --    1.26537   1.26706   1.26789   1.27049   1.27739
 Alpha virt. eigenvalues --    1.28306   1.28864   1.29701   1.30821   1.31240
 Alpha virt. eigenvalues --    1.32758   1.33203   1.34449   1.35221   1.37852
 Alpha virt. eigenvalues --    1.38573   1.39394   1.40669   1.41384   1.42213
 Alpha virt. eigenvalues --    1.43056   1.43537   1.44537   1.45223   1.45994
 Alpha virt. eigenvalues --    1.46493   1.47004   1.47239   1.47745   1.48121
 Alpha virt. eigenvalues --    1.48494   1.48887   1.49031   1.49421   1.50004
 Alpha virt. eigenvalues --    1.50302   1.50366   1.50970   1.51150   1.51669
 Alpha virt. eigenvalues --    1.52382   1.53045   1.53326   1.55291   1.57155
 Alpha virt. eigenvalues --    1.62557   1.63836   1.64685   1.65167   1.68647
 Alpha virt. eigenvalues --    1.72191   1.72219   1.72971   1.73271   1.74152
 Alpha virt. eigenvalues --    1.74536   1.75155   1.75706   1.76662   1.76835
 Alpha virt. eigenvalues --    1.77393   1.77532   1.77920   1.78184   1.79642
 Alpha virt. eigenvalues --    1.81177   1.82392   1.83118   1.83558   1.84011
 Alpha virt. eigenvalues --    1.84659   1.85146   1.85803   1.86750   1.86919
 Alpha virt. eigenvalues --    1.87288   1.88151   1.88642   1.88799   1.89529
 Alpha virt. eigenvalues --    1.90562   1.91503   1.92492   1.92961   1.96048
 Alpha virt. eigenvalues --    1.96374   1.97426   1.98695   1.99279   1.99460
 Alpha virt. eigenvalues --    2.00999   2.01742   2.04011   2.04754   2.04889
 Alpha virt. eigenvalues --    2.05562   2.06386   2.07287   2.07630   2.08523
 Alpha virt. eigenvalues --    2.08772   2.09523   2.09963   2.10335   2.11344
 Alpha virt. eigenvalues --    2.12291   2.13047   2.13727   2.14311   2.14499
 Alpha virt. eigenvalues --    2.14775   2.15038   2.15712   2.16532   2.18073
 Alpha virt. eigenvalues --    2.18567   2.20140   2.20926   2.21625   2.22040
 Alpha virt. eigenvalues --    2.23446   2.24319   2.25194   2.25474   2.26707
 Alpha virt. eigenvalues --    2.27124   2.27279   2.28047   2.28559   2.31074
 Alpha virt. eigenvalues --    2.31524   2.31604   2.32153   2.32900   2.34371
 Alpha virt. eigenvalues --    2.35240   2.36591   2.37753   2.38327   2.38855
 Alpha virt. eigenvalues --    2.39214   2.44507   2.45531   2.45722   2.46073
 Alpha virt. eigenvalues --    2.46500   2.47371   2.47675   2.47994   2.51785
 Alpha virt. eigenvalues --    2.54262   2.55451   2.55593   2.57021   2.57753
 Alpha virt. eigenvalues --    2.58500   2.58986   2.59707   2.61209   2.62525
 Alpha virt. eigenvalues --    2.63274   2.64332   2.65970   2.66549   2.67008
 Alpha virt. eigenvalues --    2.67554   2.68402   2.69550   2.70439   2.71125
 Alpha virt. eigenvalues --    2.71608   2.71933   2.72173   2.72323   2.72636
 Alpha virt. eigenvalues --    2.73186   2.73295   2.75578   2.76278   2.76808
 Alpha virt. eigenvalues --    2.79286   2.82987   2.86162   2.87125   2.87860
 Alpha virt. eigenvalues --    2.88641   2.92551   2.94027   2.94625   2.96463
 Alpha virt. eigenvalues --    2.97018   2.97153   2.98247   3.00794   3.03382
 Alpha virt. eigenvalues --    3.05761   3.06994   3.08093   3.08912   3.18786
 Alpha virt. eigenvalues --    3.20325   3.28170   3.32493   3.34478   3.36160
 Alpha virt. eigenvalues --    3.40114   3.40726   3.44783   3.45511   3.55522
 Alpha virt. eigenvalues --    3.58782   3.61637   3.64262
          Condensed to atoms (all electrons):
 Mulliken charges:
               1
     1  O   -0.353200
     2  C    0.189166
     3  C   -0.152615
     4  C   -0.131688
     5  C    0.172640
     6  C   -0.294326
     7  C    0.320072
     8  O   -0.310950
     9  C    0.144474
    10  C   -0.028770
    11  C   -0.106201
    12  C   -0.044271
    13  C   -0.043457
    14  C   -0.037981
    15  C   -0.084907
    16  C   -0.096214
    17  C   -0.129328
    18  C    0.139499
    19  C   -0.184183
    20  C    0.005670
    21  C    0.185403
    22  O   -0.368824
    23  C   -0.123488
    24  C   -0.125384
    25  C    0.168803
    26  C   -0.295261
    27  C    0.319321
    28  O   -0.315180
    29  C    0.144830
    30  C   -0.026451
    31  C   -0.105975
    32  C   -0.043812
    33  C   -0.043383
    34  C   -0.037695
    35  C   -0.084714
    36  C   -0.102331
    37  C   -0.140769
    38  C    0.131064
    39  H    0.322695
    40  H    0.019058
    41  H    0.036977
    42  H    0.041773
    43  H    0.078889
    44  H    0.102926
    45  H    0.034770
    46  H    0.047818
    47  H    0.049679
    48  H    0.050803
    49  H    0.057333
    50  H    0.041520
    51  H    0.069391
    52  H    0.331170
    53  H    0.033691
    54  H    0.032273
    55  H    0.039469
    56  H    0.099803
    57  H    0.077781
    58  H    0.033823
    59  H    0.046630
    60  H    0.048088
    61  H    0.048469
    62  H    0.056306
    63  H    0.034690
    64  H    0.054592
 Sum of Mulliken charges =  -0.00000
 Mulliken charges with hydrogens summed into heavy atoms:
               1
     1  O   -0.030505
     2  C    0.189166
     3  C   -0.133557
     4  C   -0.094712
     5  C    0.172640
     6  C   -0.252553
     7  C    0.320072
     8  O   -0.310950
     9  C    0.326289
    10  C   -0.028770
    11  C   -0.071431
    12  C    0.003547
    13  C    0.006222
    14  C    0.012822
    15  C   -0.027574
    16  C   -0.054693
    17  C   -0.059936
    18  C    0.139499
    19  C   -0.184183
    20  C    0.005670
    21  C    0.185403
    22  O   -0.037654
    23  C   -0.089797
    24  C   -0.093111
    25  C    0.168803
    26  C   -0.255792
    27  C    0.319321
    28  O   -0.315180
    29  C    0.322414
    30  C   -0.026451
    31  C   -0.072152
    32  C    0.002818
    33  C    0.004705
    34  C    0.010774
    35  C   -0.028409
    36  C   -0.067641
    37  C   -0.086177
    38  C    0.131064
 Electronic spatial extent (au):  <R**2>=          26048.9245
 Charge=             -0.0000 electrons
 Dipole moment (field-independent basis, Debye):
    X=             -2.4340    Y=              1.1148    Z=              1.2117  Tot=              2.9386
 Quadrupole moment (field-independent basis, Debye-Ang):
   XX=           -184.6275   YY=           -203.9631   ZZ=           -219.2631
   XY=            -10.3013   XZ=             -9.0886   YZ=              4.1103
 Traceless Quadrupole moment (field-independent basis, Debye-Ang):
   XX=             17.9904   YY=             -1.3452   ZZ=            -16.6452
   XY=            -10.3013   XZ=             -9.0886   YZ=              4.1103
 Octapole moment (field-independent basis, Debye-Ang**2):
  XXX=             -0.9408  YYY=             99.3850  ZZZ=             15.9703  XYY=            -31.7676
  XXY=             50.9209  XXZ=            -14.5847  XZZ=            -27.2318  YZZ=            -14.8756
  YYZ=             -1.7481  XYZ=             19.8867
 Hexadecapole moment (field-independent basis, Debye-Ang**3):
 XXXX=         -26416.0435 YYYY=          -4317.8416 ZZZZ=          -2659.6651 XXXY=            135.6154
 XXXZ=           -134.0122 YYYX=            -62.6321 YYYZ=            497.4774 ZZZX=            184.6739
 ZZZY=            487.2474 XXYY=          -5660.6971 XXZZ=          -4886.4226 YYZZ=          -1295.4093
 XXYZ=            258.7939 YYXZ=              9.7227 ZZXY=            127.2900
 N-N= 3.803980110176D+03 E-N=-1.135075558021D+04  KE= 1.596330074839D+03
 No NMR shielding tensors so no spin-rotation constants.
[...]
 0225,-0.00000256,-0.00000146,0.00000041,-0.00000754,0.00001479,0.00000
 472,0.00000766,-0.00001691,-0.00000539,-0.00000498,0.00004939,0.000003
 75,0.00003482,-0.00002206,-0.00001980,0.00002798,-0.00000394,-0.000114
 40,0.00012852,-0.00004419,0.00011756,-0.00021135,0.00006349,-0.0001290
 5,-0.00005058,0.00000649,-0.00000792,-0.00006681,0.00001506,0.00002239
 ,0.00012605,-0.00003748,0.00001374,-0.00025531,0.00020449,-0.00026349,
 0.00168695,-0.00148067,0.00130857,-0.00028756,0.00045767,-0.00124976,-
 0.00051857,-0.00002939,0.00135191,-0.01691582,0.00634500,0.01805701,-0
 .00367581,-0.00339842,-0.00106727,-0.00010634,-0.00098897,-0.00000372,
 -0.00143715,-0.00326652,-0.00359597,0.01904713,0.00313719,-0.01929013,
 0.00591774,-0.05679483,-0.01454266,-0.00020932,0.00013761,-0.00007957,
 0.00003783,0.00000519,0.00002697,-0.00002734,0.00000262,0.00002353,-0.
 00000266,-0.00000851,0.00000477,-0.00000328,0.00000334,0.00000209,-0.0
 0000360,-0.00000040,0.00000186,-0.00000300,0.00000087,0.00000137,-0.00
 000317,0.00000439,0.00000064,-0.00000562,-0.00000407,0.00000043,0.0000
 0157,0.00000141,-0.00000032,-0.00000020,0.00000136,-0.00000011,0.00000
 002,0.00000117,-0.00000053,0.00000077,0.00000142,-0.00000064,0.0000018
 9,0.00000335,0.00000175,-0.00000458,-0.00000619,-0.00000373,0.00000479
 ,0.00002577,0.00000172,0.00003666,-0.00000321,-0.00001762,-0.00000808,
 0.00000494,-0.00001155,0.00001304,0.00000063,-0.00000280,-0.00002753,0
 .00000728,0.00000153,0.00000491,-0.00004818,0.00008213,0.00028838,0.00
 018966,-0.00007168,-0.00101537,0.00006593,0.00092299,0.00025760,-0.000
 03994,0.00023334,0.00082161,0.00001591,-0.00087812,0.00079295,0.000724
 56,0.00157290,-0.00440134,0.05478472,-0.00001372,-0.00002791,0.0000057
 4,0.00001716,0.00002288,-0.00000680,-0.00001013,-0.00000458,0.00000448
 ,0.00000363,0.00001128,-0.00000195,0.00000106,-0.00001491,-0.00000113,
 0.00000954,0.00001234,-0.00000458,-0.00002586,-0.00003662,0.00000962,0
 .00004052,0.00002444,-0.00001603,-0.00003004,-0.00000098,0.00001251,0.
 00000213,0.00000091,-0.00000444,0.00000212,0.00000179,0.00000398,-0.00
 000014,0.00000072,0.00000020,0.00000079,-0.00000010,-0.00000030,0.0000
 0030,0.00000072,-0.00000243,0.00000091,0.00000092,0.00000145,0.0000046
 4,0.00000109,0.00000335,-0.00001383,0.00000589,0.00001385,0.00001206,-
 0.00000305,-0.00000600,-0.00000636,0.00000295,0.00000527,-0.00001465,0
 .00000452,0.00001978,-0.00004571,0.00001988,-0.00003462,0.00005558,-0.
 00002193,0.00003675,0.00000738,-0.00000385,0.00000917,0.00002272,-0.00
 000898,-0.00002509,-0.00007362,-0.00005060,-0.00001536,0.00011888,-0.0
 0001187,-0.00019893,0.00002779,0.00008351,0.00013000,-0.00092395,-0.00
 129273,-0.00002318,-0.00067382,-0.00001014,-0.00244685,0.00425876,-0.0
 0013538,0.00020366,0.00296029,-0.00016603,0.00360406,-0.00079520,-0.00
 003314,0.00010150,0.00245250,-0.00430914,0.00279695,0.01143573,0.00110
 273,-0.00687424,0.14792527,-0.01400039,-0.19222618,-0.00017737,-0.0000
 0089,0.00012308,-0.00000801,-0.00002637,-0.00002472,-0.00001919,0.0000
 1848,-0.00004356,0.00000429,0.00000819,-0.00000141,0.00000118,-0.00000
 382,-0.00000038,0.00000287,-0.00000030,-0.00000114,0.00000218,-0.00000
 262,-0.00000115,0.00000254,-0.00000285,-0.00000082,0.00000315,0.000001
 84,0.00000019,-0.00000138,-0.00000045,-0.00000008,0.00000094,-0.000001
 12,-0.00000016,0.00000069,-0.00000084,0.00000067,-0.00000066,-0.000000
 39,0.00000059,-0.00000143,-0.00000175,-0.00000209,-0.00000987,-0.00000
 518,-0.00000156,-0.00000421,0.00000671,-0.00001244,-0.00001018,0.00000
 487,0.00000003,0.00000385,0.00000079,0.00000383,-0.00000268,0.00000354
 ,0.00000290,0.00003051,0.00004738,0.00000247,0.00002558,-0.00027926,-0
 .00025392,-0.00005138,0.00024784,0.00018662,0.00017881,-0.00026358,-0.
 00002237,-0.00044886,0.00023326,-0.00051916,0.00054761,0.00006434,-0.0
 0032400,-0.00245481,0.00116395,-0.00140296,-0.16438590,0.01761536,0.19
 722880,-0.00000079,0.00000059,0.00000990,-0.00002490,-0.00001659,-0.00
 000128,0.00000741,0.00000368,0.00001045,-0.00002445,0.00000140,0.00001
 622,-0.00000433,0.00001407,0.00000410,-0.00000247,-0.00000759,0.000015
 57,-0.00001312,-0.00000434,-0.00000216,0.00000689,-0.00000488,0.000009
 97,-0.00001248,-0.00000747,-0.00000964,-0.00000265,0.00000408,-0.00000
 044,0.00000234,0.00000013,0.00000017,-0.00000071,0.00000092,0.00000091
 ,0.00000083,-0.00000047,0.00000061,-0.00000035,0.00000024,-0.00000114,
 0.00000337,-0.00000161,0.00000190,0.00000684,-0.00001080,0.00001755,0.
 00002401,-0.00001318,0.00000822,0.00000670,0.00005547,-0.00001170,0.00
 009871,0.00004945,0.00002170,0.00077466,-0.00002552,-0.00068436,-0.000
 12198,-0.00007426,-0.00032762,-0.00008442,0.00001892,-0.00014753,-0.00
 028972,0.00010192,0.00002123,0.00019919,-0.00018820,0.00028683,-0.0009
 1955,0.00015558,-0.00058549,-0.00453901,0.00193312,0.00129675,0.002970
 89,-0.00307675,0.02780255,0.00221310,-0.00111743,-0.00065573,-0.000397
 81,-0.00004240,-0.00007606,0.00018457,0.00004995,-0.00003626,-0.000012
 76,-0.00007095,-0.00005257,0.00000298,-0.00000448,-0.00003477,0.000006
 04,-0.00001934,-0.00001074,0.00001104,0.00001915,-0.00001476,-0.000041
 92,-0.00004758,-0.00000092,-0.05727878,0.00329324,0.01682442,0.0061424
 6,0.00250270,-0.02586963,-0.00351308,0.00324431,-0.00162425,-0.0000020
 2,0.00000261,-0.00001028,-0.00000802,0.00000264,-0.00000118,-0.0000042
 4,-0.00000006,-0.00000293,-0.00000465,-0.00000165,-0.00000341,-0.00000
 113,0.00000353,0.00000285,0.00000101,-0.00000042,0.00000003,-0.0000017
 3,0.00000015,0.00000111,0.00000038,-0.00000057,-0.00000034,0.00000089,
 -0.00000047,0.00000068,0.00000034,0.00000009,0.00000137,-0.00000100,-0
 .00000026,-0.00000180,-0.00000437,-0.00000512,-0.00000893,0.00000054,0
 .00001485,-0.00000283,0.00003491,0.00000002,-0.00001432,0.00000473,-0.
 00001038,-0.00000102,0.00001720,0.00001312,-0.00006564,-0.00001949,-0.
 00016354,0.00141170,0.00002021,-0.00000853,-0.00000437,0.00017578,0.00
 004141,-0.00007857,0.00001631,0.00000403,0.00001349,0.00000615,-0.0000
 0907,-0.00000668,0.00000452,-0.00000430,-0.00000309,0.00000054,-0.0000
 0995,0.00000143,0.00001821,0.00005542,0.00003357,0.05352981,-0.0000728
 2,-0.00007996,-0.00002320,0.00007541,0.00005456,0.00002926,-0.00005128
 ,-0.00001601,0.00000010,0.00000494,0.00003953,-0.00000642,0.00003651,-
 0.00000737,-0.00001700,0.00001728,0.00000304,-0.00000794,0.00000315,0.
 00000493,-0.00000414,0.00000166,-0.00002333,0.00000579,-0.00000916,0.0
 0000154,0.00000005,-0.00000159,0.00000101,-0.00000136,0.00000101,-0.00
 000019,0.00000214,-0.00000052,-0.00000021,0.00000029,0.00000051,-0.000
 00071,0.00000017,-0.00000002,-0.00000023,-0.00000075,0.00000053,-0.000
 00035,0.00000137,-0.00000688,-0.00001124,0.00002193,-0.00001235,0.0000
 3977,0.00001978,-0.00001392,-0.00003121,-0.00007275,0.00003109,0.00026
 822,0.00005177,-0.00016294,0.00033727,0.00028538,-0.00008683,-0.000567
 68,0.00001558,0.00002361,-0.00009324,0.00005174,0.00013630,0.00011167,
 -0.00000626,-0.00017375,-0.00037001,-0.00013479,0.00005355,-0.00058778
 ,-0.00001569,0.00166911,0.00317653,-0.00001849,0.00077245,0.00492739,-
 0.00481643,-0.00097211,-0.00226847,-0.00029435,-0.00010220,-0.00048433
 ,-0.00006762,0.00007339,0.00002881,0.00000425,0.00000145,-0.00003507,-
 0.00001572,-0.00000142,0.00001698,0.00000733,-0.00000648,-0.00000586,0
 .00000573,-0.00003053,-0.00002108,0.00000719,0.00008113,0.00001420,-0.
 00007982,0.00301562,-0.04069966,0.03217782,-0.00094814,0.00298445,0.00
 835322,0.00335398,0.00756751,0.00135735,0.00002099,0.00000851,0.000023
 66,0.00000194,-0.00000727,0.00000250,0.00000343,0.00000022,0.00000254,
 0.00000235,0.00000028,0.00000151,-0.00000024,0.00000108,0.00000020,-0.
 00000024,-0.00000098,-0.00000003,-0.00000054,0.00000082,-0.00000049,0.
 00000116,-0.00000017,-0.00000018,0.00000066,0.00000004,0.00000040,-0.0
 0000009,0.00000034,0.00000015,-0.00000018,-0.00000002,-0.00000100,-0.0
 0000821,-0.00000883,-0.00000833,-0.00000337,-0.00000951,-0.00001872,-0
 .00000915,0.00002080,0.00000783,-0.00001008,-0.00003548,-0.00000190,0.
 00000694,0.00004079,0.00001683,0.00003402,0.00021709,-0.00023785,-0.00
 004564,0.00000850,0.00002448,-0.00016748,-0.00000506,0.00008382,-0.000
 00859,-0.00000419,0.00000523,-0.00000451,-0.00000106,0.00000201,-0.000
 00415,0.00000273,0.00000548,0.00000495,-0.00000875,-0.00000586,0.00003
 211,-0.00005889,0.00000490,-0.00501944,0.03054770,0.00002125,0.0000429
 3,0.00001032,-0.00003640,-0.00007458,0.00001090,0.00001913,0.00000059,
 0.00000113,-0.00002286,-0.00000814,0.00001648,0.00000128,0.00001886,-0
 .00000215,-0.00000309,-0.00002401,0.00000829,0.00001271,0.00005021,-0.
 00001006,-0.00003949,-0.00005047,0.00002689,0.00001901,-0.00000138,-0.
 00001779,-0.00000446,0.00000161,0.00000343,-0.00000036,-0.00000212,-0.
 00000303,-0.00000021,-0.00000057,0.00000031,-0.00000012,-0.00000053,0.
 00000089,-0.00000040,-0.00000113,0.00000115,0.00000032,-0.00000195,0.0
 0000089,0.00000288,-0.00000150,0.00001716,0.00002821,-0.00001723,0.000
 00635,0.00000293,0.00009299,-0.00000498,0.00006704,0.00000951,-0.00001
 532,0.00044575,-0.00000773,-0.00062555,-0.00017107,-0.00005081,0.00013
 210,-0.00019368,0.00006522,-0.00020169,-0.00002870,0.00001649,0.000051
 07,0.00003202,-0.00005983,-0.00000207,0.00001405,-0.00018040,0.0007913
 4,0.00294660,-0.00035441,0.00031769,-0.00314585,0.00275481,-0.01211377
 ,-0.00105829,-0.00019558,0.00119544,0.00012470,-0.00009551,0.00025530,
 -0.00006648,0.00002325,0.00004170,-0.00000325,0.00000091,0.00002411,-0
 .00000545,0.00000812,0.00002439,-0.00000237,0.00000184,0.00000146,-0.0
 0001647,-0.00000354,0.00002150,0.00006385,0.00001038,-0.00005423,0.018
 69788,0.03189633,-0.33457228,0.00292338,0.00109103,-0.01121882,-0.0023
 0455,0.00150507,0.00110881,-0.00001332,-0.00001049,-0.00000910,-0.0000
 0951,0.00000653,0.00000002,-0.00000569,-0.00000074,-0.00000043,-0.0000
 0487,-0.00000061,-0.00000035,-0.00000300,0.00000526,0.00000210,-0.0000
 0336,-0.00000297,-0.00000001,0.00000039,0.00000093,0.00000050,-0.00000
 030,0.00000077,-0.00000013,0.00000027,0.00000059,-0.00000020,0.0000009
 0,0.00000090,0.00000034,0.00000076,0.00000218,0.00000048,-0.00000573,-
 0.00000874,-0.00000952,0.00000493,0.00002640,-0.00000638,0.00004989,-0
 .00000672,-0.00001844,-0.00000614,-0.00000158,-0.00001708,0.00001487,0
 .00000113,0.00000624,-0.00015738,0.00015958,-0.00054623,0.00005533,-0.
 00002763,-0.00002403,-0.00014474,-0.00001715,0.00003414,-0.00001571,0.
 00000050,-0.00000374,-0.00000338,0.00000171,0.00000150,-0.00000447,0.0
 0000143,0.00000194,0.00000042,-0.00000503,-0.00000563,0.00001869,-0.00
 002345,-0.00001434,-0.01782463,-0.03584425,0.35452292,-0.00013345,-0.0
 0029439,0.00011744,0.00003101,0.00017694,-0.00052498,0.00001551,-0.000
 04906,0.00011422,-0.00000913,0.00011769,0.00002446,0.00013132,-0.00012
 170,-0.00006202,-0.00000867,0.00001940,0.00002867,-0.00004083,-0.00006
 621,0.00000567,0.00005743,0.00006543,-0.00002847,-0.00003350,0.0000008
 3,0.00002249,0.00000546,-0.00000039,-0.00000559,0.00000123,0.00000273,
 0.00000541,0.00000004,0.00000063,-0.00000008,0.00000076,-0.00000027,-0
 .00000067,-0.00000001,0.00000119,-0.00000237,0.00000063,0.00000146,-0.
 00000005,0.00002572,0.00006701,0.00001445,-0.00010142,0.00011456,-0.00
 003654,-0.00102660,-0.00024756,-0.00109603,-0.00071347,0.00030052,-0.0
 0106889,-0.00079782,-0.00035464,-0.00074884,-0.00018353,-0.00009944,0.
 00027730,0.00014393,0.00002462,0.00001329,0.00023448,-0.00007304,-0.00
 003028,-0.00015185,0.00006460,-0.00024325,0.00131477,0.00076537,0.0002
 3506,0.00041966,-0.00017964,-0.00048942,-0.00023660,0.00262598,-0.0032
 7113,-0.00139089,0.00032268,0.00047984,0.00013381,-0.00002812,-0.00028
 819,-0.00002985,-0.00004731,-0.00001044,0.00001041,0.00003856,0.000010
 50,-0.00000220,-0.00000287,0.00000014,0.00000010,0.00000838,0.00000406
 ,-0.00000813,-0.00000539,-0.00000326,0.00000509,0.00000399,0.00001661,
 -0.01737780,0.00391639,0.01323725,-0.26899472,0.04425358,0.11471002,0.
 00170144,0.00053909,0.00042971,0.00003025,0.00001953,0.00005534,0.0000
 0257,-0.00001809,-0.00000762,0.00001208,-0.00000247,0.00000443,0.00000
 705,0.00000149,0.00000183,0.00000429,-0.00000572,-0.00000280,0.0000045
 3,0.00000312,0.00000021,-0.00000094,-0.00000071,-0.00000048,0.00000093
 ,-0.00000093,0.00000013,0.00000030,-0.00000059,0.00000041,-0.00000053,
 -0.00000052,0.00000020,-0.00000129,-0.00000211,-0.00000196,-0.00000007
 ,0.00000840,0.00000060,-0.00002340,-0.00000857,0.00005540,-0.00001949,
 -0.00000315,0.00003238,0.00000348,0.00000941,0.00001510,0.00002081,0.0
 0003205,0.00001518,-0.00013335,-0.00017134,0.00001933,-0.00010173,0.00
 001650,0.00003167,-0.00003518,-0.00000709,0.00003925,0.00000472,-0.000
 00288,-0.00000397,-0.00000227,0.00000360,0.00000462,-0.00000007,0.0000
 0309,0.00000296,0.00000133,0.00000772,0.00000241,-0.00000564,-0.000021
 77,0.00000547,0.00083841,-0.00152637,-0.00026364,0.28640088,-0.0002264
 4,-0.00020928,-0.00009312,0.00038165,0.00009834,0.00023140,0.00005797,
 -0.00011977,-0.00011425,-0.00001562,0.00001250,0.00002845,-0.00022606,
 0.00008939,0.00015453,0.00005910,-0.00000118,-0.00004637,-0.00006420,-
 0.00003575,-0.00001451,0.00003800,-0.00002032,0.00000321,-0.00003792,-
 0.00000576,0.00000052,-0.00000189,0.00000619,-0.00000517,0.00000336,0.
 00000129,0.00000560,-0.00000106,0.,0.00000101,0.00000205,-0.00000208,0
 .00000100,-0.00000094,0.00000046,-0.00000347,0.00000460,-0.00000092,0.
 00000331,0.00001582,-0.00010923,0.00009023,-0.00006773,-0.00017337,-0.
 00001260,0.00015564,0.00033904,-0.00006238,0.00014402,0.00012344,0.000
 08513,-0.00055854,-0.00225355,-0.00034221,-0.00010533,-0.00035122,-0.0
 0002538,0.00002152,0.00021816,-0.00001382,-0.00004913,-0.00010466,-0.0
 0001819,-0.00017778,-0.00000030,0.00004697,0.00104631,0.00412572,0.001
 16419,-0.00020092,-0.00057554,0.00008857,0.00254401,0.00778288,0.00205
 961,0.00052472,0.00018007,-0.00020681,-0.00009231,-0.00018443,0.000075
 75,0.00006242,-0.00001077,-0.00000799,0.00000755,-0.00003177,0.0000137
 9,-0.00000906,0.00000276,-0.00000037,0.00000352,-0.00000916,-0.0000126
 9,-0.00000120,0.00001691,0.00000752,0.00002910,-0.00002107,-0.00000891
 ,0.00751032,0.00311384,-0.00428499,0.04401173,-0.04640413,-0.01874810,
 -0.00293555,0.00438521,0.00174325,0.00001388,-0.00000684,0.00002603,0.
 00001238,-0.00001169,0.00001413,-0.00000183,-0.00001797,-0.00001034,0.
 00000530,-0.00000175,0.00000225,0.00000049,0.00000157,0.00000253,0.000
 00454,0.00000047,-0.00000011,-0.00000245,0.00000107,0.00000003,0.00000
 238,-0.00000086,-0.00000041,0.00000196,-0.00000044,0.00000112,0.000000
 28,0.00000041,0.00000170,-0.00000178,-0.00000165,-0.00000383,-0.000006
 50,-0.00000689,-0.00001750,0.00006023,-0.00003559,-0.00007177,0.000005
 92,-0.00000260,0.00000757,0.00001830,0.00004951,0.00000304,0.00002718,
 0.00015558,0.00007442,-0.00019410,-0.00073042,-0.00010204,0.00004186,-
 0.00003805,-0.00000019,-0.00003144,0.00000737,0.00000600,-0.00000118,-
 0.00000023,0.00000245,-0.00000029,-0.00000149,-0.00000238,0.00000107,-
 0.00000157,-0.00000026,-0.00000006,-0.00000759,-0.00000154,0.00000549,
 0.00000858,0.00000367,-0.00161919,-0.00498210,-0.00071729,-0.05019420,
 0.03575120,-0.00027492,-0.00045973,0.00013152,-0.00004779,0.00074533,0
 .00005720,-0.00011646,0.00007585,0.00003663,0.00008400,0.00005297,-0.0
 0011304,-0.00016561,-0.00018349,0.00012172,0.00000884,0.00018938,-0.00
 003444,-0.00008548,-0.00031598,0.00001369,0.00023794,0.00024562,-0.000
 11049,-0.00015305,-0.00000054,0.00008333,0.00001488,0.00000032,-0.0000
 2416,0.00000712,0.00001150,0.00002217,-0.00000009,0.00000302,0.0000007
 4,0.00000406,-0.00000134,-0.00000134,-0.00000116,0.00000484,-0.0000136
 3,0.00000819,0.00000342,0.00000280,-0.00008703,0.00000624,0.00009732,0
 .00012932,-0.00007719,-0.00001243,-0.00068335,-0.00037880,0.00003498,-
 0.00016275,0.00028045,-0.00038253,0.00082445,-0.00063144,0.00075025,0.
 00023671,-0.00013204,0.00027843,-0.00032638,0.00010550,-0.00000229,0.0
 0006823,-0.00004237,0.00001587,0.00155734,-0.00035730,-0.00015214,-0.0
 0140234,0.00151693,-0.00514639,-0.00080475,0.00015412,-0.00043074,-0.0
 0211344,0.00180210,-0.00130469,-0.00066762,0.00010603,0.00053922,-0.00
 016638,0.00005457,-0.00014499,0.00000242,-0.00002260,-0.00001365,0.000
 00567,0.00000228,0.00001107,-0.00000064,0.00000146,0.00000707,-0.00000
 074,0.00000197,0.00000252,0.00000437,0.00000470,-0.00000268,-0.0000010
 9,0.00000352,0.00000662,-0.01651031,0.00334002,0.01124221,0.11417666,-
 0.01880699,-0.11842398,0.02772233,-0.00541241,-0.00896072,0.00000942,0
 .00006491,0.00002905,-0.00000358,-0.00003183,-0.00000232,0.00003588,-0
 .00000223,0.00000599,0.00002160,-0.00000495,0.00000371,0.00001474,-0.0
 0002052,-0.00000706,0.00001956,0.00001130,-0.00000072,-0.00000535,-0.0
 0000265,0.,0.00000338,-0.00000421,0.00000030,0.00000249,-0.00000328,0.
 00000200,-0.00000107,-0.00000210,0.00000337,-0.00000701,-0.00000916,-0
 .00001139,0.00000444,0.00002320,-0.00001375,0.00001222,-0.00000428,-0.
 00009080,0.00007634,-0.00000435,-0.00016257,-0.00003780,0.00001821,-0.
 00001245,0.00005981,0.00006783,-0.00047384,0.00003031,-0.00010074,0.00
 000611,-0.00006456,0.00000218,0.00002370,-0.00000312,-0.00000947,0.000
 00250,-0.00000482,-0.00000016,-0.00000353,-0.00000142,0.00000164,-0.00
 000097,0.00000016,-0.00000074,-0.00000166,-0.00000122,-0.00000023,0.00
 000081,-0.00000080,0.00000012,0.00000286,0.00036182,-0.00087844,0.0008
 5809,-0.12184256,0.01900002,0.12166152\\0.00000331,-0.00000014,-0.0000
 0085,-0.00000507,-0.00000034,0.00000064,0.00000296,0.00000126,-0.00000
 114,0.00000125,-0.00000411,-0.00000043,0.00000079,0.00000433,-0.000000
 47,-0.00000103,-0.00000645,-0.00000011,-0.00000184,0.00000625,0.000001
 83,0.00000145,-0.00000133,-0.00000142,-0.00000086,-0.00000139,0.000002
 52,-0.00000208,0.00000344,-0.00000093,0.00000307,-0.00000212,-0.000000
 46,-0.00000020,-0.00000050,-0.00000184,0.00000040,-0.00000058,0.000002
 28,0.00000177,-0.00000106,0.00000144,-0.00000113,-0.00000080,-0.000000
 10,0.00000446,0.00000135,-0.00000237,-0.00000329,-0.00000516,0.0000000
 5,0.00000114,0.00000484,0.00000108,-0.00000110,-0.00000673,0.00000036,
 -0.00000260,-0.00000051,-0.00000439,0.00000649,-0.00000027,0.00000502,
 -0.00000301,-0.00000539,-0.00000316,-0.00000151,0.00000225,-0.00000137
 ,0.00000012,-0.00000193,0.00000270,-0.00000492,0.00000225,-0.00000260,
 0.00000344,-0.00000064,0.00000491,0.00000114,-0.00000076,-0.00000655,-
 0.00000396,0.00000241,0.00000311,0.00000549,0.00000035,-0.00000076,0.0
 0000158,-0.00000012,-0.00000434,-0.00000272,0.00000042,0.00000166,-0.0
 0000079,-0.00000100,0.00000025,0.00000114,0.00000235,0.00000038,-0.000
 00048,0.00000201,0.00000123,0.00000194,-0.00000074,0.00000079,-0.00000
 499,0.00000078,-0.00000062,0.00000343,-0.00000095,0.00000215,0.0000012
 4,0.00000039,-0.00000070,-0.00000185,0.00000158,-0.00000077,-0.0000004
 9,-0.00000012,0.00000003,-0.00000055,-0.00000018,0.00000001,-0.0000004
 3,-0.00000005,0.00000063,-0.00000050,0.00000030,-0.00000015,0.00000112
 ,0.00000021,-0.00000003,-0.00000008,0.00000047,0.00000042,-0.00000025,
 -0.00000033,0.00000022,-0.00000020,-0.00000044,0.00000006,-0.00000020,
 -0.00000072,0.00000007,0.00000054,0.00000007,0.00000029,-0.00000076,-0
 .00000040,0.00000082,0.00000059,0.00000100,0.00000028,-0.00000034,0.00
 000376,0.00000089,-0.00000026,0.00000016,0.00000023,0.00000034,0.00000
 034,-0.00000010,-0.00000076,0.00000057,-0.00000076,-0.00000220,0.00000
 019,0.00000031,0.00000080,-0.00000040,-0.00000003,-0.00000005,0.000000
 66,-0.00000056,0.00000022,0.00000015,0.00000002,0.00000027,0.00000012,
 0.00000005,0.00000035,-0.00000003,0.00000041,-0.00000074,0.00000069,0.
 ,0.00000085,0.,0.,-0.00000040,0.00000077,-0.00000016\\\@
 The archive entry for this job was punched.


 If your ship doesn't come in, swim out to it!
                          -- Jonathan Winters
 Job cpu time:       0 days  9 hours 44 minutes 12.4 seconds.
 Elapsed time:       0 days  0 hours 31 minutes 24.8 seconds.
 File lengths (MBytes):  RWF=   2410 Int=      0 D2E=      0 Chk=     31 Scr=      1
 Normal termination of Gaussian 16 at Sat Feb 24 23:35:35 2024.
