 Entering Gaussian System, Link 0=g16
 Initial command:
 /public/apps/g16-C01//g16/l1.exe "/public/home/ljq/tmp/Gau-42303.inp" -scrdir="/public/home/ljq/tmp/"
 Entering Link 1 = /public/apps/g16-C01//g16/l1.exe PID=     42304.
  
 Copyright (c) 1988-2019, Gaussian, Inc.  All Rights Reserved.
  
 This is part of the Gaussian(R) 16 program.  It is based on
 the Gaussian(R) 09 system (copyright 2009, Gaussian, Inc.),
 the Gaussian(R) 03 system (copyright 2003, Gaussian, Inc.),
 the Gaussian(R) 98 system (copyright 1998, Gaussian, Inc.),
 the Gaussian(R) 94 system (copyright 1995, Gaussian, Inc.),
 the Gaussian 92(TM) system (copyright 1992, Gaussian, Inc.),
 the Gaussian 90(TM) system (copyright 1990, Gaussian, Inc.),
 the Gaussian 88(TM) system (copyright 1988, Gaussian, Inc.),
 the Gaussian 86(TM) system (copyright 1986, Carnegie Mellon
 University), and the Gaussian 82(TM) system (copyright 1983,
 Carnegie Mellon University). Gaussian is a federally registered
 trademark of Gaussian, Inc.
  
 This software contains proprietary and confidential information,
 including trade secrets, belonging to Gaussian, Inc.
  
 This software is provided under written license and may be
 used, copied, transmitted, or stored only in accord with that
 written license.
  
 The following legend is applicable only to US Government
 contracts under FAR:
  
                    RESTRICTED RIGHTS LEGEND
  
 Use, reproduction and disclosure by the US Government is
 subject to restrictions as set forth in subparagraphs (a)
 and (c) of the Commercial Computer Software - Restricted
 Rights clause in FAR 52.227-19.
  
 Gaussian, Inc.
 340 Quinnipiac St., Bldg. 40, Wallingford CT 06492
  
  
 ---------------------------------------------------------------
 Warning -- This program may not be used in any manner that
 competes with the business of Gaussian, Inc. or will provide
 assistance to any competitor of Gaussian, Inc.  The licensee
 of this program is prohibited from giving any competitor of
 Gaussian, Inc. access to this program.  By using this program,
 the user acknowledges that Gaussian, Inc. is engaged in the
 business of creating and licensing software in the field of
 computational chemistry and represents and warrants to the
 licensee that it is not a competitor of Gaussian, Inc. and that
 it will not use this program in any manner prohibited above.
 ---------------------------------------------------------------
  

 Cite this work as:
 Gaussian 16, Revision C.01,
 M. J. Frisch, G. W. Trucks, H. B. Schlegel, G. E. Scuseria, 
 M. A. Robb, J. R. Cheeseman, G. Scalmani, V. Barone, 
 G. A. Petersson, H. Nakatsuji, X. Li, M. Caricato, A. V. Marenich, 
 J. Bloino, B. G. Janesko, R. Gomperts, B. Mennucci, H. P. Hratchian, 
 J. V. Ortiz, A. F. Izmaylov, J. L. Sonnenberg, D. Williams-Young, 
 F. Ding, F. Lipparini, F. Egidi, J. Goings, B. Peng, A. Petrone, 
 T. Henderson, D. Ranasinghe, V. G. Zakrzewski, J. Gao, N. Rega, 
 G. Zheng, W. Liang, M. Hada, M. Ehara, K. Toyota, R. Fukuda, 
 J. Hasegawa, M. Ishida, T. Nakajima, Y. Honda, O. Kitao, H. Nakai, 
 T. Vreven, K. Throssell, J. A. Montgomery, Jr., J. E. Peralta, 
 F. Ogliaro, M. J. Bearpark, J. J. Heyd, E. N. Brothers, K. N. Kudin, 
 V. N. Staroverov, T. A. Keith, R. Kobayashi, J. Normand, 
 K. Raghavachari, A. P. Rendell, J. C. Burant, S. S. Iyengar, 
 J. Tomasi, M. Cossi, J. M. Millam, M. Klene, C. Adamo, R. Cammi, 
 J. W. Ochterski, R. L. Martin, K. Morokuma, O. Farkas, 
 J. B. Foresman, and D. J. Fox, Gaussian, Inc., Wallingford CT, 2019.
 
 ******************************************
 Gaussian 16:  ES64L-G16RevC.01  3-Jul-2019
                24-Feb-2024 
 ******************************************
 %nproc=40
 Will use up to   40 processors via shared memory.
 %mem=56GB
 ------------------------------------------
 #p opt freq b3lyp/def2svpp em=gd3bj nosymm
 ------------------------------------------
 1/18=20,19=15,26=3,38=1/1,3;
 2/9=110,12=2,15=1,17=6,18=5,40=1/2;
 3/5=43,7=202,11=2,25=1,30=1,71=1,74=-5,124=41/1,2,3;
 4//1;
 5/5=2,38=5/2;
 6/7=2,8=2,9=2,10=2,28=1/1;
 7/30=1/1,2,3,16;
 1/18=20,19=15,26=3/3(2);
 2/9=110,15=1/2;
 99//99;
 2/9=110,15=1/2;
 3/5=43,7=202,11=2,25=1,30=1,71=1,74=-5,124=41/1,2,3;
 4/5=5,16=3,69=1/1;
 5/5=2,38=5/2;
 7/30=1/1,2,3,16;
 1/18=20,19=15,26=3/3(-5);
 2/9=110,15=1/2;
 6/7=2,8=2,9=2,10=2,19=2,28=1/1;
 99/9=1/99;
 Leave Link    1 at Sat Feb 24 17:38:37 2024, MaxMem=  7516192768 cpu:               4.3 elap:               0.3
 (Enter /public/apps/g16-C01//g16/l101.exe)
 ----------------------
 $$$$Singlemol####0????
 ----------------------
 Symbolic Z-matrix:
 Charge =  0 Multiplicity = 1
 O                    -1.56491  -1.3458   -0.93921 
 C                    -1.70936  -0.19842  -0.22624 
 C                    -2.96767   0.45765  -0.27295 
 C                    -4.08683  -0.12352  -1.03258 
 C                    -4.83617   0.6789   -1.88895 
 C                    -5.90246   0.15072  -2.59231 
 C                    -6.23911  -1.18443  -2.44521 
 C                    -5.50157  -1.98817  -1.59242 
 C                    -4.43143  -1.46423  -0.89149 
 C                    -3.12013   1.64669   0.39459 
 C                    -2.07733   2.22223   1.14499 
 C                    -2.24201   3.43543   1.84408 
 C                    -1.21801   3.9646    2.57853 
 C                     0.01345   3.29695   2.65334 
 C                     0.20697   2.12036   1.98468 
 C                    -0.82569   1.55678   1.20523 
 C                    -0.65865   0.34187   0.49055 
 C                     0.65697  -0.35291   0.4857 
 C                     1.70482   0.19584  -0.22901 
 O                     1.55536   1.34755  -0.93388 
 C                     2.96554  -0.45503  -0.28144 
 C                     4.08261   0.13618  -1.03634 
 C                     4.42064   1.47764  -0.88657 
 C                     5.4898    2.01073  -1.58209 
 C                     6.23298   1.21552  -2.43797 
 C                     5.90277  -0.12023  -2.59388 
 C                     4.83736  -0.65752  -1.89611 
 C                     3.12303  -1.64799   0.37793 
 C                     2.08279  -2.23307   1.12442 
 C                     2.25277  -3.45061   1.81462 
 C                     1.23128  -3.98931   2.54561 
 C                    -0.00294  -3.32735   2.6256 
 C                    -0.20142  -2.14645   1.96604 
 C                     0.82868  -1.57279   1.19053 
 H                    -0.66542  -1.68356  -0.82292 
 H                    -4.56711   1.71799  -2.01539 
 H                    -6.47217   0.7822   -3.25878 
 H                    -7.07275  -1.59686  -2.99453 
 H                    -5.76224  -3.02972  -1.47217 
 H                    -3.86455  -2.09418  -0.22353 
 H                    -4.07589   2.14967   0.36676 
 H                    -3.19776   3.93666   1.78913 
 H                    -1.35133   4.89433   3.11151 
 H                     0.81036   3.71837   3.24811 
 H                     1.15317   1.60318   2.05467 
 H                     0.65469   1.68112  -0.81443 
 H                     3.84938   2.10101  -0.2162 
 H                     5.74528   3.05277  -1.45514 
 H                     7.06609   1.63501  -2.98272 
 H                     6.47686  -0.74508  -3.26284 
 H                     4.57337  -1.69704  -2.02944 
 H                     4.0809   -2.14674   0.3466 
 H                     3.21057  -3.94744   1.75565 
 H                     1.36871  -4.92227   3.07186 
 H                    -0.79793  -3.75658   3.21734 
 H                    -1.1497   -1.63368   2.04023 
 
 ITRead=  0  0  0  0  0  0  0  0  0  0  0  0  0  0  0  0  0  0  0  0
 ITRead=  0  0  0  0  0  0  0  0  0  0  0  0  0  0  0  0  0  0  0  0
 ITRead=  0  0  0  0  0  0  0  0  0  0  0  0  0  0  0  0
 MicOpt= -1 -1 -1 -1 -1 -1 -1 -1 -1 -1 -1 -1 -1 -1 -1 -1 -1 -1 -1 -1
 MicOpt= -1 -1 -1 -1 -1 -1 -1 -1 -1 -1 -1 -1 -1 -1 -1 -1 -1 -1 -1 -1
 MicOpt= -1 -1 -1 -1 -1 -1 -1 -1 -1 -1 -1 -1 -1 -1 -1 -1
 NAtoms=     56 NQM=       56 NQMF=       0 NMMI=      0 NMMIF=      0
                NMic=       0 NMicF=      0.
                    Isotopes and Nuclear Properties:
 (Nuclear quadrupole moments (NQMom) in fm**2, nuclear magnetic moments (NMagM)
  in nuclear magnetons)

  Atom         1           2           3           4           5           6           7           8           9          10
 IAtWgt=          16          12          12          12          12          12          12          12          12          12
 AtmWgt=  15.9949146  12.0000000  12.0000000  12.0000000  12.0000000  12.0000000  12.0000000  12.0000000  12.0000000  12.0000000
 NucSpn=           0           0           0           0           0           0           0           0           0           0
 AtZEff=  -0.0000000  -0.0000000  -0.0000000  -0.0000000  -0.0000000  -0.0000000  -0.0000000  -0.0000000  -0.0000000  -0.0000000
 NQMom=    0.0000000   0.0000000   0.0000000   0.0000000   0.0000000   0.0000000   0.0000000   0.0000000   0.0000000   0.0000000
 NMagM=    0.0000000   0.0000000   0.0000000   0.0000000   0.0000000   0.0000000   0.0000000   0.0000000   0.0000000   0.0000000
 AtZNuc=   8.0000000   6.0000000   6.0000000   6.0000000   6.0000000   6.0000000   6.0000000   6.0000000   6.0000000   6.0000000

  Atom        11          12          13          14          15          16          17          18          19          20
 IAtWgt=          12          12          12          12          12          12          12          12          12          16
 AtmWgt=  12.0000000  12.0000000  12.0000000  12.0000000  12.0000000  12.0000000  12.0000000  12.0000000  12.0000000  15.9949146
 NucSpn=           0           0           0           0           0           0           0           0           0           0
 AtZEff=  -0.0000000  -0.0000000  -0.0000000  -0.0000000  -0.0000000  -0.0000000  -0.0000000  -0.0000000  -0.0000000  -0.0000000
 NQMom=    0.0000000   0.0000000   0.0000000   0.0000000   0.0000000   0.0000000   0.0000000   0.0000000   0.0000000   0.0000000
 NMagM=    0.0000000   0.0000000   0.0000000   0.0000000   0.0000000   0.0000000   0.0000000   0.0000000   0.0000000   0.0000000
 AtZNuc=   6.0000000   6.0000000   6.0000000   6.0000000   6.0000000   6.0000000   6.0000000   6.0000000   6.0000000   8.0000000

  Atom        21          22          23          24          25          26          27          28          29          30
 IAtWgt=          12          12          12          12          12          12          12          12          12          12
 AtmWgt=  12.0000000  12.0000000  12.0000000  12.0000000  12.0000000  12.0000000  12.0000000  12.0000000  12.0000000  12.0000000
 NucSpn=           0           0           0           0           0           0           0           0           0           0
 AtZEff=  -0.0000000  -0.0000000  -0.0000000  -0.0000000  -0.0000000  -0.0000000  -0.0000000  -0.0000000  -0.0000000  -0.0000000
 NQMom=    0.0000000   0.0000000   0.0000000   0.0000000   0.0000000   0.0000000   0.0000000   0.0000000   0.0000000   0.0000000
 NMagM=    0.0000000   0.0000000   0.0000000   0.0000000   0.0000000   0.0000000   0.0000000   0.0000000   0.0000000   0.0000000
 AtZNuc=   6.0000000   6.0000000   6.0000000   6.0000000   6.0000000   6.0000000   6.0000000   6.0000000   6.0000000   6.0000000

  Atom        31          32          33          34          35          36          37          38          39          40
 IAtWgt=          12          12          12          12           1           1           1           1           1           1
 AtmWgt=  12.0000000  12.0000000  12.0000000  12.0000000   1.0078250   1.0078250   1.0078250   1.0078250   1.0078250   1.0078250
 NucSpn=           0           0           0           0           1           1           1           1           1           1
 AtZEff=  -0.0000000  -0.0000000  -0.0000000  -0.0000000  -0.0000000  -0.0000000  -0.0000000  -0.0000000  -0.0000000  -0.0000000
 NQMom=    0.0000000   0.0000000   0.0000000   0.0000000   0.0000000   0.0000000   0.0000000   0.0000000   0.0000000   0.0000000
 NMagM=    0.0000000   0.0000000   0.0000000   0.0000000   2.7928460   2.7928460   2.7928460   2.7928460   2.7928460   2.7928460
 AtZNuc=   6.0000000   6.0000000   6.0000000   6.0000000   1.0000000   1.0000000   1.0000000   1.0000000   1.0000000   1.0000000

  Atom        41          42          43          44          45          46          47          48          49          50
 IAtWgt=           1           1           1           1           1           1           1           1           1           1
 AtmWgt=   1.0078250   1.0078250   1.0078250   1.0078250   1.0078250   1.0078250   1.0078250   1.0078250   1.0078250   1.0078250
 NucSpn=           1           1           1           1           1           1           1           1           1           1
 AtZEff=  -0.0000000  -0.0000000  -0.0000000  -0.0000000  -0.0000000  -0.0000000  -0.0000000  -0.0000000  -0.0000000  -0.0000000
 NQMom=    0.0000000   0.0000000   0.0000000   0.0000000   0.0000000   0.0000000   0.0000000   0.0000000   0.0000000   0.0000000
 NMagM=    2.7928460   2.7928460   2.7928460   2.7928460   2.7928460   2.7928460   2.7928460   2.7928460   2.7928460   2.7928460
 AtZNuc=   1.0000000   1.0000000   1.0000000   1.0000000   1.0000000   1.0000000   1.0000000   1.0000000   1.0000000   1.0000000

  Atom        51          52          53          54          55          56
 IAtWgt=           1           1           1           1           1           1
 AtmWgt=   1.0078250   1.0078250   1.0078250   1.0078250   1.0078250   1.0078250
 NucSpn=           1           1           1           1           1           1
 AtZEff=  -0.0000000  -0.0000000  -0.0000000  -0.0000000  -0.0000000  -0.0000000
 NQMom=    0.0000000   0.0000000   0.0000000   0.0000000   0.0000000   0.0000000
 NMagM=    2.7928460   2.7928460   2.7928460   2.7928460   2.7928460   2.7928460
 AtZNuc=   1.0000000   1.0000000   1.0000000   1.0000000   1.0000000   1.0000000
 Leave Link  101 at Sat Feb 24 17:38:43 2024, MaxMem=  7516192768 cpu:              86.2 elap:               5.1
 (Enter /public/apps/g16-C01//g16/l103.exe)

 GradGradGradGradGradGradGradGradGradGradGradGradGradGradGradGradGradGrad
 Berny optimization.
 Initialization pass.
                           ----------------------------
                           !    Initial Parameters    !
                           ! (Angstroms and Degrees)  !
 --------------------------                            --------------------------
 ! Name  Definition              Value          Derivative Info.                !
 --------------------------------------------------------------------------------
 ! R1    R(1,2)                  1.3586         estimate D2E/DX2                !
 ! R2    R(1,35)                 0.9678         estimate D2E/DX2                !
 ! R3    R(2,3)                  1.4198         estimate D2E/DX2                !
 ! R4    R(2,17)                 1.3819         estimate D2E/DX2                !
 ! R5    R(3,4)                  1.4722         estimate D2E/DX2                !
 ! R6    R(3,10)                 1.3721         estimate D2E/DX2                !
 ! R7    R(4,5)                  1.3924         estimate D2E/DX2                !
 ! R8    R(4,9)                  1.3915         estimate D2E/DX2                !
 ! R9    R(5,6)                  1.3823         estimate D2E/DX2                !
 ! R10   R(5,36)                 1.0808         estimate D2E/DX2                !
 ! R11   R(6,7)                  1.3848         estimate D2E/DX2                !
 ! R12   R(6,37)                 1.0805         estimate D2E/DX2                !
 ! R13   R(7,8)                  1.3846         estimate D2E/DX2                !
 ! R14   R(7,38)                 1.0802         estimate D2E/DX2                !
 ! R15   R(8,9)                  1.3824         estimate D2E/DX2                !
 ! R16   R(8,39)                 1.0804         estimate D2E/DX2                !
 ! R17   R(9,40)                 1.0791         estimate D2E/DX2                !
 ! R18   R(10,11)                1.4078         estimate D2E/DX2                !
 ! R19   R(10,41)                1.0804         estimate D2E/DX2                !
 ! R20   R(11,12)                1.4098         estimate D2E/DX2                !
 ! R21   R(11,16)                1.4188         estimate D2E/DX2                !
 ! R22   R(12,13)                1.3668         estimate D2E/DX2                !
 ! R23   R(12,42)                1.0806         estimate D2E/DX2                !
 ! R24   R(13,14)                1.4028         estimate D2E/DX2                !
 ! R25   R(13,43)                1.0799         estimate D2E/DX2                !
 ! R26   R(14,15)                1.3671         estimate D2E/DX2                !
 ! R27   R(14,44)                1.08           estimate D2E/DX2                !
 ! R28   R(15,16)                1.4112         estimate D2E/DX2                !
 ! R29   R(15,45)                1.0806         estimate D2E/DX2                !
 ! R30   R(16,17)                1.4194         estimate D2E/DX2                !
 ! R31   R(17,18)                1.4878         estimate D2E/DX2                !
 ! R32   R(18,19)                1.382          estimate D2E/DX2                !
 ! R33   R(18,34)                1.4193         estimate D2E/DX2                !
 ! R34   R(19,20)                1.3585         estimate D2E/DX2                !
 ! R35   R(19,21)                1.4198         estimate D2E/DX2                !
 ! R36   R(20,46)                0.9679         estimate D2E/DX2                !
 ! R37   R(21,22)                1.4722         estimate D2E/DX2                !
 ! R38   R(21,28)                1.3721         estimate D2E/DX2                !
 ! R39   R(22,23)                1.3915         estimate D2E/DX2                !
 ! R40   R(22,27)                1.3924         estimate D2E/DX2                !
 ! R41   R(23,24)                1.3824         estimate D2E/DX2                !
 ! R42   R(23,47)                1.079          estimate D2E/DX2                !
 ! R43   R(24,25)                1.3846         estimate D2E/DX2                !
 ! R44   R(24,48)                1.0804         estimate D2E/DX2                !
 ! R45   R(25,26)                1.3848         estimate D2E/DX2                !
 ! R46   R(25,49)                1.0802         estimate D2E/DX2                !
 ! R47   R(26,27)                1.3823         estimate D2E/DX2                !
 ! R48   R(26,50)                1.0805         estimate D2E/DX2                !
 ! R49   R(27,51)                1.0808         estimate D2E/DX2                !
 ! R50   R(28,29)                1.4077         estimate D2E/DX2                !
 ! R51   R(28,52)                1.0804         estimate D2E/DX2                !
 ! R52   R(29,30)                1.4098         estimate D2E/DX2                !
 ! R53   R(29,34)                1.4189         estimate D2E/DX2                !
 ! R54   R(30,31)                1.3667         estimate D2E/DX2                !
 ! R55   R(30,53)                1.0806         estimate D2E/DX2                !
 ! R56   R(31,32)                1.4028         estimate D2E/DX2                !
 ! R57   R(31,54)                1.0799         estimate D2E/DX2                !
 ! R58   R(32,33)                1.3671         estimate D2E/DX2                !
 ! R59   R(32,55)                1.08           estimate D2E/DX2                !
 ! R60   R(33,34)                1.4112         estimate D2E/DX2                !
 ! R61   R(33,56)                1.0806         estimate D2E/DX2                !
 ! A1    A(2,1,35)             109.2985         estimate D2E/DX2                !
 ! A2    A(1,2,3)              117.8532         estimate D2E/DX2                !
 ! A3    A(1,2,17)             121.4377         estimate D2E/DX2                !
 ! A4    A(3,2,17)             120.6793         estimate D2E/DX2                !
 ! A5    A(2,3,4)              120.5493         estimate D2E/DX2                !
 ! A6    A(2,3,10)             118.8742         estimate D2E/DX2                !
 ! A7    A(4,3,10)             120.5751         estimate D2E/DX2                !
 ! A8    A(3,4,5)              119.9318         estimate D2E/DX2                !
 ! A9    A(3,4,9)              121.0856         estimate D2E/DX2                !
 ! A10   A(5,4,9)              118.9702         estimate D2E/DX2                !
 ! A11   A(4,5,6)              120.5236         estimate D2E/DX2                !
 ! A12   A(4,5,36)             119.4745         estimate D2E/DX2                !
 ! A13   A(6,5,36)             119.9923         estimate D2E/DX2                !
 ! A14   A(5,6,7)              120.1261         estimate D2E/DX2                !
 ! A15   A(5,6,37)             119.8192         estimate D2E/DX2                !
 ! A16   A(7,6,37)             120.0546         estimate D2E/DX2                !
 ! A17   A(6,7,8)              119.7095         estimate D2E/DX2                !
 ! A18   A(6,7,38)             120.1148         estimate D2E/DX2                !
 ! A19   A(8,7,38)             120.1756         estimate D2E/DX2                !
 ! A20   A(7,8,9)              120.306          estimate D2E/DX2                !
 ! A21   A(7,8,39)             119.9764         estimate D2E/DX2                !
 ! A22   A(9,8,39)             119.7176         estimate D2E/DX2                !
 ! A23   A(4,9,8)              120.3637         estimate D2E/DX2                !
 ! A24   A(4,9,40)             119.6808         estimate D2E/DX2                !
 ! A25   A(8,9,40)             119.9529         estimate D2E/DX2                !
 ! A26   A(3,10,11)            122.0945         estimate D2E/DX2                !
 ! A27   A(3,10,41)            119.2881         estimate D2E/DX2                !
 ! A28   A(11,10,41)           118.6003         estimate D2E/DX2                !
 ! A29   A(10,11,12)           121.9783         estimate D2E/DX2                !
 ! A30   A(10,11,16)           118.9695         estimate D2E/DX2                !
 ! A31   A(12,11,16)           119.0512         estimate D2E/DX2                !
 ! A32   A(11,12,13)           120.8045         estimate D2E/DX2                !
 ! A33   A(11,12,42)           118.5058         estimate D2E/DX2                !
 ! A34   A(13,12,42)           120.6894         estimate D2E/DX2                !
 ! A35   A(12,13,14)           120.1387         estimate D2E/DX2                !
 ! A36   A(12,13,43)           120.4002         estimate D2E/DX2                !
 ! A37   A(14,13,43)           119.4595         estimate D2E/DX2                !
 ! A38   A(13,14,15)           120.5176         estimate D2E/DX2                !
 ! A39   A(13,14,44)           119.4333         estimate D2E/DX2                !
 ! A40   A(15,14,44)           120.0488         estimate D2E/DX2                !
 ! A41   A(14,15,16)           120.6822         estimate D2E/DX2                !
 ! A42   A(14,15,45)           120.2775         estimate D2E/DX2                !
 ! A43   A(16,15,45)           119.0375         estimate D2E/DX2                !
 ! A44   A(11,16,15)           118.7943         estimate D2E/DX2                !
 ! A45   A(11,16,17)           118.9398         estimate D2E/DX2                !
 ! A46   A(15,16,17)           122.2633         estimate D2E/DX2                !
 ! A47   A(2,17,16)            120.4202         estimate D2E/DX2                !
 ! A48   A(2,17,18)            119.2133         estimate D2E/DX2                !
 ! A49   A(16,17,18)           120.3585         estimate D2E/DX2                !
 ! A50   A(17,18,19)           119.1252         estimate D2E/DX2                !
 ! A51   A(17,18,34)           120.4464         estimate D2E/DX2                !
 ! A52   A(19,18,34)           120.4228         estimate D2E/DX2                !
 ! A53   A(18,19,20)           121.4349         estimate D2E/DX2                !
 ! A54   A(18,19,21)           120.686          estimate D2E/DX2                !
 ! A55   A(20,19,21)           117.8506         estimate D2E/DX2                !
 ! A56   A(19,20,46)           109.3008         estimate D2E/DX2                !
 ! A57   A(19,21,22)           120.5717         estimate D2E/DX2                !
 ! A58   A(19,21,28)           118.865          estimate D2E/DX2                !
 ! A59   A(22,21,28)           120.5625         estimate D2E/DX2                !
 ! A60   A(21,22,23)           121.0845         estimate D2E/DX2                !
 ! A61   A(21,22,27)           119.9349         estimate D2E/DX2                !
 ! A62   A(23,22,27)           118.967          estimate D2E/DX2                !
 ! A63   A(22,23,24)           120.3646         estimate D2E/DX2                !
 ! A64   A(22,23,47)           119.6829         estimate D2E/DX2                !
 ! A65   A(24,23,47)           119.95           estimate D2E/DX2                !
 ! A66   A(23,24,25)           120.3074         estimate D2E/DX2                !
 ! A67   A(23,24,48)           119.7167         estimate D2E/DX2                !
 ! A68   A(25,24,48)           119.976          estimate D2E/DX2                !
 ! A69   A(24,25,26)           119.7082         estimate D2E/DX2                !
 ! A70   A(24,25,49)           120.1764         estimate D2E/DX2                !
 ! A71   A(26,25,49)           120.1153         estimate D2E/DX2                !
 ! A72   A(25,26,27)           120.1264         estimate D2E/DX2                !
 ! A73   A(25,26,50)           120.0544         estimate D2E/DX2                !
 ! A74   A(27,26,50)           119.8192         estimate D2E/DX2                !
 ! A75   A(22,27,26)           120.5257         estimate D2E/DX2                !
 ! A76   A(22,27,51)           119.4743         estimate D2E/DX2                !
 ! A77   A(26,27,51)           119.9907         estimate D2E/DX2                !
 ! A78   A(21,28,29)           122.0976         estimate D2E/DX2                !
 ! A79   A(21,28,52)           119.2874         estimate D2E/DX2                !
 ! A80   A(29,28,52)           118.598          estimate D2E/DX2                !
 ! A81   A(28,29,30)           121.9681         estimate D2E/DX2                !
 ! A82   A(28,29,34)           118.9763         estimate D2E/DX2                !
 ! A83   A(30,29,34)           119.0545         estimate D2E/DX2                !
 ! A84   A(29,30,31)           120.8047         estimate D2E/DX2                !
 ! A85   A(29,30,53)           118.5026         estimate D2E/DX2                !
 ! A86   A(31,30,53)           120.6924         estimate D2E/DX2                !
 ! A87   A(30,31,32)           120.1371         estimate D2E/DX2                !
 ! A88   A(30,31,54)           120.3992         estimate D2E/DX2                !
 ! A89   A(32,31,54)           119.4621         estimate D2E/DX2                !
 ! A90   A(31,32,33)           120.52           estimate D2E/DX2                !
 ! A91   A(31,32,55)           119.4284         estimate D2E/DX2                !
 ! A92   A(33,32,55)           120.0512         estimate D2E/DX2                !
 ! A93   A(32,33,34)           120.6825         estimate D2E/DX2                !
 ! A94   A(32,33,56)           120.2769         estimate D2E/DX2                !
 ! A95   A(34,33,56)           119.0379         estimate D2E/DX2                !
 ! A96   A(18,34,29)           118.9324         estimate D2E/DX2                !
 ! A97   A(18,34,33)           122.2743         estimate D2E/DX2                !
 ! A98   A(29,34,33)           118.7906         estimate D2E/DX2                !
 ! D1    D(35,1,2,3)           179.7508         estimate D2E/DX2                !
 ! D2    D(35,1,2,17)            1.7226         estimate D2E/DX2                !
 ! D3    D(1,2,3,4)              2.2273         estimate D2E/DX2                !
 ! D4    D(1,2,3,10)          -177.3495         estimate D2E/DX2                !
 ! D5    D(17,2,3,4)          -179.7288         estimate D2E/DX2                !
 ! D6    D(17,2,3,10)            0.6944         estimate D2E/DX2                !
 ! D7    D(1,2,17,16)          178.6701         estimate D2E/DX2                !
 ! D8    D(1,2,17,18)           -0.302          estimate D2E/DX2                !
 ! D9    D(3,2,17,16)            0.6972         estimate D2E/DX2                !
 ! D10   D(3,2,17,18)         -178.2749         estimate D2E/DX2                !
 ! D11   D(2,3,4,5)           -133.0896         estimate D2E/DX2                !
 ! D12   D(2,3,4,9)             48.2078         estimate D2E/DX2                !
 ! D13   D(10,3,4,5)            46.48           estimate D2E/DX2                !
 ! D14   D(10,3,4,9)          -132.2225         estimate D2E/DX2                !
 ! D15   D(2,3,10,11)           -1.2823         estimate D2E/DX2                !
 ! D16   D(2,3,10,41)         -179.7602         estimate D2E/DX2                !
 ! D17   D(4,3,10,11)          179.1409         estimate D2E/DX2                !
 ! D18   D(4,3,10,41)            0.6631         estimate D2E/DX2                !
 ! D19   D(3,4,5,6)           -178.9943         estimate D2E/DX2                !
 ! D20   D(3,4,5,36)             2.1304         estimate D2E/DX2                !
 ! D21   D(9,4,5,6)             -0.2643         estimate D2E/DX2                !
 ! D22   D(9,4,5,36)          -179.1396         estimate D2E/DX2                !
 ! D23   D(3,4,9,8)            178.7295         estimate D2E/DX2                !
 ! D24   D(3,4,9,40)            -0.6874         estimate D2E/DX2                !
 ! D25   D(5,4,9,8)              0.0147         estimate D2E/DX2                !
 ! D26   D(5,4,9,40)          -179.4022         estimate D2E/DX2                !
 ! D27   D(4,5,6,7)              0.3143         estimate D2E/DX2                !
 ! D28   D(4,5,6,37)          -179.5944         estimate D2E/DX2                !
 ! D29   D(36,5,6,7)           179.1837         estimate D2E/DX2                !
 ! D30   D(36,5,6,37)           -0.7249         estimate D2E/DX2                !
 ! D31   D(5,6,7,8)             -0.1114         estimate D2E/DX2                !
 ! D32   D(5,6,7,38)           179.9661         estimate D2E/DX2                !
 ! D33   D(37,6,7,8)           179.7971         estimate D2E/DX2                !
 ! D34   D(37,6,7,38)           -0.1254         estimate D2E/DX2                !
 ! D35   D(6,7,8,9)             -0.1379         estimate D2E/DX2                !
 ! D36   D(6,7,8,39)           179.8199         estimate D2E/DX2                !
 ! D37   D(38,7,8,9)           179.7846         estimate D2E/DX2                !
 ! D38   D(38,7,8,39)           -0.2577         estimate D2E/DX2                !
 ! D39   D(7,8,9,4)              0.1859         estimate D2E/DX2                !
 ! D40   D(7,8,9,40)           179.6012         estimate D2E/DX2                !
 ! D41   D(39,8,9,4)          -179.7719         estimate D2E/DX2                !
 ! D42   D(39,8,9,40)           -0.3567         estimate D2E/DX2                !
 ! D43   D(3,10,11,12)        -179.1649         estimate D2E/DX2                !
 ! D44   D(3,10,11,16)           0.4674         estimate D2E/DX2                !
 ! D45   D(41,10,11,12)         -0.677          estimate D2E/DX2                !
 ! D46   D(41,10,11,16)        178.9553         estimate D2E/DX2                !
 ! D47   D(10,11,12,13)        179.2058         estimate D2E/DX2                !
 ! D48   D(10,11,12,42)         -0.5924         estimate D2E/DX2                !
 ! D49   D(16,11,12,13)         -0.4262         estimate D2E/DX2                !
 ! D50   D(16,11,12,42)        179.7756         estimate D2E/DX2                !
 ! D51   D(10,11,16,15)       -178.4887         estimate D2E/DX2                !
 ! D52   D(10,11,16,17)          0.9295         estimate D2E/DX2                !
 ! D53   D(12,11,16,15)          1.1545         estimate D2E/DX2                !
 ! D54   D(12,11,16,17)       -179.4273         estimate D2E/DX2                !
 ! D55   D(11,12,13,14)         -0.4697         estimate D2E/DX2                !
 ! D56   D(11,12,13,43)       -179.9988         estimate D2E/DX2                !
 ! D57   D(42,12,13,14)        179.324          estimate D2E/DX2                !
 ! D58   D(42,12,13,43)         -0.205          estimate D2E/DX2                !
 ! D59   D(12,13,14,15)          0.6281         estimate D2E/DX2                !
 ! D60   D(12,13,14,44)       -179.1534         estimate D2E/DX2                !
 ! D61   D(43,13,14,15)       -179.8385         estimate D2E/DX2                !
 ! D62   D(43,13,14,44)          0.38           estimate D2E/DX2                !
 ! D63   D(13,14,15,16)          0.1297         estimate D2E/DX2                !
 ! D64   D(13,14,15,45)       -179.2563         estimate D2E/DX2                !
 ! D65   D(44,14,15,16)        179.9098         estimate D2E/DX2                !
 ! D66   D(44,14,15,45)          0.5238         estimate D2E/DX2                !
 ! D67   D(14,15,16,11)         -1.0161         estimate D2E/DX2                !
 ! D68   D(14,15,16,17)        179.5859         estimate D2E/DX2                !
 ! D69   D(45,15,16,11)        178.3774         estimate D2E/DX2                !
 ! D70   D(45,15,16,17)         -1.0206         estimate D2E/DX2                !
 ! D71   D(11,16,17,2)          -1.5015         estimate D2E/DX2                !
 ! D72   D(11,16,17,18)        177.4588         estimate D2E/DX2                !
 ! D73   D(15,16,17,2)         177.8956         estimate D2E/DX2                !
 ! D74   D(15,16,17,18)         -3.1442         estimate D2E/DX2                !
 ! D75   D(2,17,18,19)         107.2374         estimate D2E/DX2                !
 ! D76   D(2,17,18,34)         -71.899          estimate D2E/DX2                !
 ! D77   D(16,17,18,19)        -71.7353         estimate D2E/DX2                !
 ! D78   D(16,17,18,34)        109.1283         estimate D2E/DX2                !
 ! D79   D(17,18,19,20)         -0.5388         estimate D2E/DX2                !
 ! D80   D(17,18,19,21)       -178.5544         estimate D2E/DX2                !
 ! D81   D(34,18,19,20)        178.5978         estimate D2E/DX2                !
 ! D82   D(34,18,19,21)          0.5822         estimate D2E/DX2                !
 ! D83   D(17,18,34,29)        177.7317         estimate D2E/DX2                !
 ! D84   D(17,18,34,33)         -2.8797         estimate D2E/DX2                !
 ! D85   D(19,18,34,29)         -1.3934         estimate D2E/DX2                !
 ! D86   D(19,18,34,33)        177.9952         estimate D2E/DX2                !
 ! D87   D(18,19,20,46)          1.6827         estimate D2E/DX2                !
 ! D88   D(21,19,20,46)        179.7526         estimate D2E/DX2                !
 ! D89   D(18,19,21,22)       -179.6011         estimate D2E/DX2                !
 ! D90   D(18,19,21,28)          0.727          estimate D2E/DX2                !
 ! D91   D(20,19,21,22)          2.3139         estimate D2E/DX2                !
 ! D92   D(20,19,21,28)       -177.358          estimate D2E/DX2                !
 ! D93   D(19,21,22,23)         48.061          estimate D2E/DX2                !
 ! D94   D(19,21,22,27)       -133.2909         estimate D2E/DX2                !
 ! D95   D(28,21,22,23)       -132.2727         estimate D2E/DX2                !
 ! D96   D(28,21,22,27)         46.3754         estimate D2E/DX2                !
 ! D97   D(19,21,28,29)         -1.2256         estimate D2E/DX2                !
 ! D98   D(19,21,28,52)       -179.7017         estimate D2E/DX2                !
 ! D99   D(22,21,28,29)        179.1025         estimate D2E/DX2                !
 ! D100  D(22,21,28,52)          0.6263         estimate D2E/DX2                !
 ! D101  D(21,22,23,24)        178.6605         estimate D2E/DX2                !
 ! D102  D(21,22,23,47)         -0.7621         estimate D2E/DX2                !
 ! D103  D(27,22,23,24)         -0.0004         estimate D2E/DX2                !
 ! D104  D(27,22,23,47)       -179.423          estimate D2E/DX2                !
 ! D105  D(21,22,27,26)       -178.9164         estimate D2E/DX2                !
 ! D106  D(21,22,27,51)          2.1939         estimate D2E/DX2                !
 ! D107  D(23,22,27,26)         -0.2397         estimate D2E/DX2                !
 ! D108  D(23,22,27,51)       -179.1294         estimate D2E/DX2                !
 ! D109  D(22,23,24,25)          0.1806         estimate D2E/DX2                !
 ! D110  D(22,23,24,48)       -179.7752         estimate D2E/DX2                !
 ! D111  D(47,23,24,25)        179.6017         estimate D2E/DX2                !
 ! D112  D(47,23,24,48)         -0.3542         estimate D2E/DX2                !
 ! D113  D(23,24,25,26)         -0.1216         estimate D2E/DX2                !
 ! D114  D(23,24,25,49)        179.8101         estimate D2E/DX2                !
 ! D115  D(48,24,25,26)        179.8342         estimate D2E/DX2                !
 ! D116  D(48,24,25,49)         -0.2341         estimate D2E/DX2                !
 ! D117  D(24,25,26,27)         -0.1181         estimate D2E/DX2                !
 ! D118  D(24,25,26,50)        179.7937         estimate D2E/DX2                !
 ! D119  D(49,25,26,27)        179.9502         estimate D2E/DX2                !
 ! D120  D(49,25,26,50)         -0.138          estimate D2E/DX2                !
 ! D121  D(25,26,27,22)          0.3004         estimate D2E/DX2                !
 ! D122  D(25,26,27,51)        179.1844         estimate D2E/DX2                !
 ! D123  D(50,26,27,22)       -179.6117         estimate D2E/DX2                !
 ! D124  D(50,26,27,51)         -0.7277         estimate D2E/DX2                !
 ! D125  D(21,28,29,30)       -179.1904         estimate D2E/DX2                !
 ! D126  D(21,28,29,34)          0.4057         estimate D2E/DX2                !
 ! D127  D(52,28,29,30)         -0.7041         estimate D2E/DX2                !
 ! D128  D(52,28,29,34)        178.8919         estimate D2E/DX2                !
 ! D129  D(28,29,30,31)        179.2033         estimate D2E/DX2                !
 ! D130  D(28,29,30,53)         -0.5927         estimate D2E/DX2                !
 ! D131  D(34,29,30,31)         -0.3924         estimate D2E/DX2                !
 ! D132  D(34,29,30,53)        179.8115         estimate D2E/DX2                !
 ! D133  D(28,29,34,18)          0.9087         estimate D2E/DX2                !
 ! D134  D(28,29,34,33)       -178.5015         estimate D2E/DX2                !
 ! D135  D(30,29,34,18)       -179.4834         estimate D2E/DX2                !
 ! D136  D(30,29,34,33)          1.1064         estimate D2E/DX2                !
 ! D137  D(29,30,31,32)         -0.4615         estimate D2E/DX2                !
 ! D138  D(29,30,31,54)       -179.9922         estimate D2E/DX2                !
 ! D139  D(53,30,31,32)        179.3301         estimate D2E/DX2                !
 ! D140  D(53,30,31,54)         -0.2007         estimate D2E/DX2                !
 ! D141  D(30,31,32,33)          0.5919         estimate D2E/DX2                !
 ! D142  D(30,31,32,55)       -179.1759         estimate D2E/DX2                !
 ! D143  D(54,31,32,33)       -179.873          estimate D2E/DX2                !
 ! D144  D(54,31,32,55)          0.3592         estimate D2E/DX2                !
 ! D145  D(31,32,33,34)          0.1506         estimate D2E/DX2                !
 ! D146  D(31,32,33,56)       -179.2436         estimate D2E/DX2                !
 ! D147  D(55,32,33,34)        179.9169         estimate D2E/DX2                !
 ! D148  D(55,32,33,56)          0.5227         estimate D2E/DX2                !
 ! D149  D(32,33,34,18)        179.6156         estimate D2E/DX2                !
 ! D150  D(32,33,34,29)         -0.9949         estimate D2E/DX2                !
 ! D151  D(56,33,34,18)         -0.9828         estimate D2E/DX2                !
 ! D152  D(56,33,34,29)        178.4067         estimate D2E/DX2                !
 --------------------------------------------------------------------------------
 Trust Radius=3.00D-01 FncErr=1.00D-07 GrdErr=1.00D-06 EigMax=2.50D+02 EigMin=1.00D-04
 Number of steps in this run=    321 maximum allowed number of steps=    336.
 GradGradGradGradGradGradGradGradGradGradGradGradGradGradGradGradGradGrad

 Leave Link  103 at Sat Feb 24 17:38:45 2024, MaxMem=  7516192768 cpu:               7.0 elap:               1.5
 (Enter /public/apps/g16-C01//g16/l202.exe)
 Symmetry turned off by external request.
 Stoichiometry    C32H22O2
 Framework group  C1[X(C32H22O2)]
 Deg. of freedom   162
 Full point group                 C1      NOp   1
                          Input orientation:                          
 ---------------------------------------------------------------------
 Center     Atomic      Atomic             Coordinates (Angstroms)
 Number     Number       Type             X           Y           Z
 ---------------------------------------------------------------------
      1          8           0       -1.564913   -1.345804   -0.939211
      2          6           0       -1.709356   -0.198418   -0.226241
      3          6           0       -2.967670    0.457651   -0.272947
      4          6           0       -4.086827   -0.123521   -1.032579
      5          6           0       -4.836172    0.678901   -1.888946
      6          6           0       -5.902462    0.150715   -2.592306
      7          6           0       -6.239112   -1.184425   -2.445207
      8          6           0       -5.501572   -1.988173   -1.592420
      9          6           0       -4.431429   -1.464229   -0.891485
     10          6           0       -3.120125    1.646690    0.394592
     11          6           0       -2.077327    2.222235    1.144991
     12          6           0       -2.242013    3.435426    1.844077
     13          6           0       -1.218007    3.964603    2.578529
     14          6           0        0.013450    3.296954    2.653340
     15          6           0        0.206966    2.120361    1.984682
     16          6           0       -0.825690    1.556782    1.205227
     17          6           0       -0.658652    0.341870    0.490548
     18          6           0        0.656968   -0.352910    0.485699
     19          6           0        1.704817    0.195842   -0.229010
     20          8           0        1.555358    1.347546   -0.933880
     21          6           0        2.965539   -0.455029   -0.281436
     22          6           0        4.082606    0.136181   -1.036341
     23          6           0        4.420641    1.477637   -0.886572
     24          6           0        5.489798    2.010732   -1.582091
     25          6           0        6.232984    1.215522   -2.437966
     26          6           0        5.902766   -0.120228   -2.593877
     27          6           0        4.837359   -0.657518   -1.896105
     28          6           0        3.123033   -1.647991    0.377928
     29          6           0        2.082794   -2.233073    1.124423
     30          6           0        2.252768   -3.450611    1.814618
     31          6           0        1.231276   -3.989311    2.545614
     32          6           0       -0.002938   -3.327353    2.625600
     33          6           0       -0.201417   -2.146452    1.966039
     34          6           0        0.828678   -1.572790    1.190532
     35          1           0       -0.665417   -1.683559   -0.822916
     36          1           0       -4.567114    1.717987   -2.015389
     37          1           0       -6.472168    0.782200   -3.258780
     38          1           0       -7.072745   -1.596857   -2.994525
     39          1           0       -5.762237   -3.029719   -1.472174
     40          1           0       -3.864548   -2.094177   -0.223532
     41          1           0       -4.075885    2.149669    0.366762
     42          1           0       -3.197756    3.936662    1.789132
     43          1           0       -1.351334    4.894329    3.111506
     44          1           0        0.810356    3.718366    3.248112
     45          1           0        1.153168    1.603183    2.054670
     46          1           0        0.654694    1.681121   -0.814431
     47          1           0        3.849380    2.101010   -0.216201
     48          1           0        5.745277    3.052768   -1.455141
     49          1           0        7.066091    1.635013   -2.982723
     50          1           0        6.476856   -0.745077   -3.262839
     51          1           0        4.573366   -1.697044   -2.029436
     52          1           0        4.080896   -2.146736    0.346602
     53          1           0        3.210574   -3.947435    1.755648
     54          1           0        1.368711   -4.922274    3.071857
     55          1           0       -0.797930   -3.756579    3.217340
     56          1           0       -1.149700   -1.633682    2.040234
 ---------------------------------------------------------------------
 Rotational constants (GHZ):           0.1732230           0.0789176           0.0732046
 Leave Link  202 at Sat Feb 24 17:38:46 2024, MaxMem=  7516192768 cpu:               4.5 elap:               0.6
 (Enter /public/apps/g16-C01//g16/l301.exe)
 Standard basis: def2SVPP (5D, 7F)
 Ernie: Thresh=  0.10000D-02 Tol=  0.10000D-05 Strict=F.
   520 basis functions,   938 primitive gaussians,   554 cartesian basis functions
   115 alpha electrons      115 beta electrons
       nuclear repulsion energy      3224.2392256613 Hartrees.
 IExCor=  402 DFT=T Ex+Corr=B3LYP ExCW=0 ScaHFX=  0.200000
 ScaDFX=  0.800000  0.720000  1.000000  0.810000 ScalE2=  1.000000  1.000000
 IRadAn=      5 IRanWt=     -1 IRanGd=            0 ICorTp=0 IEmpDi=141
 NAtoms=   56 NActive=   56 NUniq=   56 SFac= 1.00D+00 NAtFMM=   60 NAOKFM=F Big=F
 Integral buffers will be    131072 words long.
 Raffenetti 2 integral format.
 Two-electron integral symmetry is turned off.
 R6Disp:  Grimme-D3(BJ) Dispersion energy=       -0.1492253999 Hartrees.
 Nuclear repulsion after empirical dispersion term =     3224.0900002614 Hartrees.
 Leave Link  301 at Sat Feb 24 17:38:49 2024, MaxMem=  7516192768 cpu:              28.4 elap:               2.5
 (Enter /public/apps/g16-C01//g16/l302.exe)
 NPDir=0 NMtPBC=     1 NCelOv=     1 NCel=       1 NClECP=     1 NCelD=      1
         NCelK=      1 NCelE2=     1 NClLst=     1 CellRange=     0.0.
 One-electron integrals computed using PRISM.
   1 Symmetry operations used in ECPInt.
 ECPInt:  NShTT=   30876 NPrTT=  123764 LenC2=   26272 LenP2D=   66899.
 LDataN:  DoStor=T MaxTD1= 4 Len=   56
 NBasis=   520 RedAO= T EigKep=  1.56D-04  NBF=   520
 NBsUse=   520 1.00D-06 EigRej= -1.00D+00 NBFU=   520
 Precomputing XC quadrature grid using
 IXCGrd= 4 IRadAn=           5 IRanWt=          -1 IRanGd=           0 AccXCQ= 0.00D+00.
 Generated NRdTot=       0 NPtTot=           0 NUsed=           0 NTot=          32
 NSgBfM=   545   544   545   545   545 MxSgAt=    56 MxSgA2=    56.
 Leave Link  302 at Sat Feb 24 17:39:00 2024, MaxMem=  7516192768 cpu:             191.7 elap:              10.4
 (Enter /public/apps/g16-C01//g16/l303.exe)
 DipDrv:  MaxL=1.
 Leave Link  303 at Sat Feb 24 17:39:04 2024, MaxMem=  7516192768 cpu:              24.3 elap:               2.3
 (Enter /public/apps/g16-C01//g16/l401.exe)
 ExpMin= 1.22D-01 ExpMax= 2.27D+03 ExpMxC= 3.41D+02 IAcc=3 IRadAn=         5 AccDes= 0.00D+00
 Harris functional with IExCor=  402 and IRadAn=       5 diagonalized for initial guess.
 HarFok:  IExCor=  402 AccDes= 0.00D+00 IRadAn=         5 IDoV= 1 UseB2=F ITyADJ=14
 ICtDFT=  3500011 ScaDFX=  1.000000  1.000000  1.000000  1.000000
 FoFCou: FMM=F IPFlag=           0 FMFlag=      100000 FMFlg1=           0
         NFxFlg=           0 DoJE=T BraDBF=F KetDBF=T FulRan=T
         wScrn=  0.000000 ICntrl=       500 IOpCl=  0 I1Cent=   200000004 NGrid=           0
         NMat0=    1 NMatS0=      1 NMatT0=    0 NMatD0=    1 NMtDS0=    0 NMtDT0=    0
 Symmetry not used in FoFCou.
 Harris En= -1382.22122387682    
 JPrj=0 DoOrth=F DoCkMO=F.
 Leave Link  401 at Sat Feb 24 17:39:37 2024, MaxMem=  7516192768 cpu:             571.5 elap:              31.6
 (Enter /public/apps/g16-C01//g16/l502.exe)
 Two-electron integral symmetry not used.
 Closed shell SCF:
 Using DIIS extrapolation, IDIIS=  1040.
 NGot=  7516192768 LenX=  7515550928 LenY=  7515243458
 Requested convergence on RMS density matrix=1.00D-08 within 128 cycles.
 Requested convergence on MAX density matrix=1.00D-06.
 Requested convergence on             energy=1.00D-06.
 No special actions if energy rises.
 Fock matrices will be formed incrementally for  20 cycles.
 Integral accuracy reduced to 1.0D-05 until final iterations.

 Cycle   1  Pass 0  IDiag  1:
 FoFJK:  IHMeth= 1 ICntrl=       0 DoSepK=F KAlg= 0 I1Cent=           0 FoldK=F
 IRaf= 760000000 NMat=       1 IRICut=       1 DoRegI=T DoRafI=F ISym2E= 0 IDoP0=0 IntGTp=1.
 FoFCou: FMM=F IPFlag=           0 FMFlag=      100000 FMFlg1=           0
         NFxFlg=           0 DoJE=F BraDBF=F KetDBF=F FulRan=T
         wScrn=  0.000000 ICntrl=         0 IOpCl=  0 I1Cent=           0 NGrid=           0
         NMat0=    1 NMatS0=      1 NMatT0=    0 NMatD0=    1 NMtDS0=    0 NMtDT0=    0
 Symmetry not used in FoFCou.
 E= -1381.57161253059    
 DIIS: error= 3.18D-02 at cycle   1 NSaved=   1.
 NSaved= 1 IEnMin= 1 EnMin= -1381.57161253059     IErMin= 1 ErrMin= 3.18D-02
 ErrMax= 3.18D-02  0.00D+00 EMaxC= 1.00D-01 BMatC= 5.64D-01 BMatP= 5.64D-01
 IDIUse=3 WtCom= 6.82D-01 WtEn= 3.18D-01
 Coeff-Com:  0.100D+01
 Coeff-En:   0.100D+01
 Coeff:      0.100D+01
 Gap=     0.181 Goal=   None    Shift=    0.000
 GapD=    0.181 DampG=1.000 DampE=0.500 DampFc=0.5000 IDamp=-1.
 Damping current iteration by 5.00D-01
 RMSDP=5.65D-03 MaxDP=1.82D-01              OVMax= 1.78D-01

 Cycle   2  Pass 0  IDiag  1:
 RMSU=  2.51D-03    CP:  9.33D-01
 E= -1381.87997759669     Delta-E=       -0.308365066099 Rises=F Damp=T
 DIIS: error= 3.95D-03 at cycle   2 NSaved=   2.
 NSaved= 2 IEnMin= 2 EnMin= -1381.87997759669     IErMin= 2 ErrMin= 3.95D-03
 ErrMax= 3.95D-03  0.00D+00 EMaxC= 1.00D-01 BMatC= 3.24D-02 BMatP= 5.64D-01
 IDIUse=3 WtCom= 9.61D-01 WtEn= 3.95D-02
 Coeff-Com:  0.232D-01 0.977D+00
 Coeff-En:   0.934D-02 0.991D+00
 Coeff:      0.227D-01 0.977D+00
 Gap=     0.182 Goal=   None    Shift=    0.000
 RMSDP=1.98D-03 MaxDP=1.10D-01 DE=-3.08D-01 OVMax= 1.53D-01

 Cycle   3  Pass 0  IDiag  1:
 RMSU=  1.76D-03    CP:  8.88D-01  1.09D+00
 E= -1382.18096822359     Delta-E=       -0.300990626907 Rises=F Damp=F
 DIIS: error= 8.25D-03 at cycle   3 NSaved=   3.
 NSaved= 3 IEnMin= 3 EnMin= -1382.18096822359     IErMin= 2 ErrMin= 3.95D-03
 ErrMax= 8.25D-03  0.00D+00 EMaxC= 1.00D-01 BMatC= 4.52D-02 BMatP= 3.24D-02
 IDIUse=3 WtCom= 9.92D-02 WtEn= 9.01D-01
 Coeff-Com: -0.372D-01 0.566D+00 0.471D+00
 Coeff-En:   0.000D+00 0.000D+00 0.100D+01
 Coeff:     -0.369D-02 0.561D-01 0.948D+00
 Gap=     0.186 Goal=   None    Shift=    0.000
 RMSDP=1.95D-03 MaxDP=8.13D-02 DE=-3.01D-01 OVMax= 1.60D-01

 Cycle   4  Pass 0  IDiag  1:
 RMSU=  1.40D-03    CP:  8.88D-01  1.35D+00  3.20D-01
 E= -1382.02950116013     Delta-E=        0.151467063461 Rises=F Damp=F
 DIIS: error= 1.63D-02 at cycle   4 NSaved=   4.
 NSaved= 4 IEnMin= 3 EnMin= -1382.18096822359     IErMin= 2 ErrMin= 3.95D-03
 ErrMax= 1.63D-02  0.00D+00 EMaxC= 1.00D-01 BMatC= 1.75D-01 BMatP= 3.24D-02
 IDIUse=2 WtCom= 0.00D+00 WtEn= 1.00D+00
 Coeff-En:   0.000D+00 0.000D+00 0.744D+00 0.256D+00
 Coeff:      0.000D+00 0.000D+00 0.744D+00 0.256D+00
 Gap=     0.165 Goal=   None    Shift=    0.000
 RMSDP=1.02D-03 MaxDP=5.35D-02 DE= 1.51D-01 OVMax= 9.70D-02

 Cycle   5  Pass 0  IDiag  1:
 RMSU=  2.28D-04    CP:  8.86D-01  1.22D+00  6.62D-01  4.80D-01
 E= -1382.22044022841     Delta-E=       -0.190939068274 Rises=F Damp=F
 DIIS: error= 3.69D-03 at cycle   5 NSaved=   5.
 NSaved= 5 IEnMin= 5 EnMin= -1382.22044022841     IErMin= 5 ErrMin= 3.69D-03
 ErrMax= 3.69D-03  0.00D+00 EMaxC= 1.00D-01 BMatC= 1.04D-02 BMatP= 3.24D-02
 IDIUse=3 WtCom= 9.63D-01 WtEn= 3.69D-02
 Coeff-Com:  0.520D-02 0.102D-01 0.347D+00 0.288D-01 0.608D+00
 Coeff-En:   0.000D+00 0.000D+00 0.233D+00 0.000D+00 0.767D+00
 Coeff:      0.501D-02 0.981D-02 0.343D+00 0.278D-01 0.614D+00
 Gap=     0.158 Goal=   None    Shift=    0.000
 RMSDP=3.33D-04 MaxDP=1.27D-02 DE=-1.91D-01 OVMax= 2.82D-02

 Cycle   6  Pass 0  IDiag  1:
 RMSU=  8.39D-05    CP:  8.86D-01  1.18D+00  7.81D-01  3.29D-01  7.61D-01
 E= -1382.23181816799     Delta-E=       -0.011377939580 Rises=F Damp=F
 DIIS: error= 4.15D-04 at cycle   6 NSaved=   6.
 NSaved= 6 IEnMin= 6 EnMin= -1382.23181816799     IErMin= 6 ErrMin= 4.15D-04
 ErrMax= 4.15D-04  0.00D+00 EMaxC= 1.00D-01 BMatC= 2.01D-04 BMatP= 1.04D-02
 IDIUse=3 WtCom= 9.96D-01 WtEn= 4.15D-03
 Coeff-Com:  0.221D-02-0.756D-02 0.115D+00-0.327D-01 0.393D+00 0.530D+00
 Coeff-En:   0.000D+00 0.000D+00 0.000D+00 0.000D+00 0.000D+00 0.100D+01
 Coeff:      0.220D-02-0.752D-02 0.114D+00-0.325D-01 0.392D+00 0.532D+00
 Gap=     0.156 Goal=   None    Shift=    0.000
 RMSDP=4.65D-05 MaxDP=1.35D-03 DE=-1.14D-02 OVMax= 5.92D-03

 Cycle   7  Pass 0  IDiag  1:
 RMSU=  2.56D-05    CP:  8.86D-01  1.18D+00  7.81D-01  3.30D-01  8.27D-01
                    CP:  5.75D-01
 E= -1382.23203094275     Delta-E=       -0.000212774764 Rises=F Damp=F
 DIIS: error= 1.50D-04 at cycle   7 NSaved=   7.
 NSaved= 7 IEnMin= 7 EnMin= -1382.23203094275     IErMin= 7 ErrMin= 1.50D-04
 ErrMax= 1.50D-04  0.00D+00 EMaxC= 1.00D-01 BMatC= 2.08D-05 BMatP= 2.01D-04
 IDIUse=3 WtCom= 9.98D-01 WtEn= 1.50D-03
 Coeff-Com:  0.105D-02-0.479D-02 0.539D-01-0.237D-01 0.219D+00 0.347D+00
 Coeff-Com:  0.408D+00
 Coeff-En:   0.000D+00 0.000D+00 0.000D+00 0.000D+00 0.000D+00 0.741D-02
 Coeff-En:   0.993D+00
 Coeff:      0.105D-02-0.478D-02 0.538D-01-0.236D-01 0.218D+00 0.346D+00
 Coeff:      0.409D+00
 Gap=     0.157 Goal=   None    Shift=    0.000
 RMSDP=1.61D-05 MaxDP=7.19D-04 DE=-2.13D-04 OVMax= 1.33D-03

 Cycle   8  Pass 0  IDiag  1:
 RMSU=  9.64D-06    CP:  8.86D-01  1.18D+00  7.81D-01  3.30D-01  8.16D-01
                    CP:  6.22D-01  5.38D-01
 E= -1382.23205344811     Delta-E=       -0.000022505356 Rises=F Damp=F
 DIIS: error= 4.51D-05 at cycle   8 NSaved=   8.
 NSaved= 8 IEnMin= 8 EnMin= -1382.23205344811     IErMin= 8 ErrMin= 4.51D-05
 ErrMax= 4.51D-05  0.00D+00 EMaxC= 1.00D-01 BMatC= 1.15D-06 BMatP= 2.08D-05
 IDIUse=1 WtCom= 1.00D+00 WtEn= 0.00D+00
 Coeff-Com:  0.349D-03-0.164D-02 0.166D-01-0.100D-01 0.770D-01 0.134D+00
 Coeff-Com:  0.230D+00 0.554D+00
 Coeff:      0.349D-03-0.164D-02 0.166D-01-0.100D-01 0.770D-01 0.134D+00
 Coeff:      0.230D+00 0.554D+00
 Gap=     0.157 Goal=   None    Shift=    0.000
 RMSDP=4.35D-06 MaxDP=3.02D-04 DE=-2.25D-05 OVMax= 2.70D-04

 Initial convergence to 1.0D-05 achieved.  Increase integral accuracy.
 Cycle   9  Pass 1  IDiag  1:
 E= -1382.23202311097     Delta-E=        0.000030337136 Rises=F Damp=F
 DIIS: error= 3.28D-04 at cycle   1 NSaved=   1.
 NSaved= 1 IEnMin= 1 EnMin= -1382.23202311097     IErMin= 1 ErrMin= 3.28D-04
 ErrMax= 3.28D-04  0.00D+00 EMaxC= 1.00D-01 BMatC= 3.13D-05 BMatP= 3.13D-05
 IDIUse=3 WtCom= 9.97D-01 WtEn= 3.28D-03
 Coeff-Com:  0.100D+01
 Coeff-En:   0.100D+01
 Coeff:      0.100D+01
 Gap=     0.157 Goal=   None    Shift=    0.000
 RMSDP=4.35D-06 MaxDP=3.02D-04 DE= 3.03D-05 OVMax= 7.82D-04

 Cycle  10  Pass 1  IDiag  1:
 RMSU=  4.52D-04    CP:  9.99D-01
 E= -1382.23205638152     Delta-E=       -0.000033270548 Rises=F Damp=F
 DIIS: error= 3.42D-05 at cycle   2 NSaved=   2.
 NSaved= 2 IEnMin= 2 EnMin= -1382.23205638152     IErMin= 2 ErrMin= 3.42D-05
 ErrMax= 3.42D-05  0.00D+00 EMaxC= 1.00D-01 BMatC= 4.57D-07 BMatP= 3.13D-05
 IDIUse=1 WtCom= 1.00D+00 WtEn= 0.00D+00
 Coeff-Com:  0.131D-01 0.987D+00
 Coeff:      0.131D-01 0.987D+00
 Gap=     0.157 Goal=   None    Shift=    0.000
 RMSDP=7.34D-06 MaxDP=2.13D-04 DE=-3.33D-05 OVMax= 4.89D-04

 Cycle  11  Pass 1  IDiag  1:
 RMSU=  5.41D-06    CP:  9.99D-01  1.01D+00
 E= -1382.23205495086     Delta-E=        0.000001430659 Rises=F Damp=F
 DIIS: error= 6.93D-05 at cycle   3 NSaved=   3.
 NSaved= 3 IEnMin= 2 EnMin= -1382.23205638152     IErMin= 2 ErrMin= 3.42D-05
 ErrMax= 6.93D-05  0.00D+00 EMaxC= 1.00D-01 BMatC= 1.72D-06 BMatP= 4.57D-07
 IDIUse=1 WtCom= 1.00D+00 WtEn= 0.00D+00
 Coeff-Com: -0.553D-02 0.665D+00 0.341D+00
 Coeff:     -0.553D-02 0.665D+00 0.341D+00
 Gap=     0.157 Goal=   None    Shift=    0.000
 RMSDP=3.63D-06 MaxDP=1.37D-04 DE= 1.43D-06 OVMax= 3.32D-04

 Cycle  12  Pass 1  IDiag  1:
 RMSU=  1.17D-06    CP:  9.99D-01  1.01D+00  3.69D-01
 E= -1382.23205687991     Delta-E=       -0.000001929055 Rises=F Damp=F
 DIIS: error= 5.40D-06 at cycle   4 NSaved=   4.
 NSaved= 4 IEnMin= 4 EnMin= -1382.23205687991     IErMin= 4 ErrMin= 5.40D-06
 ErrMax= 5.40D-06  0.00D+00 EMaxC= 1.00D-01 BMatC= 2.10D-08 BMatP= 4.57D-07
 IDIUse=1 WtCom= 1.00D+00 WtEn= 0.00D+00
 Coeff-Com: -0.369D-02 0.394D+00 0.212D+00 0.398D+00
 Coeff:     -0.369D-02 0.394D+00 0.212D+00 0.398D+00
 Gap=     0.157 Goal=   None    Shift=    0.000
 RMSDP=4.59D-07 MaxDP=1.63D-05 DE=-1.93D-06 OVMax= 4.78D-05

 Cycle  13  Pass 1  IDiag  1:
 RMSU=  3.60D-07    CP:  9.99D-01  1.01D+00  3.86D-01  7.71D-01
 E= -1382.23205690337     Delta-E=       -0.000000023455 Rises=F Damp=F
 DIIS: error= 5.39D-07 at cycle   5 NSaved=   5.
 NSaved= 5 IEnMin= 5 EnMin= -1382.23205690337     IErMin= 5 ErrMin= 5.39D-07
 ErrMax= 5.39D-07  0.00D+00 EMaxC= 1.00D-01 BMatC= 3.79D-10 BMatP= 2.10D-08
 IDIUse=1 WtCom= 1.00D+00 WtEn= 0.00D+00
 Coeff-Com: -0.173D-02 0.182D+00 0.986D-01 0.206D+00 0.515D+00
 Coeff:     -0.173D-02 0.182D+00 0.986D-01 0.206D+00 0.515D+00
 Gap=     0.157 Goal=   None    Shift=    0.000
 RMSDP=7.67D-08 MaxDP=2.19D-06 DE=-2.35D-08 OVMax= 6.91D-06

 Cycle  14  Pass 1  IDiag  1:
 RMSU=  7.12D-08    CP:  9.99D-01  1.01D+00  3.84D-01  7.87D-01  9.63D-01
 E= -1382.23205690376     Delta-E=       -0.000000000387 Rises=F Damp=F
 DIIS: error= 1.94D-07 at cycle   6 NSaved=   6.
 NSaved= 6 IEnMin= 6 EnMin= -1382.23205690376     IErMin= 6 ErrMin= 1.94D-07
 ErrMax= 1.94D-07  0.00D+00 EMaxC= 1.00D-01 BMatC= 5.65D-11 BMatP= 3.79D-10
 IDIUse=1 WtCom= 1.00D+00 WtEn= 0.00D+00
 Coeff-Com: -0.166D-03 0.163D-01 0.912D-02 0.273D-01 0.287D+00 0.661D+00
 Coeff:     -0.166D-03 0.163D-01 0.912D-02 0.273D-01 0.287D+00 0.661D+00
 Gap=     0.157 Goal=   None    Shift=    0.000
 RMSDP=2.95D-08 MaxDP=7.99D-07 DE=-3.87D-10 OVMax= 3.42D-06

 Cycle  15  Pass 1  IDiag  1:
 RMSU=  1.82D-08    CP:  9.99D-01  1.01D+00  3.85D-01  7.91D-01  9.88D-01
                    CP:  7.24D-01
 E= -1382.23205690379     Delta-E=       -0.000000000034 Rises=F Damp=F
 DIIS: error= 8.49D-08 at cycle   7 NSaved=   7.
 NSaved= 7 IEnMin= 7 EnMin= -1382.23205690379     IErMin= 7 ErrMin= 8.49D-08
 ErrMax= 8.49D-08  0.00D+00 EMaxC= 1.00D-01 BMatC= 9.84D-12 BMatP= 5.65D-11
 IDIUse=1 WtCom= 1.00D+00 WtEn= 0.00D+00
 Coeff-Com:  0.386D-05-0.116D-02-0.430D-03 0.400D-02 0.152D+00 0.425D+00
 Coeff-Com:  0.421D+00
 Coeff:      0.386D-05-0.116D-02-0.430D-03 0.400D-02 0.152D+00 0.425D+00
 Coeff:      0.421D+00
 Gap=     0.157 Goal=   None    Shift=    0.000
 RMSDP=1.13D-08 MaxDP=3.92D-07 DE=-3.37D-11 OVMax= 1.39D-06

 Cycle  16  Pass 1  IDiag  1:
 RMSU=  7.35D-09    CP:  9.99D-01  1.01D+00  3.85D-01  7.93D-01  9.86D-01
                    CP:  7.35D-01  5.60D-01
 E= -1382.23205690378     Delta-E=        0.000000000012 Rises=F Damp=F
 DIIS: error= 3.74D-08 at cycle   8 NSaved=   8.
 NSaved= 8 IEnMin= 7 EnMin= -1382.23205690379     IErMin= 8 ErrMin= 3.74D-08
 ErrMax= 3.74D-08  0.00D+00 EMaxC= 1.00D-01 BMatC= 8.45D-13 BMatP= 9.84D-12
 IDIUse=1 WtCom= 1.00D+00 WtEn= 0.00D+00
 Coeff-Com:  0.228D-04-0.275D-02-0.137D-02-0.955D-03 0.633D-01 0.195D+00
 Coeff-Com:  0.262D+00 0.484D+00
 Coeff:      0.228D-04-0.275D-02-0.137D-02-0.955D-03 0.633D-01 0.195D+00
 Coeff:      0.262D+00 0.484D+00
 Gap=     0.157 Goal=   None    Shift=    0.000
 RMSDP=3.61D-09 MaxDP=1.86D-07 DE= 1.18D-11 OVMax= 3.41D-07

 SCF Done:  E(RB3LYP) =  -1382.23205690     A.U. after   16 cycles
            NFock= 16  Conv=0.36D-08     -V/T= 2.0095
 KE= 1.369267436908D+03 PE=-9.653613374466D+03 EE= 3.678023880392D+03
 Leave Link  502 at Sat Feb 24 17:50:36 2024, MaxMem=  7516192768 cpu:           12772.2 elap:             656.3
 (Enter /public/apps/g16-C01//g16/l601.exe)
 Copying SCF densities to generalized density rwf, IOpCl= 0 IROHF=0.

 **********************************************************************

            Population analysis using the SCF Density.

 **********************************************************************

 Alpha  occ. eigenvalues --  -19.16670 -19.16661 -10.25882 -10.25877 -10.20282
 Alpha  occ. eigenvalues --  -10.20278 -10.20131 -10.20128 -10.19919 -10.19900
 Alpha  occ. eigenvalues --  -10.19631 -10.19630 -10.19383 -10.19381 -10.19358
 Alpha  occ. eigenvalues --  -10.19355 -10.18958 -10.18957 -10.18887 -10.18885
 Alpha  occ. eigenvalues --  -10.18660 -10.18656 -10.18652 -10.18651 -10.18319
 Alpha  occ. eigenvalues --  -10.18316 -10.18271 -10.18269 -10.18224 -10.18222
 Alpha  occ. eigenvalues --  -10.18167 -10.18164 -10.18057 -10.18053  -1.06259
 Alpha  occ. eigenvalues --   -1.05950  -0.88796  -0.87941  -0.85889  -0.85755
 Alpha  occ. eigenvalues --   -0.82802  -0.82407  -0.80532  -0.76816  -0.76366
 Alpha  occ. eigenvalues --   -0.76262  -0.74182  -0.74179  -0.73071  -0.72779
 Alpha  occ. eigenvalues --   -0.71978  -0.70520  -0.66014  -0.64382  -0.62852
 Alpha  occ. eigenvalues --   -0.62607  -0.61493  -0.60436  -0.60119  -0.59023
 Alpha  occ. eigenvalues --   -0.58746  -0.58162  -0.55951  -0.55814  -0.53689
 Alpha  occ. eigenvalues --   -0.53039  -0.52622  -0.52543  -0.49511  -0.48908
 Alpha  occ. eigenvalues --   -0.47209  -0.47011  -0.46760  -0.46605  -0.45674
 Alpha  occ. eigenvalues --   -0.45637  -0.45114  -0.44828  -0.44368  -0.43602
 Alpha  occ. eigenvalues --   -0.43601  -0.42700  -0.42691  -0.42331  -0.42314
 Alpha  occ. eigenvalues --   -0.41402  -0.41376  -0.40425  -0.39703  -0.38965
 Alpha  occ. eigenvalues --   -0.38771  -0.38291  -0.38134  -0.37427  -0.37256
 Alpha  occ. eigenvalues --   -0.36386  -0.36293  -0.35382  -0.34813  -0.34762
 Alpha  occ. eigenvalues --   -0.34500  -0.34154  -0.32979  -0.32109  -0.31865
 Alpha  occ. eigenvalues --   -0.30156  -0.28804  -0.26748  -0.26738  -0.25617
 Alpha  occ. eigenvalues --   -0.25612  -0.22953  -0.22903  -0.22565  -0.21423
 Alpha virt. eigenvalues --   -0.05768  -0.04959  -0.02523  -0.02253  -0.00432
 Alpha virt. eigenvalues --   -0.00427   0.00580   0.00850   0.01128   0.02770
 Alpha virt. eigenvalues --    0.05768   0.06247   0.06756   0.06907   0.07170
 Alpha virt. eigenvalues --    0.08201   0.09012   0.09049   0.09349   0.09660
 Alpha virt. eigenvalues --    0.10445   0.10839   0.11063   0.11556   0.12388
 Alpha virt. eigenvalues --    0.13082   0.13721   0.13950   0.14715   0.15217
 Alpha virt. eigenvalues --    0.15318   0.15348   0.15974   0.17130   0.17273
 Alpha virt. eigenvalues --    0.17753   0.18655   0.18933   0.19791   0.22469
 Alpha virt. eigenvalues --    0.25270   0.25714   0.25855   0.26926   0.27243
 Alpha virt. eigenvalues --    0.27276   0.27819   0.28429   0.28914   0.29532
 Alpha virt. eigenvalues --    0.29616   0.29891   0.29905   0.30294   0.30389
 Alpha virt. eigenvalues --    0.30910   0.31111   0.31162   0.32136   0.32165
 Alpha virt. eigenvalues --    0.32633   0.33253   0.33810   0.34690   0.34756
 Alpha virt. eigenvalues --    0.35838   0.35922   0.37018   0.37065   0.37957
 Alpha virt. eigenvalues --    0.38239   0.38744   0.39949   0.40084   0.40896
 Alpha virt. eigenvalues --    0.41043   0.41671   0.42079   0.42087   0.42563
 Alpha virt. eigenvalues --    0.43489   0.43547   0.44313   0.45011   0.45048
 Alpha virt. eigenvalues --    0.45653   0.45729   0.45963   0.46791   0.47311
 Alpha virt. eigenvalues --    0.47789   0.48135   0.48229   0.48445   0.48512
 Alpha virt. eigenvalues --    0.48606   0.48898   0.49271   0.49704   0.49761
 Alpha virt. eigenvalues --    0.50180   0.50258   0.50612   0.50689   0.52182
 Alpha virt. eigenvalues --    0.52530   0.52923   0.53084   0.53374   0.53794
 Alpha virt. eigenvalues --    0.54485   0.55168   0.55560   0.55879   0.55940
 Alpha virt. eigenvalues --    0.56993   0.57516   0.57661   0.58133   0.58725
 Alpha virt. eigenvalues --    0.58987   0.60283   0.60779   0.61751   0.61854
 Alpha virt. eigenvalues --    0.61948   0.63396   0.63446   0.64445   0.64814
 Alpha virt. eigenvalues --    0.65670   0.66644   0.66997   0.67416   0.67797
 Alpha virt. eigenvalues --    0.68174   0.68240   0.68444   0.68643   0.69029
 Alpha virt. eigenvalues --    0.69307   0.69560   0.69680   0.69957   0.70116
 Alpha virt. eigenvalues --    0.70330   0.70616   0.71003   0.71563   0.71582
 Alpha virt. eigenvalues --    0.72375   0.72406   0.72901   0.73704   0.74593
 Alpha virt. eigenvalues --    0.74629   0.74741   0.74963   0.75521   0.76339
 Alpha virt. eigenvalues --    0.76585   0.76996   0.77153   0.77732   0.78242
 Alpha virt. eigenvalues --    0.78708   0.78741   0.79523   0.79912   0.80306
 Alpha virt. eigenvalues --    0.80619   0.81141   0.81691   0.82045   0.82265
 Alpha virt. eigenvalues --    0.82883   0.83398   0.83679   0.83746   0.85271
 Alpha virt. eigenvalues --    0.85776   0.87047   0.87873   0.89474   0.89801
 Alpha virt. eigenvalues --    0.90107   0.90145   0.92304   0.92797   0.94583
 Alpha virt. eigenvalues --    0.94781   0.94976   0.95802   0.96413   0.97061
 Alpha virt. eigenvalues --    0.97875   1.01280   1.04468   1.05095   1.06199
 Alpha virt. eigenvalues --    1.07689   1.09046   1.10260   1.11275   1.12671
 Alpha virt. eigenvalues --    1.12833   1.13549   1.15043   1.16031   1.17065
 Alpha virt. eigenvalues --    1.17419   1.20367   1.20395   1.21871   1.23589
 Alpha virt. eigenvalues --    1.23755   1.24514   1.25308   1.25641   1.28128
 Alpha virt. eigenvalues --    1.28153   1.29024   1.29366   1.29561   1.30071
 Alpha virt. eigenvalues --    1.30645   1.31960   1.34575   1.36751   1.38049
 Alpha virt. eigenvalues --    1.38952   1.40129   1.40420   1.42265   1.42517
 Alpha virt. eigenvalues --    1.43363   1.43677   1.44922   1.45134   1.46821
 Alpha virt. eigenvalues --    1.46940   1.47433   1.48367   1.48771   1.48946
 Alpha virt. eigenvalues --    1.48957   1.49074   1.49637   1.50511   1.50763
 Alpha virt. eigenvalues --    1.52046   1.52260   1.52482   1.52853   1.53397
 Alpha virt. eigenvalues --    1.54127   1.54614   1.60093   1.61226   1.62428
 Alpha virt. eigenvalues --    1.65176   1.66491   1.70750   1.71769   1.73829
 Alpha virt. eigenvalues --    1.73972   1.74110   1.74773   1.74996   1.75466
 Alpha virt. eigenvalues --    1.76203   1.76244   1.78004   1.78135   1.79596
 Alpha virt. eigenvalues --    1.80087   1.82029   1.83224   1.83316   1.84585
 Alpha virt. eigenvalues --    1.85116   1.85710   1.86207   1.87147   1.87862
 Alpha virt. eigenvalues --    1.88219   1.88690   1.89181   1.89280   1.89379
 Alpha virt. eigenvalues --    1.93885   1.94153   1.95002   1.96079   1.98678
 Alpha virt. eigenvalues --    1.99418   2.00530   2.00835   2.02123   2.03145
 Alpha virt. eigenvalues --    2.04307   2.06069   2.06339   2.06759   2.07836
 Alpha virt. eigenvalues --    2.08230   2.08246   2.08379   2.09103   2.09572
 Alpha virt. eigenvalues --    2.09999   2.12741   2.14102   2.14674   2.15258
 Alpha virt. eigenvalues --    2.15980   2.16793   2.18732   2.19164   2.19378
 Alpha virt. eigenvalues --    2.20856   2.21919   2.23013   2.23523   2.23788
 Alpha virt. eigenvalues --    2.25381   2.25913   2.26044   2.27926   2.28446
 Alpha virt. eigenvalues --    2.28821   2.31079   2.31154   2.31628   2.31642
 Alpha virt. eigenvalues --    2.32311   2.32747   2.34055   2.34192   2.36172
 Alpha virt. eigenvalues --    2.38014   2.38135   2.41252   2.43675   2.45105
 Alpha virt. eigenvalues --    2.46313   2.47181   2.48550   2.48986   2.49693
 Alpha virt. eigenvalues --    2.49893   2.50616   2.52869   2.53600   2.57147
 Alpha virt. eigenvalues --    2.57912   2.58384   2.58756   2.60379   2.61935
 Alpha virt. eigenvalues --    2.63424   2.63663   2.64391   2.64572   2.64889
 Alpha virt. eigenvalues --    2.66807   2.67679   2.68006   2.68173   2.68899
 Alpha virt. eigenvalues --    2.70039   2.71651   2.71927   2.73007   2.73108
 Alpha virt. eigenvalues --    2.73788   2.74063   2.75766   2.76208   2.80441
 Alpha virt. eigenvalues --    2.81354   2.83358   2.85230   2.87489   2.88163
 Alpha virt. eigenvalues --    2.91171   2.92600   2.93667   2.95146   2.97641
 Alpha virt. eigenvalues --    2.98739   3.02409   3.04666   3.09171   3.09435
 Alpha virt. eigenvalues --    3.22320   3.24174   3.31494   3.33566   3.41180
 Alpha virt. eigenvalues --    3.41314   3.43596   3.44193   3.57604   3.62841
          Condensed to atoms (all electrons):
 Mulliken charges:
               1
     1  O   -0.354660
     2  C    0.122175
     3  C    0.103220
     4  C    0.115517
     5  C   -0.114255
     6  C   -0.043096
     7  C   -0.041423
     8  C   -0.047810
     9  C   -0.076840
    10  C   -0.263556
    11  C    0.183172
    12  C   -0.132790
    13  C   -0.033437
    14  C   -0.023210
    15  C   -0.156230
    16  C    0.091002
    17  C   -0.115511
    18  C   -0.115639
    19  C    0.121799
    20  O   -0.354569
    21  C    0.103435
    22  C    0.115633
    23  C   -0.077047
    24  C   -0.047774
    25  C   -0.041426
    26  C   -0.043102
    27  C   -0.114391
    28  C   -0.263587
    29  C    0.182965
    30  C   -0.132773
    31  C   -0.033485
    32  C   -0.023010
    33  C   -0.157079
    34  C    0.092145
    35  H    0.341655
    36  H    0.040045
    37  H    0.045645
    38  H    0.047449
    39  H    0.046129
    40  H    0.044282
    41  H    0.033143
    42  H    0.035214
    43  H    0.046946
    44  H    0.047235
    45  H    0.060060
    46  H    0.341661
    47  H    0.044437
    48  H    0.046116
    49  H    0.047436
    50  H    0.045630
    51  H    0.040062
    52  H    0.033174
    53  H    0.035219
    54  H    0.046948
    55  H    0.047236
    56  H    0.059916
 Sum of Mulliken charges =  -0.00000
 Mulliken charges with hydrogens summed into heavy atoms:
               1
     1  O   -0.013004
     2  C    0.122175
     3  C    0.103220
     4  C    0.115517
     5  C   -0.074210
     6  C    0.002549
     7  C    0.006025
     8  C   -0.001681
     9  C   -0.032558
    10  C   -0.230413
    11  C    0.183172
    12  C   -0.097576
    13  C    0.013509
    14  C    0.024025
    15  C   -0.096170
    16  C    0.091002
    17  C   -0.115511
    18  C   -0.115639
    19  C    0.121799
    20  O   -0.012909
    21  C    0.103435
    22  C    0.115633
    23  C   -0.032611
    24  C   -0.001658
    25  C    0.006009
    26  C    0.002529
    27  C   -0.074329
    28  C   -0.230413
    29  C    0.182965
    30  C   -0.097554
    31  C    0.013464
    32  C    0.024226
    33  C   -0.097162
    34  C    0.092145
 Electronic spatial extent (au):  <R**2>=          16068.1361
 Charge=             -0.0000 electrons
 Dipole moment (field-independent basis, Debye):
    X=              0.0007    Y=             -0.0036    Z=              0.6928  Tot=              0.6928
 Quadrupole moment (field-independent basis, Debye-Ang):
   XX=           -184.6131   YY=           -179.4466   ZZ=           -195.4739
   XY=             -4.2916   XZ=              0.0035   YZ=              0.0390
 Traceless Quadrupole moment (field-independent basis, Debye-Ang):
   XX=              1.8981   YY=              7.0646   ZZ=             -8.9627
   XY=             -4.2916   XZ=              0.0035   YZ=              0.0390
 Octapole moment (field-independent basis, Debye-Ang**2):
  XXX=              0.1264  YYY=             -0.2705  ZZZ=            -10.0854  XYY=             -0.0330
  XXY=              0.0407  XXZ=            -63.3730  XZZ=              0.0009  YZZ=              0.2761
  YYZ=             29.7796  XYZ=              5.3864
 Hexadecapole moment (field-independent basis, Debye-Ang**3):
 XXXX=         -13856.9656 YYYY=          -4646.5746 ZZZZ=          -3577.3480 XXXY=             87.7634
 XXXZ=              0.5172 YYYX=             -5.6797 YYYZ=             -1.2016 ZZZX=              0.5229
 ZZZY=              1.7331 XXYY=          -2908.5612 XXZZ=          -2766.4467 YYZZ=          -1261.6292
 XXYZ=             -0.3219 YYXZ=              0.0033 ZZXY=             -7.0210
 N-N= 3.224090000261D+03 E-N=-9.653613367403D+03  KE= 1.369267436908D+03
 No NMR shielding tensors so no spin-rotation constants.
 Leave Link  601 at Sat Feb 24 17:50:44 2024, MaxMem=  7516192768 cpu:              74.7 elap:               4.4
 (Enter /public/apps/g16-C01//g16/l701.exe)
 ... and contract with generalized density number  0.
 Compute integral first derivatives.
 R6Disp: Adding Grimme-D3(BJ) dispersion energy 1st derivatives to the gradient.
   1 Symmetry operations used in ECPInt.
 ECPInt:  NShTT=   30876 NPrTT=  123764 LenC2=   26272 LenP2D=   66899.
 LDataN:  DoStor=T MaxTD1= 5 Len=  102
 Leave Link  701 at Sat Feb 24 17:50:57 2024, MaxMem=  7516192768 cpu:             205.2 elap:              12.6
 (Enter /public/apps/g16-C01//g16/l702.exe)
 L702 exits ... SP integral derivatives will be done elsewhere.
 Leave Link  702 at Sat Feb 24 17:50:58 2024, MaxMem=  7516192768 cpu:               5.2 elap:               0.9
 (Enter /public/apps/g16-C01//g16/l703.exe)
 Integral derivatives from FoFJK, PRISM(SPDF).
 Compute integral first derivatives, UseDBF=F ICtDFT=           0.
 Calling FoFJK, ICntrl=      2127 FMM=F ISym2X=0 I1Cent= 0 IOpClX= 0 NMat=1 NMatS=1 NMatT=0.
 FoFJK:  IHMeth= 1 ICntrl=    2127 DoSepK=F KAlg= 0 I1Cent=           0 FoldK=F
 IRaf=         0 NMat=       1 IRICut=       1 DoRegI=T DoRafI=F ISym2E= 0 IDoP0=0 IntGTp=1.
 FoFCou: FMM=F IPFlag=           0 FMFlag=      100000 FMFlg1=         800
         NFxFlg=           0 DoJE=F BraDBF=F KetDBF=F FulRan=T
         wScrn=  0.000000 ICntrl=      2127 IOpCl=  0 I1Cent=           0 NGrid=           0
         NMat0=    1 NMatS0=      1 NMatT0=    0 NMatD0=    1 NMtDS0=    0 NMtDT0=    0
 Symmetry not used in FoFCou.
 Leave Link  703 at Sat Feb 24 17:52:48 2024, MaxMem=  7516192768 cpu:            2080.0 elap:             109.0
 (Enter /public/apps/g16-C01//g16/l716.exe)
 Dipole        = 2.58045959D-04-1.41982310D-03 2.72570664D-01
 -------------------------------------------------------------------
 Center     Atomic                   Forces (Hartrees/Bohr)
 Number     Number              X              Y              Z
 -------------------------------------------------------------------
      1        8          -0.008800008    0.004723413    0.001344868
      2        6           0.004242212   -0.005428147   -0.005112310
      3        6          -0.004788981   -0.005557183   -0.003313108
      4        6           0.005269109    0.003796660    0.002402079
      5        6           0.000722076    0.002305400    0.000116265
      6        6          -0.003674304    0.002222146   -0.002697057
      7        6          -0.003560342   -0.001032802   -0.002735960
      8        6          -0.000940516   -0.004062131    0.000945587
      9        6           0.000542017   -0.003010682    0.001482294
     10        6           0.002435144    0.000268587    0.001059337
     11        6          -0.001622986    0.002868536   -0.000303573
     12        6          -0.002869064   -0.000630032   -0.001368489
     13        6          -0.000105890    0.004199644    0.002776567
     14        6           0.001756278    0.002388531    0.001681759
     15        6           0.002839143   -0.002838803   -0.000940411
     16        6           0.000348695   -0.002358512    0.000108646
     17        6           0.009588723   -0.003589466   -0.000601193
     18        6          -0.009605561    0.003586079   -0.000617921
     19        6          -0.004263034    0.005413042   -0.005100088
     20        8           0.008830670   -0.004682931    0.001310739
     21        6           0.004773410    0.005588616   -0.003249544
     22        6          -0.005254035   -0.003834297    0.002356398
     23        6          -0.000565334    0.003013598    0.001490472
     24        6           0.000918052    0.004059377    0.000964206
     25        6           0.003569611    0.001061885   -0.002717519
     26        6           0.003680828   -0.002187356   -0.002709610
     27        6          -0.000711830   -0.002311056    0.000102958
     28        6          -0.002448594   -0.000299876    0.001035081
     29        6           0.001649768   -0.002865489   -0.000310545
     30        6           0.002856972    0.000655618   -0.001371389
     31        6           0.000114936   -0.004222975    0.002743269
     32        6          -0.001743590   -0.002409874    0.001682168
     33        6          -0.002854377    0.002866210   -0.000916310
     34        6          -0.000389521    0.002339147    0.000099401
     35        1           0.007284030   -0.001469721    0.001470091
     36        1           0.002550855    0.008748315   -0.001219686
     37        1          -0.005147237    0.005803893   -0.006224875
     38        1          -0.007719638   -0.003903687   -0.005221547
     39        1          -0.002424504   -0.009644844    0.001281362
     40        1           0.005078339   -0.005173139    0.005016272
     41        1          -0.008298090    0.003816885   -0.000379964
     42        1          -0.008651416    0.004828680   -0.000341145
     43        1          -0.001789753    0.008736752    0.004776575
     44        1           0.007728134    0.003520870    0.005491544
     45        1           0.007243585   -0.003908948    0.000560661
     46        1          -0.007268209    0.001419616    0.001502476
     47        1          -0.005102281    0.005110949    0.005044105
     48        1           0.002379078    0.009647019    0.001348909
     49        1           0.007705557    0.003971886   -0.005187822
     50        1           0.005185499   -0.005742438   -0.006250601
     51        1          -0.002502847   -0.008750012   -0.001278310
     52        1           0.008307685   -0.003787969   -0.000411207
     53        1           0.008666187   -0.004796037   -0.000381788
     54        1           0.001818541   -0.008763782    0.004706691
     55        1          -0.007716934   -0.003588732    0.005464030
     56        1          -0.007266256    0.003889564    0.000597161
 -------------------------------------------------------------------
 Cartesian Forces:  Max     0.009647019 RMS     0.004281247
 Leave Link  716 at Sat Feb 24 17:52:50 2024, MaxMem=  7516192768 cpu:               8.2 elap:               1.0
 (Enter /public/apps/g16-C01//g16/l103.exe)

 GradGradGradGradGradGradGradGradGradGradGradGradGradGradGradGradGradGrad
 Berny optimization.
 FormGI is forming the generalized inverse of G from B-inverse, IUseBI=4.
 Internal  Forces:  Max     0.015251359 RMS     0.005240513
 Search for a local minimum.
 Step number   1 out of a maximum of  321
 All quantities printed in internal units (Hartrees-Bohrs-Radians)
 RMS Force = .52405D-02 SwitMx=.10000D-02 MixMth= 1
 Mixed Optimization -- RFO/linear search
 Second derivative matrix not updated -- first step.
 ITU=  0
     Eigenvalues ---    0.00927   0.01134   0.01134   0.01715   0.01715
     Eigenvalues ---    0.01812   0.01812   0.01871   0.01871   0.01883
     Eigenvalues ---    0.01883   0.01892   0.01892   0.01936   0.01936
     Eigenvalues ---    0.02067   0.02067   0.02086   0.02086   0.02152
     Eigenvalues ---    0.02152   0.02156   0.02156   0.02206   0.02206
     Eigenvalues ---    0.02209   0.02209   0.02240   0.02240   0.02243
[...]
 -0.00002061,-0.02338534,-0.00550638,0.03819002,0.00001204,-0.00000872,
 -0.00002209,0.00003342,0.00002825,0.00002265,0.00003292,-0.00000449,0.
 00000304,0.00000776,0.00000592,0.00000929,-0.00000178,-0.00000511,-0.0
 0000213,-0.00000094,-0.00000245,0.00000027,-0.00000502,-0.00000165,-0.
 00000321,0.00000272,0.00000803,-0.00000046,-0.00000400,-0.00000608,-0.
 00000202,-0.00000132,0.00000624,0.00000501,-0.00001153,-0.00000710,-0.
 00000483,0.00000510,-0.00000073,0.00000076,-0.00000538,0.00000209,-0.0
 0000060,0.00000667,-0.00000553,-0.00000389,-0.00000177,0.00000850,0.00
 000425,0.00001573,-0.00004368,-0.00003330,-0.00001088,0.00001669,-0.00
 003645,0.00013663,0.00004527,-0.00034944,-0.00032053,0.00011968,0.0000
 7400,0.00008081,-0.00002935,0.00001165,-0.00014224,-0.00034343,0.00007
 683,0.00005243,-0.00009264,-0.00000101,-0.00002933,0.00000539,0.000023
 48,-0.00000324,-0.00000801,-0.00000577,-0.00000405,-0.00000179,0.00000
 193,0.00000080,-0.00000125,-0.00000204,-0.00000222,0.00000221,-0.00000
 182,0.00072686,-0.00061238,0.00027033,-0.00261410,0.00006005,0.0042791
 4,0.00782615,-0.02106814,0.01211788,-0.06319022,0.04028235,-0.01585057
 ,0.00038365,0.02439399,-0.01491162,-0.00414957,0.00239369,0.00222605,-
 0.00081672,-0.00039109,0.00038347,-0.00003109,0.00000025,0.00003636,0.
 00000085,-0.00000136,0.00000162,-0.00000117,0.00000005,-0.00000073,-0.
 00000144,0.00000010,-0.00000127,-0.00000278,-0.00000289,-0.00000173,0.
 00000616,0.00000829,0.00000404,-0.00000119,0.00000251,0.00000079,-0.00
 000167,0.00000065,-0.00000010,-0.00000015,0.00000131,0.00000121,0.0000
 0069,0.00000008,0.00000154,-0.00000302,-0.00000218,0.00000503,-0.00002
 274,-0.00001274,0.00001347,0.00000307,-0.00000072,0.00000072,-0.000003
 22,-0.00000286,0.00000245,-0.00000066,-0.00000094,0.00000137,-0.000001
 68,-0.00000003,0.00000293,0.00000279,-0.00000167,-0.00000090,-0.000001
 29,0.00005784,0.00004008,0.00047300,-0.00049773,-0.00182787,0.06081122
 ,0.00003117,-0.00004641,0.00001319,-0.00001201,0.00000559,0.00001708,-
 0.00003193,0.00000760,-0.00000758,-0.00000699,-0.00001248,-0.00001052,
 0.00000401,0.00000584,0.00000278,0.00000139,0.00000295,-0.00000052,0.0
 0000483,0.00000070,0.00000289,-0.00000054,-0.00000869,0.00000076,0.000
 00111,0.00000904,-0.00000165,0.00001158,-0.00001448,-0.00000646,0.0000
 2110,-0.00000325,0.00000223,-0.00000576,-0.00000076,-0.00000258,0.0000
 1088,-0.00000762,-0.00000176,-0.00000527,0.00001605,0.00000578,-0.0000
 0881,-0.00002151,-0.00001872,0.00002521,0.00007083,0.00004606,-0.00002
 694,-0.00003653,0.00000252,-0.00011391,-0.00013805,-0.00029419,-0.0000
 7005,0.00011346,0.00000961,0.00002210,-0.00006591,0.00007020,-0.000236
 34,-0.00020415,-0.00013213,0.00005207,-0.00005074,-0.00004152,-0.00004
 137,0.00000696,0.00002936,0.00000157,-0.00000187,0.00000119,-0.0000143
 9,-0.00000348,0.00000821,-0.00000438,-0.00000829,-0.00000903,-0.000007
 87,-0.00001343,0.00001179,0.00047065,-0.00028290,0.00024705,-0.0008532
 3,0.00306814,0.00381073,0.00401583,-0.00676287,0.00527781,0.03988389,-
 0.25659111,0.12708057,-0.00064442,-0.00794038,0.00734741,0.00342412,0.
 00164414,0.00096795,-0.00012408,0.00040925,-0.00056365,-0.00001721,0.0
 0000253,-0.00005417,-0.00000237,0.00000125,-0.00000211,0.00000218,-0.0
 0000131,0.00000233,0.00000267,0.00000066,0.00000256,0.00000058,0.00000
 316,0.00000076,-0.00000778,-0.00000717,-0.00000098,0.00000291,-0.00000
 443,-0.00000101,0.00000387,-0.00000320,0.00000060,0.00000132,-0.000005
 69,-0.00000140,-0.00000399,-0.00000487,-0.00000248,0.00000552,0.000008
 10,0.00001095,-0.00000765,0.00001325,-0.00001026,0.00000723,0.00000377
 ,0.00000002,-0.00000479,-0.00000751,0.00000352,-0.00000365,-0.00000276
 ,0.00000438,-0.00000584,0.00000194,0.00000586,0.00000712,-0.00000544,-
 0.00000263,0.00000623,0.00006938,0.00007927,-0.00106362,-0.00064793,-0
 .00241649,-0.04411529,0.26799240,-0.00001670,-0.00006705,-0.00003541,0
 .00000885,0.00004765,0.00006488,0.00000858,-0.00000151,0.00000061,0.00
 000878,0.00000923,0.00001049,-0.00000275,-0.00000608,-0.00000324,-0.00
 000038,-0.00000341,0.00000066,-0.00000463,-0.00000144,-0.00000416,0.00
 000434,0.00000535,-0.00000024,-0.00000921,-0.00000099,-0.00000650,-0.0
 0000384,0.00000777,-0.00000209,-0.00000445,0.00000063,0.00000311,-0.00
 000315,0.00000350,0.00000120,-0.00000391,-0.00000155,-0.00000329,-0.00
 000078,-0.00000368,-0.00000562,0.00001248,-0.00000263,0.00000449,-0.00
 002141,-0.00000466,-0.00001954,0.00001827,0.00000425,-0.00002749,-0.00
 025987,-0.00036630,-0.00035319,0.00017644,-0.00005246,0.00005062,-0.00
 003299,0.00009130,0.00000435,0.00002696,-0.00012374,-0.00049160,-0.000
 08236,0.00000904,-0.00003078,0.00003005,-0.00000158,-0.00001732,-0.000
 00007,-0.00000464,0.00000096,0.00001274,0.00000479,-0.00001030,-0.0000
 0120,0.00000344,0.00000487,0.00001748,0.00003269,-0.00000227,-0.000451
 44,0.00068915,0.00006297,0.00489984,0.00350129,0.00422841,-0.00422962,
 0.01516206,-0.00443389,-0.01558784,0.12699606,-0.11346139,0.00141547,-
 0.00260096,0.00404685,0.00154378,0.00136679,0.00373458,0.00016881,-0.0
 0045366,-0.00029824,0.00004144,0.00003069,0.00003474,0.00000139,-0.000
 00231,0.00000217,-0.00000131,0.00000004,-0.00000043,-0.00000169,-0.000
 00010,-0.00000068,-0.00000405,-0.00000302,-0.00000066,0.00000336,0.000
 00655,0.00000251,-0.00000220,0.00000180,0.00000163,-0.00000227,0.00000
 134,0.00000062,-0.00000120,0.00000133,0.00000137,0.00000033,-0.0000015
 0,0.00000038,-0.00000526,-0.00000601,-0.00000230,0.00001323,-0.0000110
 9,-0.00000832,-0.00000178,-0.00000586,0.00000102,0.00000342,0.00000409
 ,-0.00000146,0.00000330,0.00000133,-0.00000178,0.00000716,-0.00000101,
 -0.00000521,-0.00000753,-0.00000095,0.00001034,0.00006708,0.00005079,0
 .00012356,-0.00144880,-0.00264823,-0.00271586,0.01476661,-0.14025989,0
 .11101010,0.00002448,-0.00003355,0.00001032,-0.00000817,0.00002594,-0.
 00001572,0.00000049,-0.00000484,-0.00000067,0.00000049,-0.00000677,-0.
 00000371,0.00000165,0.00000257,0.00000084,0.00000131,0.00000094,0.0000
 0019,0.00000214,0.00000043,0.00000116,-0.00000075,-0.00000829,0.000001
 89,-0.00000493,0.00000942,-0.00000221,0.00000573,0.00000424,0.00000744
 ,0.00000205,-0.00000279,-0.00000795,0.00000003,0.00000600,0.00000248,-
 0.00000078,-0.00000467,-0.00000490,0.00000451,0.00000214,-0.00000163,-
 0.00000300,-0.00000053,-0.00001211,0.00000122,0.00002320,0.00002871,-0
 .00000584,0.00003250,0.00007966,0.00016904,-0.00004334,0.00006783,0.00
 007445,0.00002522,-0.00030761,0.00004455,-0.00013232,0.00004310,-0.000
 02366,0.00009180,0.00002134,0.00003091,0.00000619,-0.00000316,-0.00001
 541,0.00000150,0.00000627,0.00000047,0.00000290,-0.00000174,-0.0000073
 9,-0.00000302,0.00000487,0.00000390,-0.00000641,-0.00000494,-0.0000067
 8,-0.00000082,0.00000894,-0.00008028,-0.00026041,-0.00009898,0.0001665
 7,0.00056690,-0.00069856,-0.00311420,0.00441517,0.00054072,-0.01482680
 ,-0.01323220,0.01611286,-0.20451266,-0.07752421,0.11813125,0.00746970,
 0.00367686,-0.00375599,0.00161949,0.00282995,0.00096481,-0.00002578,0.
 00000137,-0.00002972,-0.00000104,0.,-0.00000055,0.00000116,-0.00000097
 ,0.00000152,0.00000203,0.00000008,0.00000184,0.00000032,0.00000145,-0.
 00000058,-0.00000075,-0.00000516,-0.00000353,0.00000172,-0.00000194,-0
 .00000027,0.00000235,-0.00000147,0.00000030,0.00000069,-0.00000398,-0.
 00000037,-0.00000353,-0.00000406,0.00000004,0.00000057,0.00000256,0.00
 001155,-0.00002180,0.00001391,0.00000972,0.00000568,0.00000246,0.00000
 124,-0.00000201,-0.00000444,0.00000113,-0.00000293,-0.00000202,0.00000
 222,-0.00000272,0.00000192,0.00000181,0.00000267,-0.00000465,-0.000007
 99,0.00003951,0.00003582,-0.00002139,-0.00080124,-0.00059170,0.0007410
 8,0.00082998,-0.00055354,-0.00121954,0.21275076,0.00006658,-0.00002820
 ,0.00002039,-0.00002397,0.00003331,-0.00004843,0.00000950,-0.00000314,
 0.00000034,-0.00000533,-0.00001069,-0.00001046,0.00000510,0.00000287,0
 .00000118,0.00000015,0.00000195,-0.00000138,0.00000260,-0.00000102,0.0
 0000105,0.00000210,0.00000731,-0.00000686,0.00001660,-0.00001169,0.000
 00351,0.00002114,-0.00000946,-0.00000010,0.00001491,-0.00000498,-0.000
 01413,0.00000588,0.00000326,-0.00000412,0.00000562,-0.00000733,-0.0000
 0952,-0.00000157,0.00000656,-0.00000608,-0.00001469,0.00000123,-0.0000
 2302,0.00001610,0.00002994,0.00007309,-0.00003423,0.00011893,0.0000635
 2,-0.00108055,0.00025782,0.00037484,-0.00016223,-0.00036246,-0.0001021
 8,-0.00004875,-0.00025308,0.00012664,0.00026222,-0.00015468,0.00009905
 ,0.00001157,0.00002418,0.00000485,-0.00001369,0.00000706,-0.00000080,0
 .00000194,0.00000639,-0.00000145,-0.00000840,-0.00000149,0.00000611,-0
 .00000044,-0.00000499,-0.00000084,-0.00000672,-0.00001284,0.00000277,-
 0.00005638,0.00009875,-0.00053028,0.00029787,-0.00070481,-0.00010053,0
 .00344801,0.00048630,0.00181790,0.01146357,0.00937359,-0.00842720,-0.0
 7698361,-0.09755736,0.06985067,-0.02086765,-0.00611125,0.01534011,0.00
 340124,-0.00167044,0.00538583,-0.00007168,0.00000851,-0.00007746,-0.00
 000244,0.00000250,-0.00000042,-0.00000027,0.00000066,0.00000092,-0.000
 00174,0.00000110,0.00000050,-0.00000060,0.00000136,0.00000377,-0.00000
 871,0.00000385,0.00001374,0.00000254,-0.00000643,0.00000283,0.00000241
 ,-0.00000505,0.00000151,0.00000010,-0.00000491,0.00000145,-0.00000405,
 -0.00000655,0.00000231,0.00000369,0.00000179,0.00001438,-0.00004833,0.
 00003863,0.00001124,0.00000780,0.00000432,0.00000330,-0.00000161,-0.00
 000372,0.00000142,-0.00000225,-0.00000097,0.00000183,-0.00000277,0.000
 00094,0.00000285,0.00000225,-0.00000105,-0.00000285,-0.00004191,0.0000
 0312,0.00004444,0.00060674,0.00032747,-0.00033460,-0.00127288,-0.00019
 917,-0.00137641,0.08188859,0.09668694,-0.00001375,-0.00019116,-0.00002
 282,0.00000481,0.00020945,0.00004314,0.00007459,-0.00003727,0.00000788
 ,0.00003156,0.00001631,0.00002986,-0.00000689,-0.00001502,-0.00000644,
 0.00000137,-0.00000944,0.00000433,-0.00001102,-0.00000229,-0.00000804,
 0.00000973,-0.00000312,0.00000933,-0.00004699,0.00002102,-0.00002852,-
 0.00001422,0.00004821,0.00003145,-0.00003702,-0.00000650,-0.00001658,-
 0.00000013,0.00002394,0.00001296,-0.00002808,-0.00000112,-0.00001216,0
 .00001495,-0.00002658,-0.00001241,0.00003170,0.00001813,0.00002019,-0.
 00007133,-0.00006530,-0.00003844,0.00005949,0.00008756,0.00018559,0.00
 080544,-0.00000053,-0.00010115,-0.00030229,-0.00018524,-0.00038573,0.0
 0000776,0.00015945,-0.00017034,-0.00000266,0.00007570,0.00009447,-0.00
 002145,-0.00000022,0.00005090,0.00000649,0.00001239,-0.00001620,-0.000
 00210,0.00000005,-0.00000328,0.00000286,0.00000060,-0.00000235,-0.0000
 0085,0.00000150,-0.00000144,0.00000810,0.00000535,-0.00000803,-0.00018
 200,-0.00037923,-0.00044615,-0.00055507,-0.00027816,-0.00023412,0.0011
 8869,0.00147590,0.00388938,-0.00034358,0.00158605,0.00264093,0.1180403
 7,0.06996312,-0.13184801,0.01239729,0.00546814,-0.00433024,0.00052053,
 0.00552076,0.00471795,0.00005554,0.00006241,0.00001552,0.00000393,-0.0
 0000823,0.00000497,-0.00000079,-0.00000246,0.00000032,0.00000145,-0.00
 000126,0.00000048,-0.00001004,-0.00000628,-0.00000867,0.00001305,0.000
 01874,-0.00000553,-0.00000268,0.00000617,0.00000148,-0.00000253,0.0000
 0454,-0.00000037,-0.00000154,0.00000244,0.00000041,-0.00000008,-0.0000
 0237,0.00000105,-0.00000938,-0.00001335,-0.00000726,0.00004652,-0.0000
 1350,0.00000859,-0.00000191,-0.00000836,0.00000133,0.00000245,0.000002
 76,-0.00000031,0.00000300,0.00000098,-0.00000114,0.00000385,-0.0000010
 1,-0.00000172,-0.00000210,0.00000263,0.00000614,0.00002743,0.00001700,
 0.00002327,-0.00001082,0.00013646,0.00007160,-0.00073967,-0.00164231,-
 0.00168301,-0.12927178,-0.07948752,0.13029170,0.00008526,0.00015564,-0
 .00003658,0.00045159,0.00062812,-0.00078698,0.00018972,-0.00015772,0.0
 0005720,0.00001494,0.00000066,0.00003695,-0.00000310,-0.00000850,-0.00
 000924,0.00000151,-0.00001194,0.00000270,-0.00000983,-0.00000245,-0.00
 000939,-0.00000103,-0.00000480,0.00000509,-0.00003084,0.00002025,-0.00
 000712,-0.00005705,0.00014698,0.00013816,-0.00010354,-0.00010899,-0.00
 003425,0.00003056,0.00003236,0.00002320,-0.00006595,0.00000050,-0.0000
 1838,0.00007639,-0.00006756,-0.00003713,-0.00001945,0.00004778,0.00004
 629,0.00026478,-0.00037431,-0.00039667,0.00014610,0.00062961,-0.000538
 37,-0.00031137,0.00089334,-0.00148372,-0.00036803,0.00006266,-0.000102
 13,0.00025752,-0.00013694,0.00010781,0.00016385,-0.00008375,-0.0000248
 0,0.00006922,-0.00002134,-0.00000758,-0.00004325,0.00002415,0.00003379
 ,0.00000199,-0.00000415,0.00000649,-0.00001644,-0.00000909,0.00000945,
 0.00000575,-0.00001157,-0.00001041,-0.00001245,-0.00002168,0.00001977,
 -0.00066450,0.00094587,-0.00031382,-0.00055156,-0.00204380,0.00375502,
 0.00044273,-0.00074318,0.00009007,0.00236006,0.00165546,0.00124497,-0.
 00006978,0.00031373,0.00166114,-0.27682930,0.11586804,0.02348211,-0.01
 616658,0.01112389,0.00086634,-0.00031357,-0.00002763,0.00015955,0.0000
 0268,-0.00000629,0.00000710,-0.00000398,0.00000086,-0.00000178,-0.0000
 0211,-0.00000213,-0.00000166,-0.00000370,-0.00000557,-0.00000301,0.000
 03877,-0.00000103,0.00000435,-0.00000429,0.00001712,-0.00000778,-0.000
 00687,0.00000517,-0.00000177,-0.00000302,0.00000546,0.00000531,0.00000
 057,0.00000358,0.00000940,-0.00002888,-0.00001024,0.00003972,-0.000142
 80,-0.00002504,0.00005816,-0.00000055,-0.00000072,-0.00000642,-0.00000
 709,-0.00000855,0.00000302,-0.00000471,-0.00000313,0.00000165,-0.00000
 657,0.00000191,0.00000327,0.00000306,-0.00001077,-0.00001502,-0.000213
 57,-0.00010277,0.00019779,-0.00018903,-0.00012272,-0.00029829,-0.00006
 452,-0.00002714,0.00015207,0.00021183,-0.00079934,-0.00167021,0.291500
 40,0.00014597,-0.00110423,-0.00055203,0.00029481,0.00033992,0.00181431
 ,0.00013908,0.00006208,-0.00005304,0.00007203,0.00006048,0.00006215,-0
 .00002499,-0.00003884,-0.00002826,0.00000135,-0.00001633,0.00001244,-0
 .00001563,-0.00000144,-0.00001410,0.00001523,-0.00003569,0.00001843,-0
 .00010915,0.00009227,-0.00007234,-0.00001383,0.00004738,0.00007900,-0.
 00005309,-0.00006631,-0.00010396,0.00002826,0.00002022,0.00004587,-0.0
 0006621,0.00001136,-0.00001859,0.00007227,-0.00006808,-0.00005072,0.00
 002194,0.00015848,-0.00001912,-0.00002134,-0.00048043,0.00005344,-0.00
 035748,-0.00062735,0.00048535,-0.00031895,-0.00068651,-0.00079643,0.00
 004370,0.00003212,-0.00031411,0.00008750,0.00005552,0.00009632,-0.0001
 1700,0.00006717,-0.00008633,0.00001423,-0.00001430,0.00001967,-0.00000
 626,0.00000976,0.00000595,-0.00000248,-0.00000549,0.00000188,-0.000001
 27,-0.00000447,-0.00000091,0.00000449,-0.00000230,-0.00000528,-0.00000
 159,0.00000569,0.00001296,-0.00057324,0.00038623,-0.00002106,-0.000869
 18,0.00025529,0.00347611,-0.00066109,-0.00039254,0.00013453,0.00058037
 ,-0.00137613,0.00586992,0.02471505,-0.00754886,-0.00245907,0.11663211,
 -0.10961921,-0.00066642,-0.01158967,0.00954238,0.00043978,0.00003766,0
 .00015462,-0.00014069,0.00001071,-0.00001707,0.00001326,-0.00000421,-0
 .00000248,-0.00000138,0.00000221,-0.00000522,0.00000124,-0.00001406,-0
 .00000940,-0.00001191,-0.00002533,-0.00002029,-0.00005318,-0.00001029,
 0.00002092,-0.00000593,-0.00000929,0.00000775,0.00000133,-0.00000213,0
 .00000814,0.00000610,0.00000267,0.00000178,0.00001343,-0.00000962,-0.0
 0001021,0.00002324,-0.00004381,-0.00001778,0.00001676,-0.00000376,-0.0
 0000416,-0.00000215,-0.00000158,-0.00000081,0.00000064,0.00000017,-0.0
 0000068,-0.00000067,0.00000061,-0.00000036,-0.00000014,-0.00000050,-0.
 00000744,-0.00000331,-0.00012090,-0.00001972,0.00018885,-0.00011777,-0
 .00026486,-0.00049252,0.00109551,-0.00035257,-0.00002024,-0.00123391,-
 0.00040291,-0.00255993,-0.12761829,0.11188490,-0.00008619,-0.00051009,
 0.00002565,-0.00032474,0.00110794,-0.00057982,-0.00020986,0.00008483,-
 0.00009283,-0.00001929,-0.00002462,-0.00002174,0.00000910,0.00001297,0
 .00000414,0.00000620,0.00000506,0.00000490,0.00001882,0.00000392,0.000
 00947,0.00000370,-0.00004548,0.00001030,-0.00001116,0.00008043,-0.0000
 2942,0.00002443,-0.00010527,-0.00001307,0.00021532,-0.00003599,0.00002
 743,-0.00006563,0.00002567,-0.00002506,0.00004958,-0.00006993,-0.00003
 038,-0.00006684,0.00005387,-0.00002032,-0.00000256,-0.00017917,-0.0001
 1343,-0.00014755,0.00033834,0.00030972,0.00015602,0.00053302,-0.000554
 32,-0.00062608,-0.00142848,-0.00141230,-0.00023313,-0.00037213,-0.0000
 6565,-0.00008631,0.00024524,0.00009134,0.00001101,-0.00015331,-0.00002
 250,-0.00004434,0.00003368,0.00003446,0.00002444,-0.00000541,-0.000021
 24,-0.00000198,0.00000383,-0.00000567,0.00000810,0.00000876,-0.0000046
 2,-0.00000982,0.00000033,0.00000691,0.00000674,0.00000694,-0.00001438,
 0.00071538,-0.00055378,0.00016093,0.00283170,0.00397659,0.00146643,0.0
 0003058,0.00022679,-0.00075293,0.00179906,0.00550758,0.00362520,-0.014
 38494,0.00766000,0.00515422,0.02339699,-0.00074204,-0.04619426,0.01491
 016,-0.00872341,0.00279945,0.00041522,0.00007970,-0.00037624,-0.000004
 28,-0.00000092,-0.00000511,0.00000721,-0.00000362,0.00000662,0.0000086
 1,-0.00000033,0.00000815,-0.00000008,0.00001041,0.00000416,-0.00006559
 ,-0.00005872,-0.00002877,0.00000832,-0.00002696,-0.00000688,0.00000834
 ,-0.00000702,0.00000393,-0.00000505,-0.00001085,-0.00000234,-0.0000115
 3,-0.00001430,-0.00000727,-0.00003983,-0.00002358,-0.00000207,0.000126
 78,0.00002793,-0.00005387,0.00000350,0.00000025,0.00000511,0.00000463,
 0.00000374,-0.00000051,0.00000241,0.00000133,-0.00000012,0.00000339,-0
 .00000112,-0.00000065,-0.00000247,0.00000315,0.00001163,0.00024142,0.0
 0017597,-0.00003942,-0.00027622,-0.00048949,-0.00065910,-0.00058475,0.
 00041863,0.00021879,-0.00133153,-0.00271173,-0.00276477,-0.02640541,-0
 .00433915,0.03993215\\0.00000743,-0.00001063,-0.00000543,-0.00000427,0
 .00001114,0.00000787,0.00000277,-0.00000450,-0.00000232,0.00000277,-0.
 00000251,0.00000290,-0.00000252,-0.00000081,-0.00000126,0.00000331,0.0
 0000314,0.00000131,-0.00000113,-0.00000345,0.00000036,-0.00000272,0.00
 000187,-0.00000141,0.00000209,0.00000486,-0.00000054,0.00000073,0.0000
 0313,0.00000228,-0.00000173,-0.00000494,-0.00000519,-0.00000025,0.0000
 0455,0.00000290,-0.00000201,-0.00000220,-0.00000193,0.00000199,-0.0000
 0109,-0.00000025,-0.00000027,0.,0.00000005,0.00000740,0.00000031,0.000
 00281,-0.00001429,-0.00000065,-0.00000220,0.00001449,0.00000063,-0.000
 00176,0.00000351,-0.00001119,0.00000688,-0.00000578,0.00001084,-0.0000
 0524,-0.00000339,0.00000430,-0.00000229,-0.00000224,0.00000292,0.00000
 304,-0.00000258,-0.00000553,-0.00000080,0.00000258,-0.00000173,-0.0000
 0152,0.00000108,0.00000332,0.00000038,-0.00000324,-0.00000308,0.000001
 15,0.00000212,0.00000066,-0.00000159,-0.00000027,-0.00000268,0.0000021
 3,0.00000145,0.00000477,-0.00000486,0.00000047,-0.00000437,0.00000262,
 0.00000171,0.00000216,-0.00000188,-0.00000176,0.00000079,-0.00000009,0
 .00000031,0.00000025,-0.00000010,-0.00000707,-0.00000050,0.00000286,-0
 .00000643,0.00000263,-0.00000133,-0.00000118,0.00000079,-0.00000002,0.
 00000015,0.00000101,0.00000091,0.00000080,0.00000073,0.00000013,0.0000
 0079,0.00000036,-0.00000001,-0.00000246,-0.00000036,0.00000104,0.00000
 116,0.00000093,-0.00000045,0.00000121,0.00000015,-0.00000007,0.0000009
 8,0.00000034,0.00000015,-0.00000077,0.00000024,0.00000022,-0.00000063,
 0.00000068,0.00000014,0.00000653,-0.00000277,-0.00000130,0.00000183,0.
 00000060,0.00000113,-0.00000083,-0.00000036,-0.00000015,-0.00000085,-0
 .00000071,0.,-0.00000020,-0.00000101,0.00000078,0.00000105,-0.00000076
 ,-0.00000008,-0.00000116,-0.00000089,-0.00000048,-0.00000119,-0.000000
 15,-0.00000014,-0.00000089,-0.00000028,0.00000023,0.00000079,-0.000000
 28,0.00000016,0.00000061,-0.00000071,0.00000027\\\@
 The archive entry for this job was punched.


 HEAVEN'S NET CASTS WIDE.
 THOUGH ITS MESHES ARE COARSE, NOTHING SLIPS THROUGH.

                                          -- LAO-TSU
 Job cpu time:       3 days  1 hours 23 minutes  4.9 seconds.
 Elapsed time:       0 days  3 hours 46 minutes 20.7 seconds.
 File lengths (MBytes):  RWF=   1767 Int=      0 D2E=      0 Chk=     25 Scr=      1
 Normal termination of Gaussian 16 at Sat Feb 24 23:29:17 2024.
