 Entering Gaussian System, Link 0=g16
 Initial command:
 /public/software/apps/Gaussian/g16/l1.exe "/tmp/Gau-113423.inp" -scrdir="/tmp/"
 Entering Link 1 = /public/software/apps/Gaussian/g16/l1.exe PID=    113425.
  
 Copyright (c) 1988-2019, Gaussian, Inc.  All Rights Reserved.
  
 This is part of the Gaussian(R) 16 program.  It is based on
 the Gaussian(R) 09 system (copyright 2009, Gaussian, Inc.),
 the Gaussian(R) 03 system (copyright 2003, Gaussian, Inc.),
 the Gaussian(R) 98 system (copyright 1998, Gaussian, Inc.),
 the Gaussian(R) 94 system (copyright 1995, Gaussian, Inc.),
 the Gaussian 92(TM) system (copyright 1992, Gaussian, Inc.),
 the Gaussian 90(TM) system (copyright 1990, Gaussian, Inc.),
 the Gaussian 88(TM) system (copyright 1988, Gaussian, Inc.),
 the Gaussian 86(TM) system (copyright 1986, Carnegie Mellon
 University), and the Gaussian 82(TM) system (copyright 1983,
 Carnegie Mellon University). Gaussian is a federally registered
 trademark of Gaussian, Inc.
  
 This software contains proprietary and confidential information,
 including trade secrets, belonging to Gaussian, Inc.
  
 This software is provided under written license and may be
 used, copied, transmitted, or stored only in accord with that
 written license.
  
 The following legend is applicable only to US Government
 contracts under FAR:
  
                    RESTRICTED RIGHTS LEGEND
  
 Use, reproduction and disclosure by the US Government is
 subject to restrictions as set forth in subparagraphs (a)
 and (c) of the Commercial Computer Software - Restricted
 Rights clause in FAR 52.227-19.
  
 Gaussian, Inc.
 340 Quinnipiac St., Bldg. 40, Wallingford CT 06492
  
  
 ---------------------------------------------------------------
 Warning -- This program may not be used in any manner that
 competes with the business of Gaussian, Inc. or will provide
 assistance to any competitor of Gaussian, Inc.  The licensee
 of this program is prohibited from giving any competitor of
 Gaussian, Inc. access to this program.  By using this program,
 the user acknowledges that Gaussian, Inc. is engaged in the
 business of creating and licensing software in the field of
 computational chemistry and represents and warrants to the
 licensee that it is not a competitor of Gaussian, Inc. and that
 it will not use this program in any manner prohibited above.
 ---------------------------------------------------------------
  

 Cite this work as:
 Gaussian 16, Revision C.01,
 M. J. Frisch, G. W. Trucks, H. B. Schlegel, G. E. Scuseria, 
 M. A. Robb, J. R. Cheeseman, G. Scalmani, V. Barone, 
 G. A. Petersson, H. Nakatsuji, X. Li, M. Caricato, A. V. Marenich, 
 J. Bloino, B. G. Janesko, R. Gomperts, B. Mennucci, H. P. Hratchian, 
 J. V. Ortiz, A. F. Izmaylov, J. L. Sonnenberg, D. Williams-Young, 
 F. Ding, F. Lipparini, F. Egidi, J. Goings, B. Peng, A. Petrone, 
 T. Henderson, D. Ranasinghe, V. G. Zakrzewski, J. Gao, N. Rega, 
 G. Zheng, W. Liang, M. Hada, M. Ehara, K. Toyota, R. Fukuda, 
 J. Hasegawa, M. Ishida, T. Nakajima, Y. Honda, O. Kitao, H. Nakai, 
 T. Vreven, K. Throssell, J. A. Montgomery, Jr., J. E. Peralta, 
 F. Ogliaro, M. J. Bearpark, J. J. Heyd, E. N. Brothers, K. N. Kudin, 
 V. N. Staroverov, T. A. Keith, R. Kobayashi, J. Normand, 
 K. Raghavachari, A. P. Rendell, J. C. Burant, S. S. Iyengar, 
 J. Tomasi, M. Cossi, J. M. Millam, M. Klene, C. Adamo, R. Cammi, 
 J. W. Ochterski, R. L. Martin, K. Morokuma, O. Farkas, 
 J. B. Foresman, and D. J. Fox, Gaussian, Inc., Wallingford CT, 2019.
 
 ******************************************
 Gaussian 16:  ES64L-G16RevC.01  3-Jul-2019
                10-Dec-2024 
 ******************************************
 %nprocshared=32
 Will use up to   32 processors via shared memory.
 %mem=100GB
 ------------------------------------------
 #p opt freq b3lyp/def2svpp em=gd3bj nosymm
 ------------------------------------------
 1/18=20,19=15,26=3,38=1/1,3;
 2/9=110,12=2,15=1,17=6,18=5,40=1/2;
 3/5=43,7=202,11=2,25=1,30=1,71=1,74=-5,124=41/1,2,3;
 4//1;
 5/5=2,38=5/2;
 6/7=2,8=2,9=2,10=2,28=1/1;
 7/30=1/1,2,3,16;
 1/18=20,19=15,26=3/3(2);
 2/9=110,15=1/2;
 99//99;
 2/9=110,15=1/2;
 3/5=43,7=202,11=2,25=1,30=1,71=1,74=-5,124=41/1,2,3;
 4/5=5,16=3,69=1/1;
 5/5=2,38=5/2;
 7/30=1/1,2,3,16;
 1/18=20,19=15,26=3/3(-5);
 2/9=110,15=1/2;
 6/7=2,8=2,9=2,10=2,19=2,28=1/1;
 99/9=1/99;
 Leave Link    1 at Tue Dec 10 01:15:35 2024, MaxMem= 13421772800 cpu:               1.6 elap:               0.1
 (Enter /public/software/apps/Gaussian/g16/l101.exe)
 ----------------------
 $$$$Singlemol####0????
 ----------------------
 Symbolic Z-matrix:
 Charge =  0 Multiplicity = 1
 C                     6.7857    1.9574    3.0981 
 C                     7.5829    2.4654    1.8874 
 C                     8.905     3.0869    2.3538 
 C                     7.8563    1.3361    0.8708 
 C                     6.5865    0.8241    0.2381 
 C                     6.0073   -0.3778    0.6754 
 C                     4.8165   -0.8356    0.105 
 C                     4.1803   -0.0911   -0.9009 
 C                     2.929    -0.5828   -1.5173 
 C                     2.9133   -0.8356   -2.8955 
 C                     1.7696   -1.3486   -3.5177 
 C                     1.7757   -1.6043   -4.8986 
 C                     0.6407   -2.1233   -5.5234 
 C                    -0.5074   -2.3923   -4.7785 
 C                    -0.529    -2.1437   -3.4043 
 C                     0.6078   -1.6182   -2.753 
 C                     0.6153   -1.3526   -1.3627 
 C                    -0.5822   -1.6122   -0.5239 
 C                    -1.5219   -0.5783   -0.3485 
 O                    -1.2697    0.6638   -0.9411 
 C                    -2.6791   -0.7992    0.431 
 C                    -3.7218    0.2377    0.5863 
 C                    -4.0709    0.7026    1.8635 
 C                    -5.0714    1.6666    2.0141 
 C                    -5.7463    2.1715    0.8908 
 C                    -6.8367    3.2045    1.055 
 C                    -8.2487    2.6008    1.2394 
 C                    -8.7018    1.7936    0.0156 
 C                    -8.3603    1.7594    2.5179 
 C                    -5.4019    1.6988   -0.3859 
 C                    -4.4016    0.7347   -0.5366 
 C                    -2.8641   -2.0373    1.0605 
 C                    -1.9304   -3.068     0.9044 
 C                    -2.1376   -4.3055    1.5352 
 C                    -1.2139   -5.3397    1.377 
 C                    -0.0783   -5.15      0.5897 
 C                     0.142    -3.9251   -0.0442 
 C                    -0.7795   -2.8659    0.1032 
 C                     1.7669   -0.8218   -0.7506 
 O                     1.7212   -0.5207    0.6151 
 C                     4.764     1.1054   -1.3448 
 C                     5.9552    1.563    -0.7748 
 H                     6.6362    2.7782    3.8317 
 H                     7.3217    1.1227    3.5987 
 H                     5.7822    1.6035    2.7819 
 H                     6.9912    3.2654    1.3892 
 H                     8.7096    3.9221    3.06 
 H                     9.464     3.4966    1.4857 
 H                     9.5373    2.3274    2.8621 
 H                     8.4047    0.5048    1.3672 
 H                     8.5199    1.717     0.0632 
 H                     6.4757   -0.9591    1.4599 
 H                     4.3888   -1.77      0.4474 
 H                     3.8065   -0.6484   -3.4819 
 H                     2.6584   -1.4035   -5.4943 
 H                     0.6515   -2.3181   -6.5881 
 H                    -1.3849   -2.7951   -5.2678 
 H                    -1.4382   -2.3652   -2.8602 
 H                    -1.845     1.4809   -0.7834 
 H                    -3.5629    0.3231    2.7418 
 H                    -5.323     2.017     3.0074 
 H                    -6.6031    3.8535    1.9276 
 H                    -6.8434    3.8786    0.1702 
 H                    -8.9529    3.4556    1.3473 
 H                    -8.0988    0.8677   -0.0963 
 H                    -8.6034    2.4049   -0.9066 
 H                    -9.7687    1.5048    0.1264 
 H                    -8.0184    2.347     3.3963 
 H                    -7.7505    0.8345    2.4403 
 H                    -9.4186    1.4675    2.6879 
 H                    -5.9125    2.0729   -1.2646 
 H                    -4.1581    0.3726   -1.5282 
 H                    -3.7528   -2.2026    1.6604 
 H                    -3.0144   -4.4731    2.1495 
 H                    -1.3794   -6.2913    1.8655 
 H                     0.6348   -5.9555    0.4699 
 H                     1.0346   -3.816    -0.6465 
 H                     2.4692   -0.0468    1.1043 
 H                     4.2907    1.6888   -2.1252 
 H                     6.3856    2.4947   -1.1209 
 
 ITRead=  0  0  0  0  0  0  0  0  0  0  0  0  0  0  0  0  0  0  0  0
 ITRead=  0  0  0  0  0  0  0  0  0  0  0  0  0  0  0  0  0  0  0  0
 ITRead=  0  0  0  0  0  0  0  0  0  0  0  0  0  0  0  0  0  0  0  0
 ITRead=  0  0  0  0  0  0  0  0  0  0  0  0  0  0  0  0  0  0  0  0
 MicOpt= -1 -1 -1 -1 -1 -1 -1 -1 -1 -1 -1 -1 -1 -1 -1 -1 -1 -1 -1 -1
 MicOpt= -1 -1 -1 -1 -1 -1 -1 -1 -1 -1 -1 -1 -1 -1 -1 -1 -1 -1 -1 -1
 MicOpt= -1 -1 -1 -1 -1 -1 -1 -1 -1 -1 -1 -1 -1 -1 -1 -1 -1 -1 -1 -1
 MicOpt= -1 -1 -1 -1 -1 -1 -1 -1 -1 -1 -1 -1 -1 -1 -1 -1 -1 -1 -1 -1
 NAtoms=     80 NQM=       80 NQMF=       0 NMMI=      0 NMMIF=      0
                NMic=       0 NMicF=      0.
                    Isotopes and Nuclear Properties:
 (Nuclear quadrupole moments (NQMom) in fm**2, nuclear magnetic moments (NMagM)
  in nuclear magnetons)

  Atom         1           2           3           4           5           6           7           8           9          10
 IAtWgt=          12          12          12          12          12          12          12          12          12          12
 AtmWgt=  12.0000000  12.0000000  12.0000000  12.0000000  12.0000000  12.0000000  12.0000000  12.0000000  12.0000000  12.0000000
 NucSpn=           0           0           0           0           0           0           0           0           0           0
 AtZEff=  -0.0000000  -0.0000000  -0.0000000  -0.0000000  -0.0000000  -0.0000000  -0.0000000  -0.0000000  -0.0000000  -0.0000000
 NQMom=    0.0000000   0.0000000   0.0000000   0.0000000   0.0000000   0.0000000   0.0000000   0.0000000   0.0000000   0.0000000
 NMagM=    0.0000000   0.0000000   0.0000000   0.0000000   0.0000000   0.0000000   0.0000000   0.0000000   0.0000000   0.0000000
 AtZNuc=   6.0000000   6.0000000   6.0000000   6.0000000   6.0000000   6.0000000   6.0000000   6.0000000   6.0000000   6.0000000

  Atom        11          12          13          14          15          16          17          18          19          20
 IAtWgt=          12          12          12          12          12          12          12          12          12          16
 AtmWgt=  12.0000000  12.0000000  12.0000000  12.0000000  12.0000000  12.0000000  12.0000000  12.0000000  12.0000000  15.9949146
 NucSpn=           0           0           0           0           0           0           0           0           0           0
 AtZEff=  -0.0000000  -0.0000000  -0.0000000  -0.0000000  -0.0000000  -0.0000000  -0.0000000  -0.0000000  -0.0000000  -0.0000000
 NQMom=    0.0000000   0.0000000   0.0000000   0.0000000   0.0000000   0.0000000   0.0000000   0.0000000   0.0000000   0.0000000
 NMagM=    0.0000000   0.0000000   0.0000000   0.0000000   0.0000000   0.0000000   0.0000000   0.0000000   0.0000000   0.0000000
 AtZNuc=   6.0000000   6.0000000   6.0000000   6.0000000   6.0000000   6.0000000   6.0000000   6.0000000   6.0000000   8.0000000

  Atom        21          22          23          24          25          26          27          28          29          30
 IAtWgt=          12          12          12          12          12          12          12          12          12          12
 AtmWgt=  12.0000000  12.0000000  12.0000000  12.0000000  12.0000000  12.0000000  12.0000000  12.0000000  12.0000000  12.0000000
 NucSpn=           0           0           0           0           0           0           0           0           0           0
 AtZEff=  -0.0000000  -0.0000000  -0.0000000  -0.0000000  -0.0000000  -0.0000000  -0.0000000  -0.0000000  -0.0000000  -0.0000000
 NQMom=    0.0000000   0.0000000   0.0000000   0.0000000   0.0000000   0.0000000   0.0000000   0.0000000   0.0000000   0.0000000
 NMagM=    0.0000000   0.0000000   0.0000000   0.0000000   0.0000000   0.0000000   0.0000000   0.0000000   0.0000000   0.0000000
 AtZNuc=   6.0000000   6.0000000   6.0000000   6.0000000   6.0000000   6.0000000   6.0000000   6.0000000   6.0000000   6.0000000

  Atom        31          32          33          34          35          36          37          38          39          40
 IAtWgt=          12          12          12          12          12          12          12          12          12          16
 AtmWgt=  12.0000000  12.0000000  12.0000000  12.0000000  12.0000000  12.0000000  12.0000000  12.0000000  12.0000000  15.9949146
 NucSpn=           0           0           0           0           0           0           0           0           0           0
 AtZEff=  -0.0000000  -0.0000000  -0.0000000  -0.0000000  -0.0000000  -0.0000000  -0.0000000  -0.0000000  -0.0000000  -0.0000000
 NQMom=    0.0000000   0.0000000   0.0000000   0.0000000   0.0000000   0.0000000   0.0000000   0.0000000   0.0000000   0.0000000
 NMagM=    0.0000000   0.0000000   0.0000000   0.0000000   0.0000000   0.0000000   0.0000000   0.0000000   0.0000000   0.0000000
 AtZNuc=   6.0000000   6.0000000   6.0000000   6.0000000   6.0000000   6.0000000   6.0000000   6.0000000   6.0000000   8.0000000

  Atom        41          42          43          44          45          46          47          48          49          50
 IAtWgt=          12          12           1           1           1           1           1           1           1           1
 AtmWgt=  12.0000000  12.0000000   1.0078250   1.0078250   1.0078250   1.0078250   1.0078250   1.0078250   1.0078250   1.0078250
 NucSpn=           0           0           1           1           1           1           1           1           1           1
 AtZEff=  -0.0000000  -0.0000000  -0.0000000  -0.0000000  -0.0000000  -0.0000000  -0.0000000  -0.0000000  -0.0000000  -0.0000000
 NQMom=    0.0000000   0.0000000   0.0000000   0.0000000   0.0000000   0.0000000   0.0000000   0.0000000   0.0000000   0.0000000
 NMagM=    0.0000000   0.0000000   2.7928460   2.7928460   2.7928460   2.7928460   2.7928460   2.7928460   2.7928460   2.7928460
 AtZNuc=   6.0000000   6.0000000   1.0000000   1.0000000   1.0000000   1.0000000   1.0000000   1.0000000   1.0000000   1.0000000

  Atom        51          52          53          54          55          56          57          58          59          60
 IAtWgt=           1           1           1           1           1           1           1           1           1           1
 AtmWgt=   1.0078250   1.0078250   1.0078250   1.0078250   1.0078250   1.0078250   1.0078250   1.0078250   1.0078250   1.0078250
 NucSpn=           1           1           1           1           1           1           1           1           1           1
 AtZEff=  -0.0000000  -0.0000000  -0.0000000  -0.0000000  -0.0000000  -0.0000000  -0.0000000  -0.0000000  -0.0000000  -0.0000000
 NQMom=    0.0000000   0.0000000   0.0000000   0.0000000   0.0000000   0.0000000   0.0000000   0.0000000   0.0000000   0.0000000
 NMagM=    2.7928460   2.7928460   2.7928460   2.7928460   2.7928460   2.7928460   2.7928460   2.7928460   2.7928460   2.7928460
 AtZNuc=   1.0000000   1.0000000   1.0000000   1.0000000   1.0000000   1.0000000   1.0000000   1.0000000   1.0000000   1.0000000

  Atom        61          62          63          64          65          66          67          68          69          70
 IAtWgt=           1           1           1           1           1           1           1           1           1           1
 AtmWgt=   1.0078250   1.0078250   1.0078250   1.0078250   1.0078250   1.0078250   1.0078250   1.0078250   1.0078250   1.0078250
 NucSpn=           1           1           1           1           1           1           1           1           1           1
 AtZEff=  -0.0000000  -0.0000000  -0.0000000  -0.0000000  -0.0000000  -0.0000000  -0.0000000  -0.0000000  -0.0000000  -0.0000000
 NQMom=    0.0000000   0.0000000   0.0000000   0.0000000   0.0000000   0.0000000   0.0000000   0.0000000   0.0000000   0.0000000
 NMagM=    2.7928460   2.7928460   2.7928460   2.7928460   2.7928460   2.7928460   2.7928460   2.7928460   2.7928460   2.7928460
 AtZNuc=   1.0000000   1.0000000   1.0000000   1.0000000   1.0000000   1.0000000   1.0000000   1.0000000   1.0000000   1.0000000

  Atom        71          72          73          74          75          76          77          78          79          80
 IAtWgt=           1           1           1           1           1           1           1           1           1           1
 AtmWgt=   1.0078250   1.0078250   1.0078250   1.0078250   1.0078250   1.0078250   1.0078250   1.0078250   1.0078250   1.0078250
 NucSpn=           1           1           1           1           1           1           1           1           1           1
 AtZEff=  -0.0000000  -0.0000000  -0.0000000  -0.0000000  -0.0000000  -0.0000000  -0.0000000  -0.0000000  -0.0000000  -0.0000000
 NQMom=    0.0000000   0.0000000   0.0000000   0.0000000   0.0000000   0.0000000   0.0000000   0.0000000   0.0000000   0.0000000
 NMagM=    2.7928460   2.7928460   2.7928460   2.7928460   2.7928460   2.7928460   2.7928460   2.7928460   2.7928460   2.7928460
 AtZNuc=   1.0000000   1.0000000   1.0000000   1.0000000   1.0000000   1.0000000   1.0000000   1.0000000   1.0000000   1.0000000
 Leave Link  101 at Tue Dec 10 01:15:36 2024, MaxMem= 13421772800 cpu:               4.1 elap:               0.1
 (Enter /public/software/apps/Gaussian/g16/l103.exe)

 GradGradGradGradGradGradGradGradGradGradGradGradGradGradGradGradGradGrad
 Berny optimization.
 Initialization pass.
                           ----------------------------
                           !    Initial Parameters    !
                           ! (Angstroms and Degrees)  !
 --------------------------                            --------------------------
 ! Name  Definition              Value          Derivative Info.                !
 --------------------------------------------------------------------------------
 ! R1    R(1,2)                  1.536          estimate D2E/DX2                !
 ! R2    R(1,43)                 1.111          estimate D2E/DX2                !
 ! R3    R(1,44)                 1.1111         estimate D2E/DX2                !
 ! R4    R(1,45)                 1.1101         estimate D2E/DX2                !
 ! R5    R(2,3)                  1.5335         estimate D2E/DX2                !
 ! R6    R(2,4)                  1.5439         estimate D2E/DX2                !
 ! R7    R(2,46)                 1.1128         estimate D2E/DX2                !
 ! R8    R(3,47)                 1.1111         estimate D2E/DX2                !
 ! R9    R(3,48)                 1.1108         estimate D2E/DX2                !
 ! R10   R(3,49)                 1.1113         estimate D2E/DX2                !
 ! R11   R(4,5)                  1.5083         estimate D2E/DX2                !
 ! R12   R(4,50)                 1.1128         estimate D2E/DX2                !
 ! R13   R(4,51)                 1.1125         estimate D2E/DX2                !
 ! R14   R(5,6)                  1.404          estimate D2E/DX2                !
 ! R15   R(5,42)                 1.4037         estimate D2E/DX2                !
 ! R16   R(6,7)                  1.3975         estimate D2E/DX2                !
 ! R17   R(6,52)                 1.0829         estimate D2E/DX2                !
 ! R18   R(7,8)                  1.4039         estimate D2E/DX2                !
 ! R19   R(7,53)                 1.0832         estimate D2E/DX2                !
 ! R20   R(8,9)                  1.479          estimate D2E/DX2                !
 ! R21   R(8,41)                 1.4033         estimate D2E/DX2                !
 ! R22   R(9,10)                 1.4013         estimate D2E/DX2                !
 ! R23   R(9,39)                 1.4126         estimate D2E/DX2                !
 ! R24   R(10,11)                1.3994         estimate D2E/DX2                !
 ! R25   R(10,54)                1.0848         estimate D2E/DX2                !
 ! R26   R(11,12)                1.4044         estimate D2E/DX2                !
 ! R27   R(11,16)                1.4168         estimate D2E/DX2                !
 ! R28   R(12,13)                1.3957         estimate D2E/DX2                !
 ! R29   R(12,55)                1.0837         estimate D2E/DX2                !
 ! R30   R(13,14)                1.3948         estimate D2E/DX2                !
 ! R31   R(13,56)                1.0824         estimate D2E/DX2                !
 ! R32   R(14,15)                1.3967         estimate D2E/DX2                !
 ! R33   R(14,57)                1.0824         estimate D2E/DX2                !
 ! R34   R(15,16)                1.4116         estimate D2E/DX2                !
 ! R35   R(15,58)                1.0825         estimate D2E/DX2                !
 ! R36   R(16,17)                1.4155         estimate D2E/DX2                !
 ! R37   R(17,18)                1.4849         estimate D2E/DX2                !
 ! R38   R(17,39)                1.408          estimate D2E/DX2                !
 ! R39   R(18,19)                1.4081         estimate D2E/DX2                !
 ! R40   R(18,38)                1.4156         estimate D2E/DX2                !
 ! R41   R(19,20)                1.3991         estimate D2E/DX2                !
 ! R42   R(19,21)                1.4126         estimate D2E/DX2                !
 ! R43   R(20,59)                1.0117         estimate D2E/DX2                !
 ! R44   R(21,22)                1.4787         estimate D2E/DX2                !
 ! R45   R(21,32)                1.4012         estimate D2E/DX2                !
 ! R46   R(22,23)                1.4033         estimate D2E/DX2                !
 ! R47   R(22,31)                1.4036         estimate D2E/DX2                !
 ! R48   R(23,24)                1.3975         estimate D2E/DX2                !
 ! R49   R(23,60)                1.0833         estimate D2E/DX2                !
 ! R50   R(24,25)                1.4044         estimate D2E/DX2                !
 ! R51   R(24,61)                1.0829         estimate D2E/DX2                !
 ! R52   R(25,26)                1.511          estimate D2E/DX2                !
 ! R53   R(25,30)                1.4043         estimate D2E/DX2                !
 ! R54   R(26,27)                1.5467         estimate D2E/DX2                !
 ! R55   R(26,62)                1.1123         estimate D2E/DX2                !
 ! R56   R(26,63)                1.1124         estimate D2E/DX2                !
 ! R57   R(27,28)                1.5345         estimate D2E/DX2                !
 ! R58   R(27,29)                1.5346         estimate D2E/DX2                !
 ! R59   R(27,64)                1.1128         estimate D2E/DX2                !
 ! R60   R(28,65)                1.1106         estimate D2E/DX2                !
 ! R61   R(28,66)                1.1108         estimate D2E/DX2                !
 ! R62   R(28,67)                1.1108         estimate D2E/DX2                !
 ! R63   R(29,68)                1.1107         estimate D2E/DX2                !
 ! R64   R(29,69)                1.1105         estimate D2E/DX2                !
 ! R65   R(29,70)                1.1109         estimate D2E/DX2                !
 ! R66   R(30,31)                1.3974         estimate D2E/DX2                !
 ! R67   R(30,71)                1.0829         estimate D2E/DX2                !
 ! R68   R(31,72)                1.0834         estimate D2E/DX2                !
 ! R69   R(32,33)                1.3995         estimate D2E/DX2                !
 ! R70   R(32,73)                1.0849         estimate D2E/DX2                !
 ! R71   R(33,34)                1.4044         estimate D2E/DX2                !
 ! R72   R(33,38)                1.4168         estimate D2E/DX2                !
 ! R73   R(34,35)                1.3956         estimate D2E/DX2                !
 ! R74   R(34,74)                1.0836         estimate D2E/DX2                !
 ! R75   R(35,36)                1.3948         estimate D2E/DX2                !
 ! R76   R(35,75)                1.0824         estimate D2E/DX2                !
 ! R77   R(36,37)                1.3967         estimate D2E/DX2                !
 ! R78   R(36,76)                1.0824         estimate D2E/DX2                !
 ! R79   R(37,38)                1.4117         estimate D2E/DX2                !
 ! R80   R(37,77)                1.0823         estimate D2E/DX2                !
 ! R81   R(39,40)                1.3992         estimate D2E/DX2                !
 ! R82   R(40,78)                1.0116         estimate D2E/DX2                !
 ! R83   R(41,42)                1.3976         estimate D2E/DX2                !
 ! R84   R(41,79)                1.0832         estimate D2E/DX2                !
 ! R85   R(42,80)                1.0831         estimate D2E/DX2                !
 ! A1    A(2,1,43)             110.241          estimate D2E/DX2                !
 ! A2    A(2,1,44)             110.6827         estimate D2E/DX2                !
 ! A3    A(2,1,45)             110.4933         estimate D2E/DX2                !
 ! A4    A(43,1,44)            108.8098         estimate D2E/DX2                !
 ! A5    A(43,1,45)            107.577          estimate D2E/DX2                !
 ! A6    A(44,1,45)            108.9607         estimate D2E/DX2                !
 ! A7    A(1,2,3)              109.984          estimate D2E/DX2                !
 ! A8    A(1,2,4)              111.6542         estimate D2E/DX2                !
 ! A9    A(1,2,46)             108.3411         estimate D2E/DX2                !
 ! A10   A(3,2,4)              110.1231         estimate D2E/DX2                !
 ! A11   A(3,2,46)             107.651          estimate D2E/DX2                !
 ! A12   A(4,2,46)             108.9792         estimate D2E/DX2                !
 ! A13   A(2,3,47)             110.2635         estimate D2E/DX2                !
 ! A14   A(2,3,48)             110.2211         estimate D2E/DX2                !
 ! A15   A(2,3,49)             110.6497         estimate D2E/DX2                !
 ! A16   A(47,3,48)            107.9371         estimate D2E/DX2                !
 ! A17   A(47,3,49)            108.8496         estimate D2E/DX2                !
 ! A18   A(48,3,49)            108.8558         estimate D2E/DX2                !
 ! A19   A(2,4,5)              112.0517         estimate D2E/DX2                !
 ! A20   A(2,4,50)             109.8761         estimate D2E/DX2                !
 ! A21   A(2,4,51)             109.4628         estimate D2E/DX2                !
 ! A22   A(5,4,50)             110.3924         estimate D2E/DX2                !
 ! A23   A(5,4,51)             108.2939         estimate D2E/DX2                !
 ! A24   A(50,4,51)            106.5976         estimate D2E/DX2                !
 ! A25   A(4,5,6)              120.4807         estimate D2E/DX2                !
 ! A26   A(4,5,42)             120.1742         estimate D2E/DX2                !
 ! A27   A(6,5,42)             119.3288         estimate D2E/DX2                !
 ! A28   A(5,6,7)              120.3196         estimate D2E/DX2                !
 ! A29   A(5,6,52)             120.4448         estimate D2E/DX2                !
 ! A30   A(7,6,52)             119.2353         estimate D2E/DX2                !
 ! A31   A(6,7,8)              120.3235         estimate D2E/DX2                !
 ! A32   A(6,7,53)             119.3427         estimate D2E/DX2                !
 ! A33   A(8,7,53)             120.3337         estimate D2E/DX2                !
 ! A34   A(7,8,9)              120.379          estimate D2E/DX2                !
 ! A35   A(7,8,41)             119.3608         estimate D2E/DX2                !
 ! A36   A(9,8,41)             120.2331         estimate D2E/DX2                !
 ! A37   A(8,9,10)             118.6434         estimate D2E/DX2                !
 ! A38   A(8,9,39)             121.7393         estimate D2E/DX2                !
 ! A39   A(10,9,39)            119.609          estimate D2E/DX2                !
 ! A40   A(9,10,11)            120.836          estimate D2E/DX2                !
 ! A41   A(9,10,54)            119.4271         estimate D2E/DX2                !
 ! A42   A(11,10,54)           119.7263         estimate D2E/DX2                !
 ! A43   A(10,11,12)           120.0248         estimate D2E/DX2                !
 ! A44   A(10,11,16)           119.998          estimate D2E/DX2                !
 ! A45   A(12,11,16)           119.976          estimate D2E/DX2                !
 ! A46   A(11,12,13)           120.2881         estimate D2E/DX2                !
 ! A47   A(11,12,55)           120.6847         estimate D2E/DX2                !
 ! A48   A(13,12,55)           119.0271         estimate D2E/DX2                !
 ! A49   A(12,13,14)           120.1346         estimate D2E/DX2                !
 ! A50   A(12,13,56)           119.943          estimate D2E/DX2                !
 ! A51   A(14,13,56)           119.9223         estimate D2E/DX2                !
 ! A52   A(13,14,15)           120.2568         estimate D2E/DX2                !
 ! A53   A(13,14,57)           119.8449         estimate D2E/DX2                !
 ! A54   A(15,14,57)           119.8982         estimate D2E/DX2                !
 ! A55   A(14,15,16)           120.5154         estimate D2E/DX2                !
 ! A56   A(14,15,58)           118.1073         estimate D2E/DX2                !
 ! A57   A(16,15,58)           121.3773         estimate D2E/DX2                !
 ! A58   A(11,16,15)           118.829          estimate D2E/DX2                !
 ! A59   A(11,16,17)           119.3474         estimate D2E/DX2                !
 ! A60   A(15,16,17)           121.8235         estimate D2E/DX2                !
 ! A61   A(16,17,18)           121.1821         estimate D2E/DX2                !
 ! A62   A(16,17,39)           120.1362         estimate D2E/DX2                !
 ! A63   A(18,17,39)           118.6793         estimate D2E/DX2                !
 ! A64   A(17,18,19)           118.6971         estimate D2E/DX2                !
 ! A65   A(17,18,38)           121.1622         estimate D2E/DX2                !
 ! A66   A(19,18,38)           120.1377         estimate D2E/DX2                !
 ! A67   A(18,19,20)           118.6062         estimate D2E/DX2                !
 ! A68   A(18,19,21)           120.0397         estimate D2E/DX2                !
 ! A69   A(20,19,21)           121.3456         estimate D2E/DX2                !
 ! A70   A(19,20,59)           123.2635         estimate D2E/DX2                !
 ! A71   A(19,21,22)           121.7321         estimate D2E/DX2                !
 ! A72   A(19,21,32)           119.6189         estimate D2E/DX2                !
 ! A73   A(22,21,32)           118.641          estimate D2E/DX2                !
 ! A74   A(21,22,23)           120.2201         estimate D2E/DX2                !
 ! A75   A(21,22,31)           120.385          estimate D2E/DX2                !
 ! A76   A(23,22,31)           119.3629         estimate D2E/DX2                !
 ! A77   A(22,23,24)           120.3121         estimate D2E/DX2                !
 ! A78   A(22,23,60)           120.3449         estimate D2E/DX2                !
 ! A79   A(24,23,60)           119.3416         estimate D2E/DX2                !
 ! A80   A(23,24,25)           120.3886         estimate D2E/DX2                !
 ! A81   A(23,24,61)           119.2341         estimate D2E/DX2                !
 ! A82   A(25,24,61)           120.3768         estimate D2E/DX2                !
 ! A83   A(24,25,26)           120.3767         estimate D2E/DX2                !
 ! A84   A(24,25,30)           119.2299         estimate D2E/DX2                !
 ! A85   A(26,25,30)           120.3921         estimate D2E/DX2                !
 ! A86   A(25,26,27)           113.8865         estimate D2E/DX2                !
 ! A87   A(25,26,62)           109.4266         estimate D2E/DX2                !
 ! A88   A(25,26,63)           109.4034         estimate D2E/DX2                !
 ! A89   A(27,26,62)           109.0227         estimate D2E/DX2                !
 ! A90   A(27,26,63)           109.0186         estimate D2E/DX2                !
 ! A91   A(62,26,63)           105.7648         estimate D2E/DX2                !
 ! A92   A(26,27,28)           112.3222         estimate D2E/DX2                !
 ! A93   A(26,27,29)           112.3168         estimate D2E/DX2                !
 ! A94   A(26,27,64)           106.8258         estimate D2E/DX2                !
 ! A95   A(28,27,29)           110.7659         estimate D2E/DX2                !
 ! A96   A(28,27,64)           107.1317         estimate D2E/DX2                !
 ! A97   A(29,27,64)           107.1203         estimate D2E/DX2                !
 ! A98   A(27,28,65)           111.0142         estimate D2E/DX2                !
 ! A99   A(27,28,66)           110.2725         estimate D2E/DX2                !
 ! A100  A(27,28,67)           109.9267         estimate D2E/DX2                !
 ! A101  A(65,28,66)           109.0907         estimate D2E/DX2                !
 ! A102  A(65,28,67)           108.3475         estimate D2E/DX2                !
 ! A103  A(66,28,67)           108.1179         estimate D2E/DX2                !
 ! A104  A(27,29,68)           110.268          estimate D2E/DX2                !
 ! A105  A(27,29,69)           111.0072         estimate D2E/DX2                !
 ! A106  A(27,29,70)           109.928          estimate D2E/DX2                !
 ! A107  A(68,29,69)           109.0759         estimate D2E/DX2                !
 ! A108  A(68,29,70)           108.1328         estimate D2E/DX2                !
 ! A109  A(69,29,70)           108.3582         estimate D2E/DX2                !
 ! A110  A(25,30,31)           120.3864         estimate D2E/DX2                !
 ! A111  A(25,30,71)           120.382          estimate D2E/DX2                !
 ! A112  A(31,30,71)           119.2306         estimate D2E/DX2                !
 ! A113  A(22,31,30)           120.3122         estimate D2E/DX2                !
 ! A114  A(22,31,72)           120.3346         estimate D2E/DX2                !
 ! A115  A(30,31,72)           119.353          estimate D2E/DX2                !
 ! A116  A(21,32,33)           120.8348         estimate D2E/DX2                !
 ! A117  A(21,32,73)           119.4195         estimate D2E/DX2                !
 ! A118  A(33,32,73)           119.7351         estimate D2E/DX2                !
 ! A119  A(32,33,34)           120.0296         estimate D2E/DX2                !
 ! A120  A(32,33,38)           119.9991         estimate D2E/DX2                !
 ! A121  A(34,33,38)           119.9702         estimate D2E/DX2                !
 ! A122  A(33,34,35)           120.2921         estimate D2E/DX2                !
 ! A123  A(33,34,74)           120.684          estimate D2E/DX2                !
 ! A124  A(35,34,74)           119.0238         estimate D2E/DX2                !
 ! A125  A(34,35,36)           120.1363         estimate D2E/DX2                !
 ! A126  A(34,35,75)           119.9421         estimate D2E/DX2                !
 ! A127  A(36,35,75)           119.9215         estimate D2E/DX2                !
 ! A128  A(35,36,37)           120.2573         estimate D2E/DX2                !
 ! A129  A(35,36,76)           119.8434         estimate D2E/DX2                !
 ! A130  A(37,36,76)           119.8993         estimate D2E/DX2                !
 ! A131  A(36,37,38)           120.5094         estimate D2E/DX2                !
 ! A132  A(36,37,77)           118.1029         estimate D2E/DX2                !
 ! A133  A(38,37,77)           121.3877         estimate D2E/DX2                !
 ! A134  A(18,38,33)           119.3443         estimate D2E/DX2                !
 ! A135  A(18,38,37)           121.8211         estimate D2E/DX2                !
 ! A136  A(33,38,37)           118.8345         estimate D2E/DX2                !
 ! A137  A(9,39,17)            120.0445         estimate D2E/DX2                !
 ! A138  A(9,39,40)            121.3462         estimate D2E/DX2                !
 ! A139  A(17,39,40)           118.6007         estimate D2E/DX2                !
 ! A140  A(39,40,78)           123.2736         estimate D2E/DX2                !
 ! A141  A(8,41,42)            120.3092         estimate D2E/DX2                !
 ! A142  A(8,41,79)            120.354          estimate D2E/DX2                !
 ! A143  A(42,41,79)           119.3337         estimate D2E/DX2                !
 ! A144  A(5,42,41)            120.3484         estimate D2E/DX2                !
 ! A145  A(5,42,80)            120.3093         estimate D2E/DX2                !
 ! A146  A(41,42,80)           119.3422         estimate D2E/DX2                !
 ! D1    D(43,1,2,3)            55.2596         estimate D2E/DX2                !
 ! D2    D(43,1,2,4)           177.8246         estimate D2E/DX2                !
 ! D3    D(43,1,2,46)          -62.1578         estimate D2E/DX2                !
 ! D4    D(44,1,2,3)           -65.1734         estimate D2E/DX2                !
 ! D5    D(44,1,2,4)            57.3916         estimate D2E/DX2                !
 ! D6    D(44,1,2,46)          177.4091         estimate D2E/DX2                !
 ! D7    D(45,1,2,3)           174.0383         estimate D2E/DX2                !
 ! D8    D(45,1,2,4)           -63.3967         estimate D2E/DX2                !
 ! D9    D(45,1,2,46)           56.6209         estimate D2E/DX2                !
 ! D10   D(1,2,3,47)           -58.3955         estimate D2E/DX2                !
 ! D11   D(1,2,3,48)          -177.4632         estimate D2E/DX2                !
 ! D12   D(1,2,3,49)            62.0806         estimate D2E/DX2                !
 ! D13   D(4,2,3,47)           178.1402         estimate D2E/DX2                !
 ! D14   D(4,2,3,48)            59.0725         estimate D2E/DX2                !
 ! D15   D(4,2,3,49)           -61.3837         estimate D2E/DX2                !
 ! D16   D(46,2,3,47)           59.4501         estimate D2E/DX2                !
 ! D17   D(46,2,3,48)          -59.6176         estimate D2E/DX2                !
 ! D18   D(46,2,3,49)          179.9263         estimate D2E/DX2                !
 ! D19   D(1,2,4,5)             65.5088         estimate D2E/DX2                !
 ! D20   D(1,2,4,50)           -57.5984         estimate D2E/DX2                !
 ! D21   D(1,2,4,51)          -174.3363         estimate D2E/DX2                !
 ! D22   D(3,2,4,5)           -172.0058         estimate D2E/DX2                !
 ! D23   D(3,2,4,50)            64.8869         estimate D2E/DX2                !
 ! D24   D(3,2,4,51)           -51.8509         estimate D2E/DX2                !
 ! D25   D(46,2,4,5)           -54.133          estimate D2E/DX2                !
 ! D26   D(46,2,4,50)         -177.2402         estimate D2E/DX2                !
 ! D27   D(46,2,4,51)           66.0219         estimate D2E/DX2                !
 ! D28   D(2,4,5,6)           -101.3784         estimate D2E/DX2                !
 ! D29   D(2,4,5,42)            77.1466         estimate D2E/DX2                !
 ! D30   D(50,4,5,6)            21.4369         estimate D2E/DX2                !
 ! D31   D(50,4,5,42)         -160.038          estimate D2E/DX2                !
 ! D32   D(51,4,5,6)           137.7879         estimate D2E/DX2                !
 ! D33   D(51,4,5,42)          -43.687          estimate D2E/DX2                !
 ! D34   D(4,5,6,7)            178.7298         estimate D2E/DX2                !
 ! D35   D(4,5,6,52)            -1.0841         estimate D2E/DX2                !
 ! D36   D(42,5,6,7)             0.1924         estimate D2E/DX2                !
 ! D37   D(42,5,6,52)         -179.6215         estimate D2E/DX2                !
 ! D38   D(4,5,42,41)         -178.7066         estimate D2E/DX2                !
 ! D39   D(4,5,42,80)            1.166          estimate D2E/DX2                !
 ! D40   D(6,5,42,41)           -0.1646         estimate D2E/DX2                !
 ! D41   D(6,5,42,80)          179.708          estimate D2E/DX2                !
 ! D42   D(5,6,7,8)             -0.6764         estimate D2E/DX2                !
 ! D43   D(5,6,7,53)           179.3845         estimate D2E/DX2                !
 ! D44   D(52,6,7,8)           179.1397         estimate D2E/DX2                !
 ! D45   D(52,6,7,53)           -0.7994         estimate D2E/DX2                !
 ! D46   D(6,7,8,9)            179.2328         estimate D2E/DX2                !
 ! D47   D(6,7,8,41)             1.1202         estimate D2E/DX2                !
 ! D48   D(53,7,8,9)            -0.8286         estimate D2E/DX2                !
 ! D49   D(53,7,8,41)         -178.9412         estimate D2E/DX2                !
 ! D50   D(7,8,9,10)          -119.4023         estimate D2E/DX2                !
 ! D51   D(7,8,9,39)            59.5478         estimate D2E/DX2                !
 ! D52   D(41,8,9,10)           58.6938         estimate D2E/DX2                !
 ! D53   D(41,8,9,39)         -122.3561         estimate D2E/DX2                !
 ! D54   D(7,8,41,42)           -1.0923         estimate D2E/DX2                !
 ! D55   D(7,8,41,79)          179.548          estimate D2E/DX2                !
 ! D56   D(9,8,41,42)         -179.2077         estimate D2E/DX2                !
 ! D57   D(9,8,41,79)            1.4326         estimate D2E/DX2                !
 ! D58   D(8,9,10,11)          177.6167         estimate D2E/DX2                !
 ! D59   D(8,9,10,54)           -1.1966         estimate D2E/DX2                !
 ! D60   D(39,9,10,11)          -1.3563         estimate D2E/DX2                !
 ! D61   D(39,9,10,54)         179.8304         estimate D2E/DX2                !
 ! D62   D(8,9,39,17)         -176.8511         estimate D2E/DX2                !
 ! D63   D(8,9,39,40)            4.2288         estimate D2E/DX2                !
 ! D64   D(10,9,39,17)           2.0891         estimate D2E/DX2                !
 ! D65   D(10,9,39,40)        -176.831          estimate D2E/DX2                !
 ! D66   D(9,10,11,12)        -179.5587         estimate D2E/DX2                !
 ! D67   D(9,10,11,16)           0.0391         estimate D2E/DX2                !
 ! D68   D(54,10,11,12)         -0.749          estimate D2E/DX2                !
 ! D69   D(54,10,11,16)        178.8489         estimate D2E/DX2                !
 ! D70   D(10,11,12,13)        179.6226         estimate D2E/DX2                !
 ! D71   D(10,11,12,55)         -0.3286         estimate D2E/DX2                !
 ! D72   D(16,11,12,13)          0.0246         estimate D2E/DX2                !
 ! D73   D(16,11,12,55)       -179.9265         estimate D2E/DX2                !
 ! D74   D(10,11,16,15)       -179.5828         estimate D2E/DX2                !
 ! D75   D(10,11,16,17)          0.5449         estimate D2E/DX2                !
 ! D76   D(12,11,16,15)          0.0152         estimate D2E/DX2                !
 ! D77   D(12,11,16,17)       -179.857          estimate D2E/DX2                !
 ! D78   D(11,12,13,14)         -0.0497         estimate D2E/DX2                !
 ! D79   D(11,12,13,56)        179.9893         estimate D2E/DX2                !
 ! D80   D(55,12,13,14)        179.9022         estimate D2E/DX2                !
 ! D81   D(55,12,13,56)         -0.0587         estimate D2E/DX2                !
 ! D82   D(12,13,14,15)          0.0344         estimate D2E/DX2                !
 ! D83   D(12,13,14,57)       -179.9782         estimate D2E/DX2                !
 ! D84   D(56,13,14,15)        179.9954         estimate D2E/DX2                !
 ! D85   D(56,13,14,57)         -0.0172         estimate D2E/DX2                !
 ! D86   D(13,14,15,16)          0.006          estimate D2E/DX2                !
 ! D87   D(13,14,15,58)        179.9963         estimate D2E/DX2                !
 ! D88   D(57,14,15,16)       -179.9814         estimate D2E/DX2                !
 ! D89   D(57,14,15,58)          0.0089         estimate D2E/DX2                !
 ! D90   D(14,15,16,11)         -0.0305         estimate D2E/DX2                !
 ! D91   D(14,15,16,17)        179.8384         estimate D2E/DX2                !
 ! D92   D(58,15,16,11)        179.9795         estimate D2E/DX2                !
 ! D93   D(58,15,16,17)         -0.1515         estimate D2E/DX2                !
 ! D94   D(11,16,17,18)        179.6355         estimate D2E/DX2                !
 ! D95   D(11,16,17,39)          0.1948         estimate D2E/DX2                !
 ! D96   D(15,16,17,18)         -0.2328         estimate D2E/DX2                !
 ! D97   D(15,16,17,39)       -179.6735         estimate D2E/DX2                !
 ! D98   D(16,17,18,19)        -90.6087         estimate D2E/DX2                !
 ! D99   D(16,17,18,38)         90.0215         estimate D2E/DX2                !
 ! D100  D(39,17,18,19)         88.84           estimate D2E/DX2                !
 ! D101  D(39,17,18,38)        -90.5298         estimate D2E/DX2                !
 ! D102  D(16,17,39,9)          -1.5132         estimate D2E/DX2                !
 ! D103  D(16,17,39,40)        177.4364         estimate D2E/DX2                !
 ! D104  D(18,17,39,9)         179.0322         estimate D2E/DX2                !
 ! D105  D(18,17,39,40)         -2.0182         estimate D2E/DX2                !
 ! D106  D(17,18,19,20)         -1.783          estimate D2E/DX2                !
 ! D107  D(17,18,19,21)        179.2662         estimate D2E/DX2                !
 ! D108  D(38,18,19,20)        177.5934         estimate D2E/DX2                !
 ! D109  D(38,18,19,21)         -1.3574         estimate D2E/DX2                !
 ! D110  D(17,18,38,33)        179.4697         estimate D2E/DX2                !
 ! D111  D(17,18,38,37)         -0.3936         estimate D2E/DX2                !
 ! D112  D(19,18,38,33)          0.1089         estimate D2E/DX2                !
 ! D113  D(19,18,38,37)       -179.7544         estimate D2E/DX2                !
 ! D114  D(18,19,20,59)       -173.476          estimate D2E/DX2                !
 ! D115  D(21,19,20,59)          5.4605         estimate D2E/DX2                !
 ! D116  D(18,19,21,22)       -176.9922         estimate D2E/DX2                !
 ! D117  D(18,19,21,32)          1.9659         estimate D2E/DX2                !
 ! D118  D(20,19,21,22)          4.0864         estimate D2E/DX2                !
 ! D119  D(20,19,21,32)       -176.9555         estimate D2E/DX2                !
 ! D120  D(19,21,22,23)       -122.0028         estimate D2E/DX2                !
 ! D121  D(19,21,22,31)         60.0671         estimate D2E/DX2                !
 ! D122  D(32,21,22,23)         59.0292         estimate D2E/DX2                !
 ! D123  D(32,21,22,31)       -118.9009         estimate D2E/DX2                !
 ! D124  D(19,21,32,33)         -1.3352         estimate D2E/DX2                !
 ! D125  D(19,21,32,73)        179.8486         estimate D2E/DX2                !
 ! D126  D(22,21,32,33)        177.6552         estimate D2E/DX2                !
 ! D127  D(22,21,32,73)         -1.1611         estimate D2E/DX2                !
 ! D128  D(21,22,23,24)       -178.948          estimate D2E/DX2                !
 ! D129  D(21,22,23,60)          1.4848         estimate D2E/DX2                !
 ! D130  D(31,22,23,24)         -0.9968         estimate D2E/DX2                !
 ! D131  D(31,22,23,60)        179.436          estimate D2E/DX2                !
 ! D132  D(21,22,31,30)        178.9541         estimate D2E/DX2                !
 ! D133  D(21,22,31,72)         -0.8629         estimate D2E/DX2                !
 ! D134  D(23,22,31,30)          1.0063         estimate D2E/DX2                !
 ! D135  D(23,22,31,72)       -178.8107         estimate D2E/DX2                !
 ! D136  D(22,23,24,25)          0.5757         estimate D2E/DX2                !
 ! D137  D(22,23,24,61)       -179.6621         estimate D2E/DX2                !
 ! D138  D(60,23,24,25)       -179.8528         estimate D2E/DX2                !
 ! D139  D(60,23,24,61)         -0.0906         estimate D2E/DX2                !
 ! D140  D(23,24,25,26)        179.4391         estimate D2E/DX2                !
 ! D141  D(23,24,25,30)         -0.1527         estimate D2E/DX2                !
 ! D142  D(61,24,25,26)         -0.3204         estimate D2E/DX2                !
 ! D143  D(61,24,25,30)       -179.9121         estimate D2E/DX2                !
 ! D144  D(24,25,26,27)        -89.8746         estimate D2E/DX2                !
 ! D145  D(24,25,26,62)         32.4137         estimate D2E/DX2                !
 ! D146  D(24,25,26,63)        147.8597         estimate D2E/DX2                !
 ! D147  D(30,25,26,27)         89.7124         estimate D2E/DX2                !
 ! D148  D(30,25,26,62)       -147.9993         estimate D2E/DX2                !
 ! D149  D(30,25,26,63)        -32.5534         estimate D2E/DX2                !
 ! D150  D(24,25,30,31)          0.1622         estimate D2E/DX2                !
 ! D151  D(24,25,30,71)        179.7984         estimate D2E/DX2                !
 ! D152  D(26,25,30,31)       -179.4295         estimate D2E/DX2                !
 ! D153  D(26,25,30,71)          0.2067         estimate D2E/DX2                !
 ! D154  D(25,26,27,28)        -62.7703         estimate D2E/DX2                !
 ! D155  D(25,26,27,29)         62.88           estimate D2E/DX2                !
 ! D156  D(25,26,27,64)       -179.9535         estimate D2E/DX2                !
 ! D157  D(62,26,27,28)        174.7194         estimate D2E/DX2                !
 ! D158  D(62,26,27,29)        -59.6303         estimate D2E/DX2                !
 ! D159  D(62,26,27,64)         57.5362         estimate D2E/DX2                !
 ! D160  D(63,26,27,28)         59.7069         estimate D2E/DX2                !
 ! D161  D(63,26,27,29)       -174.6427         estimate D2E/DX2                !
 ! D162  D(63,26,27,64)        -57.4763         estimate D2E/DX2                !
 ! D163  D(26,27,28,65)         68.3579         estimate D2E/DX2                !
 ! D164  D(26,27,28,66)        -52.6658         estimate D2E/DX2                !
 ! D165  D(26,27,28,67)       -171.7781         estimate D2E/DX2                !
 ! D166  D(29,27,28,65)        -58.1329         estimate D2E/DX2                !
 ! D167  D(29,27,28,66)       -179.1567         estimate D2E/DX2                !
 ! D168  D(29,27,28,67)         61.7311         estimate D2E/DX2                !
 ! D169  D(64,27,28,65)       -174.6415         estimate D2E/DX2                !
 ! D170  D(64,27,28,66)         64.3347         estimate D2E/DX2                !
 ! D171  D(64,27,28,67)        -54.7775         estimate D2E/DX2                !
 ! D172  D(26,27,29,68)         52.7943         estimate D2E/DX2                !
 ! D173  D(26,27,29,69)        -68.2033         estimate D2E/DX2                !
 ! D174  D(26,27,29,70)        171.923          estimate D2E/DX2                !
 ! D175  D(28,27,29,68)        179.2881         estimate D2E/DX2                !
 ! D176  D(28,27,29,69)         58.2905         estimate D2E/DX2                !
 ! D177  D(28,27,29,70)        -61.5832         estimate D2E/DX2                !
 ! D178  D(64,27,29,68)        -64.1963         estimate D2E/DX2                !
 ! D179  D(64,27,29,69)        174.8062         estimate D2E/DX2                !
 ! D180  D(64,27,29,70)         54.9324         estimate D2E/DX2                !
 ! D181  D(25,30,31,22)         -0.5947         estimate D2E/DX2                !
 ! D182  D(25,30,31,72)        179.2241         estimate D2E/DX2                !
 ! D183  D(71,30,31,22)        179.7649         estimate D2E/DX2                !
 ! D184  D(71,30,31,72)         -0.4163         estimate D2E/DX2                !
 ! D185  D(21,32,33,34)       -179.5352         estimate D2E/DX2                !
 ! D186  D(21,32,33,38)          0.0872         estimate D2E/DX2                !
 ! D187  D(73,32,33,34)         -0.7226         estimate D2E/DX2                !
 ! D188  D(73,32,33,38)        178.8998         estimate D2E/DX2                !
 ! D189  D(32,33,34,35)        179.6296         estimate D2E/DX2                !
 ! D190  D(32,33,34,74)         -0.2982         estimate D2E/DX2                !
 ! D191  D(38,33,34,35)          0.0071         estimate D2E/DX2                !
 ! D192  D(38,33,34,74)       -179.9207         estimate D2E/DX2                !
 ! D193  D(32,33,38,18)          0.5291         estimate D2E/DX2                !
 ! D194  D(32,33,38,37)       -179.6034         estimate D2E/DX2                !
 ! D195  D(34,33,38,18)       -179.8483         estimate D2E/DX2                !
 ! D196  D(34,33,38,37)          0.0192         estimate D2E/DX2                !
 ! D197  D(33,34,35,36)         -0.0333         estimate D2E/DX2                !
 ! D198  D(33,34,35,75)       -179.9794         estimate D2E/DX2                !
 ! D199  D(74,34,35,36)        179.8958         estimate D2E/DX2                !
 ! D200  D(74,34,35,75)         -0.0504         estimate D2E/DX2                !
 ! D201  D(34,35,36,37)          0.0327         estimate D2E/DX2                !
 ! D202  D(34,35,36,76)       -179.9732         estimate D2E/DX2                !
 ! D203  D(75,35,36,37)        179.9789         estimate D2E/DX2                !
 ! D204  D(75,35,36,76)         -0.0271         estimate D2E/DX2                !
 ! D205  D(35,36,37,38)         -0.006          estimate D2E/DX2                !
 ! D206  D(35,36,37,77)        179.9842         estimate D2E/DX2                !
 ! D207  D(76,36,37,38)        180.0            estimate D2E/DX2                !
 ! D208  D(76,36,37,77)         -0.0098         estimate D2E/DX2                !
 ! D209  D(36,37,38,18)        179.8442         estimate D2E/DX2                !
 ! D210  D(36,37,38,33)         -0.0198         estimate D2E/DX2                !
 ! D211  D(77,37,38,18)         -0.1457         estimate D2E/DX2                !
 ! D212  D(77,37,38,33)        179.9903         estimate D2E/DX2                !
 ! D213  D(9,39,40,78)           5.7147         estimate D2E/DX2                !
 ! D214  D(17,39,40,78)       -173.2206         estimate D2E/DX2                !
 ! D215  D(8,41,42,5)            0.6208         estimate D2E/DX2                !
 ! D216  D(8,41,42,80)        -179.2531         estimate D2E/DX2                !
 ! D217  D(79,41,42,5)         179.987          estimate D2E/DX2                !
 ! D218  D(79,41,42,80)          0.1131         estimate D2E/DX2                !
 --------------------------------------------------------------------------------
 Trust Radius=3.00D-01 FncErr=1.00D-07 GrdErr=1.00D-06 EigMax=2.50D+02 EigMin=1.00D-04
 Number of steps in this run=    459 maximum allowed number of steps=    480.
 GradGradGradGradGradGradGradGradGradGradGradGradGradGradGradGradGradGrad

 Leave Link  103 at Tue Dec 10 01:15:36 2024, MaxMem= 13421772800 cpu:               0.9 elap:               0.0
 (Enter /public/software/apps/Gaussian/g16/l202.exe)
 Symmetry turned off by external request.
 Stoichiometry    C40H38O2
 Framework group  C1[X(C40H38O2)]
 Deg. of freedom   234
 Full point group                 C1      NOp   1
                          Input orientation:                          
 ---------------------------------------------------------------------
 Center     Atomic      Atomic             Coordinates (Angstroms)
 Number     Number       Type             X           Y           Z
 ---------------------------------------------------------------------
      1          6           0        6.785700    1.957400    3.098100
      2          6           0        7.582900    2.465400    1.887400
      3          6           0        8.905000    3.086900    2.353800
      4          6           0        7.856300    1.336100    0.870800
      5          6           0        6.586500    0.824100    0.238100
      6          6           0        6.007300   -0.377800    0.675400
      7          6           0        4.816500   -0.835600    0.105000
      8          6           0        4.180300   -0.091100   -0.900900
      9          6           0        2.929000   -0.582800   -1.517300
     10          6           0        2.913300   -0.835600   -2.895500
     11          6           0        1.769600   -1.348600   -3.517700
     12          6           0        1.775700   -1.604300   -4.898600
     13          6           0        0.640700   -2.123300   -5.523400
     14          6           0       -0.507400   -2.392300   -4.778500
     15          6           0       -0.529000   -2.143700   -3.404300
     16          6           0        0.607800   -1.618200   -2.753000
     17          6           0        0.615300   -1.352600   -1.362700
     18          6           0       -0.582200   -1.612200   -0.523900
     19          6           0       -1.521900   -0.578300   -0.348500
     20          8           0       -1.269700    0.663800   -0.941100
     21          6           0       -2.679100   -0.799200    0.431000
     22          6           0       -3.721800    0.237700    0.586300
     23          6           0       -4.070900    0.702600    1.863500
     24          6           0       -5.071400    1.666600    2.014100
     25          6           0       -5.746300    2.171500    0.890800
     26          6           0       -6.836700    3.204500    1.055000
     27          6           0       -8.248700    2.600800    1.239400
     28          6           0       -8.701800    1.793600    0.015600
     29          6           0       -8.360300    1.759400    2.517900
     30          6           0       -5.401900    1.698800   -0.385900
     31          6           0       -4.401600    0.734700   -0.536600
     32          6           0       -2.864100   -2.037300    1.060500
     33          6           0       -1.930400   -3.068000    0.904400
     34          6           0       -2.137600   -4.305500    1.535200
     35          6           0       -1.213900   -5.339700    1.377000
     36          6           0       -0.078300   -5.150000    0.589700
     37          6           0        0.142000   -3.925100   -0.044200
     38          6           0       -0.779500   -2.865900    0.103200
     39          6           0        1.766900   -0.821800   -0.750600
     40          8           0        1.721200   -0.520700    0.615100
     41          6           0        4.764000    1.105400   -1.344800
     42          6           0        5.955200    1.563000   -0.774800
     43          1           0        6.636200    2.778200    3.831700
     44          1           0        7.321700    1.122700    3.598700
     45          1           0        5.782200    1.603500    2.781900
     46          1           0        6.991200    3.265400    1.389200
     47          1           0        8.709600    3.922100    3.060000
     48          1           0        9.464000    3.496600    1.485700
     49          1           0        9.537300    2.327400    2.862100
     50          1           0        8.404700    0.504800    1.367200
     51          1           0        8.519900    1.717000    0.063200
     52          1           0        6.475700   -0.959100    1.459900
     53          1           0        4.388800   -1.770000    0.447400
     54          1           0        3.806500   -0.648400   -3.481900
     55          1           0        2.658400   -1.403500   -5.494300
     56          1           0        0.651500   -2.318100   -6.588100
     57          1           0       -1.384900   -2.795100   -5.267800
     58          1           0       -1.438200   -2.365200   -2.860200
     59          1           0       -1.845000    1.480900   -0.783400
     60          1           0       -3.562900    0.323100    2.741800
     61          1           0       -5.323000    2.017000    3.007400
     62          1           0       -6.603100    3.853500    1.927600
     63          1           0       -6.843400    3.878600    0.170200
     64          1           0       -8.952900    3.455600    1.347300
     65          1           0       -8.098800    0.867700   -0.096300
     66          1           0       -8.603400    2.404900   -0.906600
     67          1           0       -9.768700    1.504800    0.126400
     68          1           0       -8.018400    2.347000    3.396300
     69          1           0       -7.750500    0.834500    2.440300
     70          1           0       -9.418600    1.467500    2.687900
     71          1           0       -5.912500    2.072900   -1.264600
     72          1           0       -4.158100    0.372600   -1.528200
     73          1           0       -3.752800   -2.202600    1.660400
     74          1           0       -3.014400   -4.473100    2.149500
     75          1           0       -1.379400   -6.291300    1.865500
     76          1           0        0.634800   -5.955500    0.469900
     77          1           0        1.034600   -3.816000   -0.646500
     78          1           0        2.469200   -0.046800    1.104300
     79          1           0        4.290700    1.688800   -2.125200
     80          1           0        6.385600    2.494700   -1.120900
 ---------------------------------------------------------------------
 Rotational constants (GHZ):           0.1029500           0.0367823           0.0328171
 Leave Link  202 at Tue Dec 10 01:15:36 2024, MaxMem= 13421772800 cpu:               0.2 elap:               0.0
 (Enter /public/software/apps/Gaussian/g16/l301.exe)
 Standard basis: def2SVPP (5D, 7F)
 Ernie: Thresh=  0.10000D-02 Tol=  0.10000D-05 Strict=F.
   664 basis functions,  1202 primitive gaussians,   706 cartesian basis functions
   147 alpha electrons      147 beta electrons
       nuclear repulsion energy      4451.4636766471 Hartrees.
 IExCor=  402 DFT=T Ex+Corr=B3LYP ExCW=0 ScaHFX=  0.200000
 ScaDFX=  0.800000  0.720000  1.000000  0.810000 ScalE2=  1.000000  1.000000
 IRadAn=      5 IRanWt=     -1 IRanGd=            0 ICorTp=0 IEmpDi=141
 NAtoms=   80 NActive=   80 NUniq=   80 SFac= 1.00D+00 NAtFMM=   60 NAOKFM=T Big=T
 Integral buffers will be    131072 words long.
 Raffenetti 2 integral format.
 Two-electron integral symmetry is turned off.
 R6Disp:  Grimme-D3(BJ) Dispersion energy=       -0.1937281829 Hartrees.
 Nuclear repulsion after empirical dispersion term =     4451.2699484642 Hartrees.
 Leave Link  301 at Tue Dec 10 01:15:36 2024, MaxMem= 13421772800 cpu:               0.7 elap:               0.0
 (Enter /public/software/apps/Gaussian/g16/l302.exe)
 NPDir=0 NMtPBC=     1 NCelOv=     1 NCel=       1 NClECP=     1 NCelD=      1
         NCelK=      1 NCelE2=     1 NClLst=     1 CellRange=     0.0.
 One-electron integrals computed using PRISM.
   1 Symmetry operations used in ECPInt.
 ECPInt:  NShTT=   53956 NPrTT=  216156 LenC2=   39258 LenP2D=   95328.
 LDataN:  DoStor=T MaxTD1= 4 Len=   56
 NBasis=   664 RedAO= T EigKep=  1.72D-04  NBF=   664
 NBsUse=   664 1.00D-06 EigRej= -1.00D+00 NBFU=   664
 Precomputing XC quadrature grid using
 IXCGrd= 4 IRadAn=           5 IRanWt=          -1 IRanGd=           0 AccXCQ= 0.00D+00.
 Generated NRdTot=       0 NPtTot=           0 NUsed=           0 NTot=          32
 NSgBfM=   664   663   663   664   664 MxSgAt=    80 MxSgA2=    80.
 Leave Link  302 at Tue Dec 10 01:15:37 2024, MaxMem= 13421772800 cpu:              28.0 elap:               0.9
 (Enter /public/software/apps/Gaussian/g16/l303.exe)
 DipDrv:  MaxL=1.
 Leave Link  303 at Tue Dec 10 01:15:37 2024, MaxMem= 13421772800 cpu:               3.1 elap:               0.1
 (Enter /public/software/apps/Gaussian/g16/l401.exe)
 ExpMin= 1.22D-01 ExpMax= 2.27D+03 ExpMxC= 3.41D+02 IAcc=3 IRadAn=         5 AccDes= 0.00D+00
 Harris functional with IExCor=  402 and IRadAn=       5 diagonalized for initial guess.
 HarFok:  IExCor=  402 AccDes= 0.00D+00 IRadAn=         5 IDoV= 1 UseB2=F ITyADJ=14
 ICtDFT=  3500011 ScaDFX=  1.000000  1.000000  1.000000  1.000000
 FoFCou: FMM=F IPFlag=           0 FMFlag=      100000 FMFlg1=        2001
         NFxFlg=           0 DoJE=T BraDBF=F KetDBF=T FulRan=T
         wScrn=  0.000000 ICntrl=       500 IOpCl=  0 I1Cent=   200000004 NGrid=           0
         NMat0=    1 NMatS0=      1 NMatT0=    0 NMatD0=    1 NMtDS0=    0 NMtDT0=    0
 Symmetry not used in FoFCou.
 Harris En= -1696.50416330346    
 JPrj=0 DoOrth=F DoCkMO=F.
 Leave Link  401 at Tue Dec 10 01:15:39 2024, MaxMem= 13421772800 cpu:              57.3 elap:               1.8
 (Enter /public/software/apps/Gaussian/g16/l502.exe)
 Two-electron integral symmetry not used.
 Closed shell SCF:
 Using DIIS extrapolation, IDIIS=  1040.
 NGot= 13421772800 LenX= 13420745320 LenY= 13420246178
 Requested convergence on RMS density matrix=1.00D-08 within 128 cycles.
 Requested convergence on MAX density matrix=1.00D-06.
 Requested convergence on             energy=1.00D-06.
 No special actions if energy rises.
 Fock matrices will be formed incrementally for  20 cycles.
 Integral accuracy reduced to 1.0D-05 until final iterations.

 Cycle   1  Pass 0  IDiag  1:
 FoFJK:  IHMeth= 1 ICntrl=       0 DoSepK=F KAlg= 0 I1Cent=           0 FoldK=F
 IRaf= 820000000 NMat=       1 IRICut=       1 DoRegI=T DoRafI=F ISym2E= 0 IDoP0=0 IntGTp=1.
 FoFCou: FMM=T IPFlag=           0 FMFlag=      100000 FMFlg1=        2001
         NFxFlg=           0 DoJE=F BraDBF=F KetDBF=F FulRan=T
         wScrn=  0.000000 ICntrl=         0 IOpCl=  0 I1Cent=           0 NGrid=           0
         NMat0=    1 NMatS0=      1 NMatT0=    0 NMatD0=    1 NMtDS0=    0 NMtDT0=    0
 Symmetry not used in FoFCou.
 FMM levels:  10  Number of levels for PrismC:   9
 E= -1695.57006462767    
 DIIS: error= 3.61D-02 at cycle   1 NSaved=   1.
 NSaved= 1 IEnMin= 1 EnMin= -1695.57006462767     IErMin= 1 ErrMin= 3.61D-02
 ErrMax= 3.61D-02  0.00D+00 EMaxC= 1.00D-01 BMatC= 7.99D-01 BMatP= 7.99D-01
 IDIUse=3 WtCom= 6.39D-01 WtEn= 3.61D-01
 Coeff-Com:  0.100D+01
 Coeff-En:   0.100D+01
 Coeff:      0.100D+01
 Gap=     0.161 Goal=   None    Shift=    0.000
 GapD=    0.161 DampG=1.000 DampE=0.500 DampFc=0.5000 IDamp=-1.
 Damping current iteration by 5.00D-01
 RMSDP=4.58D-03 MaxDP=1.67D-01              OVMax= 1.70D-01

 Cycle   2  Pass 0  IDiag  1:
 RMSU=  2.09D-03    CP:  9.42D-01
 E= -1695.99079279499     Delta-E=       -0.420728167316 Rises=F Damp=T
 DIIS: error= 6.31D-03 at cycle   2 NSaved=   2.
 NSaved= 2 IEnMin= 2 EnMin= -1695.99079279499     IErMin= 2 ErrMin= 6.31D-03
 ErrMax= 6.31D-03  0.00D+00 EMaxC= 1.00D-01 BMatC= 4.30D-02 BMatP= 7.99D-01
 IDIUse=3 WtCom= 9.37D-01 WtEn= 6.31D-02
 Coeff-Com:  0.536D-01 0.946D+00
 Coeff-En:   0.775D-01 0.922D+00
 Coeff:      0.552D-01 0.945D+00
 Gap=     0.171 Goal=   None    Shift=    0.000
 RMSDP=1.64D-03 MaxDP=7.45D-02 DE=-4.21D-01 OVMax= 1.57D-01

 Cycle   3  Pass 0  IDiag  1:
 RMSU=  1.52D-03    CP:  9.05D-01  1.07D+00
 E= -1696.44519530288     Delta-E=       -0.454402507895 Rises=F Damp=F
 DIIS: error= 5.47D-03 at cycle   3 NSaved=   3.
 NSaved= 3 IEnMin= 3 EnMin= -1696.44519530288     IErMin= 3 ErrMin= 5.47D-03
 ErrMax= 5.47D-03  0.00D+00 EMaxC= 1.00D-01 BMatC= 5.12D-02 BMatP= 4.30D-02
 IDIUse=3 WtCom= 1.19D-01 WtEn= 8.81D-01
 Coeff-Com: -0.118D-01 0.529D+00 0.482D+00
 Coeff-En:   0.000D+00 0.000D+00 0.100D+01
 Coeff:     -0.140D-02 0.631D-01 0.938D+00
 Gap=     0.162 Goal=   None    Shift=    0.000
 RMSDP=1.48D-03 MaxDP=7.24D-02 DE=-4.54D-01 OVMax= 1.62D-01

 Cycle   4  Pass 0  IDiag  1:
 RMSU=  1.11D-03    CP:  9.06D-01  1.24D+00  3.98D-01
 E= -1696.27498996674     Delta-E=        0.170205336144 Rises=F Damp=F
 DIIS: error= 1.07D-02 at cycle   4 NSaved=   4.
 NSaved= 4 IEnMin= 3 EnMin= -1696.44519530288     IErMin= 3 ErrMin= 5.47D-03
 ErrMax= 1.07D-02  0.00D+00 EMaxC= 1.00D-01 BMatC= 1.98D-01 BMatP= 4.30D-02
 IDIUse=2 WtCom= 0.00D+00 WtEn= 1.00D+00
 Coeff-En:   0.000D+00 0.000D+00 0.741D+00 0.259D+00
 Coeff:      0.000D+00 0.000D+00 0.741D+00 0.259D+00
 Gap=     0.158 Goal=   None    Shift=    0.000
 RMSDP=7.70D-04 MaxDP=3.74D-02 DE= 1.70D-01 OVMax= 9.34D-02

 Cycle   5  Pass 0  IDiag  1:
 RMSU=  1.70D-04    CP:  9.04D-01  1.16D+00  6.99D-01  4.89D-01
 E= -1696.49156557004     Delta-E=       -0.216575603304 Rises=F Damp=F
 DIIS: error= 2.43D-03 at cycle   5 NSaved=   5.
 NSaved= 5 IEnMin= 5 EnMin= -1696.49156557004     IErMin= 5 ErrMin= 2.43D-03
 ErrMax= 2.43D-03  0.00D+00 EMaxC= 1.00D-01 BMatC= 1.12D-02 BMatP= 4.30D-02
 IDIUse=3 WtCom= 9.76D-01 WtEn= 2.43D-02
 Coeff-Com:  0.580D-02 0.439D-02 0.339D+00 0.266D-01 0.624D+00
 Coeff-En:   0.000D+00 0.000D+00 0.221D+00 0.000D+00 0.779D+00
 Coeff:      0.566D-02 0.428D-02 0.336D+00 0.260D-01 0.628D+00
 Gap=     0.155 Goal=   None    Shift=    0.000
 RMSDP=2.37D-04 MaxDP=1.25D-02 DE=-2.17D-01 OVMax= 2.48D-02

 Cycle   6  Pass 0  IDiag  1:
 RMSU=  6.78D-05    CP:  9.04D-01  1.13D+00  7.95D-01  3.45D-01  8.07D-01
 E= -1696.50398857121     Delta-E=       -0.012423001171 Rises=F Damp=F
 DIIS: error= 3.58D-04 at cycle   6 NSaved=   6.
 NSaved= 6 IEnMin= 6 EnMin= -1696.50398857121     IErMin= 6 ErrMin= 3.58D-04
 ErrMax= 3.58D-04  0.00D+00 EMaxC= 1.00D-01 BMatC= 1.35D-04 BMatP= 1.12D-02
 IDIUse=3 WtCom= 9.96D-01 WtEn= 3.58D-03
 Coeff-Com:  0.222D-02-0.762D-02 0.108D+00-0.242D-01 0.350D+00 0.572D+00
 Coeff-En:   0.000D+00 0.000D+00 0.000D+00 0.000D+00 0.000D+00 0.100D+01
 Coeff:      0.222D-02-0.759D-02 0.107D+00-0.241D-01 0.348D+00 0.574D+00
 Gap=     0.155 Goal=   None    Shift=    0.000
 RMSDP=3.33D-05 MaxDP=2.01D-03 DE=-1.24D-02 OVMax= 2.76D-03

 Cycle   7  Pass 0  IDiag  1:
 RMSU=  2.75D-05    CP:  9.04D-01  1.13D+00  7.99D-01  3.44D-01  8.31D-01
                    CP:  7.47D-01
 E= -1696.50414795145     Delta-E=       -0.000159380241 Rises=F Damp=F
 DIIS: error= 9.11D-05 at cycle   7 NSaved=   7.
 NSaved= 7 IEnMin= 7 EnMin= -1696.50414795145     IErMin= 7 ErrMin= 9.11D-05
 ErrMax= 9.11D-05  0.00D+00 EMaxC= 1.00D-01 BMatC= 1.51D-05 BMatP= 1.35D-04
 IDIUse=1 WtCom= 1.00D+00 WtEn= 0.00D+00
 Coeff-Com:  0.109D-02-0.459D-02 0.481D-01-0.177D-01 0.185D+00 0.355D+00
 Coeff-Com:  0.433D+00
 Coeff:      0.109D-02-0.459D-02 0.481D-01-0.177D-01 0.185D+00 0.355D+00
 Coeff:      0.433D+00
 Gap=     0.154 Goal=   None    Shift=    0.000
 RMSDP=1.21D-05 MaxDP=5.60D-04 DE=-1.59D-04 OVMax= 1.59D-03

 Cycle   8  Pass 0  IDiag  1:
 RMSU=  1.16D-05    CP:  9.04D-01  1.13D+00  7.99D-01  3.43D-01  8.27D-01
                    CP:  7.80D-01  9.50D-01
 E= -1696.50416966537     Delta-E=       -0.000021713914 Rises=F Damp=F
 DIIS: error= 3.62D-05 at cycle   8 NSaved=   8.
 NSaved= 8 IEnMin= 8 EnMin= -1696.50416966537     IErMin= 8 ErrMin= 3.62D-05
 ErrMax= 3.62D-05  0.00D+00 EMaxC= 1.00D-01 BMatC= 1.57D-06 BMatP= 1.51D-05
 IDIUse=1 WtCom= 1.00D+00 WtEn= 0.00D+00
 Coeff-Com:  0.487D-03-0.199D-02 0.199D-01-0.947D-02 0.840D-01 0.169D+00
 Coeff-Com:  0.277D+00 0.461D+00
 Coeff:      0.487D-03-0.199D-02 0.199D-01-0.947D-02 0.840D-01 0.169D+00
 Coeff:      0.277D+00 0.461D+00
 Gap=     0.155 Goal=   None    Shift=    0.000
 RMSDP=8.99D-06 MaxDP=3.16D-04 DE=-2.17D-05 OVMax= 6.09D-04

 Initial convergence to 1.0D-05 achieved.  Increase integral accuracy.
 Cycle   9  Pass 1  IDiag  1:
 E= -1696.50386550134     Delta-E=        0.000304164028 Rises=F Damp=F
 DIIS: error= 5.98D-04 at cycle   1 NSaved=   1.
 NSaved= 1 IEnMin= 1 EnMin= -1696.50386550134     IErMin= 1 ErrMin= 5.98D-04
 ErrMax= 5.98D-04  0.00D+00 EMaxC= 1.00D-01 BMatC= 9.42D-05 BMatP= 9.42D-05
 IDIUse=3 WtCom= 9.94D-01 WtEn= 5.98D-03
 Coeff-Com:  0.100D+01
 Coeff-En:   0.100D+01
 Coeff:      0.100D+01
 Gap=     0.154 Goal=   None    Shift=    0.000
 RMSDP=8.99D-06 MaxDP=3.16D-04 DE= 3.04D-04 OVMax= 1.02D-03

 Cycle  10  Pass 1  IDiag  1:
 RMSU=  5.86D-04    CP:  9.99D-01
 E= -1696.50396642341     Delta-E=       -0.000100922071 Rises=F Damp=F
 DIIS: error= 3.14D-05 at cycle   2 NSaved=   2.
 NSaved= 2 IEnMin= 2 EnMin= -1696.50396642341     IErMin= 2 ErrMin= 3.14D-05
 ErrMax= 3.14D-05  0.00D+00 EMaxC= 1.00D-01 BMatC= 1.23D-06 BMatP= 9.42D-05
 IDIUse=1 WtCom= 1.00D+00 WtEn= 0.00D+00
 Coeff-Com:  0.857D-02 0.991D+00
 Coeff:      0.857D-02 0.991D+00
 Gap=     0.155 Goal=   None    Shift=    0.000
 RMSDP=1.16D-05 MaxDP=4.02D-04 DE=-1.01D-04 OVMax= 1.44D-03

 Cycle  11  Pass 1  IDiag  1:
 RMSU=  8.83D-06    CP:  9.99D-01  1.01D+00
 E= -1696.50395925847     Delta-E=        0.000007164943 Rises=F Damp=F
 DIIS: error= 7.81D-05 at cycle   3 NSaved=   3.
 NSaved= 3 IEnMin= 2 EnMin= -1696.50396642341     IErMin= 2 ErrMin= 3.14D-05
 ErrMax= 7.81D-05  0.00D+00 EMaxC= 1.00D-01 BMatC= 7.24D-06 BMatP= 1.23D-06
 IDIUse=1 WtCom= 1.00D+00 WtEn= 0.00D+00
 Coeff-Com: -0.681D-02 0.714D+00 0.293D+00
 Coeff:     -0.681D-02 0.714D+00 0.293D+00
 Gap=     0.154 Goal=   None    Shift=    0.000
 RMSDP=6.06D-06 MaxDP=3.15D-04 DE= 7.16D-06 OVMax= 1.08D-03

 Cycle  12  Pass 1  IDiag  1:
 RMSU=  1.97D-06    CP:  9.99D-01  1.01D+00  3.51D-01
 E= -1696.50396784688     Delta-E=       -0.000008588415 Rises=F Damp=F
 DIIS: error= 6.07D-06 at cycle   4 NSaved=   4.
 NSaved= 4 IEnMin= 4 EnMin= -1696.50396784688     IErMin= 4 ErrMin= 6.07D-06
 ErrMax= 6.07D-06  0.00D+00 EMaxC= 1.00D-01 BMatC= 3.86D-08 BMatP= 1.23D-06
 IDIUse=1 WtCom= 1.00D+00 WtEn= 0.00D+00
 Coeff-Com: -0.435D-02 0.435D+00 0.183D+00 0.386D+00
 Coeff:     -0.435D-02 0.435D+00 0.183D+00 0.386D+00
 Gap=     0.154 Goal=   None    Shift=    0.000
 RMSDP=4.40D-07 MaxDP=2.48D-05 DE=-8.59D-06 OVMax= 5.38D-05

 Cycle  13  Pass 1  IDiag  1:
 RMSU=  4.09D-07    CP:  9.99D-01  1.01D+00  3.65D-01  9.49D-01
 E= -1696.50396788532     Delta-E=       -0.000000038439 Rises=F Damp=F
 DIIS: error= 1.17D-06 at cycle   5 NSaved=   5.
 NSaved= 5 IEnMin= 5 EnMin= -1696.50396788532     IErMin= 5 ErrMin= 1.17D-06
 ErrMax= 1.17D-06  0.00D+00 EMaxC= 1.00D-01 BMatC= 1.03D-09 BMatP= 3.86D-08
 IDIUse=1 WtCom= 1.00D+00 WtEn= 0.00D+00
 Coeff-Com: -0.164D-02 0.161D+00 0.684D-01 0.189D+00 0.583D+00
 Coeff:     -0.164D-02 0.161D+00 0.684D-01 0.189D+00 0.583D+00
 Gap=     0.154 Goal=   None    Shift=    0.000
 RMSDP=1.09D-07 MaxDP=4.35D-06 DE=-3.84D-08 OVMax= 1.08D-05

 Cycle  14  Pass 1  IDiag  1:
 RMSU=  8.98D-08    CP:  9.99D-01  1.01D+00  3.64D-01  9.67D-01  8.86D-01
 E= -1696.50396788601     Delta-E=       -0.000000000692 Rises=F Damp=F
 DIIS: error= 6.08D-07 at cycle   6 NSaved=   6.
 NSaved= 6 IEnMin= 6 EnMin= -1696.50396788601     IErMin= 6 ErrMin= 6.08D-07
 ErrMax= 6.08D-07  0.00D+00 EMaxC= 1.00D-01 BMatC= 3.86D-10 BMatP= 1.03D-09
 IDIUse=1 WtCom= 1.00D+00 WtEn= 0.00D+00
 Coeff-Com: -0.156D-03 0.139D-01 0.651D-02 0.442D-01 0.402D+00 0.534D+00
 Coeff:     -0.156D-03 0.139D-01 0.651D-02 0.442D-01 0.402D+00 0.534D+00
 Gap=     0.154 Goal=   None    Shift=    0.000
 RMSDP=5.22D-08 MaxDP=2.48D-06 DE=-6.92D-10 OVMax= 5.56D-06

 Cycle  15  Pass 1  IDiag  1:
 RMSU=  2.61D-08    CP:  9.99D-01  1.01D+00  3.65D-01  9.71D-01  9.30D-01
                    CP:  5.68D-01
 E= -1696.50396788639     Delta-E=       -0.000000000378 Rises=F Damp=F
 DIIS: error= 1.27D-07 at cycle   7 NSaved=   7.
 NSaved= 7 IEnMin= 7 EnMin= -1696.50396788639     IErMin= 7 ErrMin= 1.27D-07
 ErrMax= 1.27D-07  0.00D+00 EMaxC= 1.00D-01 BMatC= 3.58D-11 BMatP= 3.86D-10
 IDIUse=1 WtCom= 1.00D+00 WtEn= 0.00D+00
 Coeff-Com:  0.560D-05-0.148D-02-0.184D-03 0.157D-01 0.215D+00 0.341D+00
 Coeff-Com:  0.430D+00
 Coeff:      0.560D-05-0.148D-02-0.184D-03 0.157D-01 0.215D+00 0.341D+00
 Coeff:      0.430D+00
 Gap=     0.154 Goal=   None    Shift=    0.000
 RMSDP=1.43D-08 MaxDP=7.36D-07 DE=-3.78D-10 OVMax= 1.57D-06

 Cycle  16  Pass 1  IDiag  1:
 RMSU=  8.35D-09    CP:  9.99D-01  1.01D+00  3.65D-01  9.72D-01  9.28D-01
                    CP:  6.22D-01  6.28D-01
 E= -1696.50396788644     Delta-E=       -0.000000000052 Rises=F Damp=F
 DIIS: error= 2.58D-08 at cycle   8 NSaved=   8.
 NSaved= 8 IEnMin= 8 EnMin= -1696.50396788644     IErMin= 8 ErrMin= 2.58D-08
 ErrMax= 2.58D-08  0.00D+00 EMaxC= 1.00D-01 BMatC= 1.06D-12 BMatP= 3.58D-11
 IDIUse=1 WtCom= 1.00D+00 WtEn= 0.00D+00
 Coeff-Com:  0.166D-04-0.199D-02-0.632D-03 0.432D-02 0.765D-01 0.131D+00
 Coeff-Com:  0.214D+00 0.577D+00
 Coeff:      0.166D-04-0.199D-02-0.632D-03 0.432D-02 0.765D-01 0.131D+00
 Coeff:      0.214D+00 0.577D+00
 Gap=     0.154 Goal=   None    Shift=    0.000
 RMSDP=3.11D-09 MaxDP=1.08D-07 DE=-5.18D-11 OVMax= 2.59D-07

 SCF Done:  E(RB3LYP) =  -1696.50396789     A.U. after   16 cycles
            NFock= 16  Conv=0.31D-08     -V/T= 2.0108
 KE= 1.678325658646D+03 PE=-1.283328771319D+04 EE= 5.007188138197D+03
 Leave Link  502 at Tue Dec 10 01:16:32 2024, MaxMem= 13421772800 cpu:            1691.0 elap:              53.6
 (Enter /public/software/apps/Gaussian/g16/l601.exe)
 Copying SCF densities to generalized density rwf, IOpCl= 0 IROHF=0.

 **********************************************************************

            Population analysis using the SCF Density.

 **********************************************************************

 Alpha  occ. eigenvalues --  -19.14887 -19.14883 -10.24828 -10.24824 -10.19951
 Alpha  occ. eigenvalues --  -10.19930 -10.19718 -10.19709 -10.19302 -10.19251
 Alpha  occ. eigenvalues --  -10.19243 -10.19209 -10.19108 -10.19085 -10.19033
 Alpha  occ. eigenvalues --  -10.18996 -10.18965 -10.18936 -10.18925 -10.18900
 Alpha  occ. eigenvalues --  -10.18720 -10.18708 -10.18653 -10.18650 -10.18630
 Alpha  occ. eigenvalues --  -10.18600 -10.18300 -10.18281 -10.18204 -10.18192
 Alpha  occ. eigenvalues --  -10.17868 -10.17859 -10.17719 -10.17713 -10.17574
 Alpha  occ. eigenvalues --  -10.17567 -10.17539 -10.17512 -10.17507 -10.17444
 Alpha  occ. eigenvalues --  -10.17316 -10.17298  -1.01529  -1.01245  -0.87178
 Alpha  occ. eigenvalues --   -0.86540  -0.85828  -0.85428  -0.81674  -0.81616
 Alpha  occ. eigenvalues --   -0.80534  -0.79914  -0.78664  -0.76030  -0.75631
 Alpha  occ. eigenvalues --   -0.74673  -0.74403  -0.74374  -0.72392  -0.72321
 Alpha  occ. eigenvalues --   -0.71202  -0.69534  -0.67620  -0.67472  -0.67274
 Alpha  occ. eigenvalues --   -0.67000  -0.63180  -0.61862  -0.61446  -0.61378
 Alpha  occ. eigenvalues --   -0.61045  -0.60933  -0.60192  -0.58152  -0.57993
 Alpha  occ. eigenvalues --   -0.56461  -0.55720  -0.55235  -0.54550  -0.54525
 Alpha  occ. eigenvalues --   -0.52424  -0.50929  -0.50550  -0.50499  -0.48380
 Alpha  occ. eigenvalues --   -0.47677  -0.47541  -0.47246  -0.46864  -0.46736
 Alpha  occ. eigenvalues --   -0.46021  -0.45427  -0.45259  -0.45010  -0.44181
 Alpha  occ. eigenvalues --   -0.43843  -0.43296  -0.43040  -0.42953  -0.42835
 Alpha  occ. eigenvalues --   -0.42658  -0.42446  -0.42156  -0.42022  -0.41475
 Alpha  occ. eigenvalues --   -0.40932  -0.40586  -0.39631  -0.39394  -0.39209
 Alpha  occ. eigenvalues --   -0.38874  -0.38631  -0.38340  -0.37560  -0.37307
 Alpha  occ. eigenvalues --   -0.37151  -0.37039  -0.36895  -0.36257  -0.36099
 Alpha  occ. eigenvalues --   -0.35952  -0.35196  -0.34870  -0.34564  -0.34467
 Alpha  occ. eigenvalues --   -0.34319  -0.34049  -0.33642  -0.33618  -0.33404
 Alpha  occ. eigenvalues --   -0.33202  -0.33075  -0.32552  -0.32040  -0.31515
 Alpha  occ. eigenvalues --   -0.30244  -0.30221  -0.27545  -0.27245  -0.26091
 Alpha  occ. eigenvalues --   -0.26083  -0.25468  -0.25425  -0.22288  -0.22227
 Alpha  occ. eigenvalues --   -0.19966  -0.19794
[...]
 0075381,-0.00060900,-0.00513775,-0.00373896,-0.00081508,-0.00054564,0.
 00043948,0.00123332,-0.00437417,-0.00058268,0.00759092,-0.00678507,0.0
 1080881,-0.00027236,0.00145414,0.00228719,0.00050693,0.00012661,-0.000
 46072,-0.00031909,-0.00009939,-0.00000188,0.00010077,0.00002918,0.0000
 5037,-0.00006336,-0.00001801,0.00000535,0.00005298,0.00001291,-0.00003
 257,-0.00000453,0.00000847,0.00005883,0.00003787,-0.00000345,-0.000161
 85,0.00007750,-0.00002204,0.00020654,-0.00004156,0.00004810,-0.0000011
 2,-0.00001410,-0.00006709,0.00001337,0.00003386,0.00005297,-0.00002182
 ,-0.00000153,0.00000688,0.00000078,0.00000169,0.00000621,0.00000012,0.
 00000148,-0.00000096,0.00000207,0.00000179,-0.00000178,0.00000130,-0.0
 0000276,0.00000233,-0.00000061,0.00000066,0.00000322,0.00000052,-0.000
 00346,-0.00000208,-0.00000027,0.00000069,0.00000141,-0.00000031,0.0000
 0080,0.00000112,0.00000083,-0.00000002,0.00000284,-0.00000233,0.000004
 78,0.00000142,0.00000054,0.00000420,0.00000197,-0.00000469,0.00000553,
 0.00000539,-0.00000316,-0.00000105,-0.00000030,0.00000074,0.00000274,0
 .00000322,-0.00000289,-0.00000072,-0.00000538,-0.00000029,-0.00000308,
 0.00001174,-0.00000447,0.00001155,-0.00002178,-0.00000164,-0.00034251,
 -0.00017596,0.00017693,-0.00000101,0.00001679,-0.00020260,-0.08983322,
 0.03719833,-0.09267338,-0.00424095,0.01145014,-0.02105244,0.00000517,-
 0.00000700,-0.00001813,-0.00000569,0.00000181,0.00000416,-0.00001154,0
 .00000012,0.00001058,0.00003798,-0.00002414,0.00002483,-0.00001200,-0.
 00002538,-0.00001286,-0.00000448,0.00000492,0.00000492,0.00000648,-0.0
 0000033,0.00001045,-0.00028214,-0.00007907,-0.00013828,-0.00002466,-0.
 00003607,0.00006406,-0.00034476,0.00037824,0.00027594,0.00051787,-0.00
 044737,0.00057193,-0.00006491,-0.00018885,0.00011351,-0.00000668,-0.00
 000045,0.00001318,0.00000388,0.00000483,0.00000869,0.00000276,0.000000
 74,0.00000288,0.00000315,0.00000125,0.00000045,-0.00001736,-0.00000162
 ,0.00000425,-0.00000089,0.00000010,0.00000090,0.00000019,-0.00000082,-
 0.00000145,0.00000062,-0.00000095,-0.00000091,0.00000045,-0.00000093,0
 .00000028,0.00000232,-0.00000091,-0.00000035,-0.00000083,-0.00000151,-
 0.00000022,-0.00000084,0.00000020,-0.00000007,0.00000168,0.00000017,-0
 .00000011,-0.00000074,0.,0.00000005,-0.00000082,-0.00000142,-0.0000001
 7,0.00000163,0.00000015,-0.00000003,-0.00000069,-0.00000075,0.00000090
 ,-0.00000334,-0.00000109,-0.00000250,0.00000169,0.00000144,-0.00000143
 ,0.00000185,0.00000073,-0.00000124,0.00000113,0.00000229,-0.00000095,-
 0.00000068,0.00000307,0.00000090,0.00000401,-0.00000753,0.00000335,0.0
 0006185,-0.00004579,0.00003085,0.08772357,-0.00000302,-0.00001181,-0.0
 0000402,-0.00003850,0.00000347,-0.00002012,0.00001592,-0.00001539,-0.0
 0000573,-0.00019664,0.00034970,-0.00041280,-0.00447716,0.00160197,0.00
 113871,-0.00023656,-0.00041719,-0.00047803,-0.00501969,-0.00150620,0.0
 0261700,0.00978735,-0.00585241,0.02123474,0.00226735,-0.00062220,-0.00
 079886,-0.00066729,-0.00016432,0.00023289,-0.00004064,0.00007057,-0.00
 051400,-0.00002204,-0.00000826,0.00003649,-0.00001005,-0.00001397,0.00
 001970,0.00000053,-0.00000260,-0.00000626,0.00002155,-0.00000704,-0.00
 001981,0.00009607,0.00001923,-0.00001086,0.00005094,0.00001164,-0.0000
 7732,-0.00003492,-0.00001079,0.00003110,0.00002824,0.00005260,-0.00001
 820,0.00000904,-0.00006253,-0.00000329,-0.00001661,-0.00001652,0.00000
 892,-0.00000229,0.00001896,-0.00000117,0.00000400,-0.00000714,0.000002
 31,0.00000126,-0.00000330,0.00000092,-0.00000239,-0.00000032,-0.000001
 00,0.00000147,0.00000521,0.00000050,-0.00000202,-0.00000284,-0.0000001
 5,-0.00000008,0.00000204,-0.00000048,0.00000011,0.00000156,0.00000106,
 -0.00000175,0.00000029,-0.00000427,0.00000351,-0.00000335,0.00000047,0
 .00000938,0.00001461,-0.00001448,0.00001169,0.00000204,-0.00000493,0.0
 0000157,0.00000519,-0.00000343,0.00000753,0.00000016,-0.00000673,-0.00
 000395,-0.00000958,-0.00000027,-0.00001490,0.00001642,-0.00000226,0.00
 003014,-0.00004061,-0.00000967,0.00000450,0.00036068,0.00051194,-0.000
 09473,-0.00008780,-0.00038821,0.03654856,-0.09976931,0.10326763,-0.005
 95019,0.00899778,-0.01163061,0.00000221,0.00000063,-0.00000384,0.00000
 075,-0.00000162,0.00000557,0.00000608,0.00000364,-0.00000597,0.0000049
 6,-0.00002373,-0.00001206,-0.00000232,-0.00000612,-0.00000441,0.000000
 63,0.00000405,-0.00000084,0.00000698,0.00000261,0.00000901,-0.00012052
 ,-0.00010366,-0.00015308,0.00003604,0.00002550,0.00001979,0.00039329,-
 0.00030168,-0.00031731,0.00046397,-0.00027376,0.00112260,0.00014192,-0
 .00070980,-0.00051580,-0.00000143,-0.00000815,-0.00002498,0.00000180,0
 .00000637,0.00000851,0.00000979,0.00000647,0.00000412,0.00001906,0.000
 00790,0.00000731,0.00000068,0.00002510,0.00000336,0.00000003,0.0000025
 0,0.00000225,0.00000221,-0.00000111,-0.00000234,0.00000129,-0.00000147
 ,-0.00000244,0.00000147,-0.00000200,0.00000145,0.00000274,-0.00000127,
 -0.00000054,-0.00000039,-0.00000176,-0.00000027,-0.00000056,0.00000005
 ,0.00000022,0.00000093,-0.00000002,-0.00000012,-0.00000064,-0.00000018
 ,-0.00000050,-0.00000045,-0.00000164,-0.00000003,0.00000099,-0.0000000
 6,0.00000014,0.00000188,-0.00000097,0.00000169,-0.00000329,0.00000274,
 -0.00000305,0.00000381,0.00000245,-0.00000142,0.00000389,0.00000219,-0
 .00000177,0.00000262,0.00000382,-0.00000085,-0.00000032,0.00000403,0.0
 0000261,0.00001033,-0.00001430,0.00000705,0.00024770,-0.00005304,0.000
 02588,-0.03542993,0.09935605,-0.00000305,-0.00002985,-0.00000178,-0.00
 010883,0.00006646,-0.00001476,0.00005135,-0.00003883,-0.00002370,-0.00
 003176,0.00048165,-0.00026412,-0.00392159,0.00011088,0.00296290,0.0005
 8397,-0.00032052,0.00049514,-0.00017248,0.00348394,0.00206490,-0.00564
 621,0.00384629,-0.00660167,0.00003705,-0.00227863,-0.00131019,-0.00017
 130,-0.00079083,0.00031336,0.00017920,0.00017852,0.00014523,-0.0000424
 0,-0.00005204,-0.00007108,0.00008331,0.00002076,-0.00000219,-0.0000455
 7,-0.00000856,0.00006669,-0.00003237,-0.00001430,-0.00006001,-0.000042
 29,0.00001948,0.00017397,-0.00010810,-0.00004060,-0.00029405,0.0000203
 8,0.00000426,0.00001412,0.00001278,0.00010548,-0.00002729,-0.00003661,
 -0.00010923,0.00002905,-0.00001047,-0.00001270,0.00000823,-0.00000540,
 0.00000282,0.00000119,-0.00000004,-0.00000145,-0.00000310,-0.00000089,
 0.00000061,-0.00000068,0.00000157,-0.00000303,0.00000086,0.00000007,-0
 .00000029,-0.00000100,0.00000281,0.00000074,-0.00000015,-0.00000073,-0
 .00000025,-0.00000007,-0.00000106,-0.00000042,-0.00000055,-0.00000102,
 -0.00000407,-0.00000011,-0.00000420,-0.00000413,-0.00000039,-0.0000018
 3,0.00000674,-0.00000062,-0.00000277,-0.00000626,0.00000146,0.00000288
 ,0.00000428,-0.00000256,0.00000126,-0.00000671,0.00000196,-0.00000045,
 0.00000113,0.00000353,0.00000019,-0.00000873,0.00000679,0.00000853,0.0
 0000916,-0.00000597,0.00068400,0.00023968,0.00005963,0.00009694,-0.000
 05030,0.00021742,-0.09150631,0.10384940,-0.24313326,-0.00344946,0.0069
 8947,-0.00730085,0.00000261,-0.00001729,-0.00002254,0.00000720,0.00000
 254,0.00001056,-0.00001040,0.00002512,0.00000648,0.00000740,-0.0000094
 5,0.00000372,-0.00001385,-0.00002320,-0.00001852,-0.00000025,0.0000078
 2,0.00000390,0.00000411,0.00000691,0.00000793,-0.00013881,-0.00012902,
 -0.00016726,0.00001175,-0.00000832,-0.00000698,0.00026164,-0.00028772,
 -0.00037440,-0.00036804,0.00019690,-0.00034999,-0.00027536,-0.00023004
 ,-0.00004515,0.00000418,0.00000021,-0.00000531,-0.00000166,0.00000372,
 -0.00000359,-0.00000125,0.00000098,-0.00000032,-0.00000325,0.00000326,
 -0.00000282,0.00002422,0.00002078,-0.00000564,0.00000057,0.00000034,0.
 00000067,0.00000039,0.00000075,0.00000059,0.00000013,0.00000043,-0.000
 00012,0.00000052,-0.00000059,0.00000104,-0.00000095,0.00000021,0.00000
 012,0.00000067,0.00000074,-0.00000003,0.00000054,-0.00000058,0.0000006
 0,-0.00000132,-0.00000017,0.00000001,0.00000055,0.00000015,0.00000013,
 0.00000070,0.00000055,0.,-0.00000133,-0.00000026,0.00000011,0.00000259
 ,0.00000002,0.00000027,0.00000218,0.00000322,0.00000154,-0.00000062,-0
 .00000051,0.00000049,-0.00000087,-0.00000009,-0.00000012,-0.00000091,-
 0.00000143,-0.00000017,-0.00000012,-0.00000347,-0.00000137,-0.00000326
 ,0.00000394,-0.00000530,-0.00019821,0.00010111,-0.00002027,0.10260491,
 -0.11346635,0.25421803,-0.00000440,0.00008557,-0.00000142,0.00036082,-
 0.00019641,0.00000415,-0.00008635,0.00020781,-0.00002173,-0.00016250,0
 .00188796,0.00070913,0.00797274,0.00880599,-0.00533628,0.00195446,-0.0
 0086237,-0.00409847,-0.00052407,0.00053400,-0.00041055,-0.00063598,-0.
 00334876,-0.00528958,-0.00005713,-0.00071908,0.00082012,-0.00010321,0.
 00012679,0.00006556,0.00000941,-0.00000037,-0.00004354,-0.00002843,0.0
 0000127,0.00003308,-0.00003104,-0.00001184,-0.00000589,-0.00000709,-0.
 00000973,-0.00003886,0.00003355,0.00001372,0.00000832,-0.00003302,-0.0
 0002721,-0.00002657,-0.00003520,0.00006226,0.00008138,0.00001402,-0.00
 000849,-0.00003029,-0.00001267,-0.00005846,0.00002399,-0.00000154,0.00
 006859,-0.00001513,0.00001753,0.00001241,-0.00000967,0.00000455,-0.000
 01497,-0.00000108,-0.00000282,0.00000515,-0.00000016,-0.00000089,0.000
 00204,-0.00000114,0.00000175,0.00000104,0.00000017,-0.00000119,-0.0000
 0432,-0.00000002,0.00000096,0.00000211,0.00000041,0.00000013,-0.000001
 67,0.00000048,0.00000021,-0.00000116,-0.00000070,0.00000165,0.00000105
 ,0.00000340,-0.00000209,0.00000375,0.00000071,-0.00000531,-0.00001295,
 0.00000966,-0.00000718,0.00000349,0.00000263,-0.00000166,-0.00000592,0
 .00000285,-0.00000607,0.00000364,0.00000311,0.00000216,0.00000704,-0.0
 0000286,0.00000957,-0.00000858,-0.00000360,-0.00002101,0.00002122,0.00
 000656,-0.00013057,-0.00016071,-0.00038705,-0.00000927,0.00003286,0.00
 013246,-0.00622808,-0.02136880,0.01122613,-0.10092507,-0.10117773,0.03
 995836,-0.00002382,-0.00000113,0.00004439,0.00000807,0.00001373,-0.000
 01382,-0.00001693,-0.00002473,0.00001399,-0.00000918,0.00024786,-0.000
 01553,0.00004638,0.00003410,0.00003789,-0.00002073,-0.00002276,0.00000
 789,-0.00004185,-0.00002413,-0.00001942,-0.00011815,-0.00009830,0.0001
 1494,-0.00032012,-0.00014971,0.00038312,0.00038806,0.00048423,-0.00027
 990,-0.00037555,0.00031017,0.00040900,0.00005513,0.00000558,0.00001316
 ,0.00000851,-0.00000083,-0.00000051,-0.00000254,-0.00000503,-0.0000075
 9,-0.00000354,-0.00000331,-0.00000386,-0.00000693,-0.00000328,-0.00000
 040,-0.00000180,-0.00002259,0.00000170,0.00000025,-0.00000154,-0.00000
 232,-0.00000157,0.00000047,0.00000159,-0.00000110,0.00000098,0.0000018
 8,-0.00000134,0.00000198,-0.00000164,-0.00000204,0.00000098,0.00000035
 ,0.00000018,0.00000118,0.00000033,0.00000035,0.00000033,-0.00000051,-0
 .00000041,0.00000005,0.00000011,0.00000034,0.,0.00000015,0.00000018,0.
 00000125,0.00000013,-0.00000041,0.00000014,-0.00000011,-0.00000246,0.0
 0000103,-0.00000147,0.00000193,-0.00000300,0.00000195,-0.00000238,-0.0
 0000171,0.00000117,-0.00000229,-0.00000107,0.00000161,-0.00000124,-0.0
 0000209,0.00000114,0.00000089,-0.00000040,-0.00000059,-0.00000389,0.00
 000822,0.00000008,0.00003327,-0.00002398,-0.00005295,-0.00073058,0.002
 12656,0.00166452,0.09982767,-0.00009119,-0.00000012,-0.00001483,0.0000
 6378,0.00014205,0.00006112,-0.00001053,-0.00002221,0.00004560,-0.00000
 929,-0.00139282,-0.00198726,-0.00661380,-0.00653126,0.00430674,-0.0005
 5934,0.00236761,0.00374260,0.00055724,0.00031378,-0.00039132,-0.003819
 51,0.00316411,0.00041133,-0.00006752,-0.00020603,0.00037626,-0.0000177
 5,-0.00004034,0.00010575,-0.00003338,0.00000597,-0.00006025,-0.0000305
 2,0.00000255,0.00005368,-0.00002922,-0.00001401,-0.00000907,-0.0000028
 3,-0.00000670,-0.00002520,0.00002126,0.00000337,-0.00000877,-0.0000033
 0,0.00000035,-0.00001426,-0.00002303,0.00000195,0.00003248,0.00001161,
 -0.00001289,-0.00002685,-0.00000700,-0.00001775,0.00001029,-0.00001386
 ,0.00002247,-0.00000677,0.00001355,0.00000600,-0.00000579,0.00000186,-
 0.00001210,-0.00000089,-0.00000295,0.00000315,-0.00000060,-0.00000165,
 0.00000158,-0.00000217,0.00000267,-0.00000138,0.00000006,-0.00000110,-
 0.00000423,-0.00000064,0.00000357,0.00000262,0.00000047,-0.00000059,-0
 .00000181,0.00000045,-0.00000062,-0.00000143,-0.00000101,0.00000035,-0
 .00000068,0.00000305,-0.00000430,0.00000131,0.00000136,-0.00000511,-0.
 00000974,0.00000771,-0.00000741,0.00000254,0.00000370,0.00000003,-0.00
 000411,0.00000078,-0.00000516,0.00000215,0.00000215,0.00000079,0.00000
 718,-0.00000356,0.00000708,-0.00001038,-0.00000356,-0.00001528,0.00002
 169,0.00000219,-0.00005678,-0.00007656,-0.00008848,-0.00006866,-0.0000
 2182,-0.00005087,-0.00395984,-0.00669805,0.00673405,-0.10142268,-0.231
 27566,0.09514029,0.00003847,0.00001318,-0.00001247,0.00001342,0.000006
 43,-0.00005221,0.00005148,-0.00001900,-0.00000752,-0.00014091,0.000037
 94,-0.00019369,-0.00000170,-0.00000625,-0.00000333,0.00001263,0.000004
 72,-0.00000602,-0.00001608,-0.00000870,-0.00000983,0.00023692,0.000085
 45,-0.00012613,0.00086833,0.00048995,-0.00003796,-0.00031237,-0.000383
 98,0.00013144,0.00031804,-0.00040583,-0.00033324,-0.00001305,-0.000034
 36,0.00000438,0.00000874,0.00000239,-0.00000404,-0.00000353,-0.0000043
 6,-0.00000836,-0.00000362,-0.00000245,-0.00000394,-0.00000574,-0.00000
 166,-0.00000019,0.00001021,-0.00000942,0.00000117,0.00000119,-0.000000
 50,-0.00000221,-0.00000055,0.00000090,0.00000175,-0.00000084,0.0000011
 5,0.00000124,-0.00000089,0.00000160,-0.00000067,-0.00000276,0.00000116
 ,0.00000038,0.00000082,0.00000168,0.00000037,0.00000085,0.00000002,-0.
 00000011,-0.00000171,-0.00000017,0.00000010,0.00000081,-0.00000004,-0.
 00000007,0.00000081,0.00000170,0.00000026,-0.00000169,-0.00000012,-0.0
 0000002,-0.00000070,0.00000140,-0.00000124,0.00000283,-0.00000099,0.00
 000230,-0.00000223,-0.00000155,0.00000156,-0.00000239,-0.00000054,0.00
 000197,-0.00000113,-0.00000262,0.00000181,0.00000176,-0.00000070,0.000
 00007,-0.00000266,0.00000830,0.00000187,0.00008674,-0.00000387,-0.0000
 5698,0.00180037,-0.00084838,-0.00184125,0.11326053,0.24136719,0.000152
 33,-0.00004935,0.00006486,-0.00054069,0.00037139,-0.00055646,0.0000713
 6,-0.00031632,0.00005457,0.00225930,-0.00100827,-0.00018315,0.01234934
 ,0.02169250,-0.00568444,-0.00477166,0.00298739,-0.00207191,-0.00050249
 ,-0.00047362,-0.00063262,-0.00442401,0.00075435,0.00142913,-0.00026341
 ,-0.00036638,0.00037214,0.00003519,0.00000966,0.00002004,-0.00001897,0
 .00000418,-0.00002831,-0.00000756,0.00000044,0.00001381,-0.00000371,-0
 .00000088,-0.00000310,-0.00000023,-0.00000079,-0.00000180,0.00000166,0
 .00000048,-0.00000306,0.00001438,0.00000480,-0.00000482,-0.00003189,0.
 00001652,0.00002436,-0.00001018,-0.00001157,-0.00000589,0.00000090,0.0
 0000910,-0.00000044,0.00000070,-0.00001187,-0.00000269,-0.00000200,-0.
 00000167,0.00000205,-0.00000157,0.00000386,0.00000036,0.00000051,-0.00
 000161,-0.00000024,0.00000009,-0.00000083,0.00000046,-0.00000087,-0.00
 000009,-0.00000026,0.00000041,0.00000132,0.00000073,-0.00000014,-0.000
 00058,0.00000007,-0.00000025,0.00000032,0.00000004,-0.00000007,0.00000
 041,0.00000037,-0.00000008,-0.00000059,-0.00000070,0.00000063,-0.00000
 068,0.00000036,-0.00000022,0.00000187,-0.00000158,0.00000143,-0.000000
 95,0.00000089,0.00000054,0.00000161,-0.00000067,0.00000106,-0.00000212
 ,-0.00000013,0.00000018,-0.00000106,0.00000099,-0.00000227,-0.00000002
 ,0.00000193,0.00000098,-0.00000042,-0.00000215,-0.00010543,-0.00004309
 ,-0.00005347,-0.00000191,-0.00003330,-0.00001752,-0.00701433,-0.012190
 51,0.00926465,0.03991376,0.09551039,-0.09646790,-0.00003148,-0.0000094
 7,0.00000894,-0.00001996,-0.00002530,0.00010042,-0.00005624,0.00005299
 ,0.00000353,0.00011519,-0.00057193,-0.00022445,-0.00004786,-0.00000240
 ,-0.00000099,-0.00003134,-0.00000314,-0.00001230,0.00009911,0.00002978
 ,0.00007669,0.00004487,-0.00006155,0.00036409,-0.00052045,0.00008132,-
 0.00013069,0.00059233,0.00113815,-0.00041919,0.00039146,-0.00030477,-0
 .00028068,-0.00000413,-0.00004077,-0.00001530,0.00000313,-0.00000174,-
 0.00000434,-0.00000081,-0.00000094,-0.00000023,0.00000145,0.00000017,0
 .00000014,0.00000109,0.00000090,0.00000028,0.00000012,0.00000490,0.000
 00315,-0.00000006,0.00000092,0.00000056,0.00000090,-0.00000008,-0.0000
 0082,0.00000041,-0.00000037,-0.00000118,0.00000047,-0.00000040,0.00000
 050,0.00000072,-0.00000043,-0.00000014,0.00000002,-0.00000051,-0.00000
 005,-0.00000007,0.00000021,-0.00000003,0.00000005,-0.00000003,-0.00000
 008,-0.00000018,-0.00000006,-0.00000041,0.,-0.00000043,-0.00000001,0.0
 0000010,-0.00000002,0.00000008,0.00000017,0.00000006,0.00000047,-0.000
 00049,0.00000024,-0.00000067,0.00000071,0.00000049,-0.00000045,0.00000
 079,0.00000009,-0.00000028,0.00000009,0.00000038,-0.00000028,-0.000000
 35,-0.00000117,-0.00000010,0.00000069,-0.00000063,-0.00000132,-0.00001
 116,0.00002170,-0.00002617,0.00203851,-0.00137104,-0.00067256,-0.03966
 854,-0.10578915,0.09570536\\0.00000037,0.00000016,-0.00000002,-0.00000
 129,0.00000192,0.00000162,0.00000042,0.00000058,0.00000004,0.00000085,
 -0.00000246,-0.00000197,0.00000055,-0.00000058,0.00000318,0.00000283,0
 .00000201,0.00000109,-0.00000129,0.00000230,-0.00000261,-0.00000232,-0
 .00000420,0.00000177,0.00000118,0.00000218,-0.00000181,-0.00000275,-0.
 00000077,-0.00000113,0.00000335,0.00000141,0.00000174,-0.00000080,-0.0
 0000166,-0.00000174,0.00000309,0.00000037,0.00000075,-0.00000138,-0.00
 000035,0.00000245,-0.00000140,-0.00000179,-0.00000116,-0.00000004,0.00
 000202,0.00000396,0.00000217,-0.00000111,-0.00000598,-0.00000306,-0.00
 000328,0.00000203,-0.00000210,0.00000116,0.00000040,0.00000197,-0.0000
 0119,0.00000069,0.00000153,0.00000092,0.00000122,-0.00000016,-0.000001
 13,-0.00000485,-0.00000127,0.00000201,0.00000170,0.00000028,-0.0000008
 2,-0.00000034,0.00000080,-0.00000008,-0.00000142,-0.00000436,-0.000001
 31,-0.00000169,0.00000061,0.00000503,0.00000093,0.00000051,-0.00000227
 ,-0.00000163,0.00000206,-0.00000174,-0.00000097,-0.00000185,0.00000187
 ,0.00000084,0.00000271,-0.00000235,0.00000298,0.00000128,-0.00000202,-
 0.00000123,-0.00000185,0.00000304,0.00000116,0.00000055,-0.00000268,0.
 00000033,-0.00000263,0.00000159,0.00000129,0.00000229,0.00000152,-0.00
 000080,0.00000105,-0.00000241,-0.00000031,0.00000102,0.00000273,-0.000
 00038,0.00000274,-0.00000340,0.00000637,-0.00000636,0.00000167,-0.0000
 0329,0.00000380,0.00000182,-0.00000051,-0.00000260,-0.00000074,-0.0000
 0196,-0.00000036,0.00000040,-0.00000022,-0.00000017,0.00000035,-0.0000
 0022,-0.00000045,0.00000029,-0.00000012,-0.00000005,-0.00000017,0.0000
 0007,0.00000004,0.00000069,-0.00000014,-0.00000018,0.00000028,0.,-0.00
 000039,0.00000032,0.00000017,-0.00000061,0.00000068,0.00000050,0.00000
 004,0.00000013,0.00000029,-0.00000040,-0.00000011,0.00000008,0.0000015
 9,-0.00000151,0.00000109,0.00000042,-0.00000037,0.00000041,0.00000008,
 -0.00000023,0.00000014,-0.00000020,-0.00000052,0.00000010,0.00000066,-
 0.00000082,-0.00000022,0.00000024,0.,0.00000115,-0.00000279,0.00000098
 ,-0.00000112,0.00000016,0.00000025,-0.00000014,-0.00000044,-0.00000028
 ,0.00000044,0.00000029,-0.00000066,0.00000012,0.00000076,0.00000039,-0
 .00000120,0.00000069,-0.00000064,-0.00000109,-0.00000087,0.00000095,-0
 .00000051,-0.00000028,0.00000018,-0.00000114,-0.00000039,-0.00000027,-
 0.00000031,-0.00000028,0.00000027,0.00000011,0.00000047,0.00000051,-0.
 00000011,-0.00000039,0.00000011,-0.00000091,0.00000054,-0.00000081,-0.
 00000081,0.00000079,0.00000045,-0.00000143,-0.00000015,0.00000044,0.00
 000016,0.00000016,0.00000009,0.00000058,0.00000052,-0.00000015,0.00000
 068,-0.00000048,-0.00000049,0.00000054,0.00000004,0.00000079,0.0000001
 0,0.00000119,0.00000046,0.00000170,-0.00000036,-0.00000008,0.00000039,
 0.00000005,0.00000012,0.00000013\\\@
 The archive entry for this job was punched.


 HERE WE GO......
 SLIDING DOWN THE RAZOR BLADE OF LIFE......
                                 TOM LEHRER
 Job cpu time:       0 days  9 hours 12 minutes 50.0 seconds.
 Elapsed time:       0 days  0 hours 17 minutes 23.0 seconds.
 File lengths (MBytes):  RWF=   3768 Int=      0 D2E=      0 Chk=     40 Scr=      1
 Normal termination of Gaussian 16 at Tue Dec 10 01:53:54 2024.
