 Entering Gaussian System, Link 0=g16
 Initial command:
 /public/software/apps/Gaussian/g16/l1.exe "/tmp/Gau-104360.inp" -scrdir="/tmp/"
 Entering Link 1 = /public/software/apps/Gaussian/g16/l1.exe PID=    104361.
  
 Copyright (c) 1988-2019, Gaussian, Inc.  All Rights Reserved.
  
 This is part of the Gaussian(R) 16 program.  It is based on
 the Gaussian(R) 09 system (copyright 2009, Gaussian, Inc.),
 the Gaussian(R) 03 system (copyright 2003, Gaussian, Inc.),
 the Gaussian(R) 98 system (copyright 1998, Gaussian, Inc.),
 the Gaussian(R) 94 system (copyright 1995, Gaussian, Inc.),
 the Gaussian 92(TM) system (copyright 1992, Gaussian, Inc.),
 the Gaussian 90(TM) system (copyright 1990, Gaussian, Inc.),
 the Gaussian 88(TM) system (copyright 1988, Gaussian, Inc.),
 the Gaussian 86(TM) system (copyright 1986, Carnegie Mellon
 University), and the Gaussian 82(TM) system (copyright 1983,
 Carnegie Mellon University). Gaussian is a federally registered
 trademark of Gaussian, Inc.
  
 This software contains proprietary and confidential information,
 including trade secrets, belonging to Gaussian, Inc.
  
 This software is provided under written license and may be
 used, copied, transmitted, or stored only in accord with that
 written license.
  
 The following legend is applicable only to US Government
 contracts under FAR:
  
                    RESTRICTED RIGHTS LEGEND
  
 Use, reproduction and disclosure by the US Government is
 subject to restrictions as set forth in subparagraphs (a)
 and (c) of the Commercial Computer Software - Restricted
 Rights clause in FAR 52.227-19.
  
 Gaussian, Inc.
 340 Quinnipiac St., Bldg. 40, Wallingford CT 06492
  
  
 ---------------------------------------------------------------
 Warning -- This program may not be used in any manner that
 competes with the business of Gaussian, Inc. or will provide
 assistance to any competitor of Gaussian, Inc.  The licensee
 of this program is prohibited from giving any competitor of
 Gaussian, Inc. access to this program.  By using this program,
 the user acknowledges that Gaussian, Inc. is engaged in the
 business of creating and licensing software in the field of
 computational chemistry and represents and warrants to the
 licensee that it is not a competitor of Gaussian, Inc. and that
 it will not use this program in any manner prohibited above.
 ---------------------------------------------------------------
  

 Cite this work as:
 Gaussian 16, Revision C.01,
 M. J. Frisch, G. W. Trucks, H. B. Schlegel, G. E. Scuseria, 
 M. A. Robb, J. R. Cheeseman, G. Scalmani, V. Barone, 
 G. A. Petersson, H. Nakatsuji, X. Li, M. Caricato, A. V. Marenich, 
 J. Bloino, B. G. Janesko, R. Gomperts, B. Mennucci, H. P. Hratchian, 
 J. V. Ortiz, A. F. Izmaylov, J. L. Sonnenberg, D. Williams-Young, 
 F. Ding, F. Lipparini, F. Egidi, J. Goings, B. Peng, A. Petrone, 
 T. Henderson, D. Ranasinghe, V. G. Zakrzewski, J. Gao, N. Rega, 
 G. Zheng, W. Liang, M. Hada, M. Ehara, K. Toyota, R. Fukuda, 
 J. Hasegawa, M. Ishida, T. Nakajima, Y. Honda, O. Kitao, H. Nakai, 
 T. Vreven, K. Throssell, J. A. Montgomery, Jr., J. E. Peralta, 
 F. Ogliaro, M. J. Bearpark, J. J. Heyd, E. N. Brothers, K. N. Kudin, 
 V. N. Staroverov, T. A. Keith, R. Kobayashi, J. Normand, 
 K. Raghavachari, A. P. Rendell, J. C. Burant, S. S. Iyengar, 
 J. Tomasi, M. Cossi, J. M. Millam, M. Klene, C. Adamo, R. Cammi, 
 J. W. Ochterski, R. L. Martin, K. Morokuma, O. Farkas, 
 J. B. Foresman, and D. J. Fox, Gaussian, Inc., Wallingford CT, 2019.
 
 ******************************************
 Gaussian 16:  ES64L-G16RevC.01  3-Jul-2019
                11-Aug-2024 
 ******************************************
 %nprocshared=32
 Will use up to   32 processors via shared memory.
 %mem=100GB
 ------------------------------------------
 #p opt freq b3lyp/def2svpp em=gd3bj nosymm
 ------------------------------------------
 1/18=20,19=15,26=3,38=1/1,3;
 2/9=110,12=2,15=1,17=6,18=5,40=1/2;
 3/5=43,7=202,11=2,25=1,30=1,71=1,74=-5,124=41/1,2,3;
 4//1;
 5/5=2,38=5/2;
 6/7=2,8=2,9=2,10=2,28=1/1;
 7/30=1/1,2,3,16;
 1/18=20,19=15,26=3/3(2);
 2/9=110,15=1/2;
 99//99;
 2/9=110,15=1/2;
 3/5=43,7=202,11=2,25=1,30=1,71=1,74=-5,124=41/1,2,3;
 4/5=5,16=3,69=1/1;
 5/5=2,38=5/2;
 7/30=1/1,2,3,16;
 1/18=20,19=15,26=3/3(-5);
 2/9=110,15=1/2;
 6/7=2,8=2,9=2,10=2,19=2,28=1/1;
 99/9=1/99;
 Leave Link    1 at Sun Aug 11 14:05:47 2024, MaxMem= 13421772800 cpu:               1.4 elap:               0.0
 (Enter /public/software/apps/Gaussian/g16/l101.exe)
 ----------------------
 $$$$Singlemol####0????
 ----------------------
 Symbolic Z-matrix:
 Charge =  0 Multiplicity = 1
 O                    -1.78689  -1.04415   0.10146 
 C                    -1.70985  -0.00645  -0.769 
 C                    -2.83419   0.85517  -0.87159 
 C                    -4.05232   0.58315  -0.09504 
 C                    -4.71494   1.62261   0.55134 
 C                    -5.87891   1.3755    1.26425 
 C                    -6.54945   2.5364    1.94793 
 F                    -7.71804   2.21898   2.51234 
 F                    -6.79601   3.54392   1.09064 
 F                    -5.78014   3.0582    2.91989 
 C                    -6.40686   0.09718   1.35404 
 C                    -5.74282  -0.93422   0.70379 
 C                    -6.28349  -2.33518   0.80674 
 F                    -7.62012  -2.36791   0.8973 
 F                    -5.81506  -2.97426   1.89418 
 F                    -5.95199  -3.09545  -0.24715 
 C                    -4.57875  -0.70364  -0.01076 
 C                    -2.76783   1.94528  -1.70411 
 C                    -1.62765   2.21821  -2.48155 
 C                    -1.56926   3.32594  -3.35275 
 C                    -0.4565    3.56013  -4.11054 
 C                     0.64219   2.69043  -4.03675 
 C                     0.61935   1.6098   -3.19949 
 C                    -0.50881   1.34911  -2.39195 
 C                    -0.5677    0.24092  -1.50683 
 C                     0.60236  -0.66477  -1.34988 
 C                     1.72245  -0.2106   -0.67904 
 O                     1.79808   1.05198  -0.18835 
 C                     2.84525  -1.0612   -0.49606 
 C                     4.04355  -0.57446   0.20287 
 C                     5.30638  -0.85556  -0.31097 
 C                     6.44514  -0.41593   0.34768 
 C                     7.78349  -0.73737  -0.26043 
 F                     7.96257  -0.1078   -1.43626 
 F                     8.81635  -0.39845   0.51618 
 F                     7.91097  -2.05073  -0.52173 
 C                     6.35612   0.31211   1.5236 
 C                     5.09358   0.5854    2.03263 
 C                     4.97824   1.39678   3.29534 
 F                     5.02767   2.71837   3.046 
 F                     3.82895   1.17932   3.94912 
 F                     5.96804   1.14091   4.16286 
 C                     3.94693   0.15455   1.38576 
 C                     2.80136  -2.3425   -0.98858 
 C                     1.6763   -2.83896  -1.67134 
 C                     1.63232  -4.15646  -2.17331 
 C                     0.53473  -4.60925  -2.84962 
 C                    -0.56229  -3.76021  -3.06123 
 C                    -0.55283  -2.47911  -2.58397 
 C                     0.55845  -1.9864   -1.86655 
 H                    -0.95859  -1.54434   0.08737 
 H                    -4.31788   2.62596   0.51232 
 H                    -7.31297  -0.09128   1.90842 
 H                    -4.08699  -1.52299  -0.51019 
 H                    -3.62285   2.59851  -1.79468 
 H                    -2.42462   3.98282  -3.40983 
 H                    -0.41759   4.40919  -4.77571 
 H                     1.50967   2.87854  -4.65101 
 H                     1.46377   0.9374   -3.15663 
 H                     1.01579   1.55438  -0.45672 
 H                     5.40494  -1.40666  -1.23428 
 H                     7.24346   0.65234   2.0343 
 H                     2.97953   0.37752   1.80611 
 H                     3.64352  -3.00052  -0.83411 
 H                     2.48667  -4.7977   -2.01431 
 H                     0.50626  -5.61831  -3.23147 
 H                    -1.41764  -4.12564  -3.60901 
 H                    -1.39475  -1.82633  -2.76284 
 
 ITRead=  0  0  0  0  0  0  0  0  0  0  0  0  0  0  0  0  0  0  0  0
 ITRead=  0  0  0  0  0  0  0  0  0  0  0  0  0  0  0  0  0  0  0  0
 ITRead=  0  0  0  0  0  0  0  0  0  0  0  0  0  0  0  0  0  0  0  0
 ITRead=  0  0  0  0  0  0  0  0
 MicOpt= -1 -1 -1 -1 -1 -1 -1 -1 -1 -1 -1 -1 -1 -1 -1 -1 -1 -1 -1 -1
 MicOpt= -1 -1 -1 -1 -1 -1 -1 -1 -1 -1 -1 -1 -1 -1 -1 -1 -1 -1 -1 -1
 MicOpt= -1 -1 -1 -1 -1 -1 -1 -1 -1 -1 -1 -1 -1 -1 -1 -1 -1 -1 -1 -1
 MicOpt= -1 -1 -1 -1 -1 -1 -1 -1
 NAtoms=     68 NQM=       68 NQMF=       0 NMMI=      0 NMMIF=      0
                NMic=       0 NMicF=      0.
                    Isotopes and Nuclear Properties:
 (Nuclear quadrupole moments (NQMom) in fm**2, nuclear magnetic moments (NMagM)
  in nuclear magnetons)

  Atom         1           2           3           4           5           6           7           8           9          10
 IAtWgt=          16          12          12          12          12          12          12          19          19          19
 AtmWgt=  15.9949146  12.0000000  12.0000000  12.0000000  12.0000000  12.0000000  12.0000000  18.9984032  18.9984032  18.9984032
 NucSpn=           0           0           0           0           0           0           0           1           1           1
 AtZEff=  -0.0000000  -0.0000000  -0.0000000  -0.0000000  -0.0000000  -0.0000000  -0.0000000  -0.0000000  -0.0000000  -0.0000000
 NQMom=    0.0000000   0.0000000   0.0000000   0.0000000   0.0000000   0.0000000   0.0000000   0.0000000   0.0000000   0.0000000
 NMagM=    0.0000000   0.0000000   0.0000000   0.0000000   0.0000000   0.0000000   0.0000000   2.6288670   2.6288670   2.6288670
 AtZNuc=   8.0000000   6.0000000   6.0000000   6.0000000   6.0000000   6.0000000   6.0000000   9.0000000   9.0000000   9.0000000

  Atom        11          12          13          14          15          16          17          18          19          20
 IAtWgt=          12          12          12          19          19          19          12          12          12          12
 AtmWgt=  12.0000000  12.0000000  12.0000000  18.9984032  18.9984032  18.9984032  12.0000000  12.0000000  12.0000000  12.0000000
 NucSpn=           0           0           0           1           1           1           0           0           0           0
 AtZEff=  -0.0000000  -0.0000000  -0.0000000  -0.0000000  -0.0000000  -0.0000000  -0.0000000  -0.0000000  -0.0000000  -0.0000000
 NQMom=    0.0000000   0.0000000   0.0000000   0.0000000   0.0000000   0.0000000   0.0000000   0.0000000   0.0000000   0.0000000
 NMagM=    0.0000000   0.0000000   0.0000000   2.6288670   2.6288670   2.6288670   0.0000000   0.0000000   0.0000000   0.0000000
 AtZNuc=   6.0000000   6.0000000   6.0000000   9.0000000   9.0000000   9.0000000   6.0000000   6.0000000   6.0000000   6.0000000

  Atom        21          22          23          24          25          26          27          28          29          30
 IAtWgt=          12          12          12          12          12          12          12          16          12          12
 AtmWgt=  12.0000000  12.0000000  12.0000000  12.0000000  12.0000000  12.0000000  12.0000000  15.9949146  12.0000000  12.0000000
 NucSpn=           0           0           0           0           0           0           0           0           0           0
 AtZEff=  -0.0000000  -0.0000000  -0.0000000  -0.0000000  -0.0000000  -0.0000000  -0.0000000  -0.0000000  -0.0000000  -0.0000000
 NQMom=    0.0000000   0.0000000   0.0000000   0.0000000   0.0000000   0.0000000   0.0000000   0.0000000   0.0000000   0.0000000
 NMagM=    0.0000000   0.0000000   0.0000000   0.0000000   0.0000000   0.0000000   0.0000000   0.0000000   0.0000000   0.0000000
 AtZNuc=   6.0000000   6.0000000   6.0000000   6.0000000   6.0000000   6.0000000   6.0000000   8.0000000   6.0000000   6.0000000

  Atom        31          32          33          34          35          36          37          38          39          40
 IAtWgt=          12          12          12          19          19          19          12          12          12          19
 AtmWgt=  12.0000000  12.0000000  12.0000000  18.9984032  18.9984032  18.9984032  12.0000000  12.0000000  12.0000000  18.9984032
 NucSpn=           0           0           0           1           1           1           0           0           0           1
 AtZEff=  -0.0000000  -0.0000000  -0.0000000  -0.0000000  -0.0000000  -0.0000000  -0.0000000  -0.0000000  -0.0000000  -0.0000000
 NQMom=    0.0000000   0.0000000   0.0000000   0.0000000   0.0000000   0.0000000   0.0000000   0.0000000   0.0000000   0.0000000
 NMagM=    0.0000000   0.0000000   0.0000000   2.6288670   2.6288670   2.6288670   0.0000000   0.0000000   0.0000000   2.6288670
 AtZNuc=   6.0000000   6.0000000   6.0000000   9.0000000   9.0000000   9.0000000   6.0000000   6.0000000   6.0000000   9.0000000

  Atom        41          42          43          44          45          46          47          48          49          50
 IAtWgt=          19          19          12          12          12          12          12          12          12          12
 AtmWgt=  18.9984032  18.9984032  12.0000000  12.0000000  12.0000000  12.0000000  12.0000000  12.0000000  12.0000000  12.0000000
 NucSpn=           1           1           0           0           0           0           0           0           0           0
 AtZEff=  -0.0000000  -0.0000000  -0.0000000  -0.0000000  -0.0000000  -0.0000000  -0.0000000  -0.0000000  -0.0000000  -0.0000000
 NQMom=    0.0000000   0.0000000   0.0000000   0.0000000   0.0000000   0.0000000   0.0000000   0.0000000   0.0000000   0.0000000
 NMagM=    2.6288670   2.6288670   0.0000000   0.0000000   0.0000000   0.0000000   0.0000000   0.0000000   0.0000000   0.0000000
 AtZNuc=   9.0000000   9.0000000   6.0000000   6.0000000   6.0000000   6.0000000   6.0000000   6.0000000   6.0000000   6.0000000

  Atom        51          52          53          54          55          56          57          58          59          60
 IAtWgt=           1           1           1           1           1           1           1           1           1           1
 AtmWgt=   1.0078250   1.0078250   1.0078250   1.0078250   1.0078250   1.0078250   1.0078250   1.0078250   1.0078250   1.0078250
 NucSpn=           1           1           1           1           1           1           1           1           1           1
 AtZEff=  -0.0000000  -0.0000000  -0.0000000  -0.0000000  -0.0000000  -0.0000000  -0.0000000  -0.0000000  -0.0000000  -0.0000000
 NQMom=    0.0000000   0.0000000   0.0000000   0.0000000   0.0000000   0.0000000   0.0000000   0.0000000   0.0000000   0.0000000
 NMagM=    2.7928460   2.7928460   2.7928460   2.7928460   2.7928460   2.7928460   2.7928460   2.7928460   2.7928460   2.7928460
 AtZNuc=   1.0000000   1.0000000   1.0000000   1.0000000   1.0000000   1.0000000   1.0000000   1.0000000   1.0000000   1.0000000

  Atom        61          62          63          64          65          66          67          68
 IAtWgt=           1           1           1           1           1           1           1           1
 AtmWgt=   1.0078250   1.0078250   1.0078250   1.0078250   1.0078250   1.0078250   1.0078250   1.0078250
 NucSpn=           1           1           1           1           1           1           1           1
 AtZEff=  -0.0000000  -0.0000000  -0.0000000  -0.0000000  -0.0000000  -0.0000000  -0.0000000  -0.0000000
 NQMom=    0.0000000   0.0000000   0.0000000   0.0000000   0.0000000   0.0000000   0.0000000   0.0000000
 NMagM=    2.7928460   2.7928460   2.7928460   2.7928460   2.7928460   2.7928460   2.7928460   2.7928460
 AtZNuc=   1.0000000   1.0000000   1.0000000   1.0000000   1.0000000   1.0000000   1.0000000   1.0000000
 Leave Link  101 at Sun Aug 11 14:05:47 2024, MaxMem= 13421772800 cpu:               3.5 elap:               0.1
 (Enter /public/software/apps/Gaussian/g16/l103.exe)

 GradGradGradGradGradGradGradGradGradGradGradGradGradGradGradGradGradGrad
 Berny optimization.
 Initialization pass.
                           ----------------------------
                           !    Initial Parameters    !
                           ! (Angstroms and Degrees)  !
 --------------------------                            --------------------------
 ! Name  Definition              Value          Derivative Info.                !
 --------------------------------------------------------------------------------
 ! R1    R(1,2)                  1.3566         estimate D2E/DX2                !
 ! R2    R(1,51)                 0.9677         estimate D2E/DX2                !
 ! R3    R(2,3)                  1.4202         estimate D2E/DX2                !
 ! R4    R(2,25)                 1.3821         estimate D2E/DX2                !
 ! R5    R(3,4)                  1.47           estimate D2E/DX2                !
 ! R6    R(3,18)                 1.3733         estimate D2E/DX2                !
 ! R7    R(4,5)                  1.3919         estimate D2E/DX2                !
 ! R8    R(4,17)                 1.3929         estimate D2E/DX2                !
 ! R9    R(5,6)                  1.3871         estimate D2E/DX2                !
 ! R10   R(5,52)                 1.0798         estimate D2E/DX2                !
 ! R11   R(6,7)                  1.5049         estimate D2E/DX2                !
 ! R12   R(6,11)                 1.386          estimate D2E/DX2                !
 ! R13   R(7,8)                  1.336          estimate D2E/DX2                !
 ! R14   R(7,9)                  1.3457         estimate D2E/DX2                !
 ! R15   R(7,10)                 1.3449         estimate D2E/DX2                !
 ! R16   R(11,12)                1.3884         estimate D2E/DX2                !
 ! R17   R(11,53)                1.0788         estimate D2E/DX2                !
 ! R18   R(12,13)                1.5052         estimate D2E/DX2                !
 ! R19   R(12,17)                1.3852         estimate D2E/DX2                !
 ! R20   R(13,14)                1.3401         estimate D2E/DX2                !
 ! R21   R(13,15)                1.3455         estimate D2E/DX2                !
 ! R22   R(13,16)                1.3411         estimate D2E/DX2                !
 ! R23   R(17,54)                1.0782         estimate D2E/DX2                !
 ! R24   R(18,19)                1.4067         estimate D2E/DX2                !
 ! R25   R(18,55)                1.0798         estimate D2E/DX2                !
 ! R26   R(19,20)                1.4105         estimate D2E/DX2                !
 ! R27   R(19,24)                1.4196         estimate D2E/DX2                !
 ! R28   R(20,21)                1.3665         estimate D2E/DX2                !
 ! R29   R(20,56)                1.08           estimate D2E/DX2                !
 ! R30   R(21,22)                1.4032         estimate D2E/DX2                !
 ! R31   R(21,57)                1.0793         estimate D2E/DX2                !
 ! R32   R(22,23)                1.3672         estimate D2E/DX2                !
 ! R33   R(22,58)                1.0795         estimate D2E/DX2                !
 ! R34   R(23,24)                1.4117         estimate D2E/DX2                !
 ! R35   R(23,59)                1.0803         estimate D2E/DX2                !
 ! R36   R(24,25)                1.4195         estimate D2E/DX2                !
 ! R37   R(25,26)                1.4879         estimate D2E/DX2                !
 ! R38   R(26,27)                1.3823         estimate D2E/DX2                !
 ! R39   R(26,50)                1.4197         estimate D2E/DX2                !
 ! R40   R(27,28)                1.3567         estimate D2E/DX2                !
 ! R41   R(27,29)                1.4205         estimate D2E/DX2                !
 ! R42   R(28,60)                0.9677         estimate D2E/DX2                !
 ! R43   R(29,30)                1.4702         estimate D2E/DX2                !
 ! R44   R(29,44)                1.3734         estimate D2E/DX2                !
 ! R45   R(30,31)                1.392          estimate D2E/DX2                !
 ! R46   R(30,43)                1.3928         estimate D2E/DX2                !
 ! R47   R(31,32)                1.387          estimate D2E/DX2                !
 ! R48   R(31,61)                1.0798         estimate D2E/DX2                !
 ! R49   R(32,33)                1.5048         estimate D2E/DX2                !
 ! R50   R(32,37)                1.3859         estimate D2E/DX2                !
 ! R51   R(33,34)                1.3457         estimate D2E/DX2                !
 ! R52   R(33,35)                1.336          estimate D2E/DX2                !
 ! R53   R(33,36)                1.3452         estimate D2E/DX2                !
 ! R54   R(37,38)                1.3885         estimate D2E/DX2                !
 ! R55   R(37,62)                1.0789         estimate D2E/DX2                !
 ! R56   R(38,39)                1.5053         estimate D2E/DX2                !
 ! R57   R(38,43)                1.3852         estimate D2E/DX2                !
 ! R58   R(39,40)                1.3458         estimate D2E/DX2                !
 ! R59   R(39,41)                1.34           estimate D2E/DX2                !
 ! R60   R(39,42)                1.3408         estimate D2E/DX2                !
 ! R61   R(43,63)                1.0781         estimate D2E/DX2                !
 ! R62   R(44,45)                1.4066         estimate D2E/DX2                !
 ! R63   R(44,64)                1.0799         estimate D2E/DX2                !
 ! R64   R(45,46)                1.4106         estimate D2E/DX2                !
 ! R65   R(45,50)                1.4194         estimate D2E/DX2                !
 ! R66   R(46,47)                1.3664         estimate D2E/DX2                !
 ! R67   R(46,65)                1.08           estimate D2E/DX2                !
 ! R68   R(47,48)                1.4032         estimate D2E/DX2                !
 ! R69   R(47,66)                1.0793         estimate D2E/DX2                !
 ! R70   R(48,49)                1.3671         estimate D2E/DX2                !
 ! R71   R(48,67)                1.0795         estimate D2E/DX2                !
 ! R72   R(49,50)                1.4115         estimate D2E/DX2                !
 ! R73   R(49,68)                1.0803         estimate D2E/DX2                !
 ! A1    A(2,1,51)             109.7192         estimate D2E/DX2                !
 ! A2    A(1,2,3)              117.7385         estimate D2E/DX2                !
 ! A3    A(1,2,25)             121.7614         estimate D2E/DX2                !
 ! A4    A(3,2,25)             120.4702         estimate D2E/DX2                !
 ! A5    A(2,3,4)              120.3714         estimate D2E/DX2                !
 ! A6    A(2,3,18)             119.1514         estimate D2E/DX2                !
 ! A7    A(4,3,18)             120.4772         estimate D2E/DX2                !
 ! A8    A(3,4,5)              120.1076         estimate D2E/DX2                !
 ! A9    A(3,4,17)             121.0721         estimate D2E/DX2                !
 ! A10   A(5,4,17)             118.8095         estimate D2E/DX2                !
 ! A11   A(4,5,6)              120.3383         estimate D2E/DX2                !
 ! A12   A(4,5,52)             120.1392         estimate D2E/DX2                !
 ! A13   A(6,5,52)             119.5171         estimate D2E/DX2                !
 ! A14   A(5,6,7)              118.0312         estimate D2E/DX2                !
 ! A15   A(5,6,11)             121.1476         estimate D2E/DX2                !
 ! A16   A(7,6,11)             120.8198         estimate D2E/DX2                !
 ! A17   A(6,7,8)              113.4771         estimate D2E/DX2                !
 ! A18   A(6,7,9)              111.702          estimate D2E/DX2                !
 ! A19   A(6,7,10)             111.8849         estimate D2E/DX2                !
 ! A20   A(8,7,9)              106.664          estimate D2E/DX2                !
 ! A21   A(8,7,10)             106.6906         estimate D2E/DX2                !
 ! A22   A(9,7,10)             105.9454         estimate D2E/DX2                !
 ! A23   A(6,11,12)            118.2071         estimate D2E/DX2                !
 ! A24   A(6,11,53)            120.9535         estimate D2E/DX2                !
 ! A25   A(12,11,53)           120.838          estimate D2E/DX2                !
 ! A26   A(11,12,13)           119.1834         estimate D2E/DX2                !
 ! A27   A(11,12,17)           121.3233         estimate D2E/DX2                !
 ! A28   A(13,12,17)           119.4771         estimate D2E/DX2                !
 ! A29   A(12,13,14)           112.6831         estimate D2E/DX2                !
 ! A30   A(12,13,15)           111.8579         estimate D2E/DX2                !
 ! A31   A(12,13,16)           112.6496         estimate D2E/DX2                !
 ! A32   A(14,13,15)           106.3219         estimate D2E/DX2                !
 ! A33   A(14,13,16)           106.6068         estimate D2E/DX2                !
 ! A34   A(15,13,16)           106.2478         estimate D2E/DX2                !
 ! A35   A(4,17,12)            120.173          estimate D2E/DX2                !
 ! A36   A(4,17,54)            120.1075         estimate D2E/DX2                !
 ! A37   A(12,17,54)           119.7166         estimate D2E/DX2                !
 ! A38   A(3,18,19)            121.8858         estimate D2E/DX2                !
 ! A39   A(3,18,55)            119.5252         estimate D2E/DX2                !
 ! A40   A(19,18,55)           118.5584         estimate D2E/DX2                !
 ! A41   A(18,19,20)           121.8221         estimate D2E/DX2                !
 ! A42   A(18,19,24)           119.0217         estimate D2E/DX2                !
 ! A43   A(20,19,24)           119.155          estimate D2E/DX2                !
 ! A44   A(19,20,21)           120.7186         estimate D2E/DX2                !
 ! A45   A(19,20,56)           118.524          estimate D2E/DX2                !
 ! A46   A(21,20,56)           120.757          estimate D2E/DX2                !
 ! A47   A(20,21,22)           120.1474         estimate D2E/DX2                !
 ! A48   A(20,21,57)           120.3945         estimate D2E/DX2                !
 ! A49   A(22,21,57)           119.4563         estimate D2E/DX2                !
 ! A50   A(21,22,23)           120.5973         estimate D2E/DX2                !
 ! A51   A(21,22,58)           119.4264         estimate D2E/DX2                !
 ! A52   A(23,22,58)           119.976          estimate D2E/DX2                !
 ! A53   A(22,23,24)           120.6385         estimate D2E/DX2                !
 ! A54   A(22,23,59)           120.2118         estimate D2E/DX2                !
 ! A55   A(24,23,59)           119.1464         estimate D2E/DX2                !
 ! A56   A(19,24,23)           118.7313         estimate D2E/DX2                !
 ! A57   A(19,24,25)           118.9877         estimate D2E/DX2                !
 ! A58   A(23,24,25)           122.277          estimate D2E/DX2                !
 ! A59   A(2,25,24)            120.4576         estimate D2E/DX2                !
 ! A60   A(2,25,26)            118.9863         estimate D2E/DX2                !
 ! A61   A(24,25,26)           120.5539         estimate D2E/DX2                !
 ! A62   A(25,26,27)           119.234          estimate D2E/DX2                !
 ! A63   A(25,26,50)           120.2603         estimate D2E/DX2                !
 ! A64   A(27,26,50)           120.499          estimate D2E/DX2                !
 ! A65   A(26,27,28)           121.7661         estimate D2E/DX2                !
 ! A66   A(26,27,29)           120.4149         estimate D2E/DX2                !
 ! A67   A(28,27,29)           117.8154         estimate D2E/DX2                !
 ! A68   A(27,28,60)           109.7423         estimate D2E/DX2                !
 ! A69   A(27,29,30)           120.4826         estimate D2E/DX2                !
 ! A70   A(27,29,44)           119.1575         estimate D2E/DX2                !
 ! A71   A(30,29,44)           120.3585         estimate D2E/DX2                !
 ! A72   A(29,30,31)           119.8072         estimate D2E/DX2                !
 ! A73   A(29,30,43)           121.3656         estimate D2E/DX2                !
 ! A74   A(31,30,43)           118.8229         estimate D2E/DX2                !
 ! A75   A(30,31,32)           120.3651         estimate D2E/DX2                !
 ! A76   A(30,31,61)           120.0994         estimate D2E/DX2                !
 ! A77   A(32,31,61)           119.53           estimate D2E/DX2                !
 ! A78   A(31,32,33)           118.0736         estimate D2E/DX2                !
 ! A79   A(31,32,37)           121.1095         estimate D2E/DX2                !
 ! A80   A(33,32,37)           120.8126         estimate D2E/DX2                !
 ! A81   A(32,33,34)           111.8097         estimate D2E/DX2                !
 ! A82   A(32,33,35)           113.4855         estimate D2E/DX2                !
 ! A83   A(32,33,36)           111.799          estimate D2E/DX2                !
 ! A84   A(34,33,35)           106.6398         estimate D2E/DX2                !
 ! A85   A(34,33,36)           105.9277         estimate D2E/DX2                !
 ! A86   A(35,33,36)           106.6991         estimate D2E/DX2                !
 ! A87   A(32,37,38)           118.2211         estimate D2E/DX2                !
 ! A88   A(32,37,62)           120.9629         estimate D2E/DX2                !
 ! A89   A(38,37,62)           120.8148         estimate D2E/DX2                !
 ! A90   A(37,38,39)           118.9005         estimate D2E/DX2                !
 ! A91   A(37,38,43)           121.3507         estimate D2E/DX2                !
 ! A92   A(39,38,43)           119.7307         estimate D2E/DX2                !
 ! A93   A(38,39,40)           111.7818         estimate D2E/DX2                !
 ! A94   A(38,39,41)           112.7994         estimate D2E/DX2                !
 ! A95   A(38,39,42)           112.5387         estimate D2E/DX2                !
 ! A96   A(40,39,41)           106.335          estimate D2E/DX2                !
 ! A97   A(40,39,42)           106.27           estimate D2E/DX2                !
 ! A98   A(41,39,42)           106.6482         estimate D2E/DX2                !
 ! A99   A(30,43,38)           120.1294         estimate D2E/DX2                !
 ! A100  A(30,43,63)           120.1072         estimate D2E/DX2                !
 ! A101  A(38,43,63)           119.761          estimate D2E/DX2                !
 ! A102  A(29,44,45)           121.9331         estimate D2E/DX2                !
 ! A103  A(29,44,64)           119.4905         estimate D2E/DX2                !
 ! A104  A(45,44,64)           118.565          estimate D2E/DX2                !
 ! A105  A(44,45,46)           121.8273         estimate D2E/DX2                !
 ! A106  A(44,45,50)           118.9931         estimate D2E/DX2                !
 ! A107  A(46,45,50)           119.1785         estimate D2E/DX2                !
 ! A108  A(45,46,47)           120.7093         estimate D2E/DX2                !
 ! A109  A(45,46,65)           118.5224         estimate D2E/DX2                !
 ! A110  A(47,46,65)           120.7679         estimate D2E/DX2                !
 ! A111  A(46,47,48)           120.14           estimate D2E/DX2                !
 ! A112  A(46,47,66)           120.4052         estimate D2E/DX2                !
 ! A113  A(48,47,66)           119.4533         estimate D2E/DX2                !
 ! A114  A(47,48,49)           120.5918         estimate D2E/DX2                !
 ! A115  A(47,48,67)           119.4175         estimate D2E/DX2                !
 ! A116  A(49,48,67)           119.9904         estimate D2E/DX2                !
 ! A117  A(48,49,50)           120.6619         estimate D2E/DX2                !
 ! A118  A(48,49,68)           120.2024         estimate D2E/DX2                !
 ! A119  A(50,49,68)           119.1317         estimate D2E/DX2                !
 ! A120  A(26,50,45)           118.9968         estimate D2E/DX2                !
 ! A121  A(26,50,49)           122.2942         estimate D2E/DX2                !
 ! A122  A(45,50,49)           118.704          estimate D2E/DX2                !
 ! D1    D(51,1,2,3)          -179.1815         estimate D2E/DX2                !
 ! D2    D(51,1,2,25)           -1.1631         estimate D2E/DX2                !
 ! D3    D(1,2,3,4)             -2.5108         estimate D2E/DX2                !
 ! D4    D(1,2,3,18)           177.432          estimate D2E/DX2                !
 ! D5    D(25,2,3,4)           179.4439         estimate D2E/DX2                !
 ! D6    D(25,2,3,18)           -0.6132         estimate D2E/DX2                !
 ! D7    D(1,2,25,24)         -178.8541         estimate D2E/DX2                !
 ! D8    D(1,2,25,26)            0.6087         estimate D2E/DX2                !
 ! D9    D(3,2,25,24)           -0.889          estimate D2E/DX2                !
 ! D10   D(3,2,25,26)          178.5738         estimate D2E/DX2                !
 ! D11   D(2,3,4,5)            136.6544         estimate D2E/DX2                !
 ! D12   D(2,3,4,17)           -44.5539         estimate D2E/DX2                !
 ! D13   D(18,3,4,5)           -43.2877         estimate D2E/DX2                !
 ! D14   D(18,3,4,17)          135.504          estimate D2E/DX2                !
 ! D15   D(2,3,18,19)            1.398          estimate D2E/DX2                !
 ! D16   D(2,3,18,55)          179.3557         estimate D2E/DX2                !
 ! D17   D(4,3,18,19)         -178.6592         estimate D2E/DX2                !
 ! D18   D(4,3,18,55)           -0.7016         estimate D2E/DX2                !
 ! D19   D(3,4,5,6)            178.7667         estimate D2E/DX2                !
 ! D20   D(3,4,5,52)            -2.0859         estimate D2E/DX2                !
 ! D21   D(17,4,5,6)            -0.0522         estimate D2E/DX2                !
 ! D22   D(17,4,5,52)          179.0952         estimate D2E/DX2                !
 ! D23   D(3,4,17,12)         -178.6845         estimate D2E/DX2                !
 ! D24   D(3,4,17,54)            0.6874         estimate D2E/DX2                !
 ! D25   D(5,4,17,12)            0.1225         estimate D2E/DX2                !
 ! D26   D(5,4,17,54)          179.4945         estimate D2E/DX2                !
 ! D27   D(4,5,6,7)            179.7381         estimate D2E/DX2                !
 ! D28   D(4,5,6,11)             0.165          estimate D2E/DX2                !
 ! D29   D(52,5,6,7)             0.5854         estimate D2E/DX2                !
 ! D30   D(52,5,6,11)         -178.9877         estimate D2E/DX2                !
 ! D31   D(5,6,7,8)            174.7266         estimate D2E/DX2                !
 ! D32   D(5,6,7,9)             54.1061         estimate D2E/DX2                !
 ! D33   D(5,6,7,10)           -64.482          estimate D2E/DX2                !
 ! D34   D(11,6,7,8)            -5.6988         estimate D2E/DX2                !
 ! D35   D(11,6,7,9)          -126.3193         estimate D2E/DX2                !
 ! D36   D(11,6,7,10)          115.0925         estimate D2E/DX2                !
 ! D37   D(5,6,11,12)           -0.3383         estimate D2E/DX2                !
 ! D38   D(5,6,11,53)         -179.9295         estimate D2E/DX2                !
 ! D39   D(7,6,11,12)         -179.8995         estimate D2E/DX2                !
 ! D40   D(7,6,11,53)            0.5093         estimate D2E/DX2                !
 ! D41   D(6,11,12,13)         178.9364         estimate D2E/DX2                !
 ! D42   D(6,11,12,17)           0.4106         estimate D2E/DX2                !
 ! D43   D(53,11,12,13)         -1.4718         estimate D2E/DX2                !
 ! D44   D(53,11,12,17)       -179.9976         estimate D2E/DX2                !
 ! D45   D(11,12,13,14)         32.6046         estimate D2E/DX2                !
 ! D46   D(11,12,13,15)        -87.1211         estimate D2E/DX2                !
 ! D47   D(11,12,13,16)        153.272          estimate D2E/DX2                !
 ! D48   D(17,12,13,14)       -148.842          estimate D2E/DX2                !
 ! D49   D(17,12,13,15)         91.4323         estimate D2E/DX2                !
 ! D50   D(17,12,13,16)        -28.1746         estimate D2E/DX2                !
 ! D51   D(11,12,17,4)          -0.3085         estimate D2E/DX2                !
 ! D52   D(11,12,17,54)       -179.6829         estimate D2E/DX2                !
 ! D53   D(13,12,17,4)        -178.83           estimate D2E/DX2                !
 ! D54   D(13,12,17,54)          1.7956         estimate D2E/DX2                !
 ! D55   D(3,18,19,20)         178.936          estimate D2E/DX2                !
 ! D56   D(3,18,19,24)          -0.6646         estimate D2E/DX2                !
 ! D57   D(55,18,19,20)          0.9592         estimate D2E/DX2                !
 ! D58   D(55,18,19,24)       -178.6413         estimate D2E/DX2                !
 ! D59   D(18,19,20,21)       -179.152          estimate D2E/DX2                !
 ! D60   D(18,19,20,56)          0.6534         estimate D2E/DX2                !
 ! D61   D(24,19,20,21)          0.448          estimate D2E/DX2                !
 ! D62   D(24,19,20,56)       -179.7465         estimate D2E/DX2                !
 ! D63   D(18,19,24,23)        178.4426         estimate D2E/DX2                !
 ! D64   D(18,19,24,25)         -0.8418         estimate D2E/DX2                !
 ! D65   D(20,19,24,23)         -1.1687         estimate D2E/DX2                !
 ! D66   D(20,19,24,25)        179.5468         estimate D2E/DX2                !
 ! D67   D(19,20,21,22)          0.4722         estimate D2E/DX2                !
 ! D68   D(19,20,21,57)        179.9795         estimate D2E/DX2                !
 ! D69   D(56,20,21,22)       -179.3288         estimate D2E/DX2                !
 ! D70   D(56,20,21,57)          0.1784         estimate D2E/DX2                !
 ! D71   D(20,21,22,23)         -0.6635         estimate D2E/DX2                !
 ! D72   D(20,21,22,58)        179.1274         estimate D2E/DX2                !
 ! D73   D(57,21,22,23)        179.8246         estimate D2E/DX2                !
 ! D74   D(57,21,22,58)         -0.3845         estimate D2E/DX2                !
 ! D75   D(21,22,23,24)         -0.0873         estimate D2E/DX2                !
 ! D76   D(21,22,23,59)        179.2421         estimate D2E/DX2                !
 ! D77   D(58,22,23,24)       -179.877          estimate D2E/DX2                !
 ! D78   D(58,22,23,59)         -0.5476         estimate D2E/DX2                !
 ! D79   D(22,23,24,19)          0.9974         estimate D2E/DX2                !
 ! D80   D(22,23,24,25)       -179.7429         estimate D2E/DX2                !
 ! D81   D(59,23,24,19)       -178.3391         estimate D2E/DX2                !
 ! D82   D(59,23,24,25)          0.9206         estimate D2E/DX2                !
 ! D83   D(19,24,25,2)           1.6068         estimate D2E/DX2                !
 ! D84   D(19,24,25,26)       -177.8475         estimate D2E/DX2                !
 ! D85   D(23,24,25,2)        -177.6511         estimate D2E/DX2                !
 ! D86   D(23,24,25,26)          2.8946         estimate D2E/DX2                !
 ! D87   D(2,25,26,27)        -107.7483         estimate D2E/DX2                !
 ! D88   D(2,25,26,50)          71.3111         estimate D2E/DX2                !
 ! D89   D(24,25,26,27)         71.714          estimate D2E/DX2                !
 ! D90   D(24,25,26,50)       -109.2266         estimate D2E/DX2                !
 ! D91   D(25,26,27,28)         -1.7122         estimate D2E/DX2                !
 ! D92   D(25,26,27,29)        178.9901         estimate D2E/DX2                !
 ! D93   D(50,26,27,28)        179.2307         estimate D2E/DX2                !
 ! D94   D(50,26,27,29)         -0.067          estimate D2E/DX2                !
 ! D95   D(25,26,50,45)       -178.3759         estimate D2E/DX2                !
 ! D96   D(25,26,50,49)          2.4463         estimate D2E/DX2                !
 ! D97   D(27,26,50,45)          0.6715         estimate D2E/DX2                !
 ! D98   D(27,26,50,49)       -178.5063         estimate D2E/DX2                !
 ! D99   D(26,27,28,60)         -5.2431         estimate D2E/DX2                !
 ! D100  D(29,27,28,60)        174.0721         estimate D2E/DX2                !
 ! D101  D(26,27,29,30)        179.2554         estimate D2E/DX2                !
 ! D102  D(26,27,29,44)         -0.3046         estimate D2E/DX2                !
 ! D103  D(28,27,29,30)         -0.0696         estimate D2E/DX2                !
 ! D104  D(28,27,29,44)       -179.6296         estimate D2E/DX2                !
 ! D105  D(27,29,30,31)       -136.0433         estimate D2E/DX2                !
 ! D106  D(27,29,30,43)         44.7161         estimate D2E/DX2                !
 ! D107  D(44,29,30,31)         43.5114         estimate D2E/DX2                !
 ! D108  D(44,29,30,43)       -135.7292         estimate D2E/DX2                !
 ! D109  D(27,29,44,45)          0.0593         estimate D2E/DX2                !
 ! D110  D(27,29,44,64)       -178.6997         estimate D2E/DX2                !
 ! D111  D(30,29,44,45)       -179.5012         estimate D2E/DX2                !
 ! D112  D(30,29,44,64)          1.7398         estimate D2E/DX2                !
 ! D113  D(29,30,31,32)       -179.2166         estimate D2E/DX2                !
 ! D114  D(29,30,31,61)          1.6404         estimate D2E/DX2                !
 ! D115  D(43,30,31,32)          0.0433         estimate D2E/DX2                !
 ! D116  D(43,30,31,61)       -179.0997         estimate D2E/DX2                !
 ! D117  D(29,30,43,38)        179.1349         estimate D2E/DX2                !
 ! D118  D(29,30,43,63)         -0.2874         estimate D2E/DX2                !
 ! D119  D(31,30,43,38)         -0.1131         estimate D2E/DX2                !
 ! D120  D(31,30,43,63)       -179.5353         estimate D2E/DX2                !
 ! D121  D(30,31,32,33)       -179.423          estimate D2E/DX2                !
 ! D122  D(30,31,32,37)         -0.1722         estimate D2E/DX2                !
 ! D123  D(61,31,32,33)         -0.2751         estimate D2E/DX2                !
 ! D124  D(61,31,32,37)        178.9757         estimate D2E/DX2                !
 ! D125  D(31,32,33,34)         66.0745         estimate D2E/DX2                !
 ! D126  D(31,32,33,35)       -173.2506         estimate D2E/DX2                !
 ! D127  D(31,32,33,36)        -52.5061         estimate D2E/DX2                !
 ! D128  D(37,32,33,34)       -113.1786         estimate D2E/DX2                !
 ! D129  D(37,32,33,35)          7.4963         estimate D2E/DX2                !
 ! D130  D(37,32,33,36)        128.2408         estimate D2E/DX2                !
 ! D131  D(31,32,37,38)          0.3606         estimate D2E/DX2                !
 ! D132  D(31,32,37,62)        179.96           estimate D2E/DX2                !
 ! D133  D(33,32,37,38)        179.5909         estimate D2E/DX2                !
 ! D134  D(33,32,37,62)         -0.8097         estimate D2E/DX2                !
 ! D135  D(32,37,38,39)       -178.8824         estimate D2E/DX2                !
 ! D136  D(32,37,38,43)         -0.4327         estimate D2E/DX2                !
 ! D137  D(62,37,38,39)          1.5176         estimate D2E/DX2                !
 ! D138  D(62,37,38,43)        179.9673         estimate D2E/DX2                !
 ! D139  D(37,38,39,40)         83.8311         estimate D2E/DX2                !
 ! D140  D(37,38,39,41)       -156.3988         estimate D2E/DX2                !
 ! D141  D(37,38,39,42)        -35.6734         estimate D2E/DX2                !
 ! D142  D(43,38,39,40)        -94.6442         estimate D2E/DX2                !
 ! D143  D(43,38,39,41)         25.1259         estimate D2E/DX2                !
 ! D144  D(43,38,39,42)        145.8512         estimate D2E/DX2                !
 ! D145  D(37,38,43,30)          0.3147         estimate D2E/DX2                !
 ! D146  D(37,38,43,63)        179.7389         estimate D2E/DX2                !
 ! D147  D(39,38,43,30)        178.7517         estimate D2E/DX2                !
 ! D148  D(39,38,43,63)         -1.824          estimate D2E/DX2                !
 ! D149  D(29,44,45,46)       -179.8366         estimate D2E/DX2                !
 ! D150  D(29,44,45,50)          0.5467         estimate D2E/DX2                !
 ! D151  D(64,44,45,46)         -1.0666         estimate D2E/DX2                !
 ! D152  D(64,44,45,50)        179.3168         estimate D2E/DX2                !
 ! D153  D(44,45,46,47)       -179.0803         estimate D2E/DX2                !
 ! D154  D(44,45,46,65)          0.6978         estimate D2E/DX2                !
 ! D155  D(50,45,46,47)          0.5357         estimate D2E/DX2                !
 ! D156  D(50,45,46,65)       -179.6862         estimate D2E/DX2                !
 ! D157  D(44,45,50,26)         -0.9004         estimate D2E/DX2                !
 ! D158  D(44,45,50,49)        178.3072         estimate D2E/DX2                !
 ! D159  D(46,45,50,26)        179.4727         estimate D2E/DX2                !
 ! D160  D(46,45,50,49)         -1.3197         estimate D2E/DX2                !
 ! D161  D(45,46,47,48)          0.4609         estimate D2E/DX2                !
 ! D162  D(45,46,47,66)       -179.9912         estimate D2E/DX2                !
 ! D163  D(65,46,47,48)       -179.3122         estimate D2E/DX2                !
 ! D164  D(65,46,47,66)          0.2357         estimate D2E/DX2                !
 ! D165  D(46,47,48,49)         -0.6623         estimate D2E/DX2                !
 ! D166  D(46,47,48,67)        179.1467         estimate D2E/DX2                !
 ! D167  D(66,47,48,49)        179.7854         estimate D2E/DX2                !
 ! D168  D(66,47,48,67)         -0.4056         estimate D2E/DX2                !
 ! D169  D(47,48,49,50)         -0.1561         estimate D2E/DX2                !
 ! D170  D(47,48,49,68)        179.1122         estimate D2E/DX2                !
 ! D171  D(67,48,49,50)       -179.964          estimate D2E/DX2                !
 ! D172  D(67,48,49,68)         -0.6957         estimate D2E/DX2                !
 ! D173  D(48,49,50,26)       -179.6793         estimate D2E/DX2                !
 ! D174  D(48,49,50,45)          1.1406         estimate D2E/DX2                !
 ! D175  D(68,49,50,26)          1.0446         estimate D2E/DX2                !
 ! D176  D(68,49,50,45)       -178.1355         estimate D2E/DX2                !
 --------------------------------------------------------------------------------
 Trust Radius=3.00D-01 FncErr=1.00D-07 GrdErr=1.00D-06 EigMax=2.50D+02 EigMin=1.00D-04
 Number of steps in this run=    381 maximum allowed number of steps=    408.
 GradGradGradGradGradGradGradGradGradGradGradGradGradGradGradGradGradGrad

 Leave Link  103 at Sun Aug 11 14:05:47 2024, MaxMem= 13421772800 cpu:               0.8 elap:               0.0
 (Enter /public/software/apps/Gaussian/g16/l202.exe)
 Symmetry turned off by external request.
 Stoichiometry    C36H18F12O2
 Framework group  C1[X(C36H18F12O2)]
 Deg. of freedom   198
 Full point group                 C1      NOp   1
                          Input orientation:                          
 ---------------------------------------------------------------------
 Center     Atomic      Atomic             Coordinates (Angstroms)
 Number     Number       Type             X           Y           Z
 ---------------------------------------------------------------------
      1          8           0       -1.786889   -1.044146    0.101460
      2          6           0       -1.709848   -0.006454   -0.769004
      3          6           0       -2.834190    0.855167   -0.871588
      4          6           0       -4.052319    0.583151   -0.095039
      5          6           0       -4.714944    1.622614    0.551341
      6          6           0       -5.878913    1.375504    1.264248
      7          6           0       -6.549448    2.536395    1.947930
      8          9           0       -7.718037    2.218976    2.512341
      9          9           0       -6.796010    3.543921    1.090637
     10          9           0       -5.780139    3.058202    2.919885
     11          6           0       -6.406855    0.097177    1.354041
     12          6           0       -5.742821   -0.934221    0.703791
     13          6           0       -6.283492   -2.335179    0.806743
     14          9           0       -7.620123   -2.367915    0.897300
     15          9           0       -5.815056   -2.974259    1.894179
     16          9           0       -5.951985   -3.095449   -0.247151
     17          6           0       -4.578751   -0.703637   -0.010756
     18          6           0       -2.767825    1.945276   -1.704106
     19          6           0       -1.627654    2.218213   -2.481549
     20          6           0       -1.569263    3.325944   -3.352749
     21          6           0       -0.456504    3.560128   -4.110536
     22          6           0        0.642193    2.690431   -4.036747
     23          6           0        0.619351    1.609802   -3.199488
     24          6           0       -0.508808    1.349114   -2.391945
     25          6           0       -0.567696    0.240919   -1.506828
     26          6           0        0.602361   -0.664771   -1.349877
     27          6           0        1.722445   -0.210600   -0.679041
     28          8           0        1.798078    1.051979   -0.188345
     29          6           0        2.845249   -1.061196   -0.496064
     30          6           0        4.043553   -0.574463    0.202874
     31          6           0        5.306383   -0.855559   -0.310969
     32          6           0        6.445143   -0.415934    0.347679
     33          6           0        7.783492   -0.737365   -0.260425
     34          9           0        7.962573   -0.107800   -1.436263
     35          9           0        8.816355   -0.398445    0.516181
     36          9           0        7.910972   -2.050733   -0.521725
     37          6           0        6.356122    0.312106    1.523599
     38          6           0        5.093584    0.585404    2.032628
     39          6           0        4.978243    1.396780    3.295335
     40          9           0        5.027667    2.718372    3.045995
     41          9           0        3.828950    1.179322    3.949124
     42          9           0        5.968037    1.140905    4.162864
     43          6           0        3.946934    0.154554    1.385760
     44          6           0        2.801362   -2.342499   -0.988575
     45          6           0        1.676304   -2.838964   -1.671339
     46          6           0        1.632316   -4.156464   -2.173312
     47          6           0        0.534729   -4.609246   -2.849615
     48          6           0       -0.562287   -3.760214   -3.061228
     49          6           0       -0.552828   -2.479112   -2.583968
     50          6           0        0.558453   -1.986400   -1.866552
     51          1           0       -0.958589   -1.544337    0.087366
     52          1           0       -4.317881    2.625955    0.512323
     53          1           0       -7.312966   -0.091279    1.908419
     54          1           0       -4.086987   -1.522987   -0.510187
     55          1           0       -3.622850    2.598513   -1.794679
     56          1           0       -2.424616    3.982816   -3.409826
     57          1           0       -0.417586    4.409187   -4.775707
     58          1           0        1.509665    2.878536   -4.651012
     59          1           0        1.463773    0.937400   -3.156629
     60          1           0        1.015791    1.554381   -0.456719
     61          1           0        5.404941   -1.406661   -1.234284
     62          1           0        7.243460    0.652340    2.034304
     63          1           0        2.979528    0.377520    1.806107
     64          1           0        3.643523   -3.000520   -0.834108
     65          1           0        2.486668   -4.797700   -2.014308
     66          1           0        0.506262   -5.618308   -3.231474
     67          1           0       -1.417641   -4.125641   -3.609013
     68          1           0       -1.394747   -1.826333   -2.762839
 ---------------------------------------------------------------------
 Rotational constants (GHZ):           0.0817954           0.0255026           0.0238904
 Leave Link  202 at Sun Aug 11 14:05:47 2024, MaxMem= 13421772800 cpu:               0.1 elap:               0.0
 (Enter /public/software/apps/Gaussian/g16/l301.exe)
 Standard basis: def2SVPP (5D, 7F)
 Ernie: Thresh=  0.10000D-02 Tol=  0.10000D-05 Strict=F.
   736 basis functions,  1322 primitive gaussians,   786 cartesian basis functions
   179 alpha electrons      179 beta electrons
       nuclear repulsion energy      6322.2837652657 Hartrees.
 IExCor=  402 DFT=T Ex+Corr=B3LYP ExCW=0 ScaHFX=  0.200000
 ScaDFX=  0.800000  0.720000  1.000000  0.810000 ScalE2=  1.000000  1.000000
 IRadAn=      5 IRanWt=     -1 IRanGd=            0 ICorTp=0 IEmpDi=141
 NAtoms=   68 NActive=   68 NUniq=   68 SFac= 1.00D+00 NAtFMM=   60 NAOKFM=T Big=T
 Integral buffers will be    131072 words long.
 Raffenetti 2 integral format.
 Two-electron integral symmetry is turned off.
 R6Disp:  Grimme-D3(BJ) Dispersion energy=       -0.1768247898 Hartrees.
 Nuclear repulsion after empirical dispersion term =     6322.1069404758 Hartrees.
 Leave Link  301 at Sun Aug 11 14:05:47 2024, MaxMem= 13421772800 cpu:               0.7 elap:               0.0
 (Enter /public/software/apps/Gaussian/g16/l302.exe)
 NPDir=0 NMtPBC=     1 NCelOv=     1 NCel=       1 NClECP=     1 NCelD=      1
         NCelK=      1 NCelE2=     1 NClLst=     1 CellRange=     0.0.
 One-electron integrals computed using PRISM.
   1 Symmetry operations used in ECPInt.
 ECPInt:  NShTT=   56616 NPrTT=  226832 LenC2=   39131 LenP2D=   94930.
 LDataN:  DoStor=T MaxTD1= 4 Len=   56
 NBasis=   736 RedAO= T EigKep=  1.55D-04  NBF=   736
 NBsUse=   736 1.00D-06 EigRej= -1.00D+00 NBFU=   736
 Precomputing XC quadrature grid using
 IXCGrd= 4 IRadAn=           5 IRanWt=          -1 IRanGd=           0 AccXCQ= 0.00D+00.
 Generated NRdTot=       0 NPtTot=           0 NUsed=           0 NTot=          32
 NSgBfM=   727   724   727   727   727 MxSgAt=    68 MxSgA2=    68.
 Leave Link  302 at Sun Aug 11 14:05:48 2024, MaxMem= 13421772800 cpu:              31.3 elap:               1.0
 (Enter /public/software/apps/Gaussian/g16/l303.exe)
 DipDrv:  MaxL=1.
 Leave Link  303 at Sun Aug 11 14:05:48 2024, MaxMem= 13421772800 cpu:               4.3 elap:               0.2
 (Enter /public/software/apps/Gaussian/g16/l401.exe)
 ExpMin= 1.22D-01 ExpMax= 2.89D+03 ExpMxC= 4.35D+02 IAcc=3 IRadAn=         5 AccDes= 0.00D+00
 Harris functional with IExCor=  402 and IRadAn=       5 diagonalized for initial guess.
 HarFok:  IExCor=  402 AccDes= 0.00D+00 IRadAn=         5 IDoV= 1 UseB2=F ITyADJ=14
 ICtDFT=  3500011 ScaDFX=  1.000000  1.000000  1.000000  1.000000
 FoFCou: FMM=F IPFlag=           0 FMFlag=      100000 FMFlg1=        2001
         NFxFlg=           0 DoJE=T BraDBF=F KetDBF=T FulRan=T
         wScrn=  0.000000 ICntrl=       500 IOpCl=  0 I1Cent=   200000004 NGrid=           0
         NMat0=    1 NMatS0=      1 NMatT0=    0 NMatD0=    1 NMtDS0=    0 NMtDT0=    0
 Symmetry not used in FoFCou.
 Harris En= -2729.26864493280    
 JPrj=0 DoOrth=F DoCkMO=F.
 Leave Link  401 at Sun Aug 11 14:05:50 2024, MaxMem= 13421772800 cpu:              58.6 elap:               1.9
 (Enter /public/software/apps/Gaussian/g16/l502.exe)
 Two-electron integral symmetry not used.
 Closed shell SCF:
 Using DIIS extrapolation, IDIIS=  1040.
 NGot= 13421772800 LenX= 13420504288 LenY= 13419885706
 Requested convergence on RMS density matrix=1.00D-08 within 128 cycles.
 Requested convergence on MAX density matrix=1.00D-06.
 Requested convergence on             energy=1.00D-06.
 No special actions if energy rises.
 Fock matrices will be formed incrementally for  20 cycles.
 Integral accuracy reduced to 1.0D-05 until final iterations.

 Cycle   1  Pass 0  IDiag  1:
 FoFJK:  IHMeth= 1 ICntrl=       0 DoSepK=F KAlg= 0 I1Cent=           0 FoldK=F
 IRaf= 750000000 NMat=       1 IRICut=       1 DoRegI=T DoRafI=F ISym2E= 0 IDoP0=0 IntGTp=1.
 FoFCou: FMM=T IPFlag=           0 FMFlag=      100000 FMFlg1=        2001
         NFxFlg=           0 DoJE=F BraDBF=F KetDBF=F FulRan=T
         wScrn=  0.000000 ICntrl=         0 IOpCl=  0 I1Cent=           0 NGrid=           0
         NMat0=    1 NMatS0=      1 NMatT0=    0 NMatD0=    1 NMtDS0=    0 NMtDT0=    0
 Symmetry not used in FoFCou.
 FMM levels:  10  Number of levels for PrismC:   9
 E= -2728.59532528228    
 DIIS: error= 2.23D-02 at cycle   1 NSaved=   1.
 NSaved= 1 IEnMin= 1 EnMin= -2728.59532528228     IErMin= 1 ErrMin= 2.23D-02
 ErrMax= 2.23D-02  0.00D+00 EMaxC= 1.00D-01 BMatC= 8.73D-01 BMatP= 8.73D-01
 IDIUse=3 WtCom= 7.77D-01 WtEn= 2.23D-01
 Coeff-Com:  0.100D+01
 Coeff-En:   0.100D+01
 Coeff:      0.100D+01
 Gap=     0.174 Goal=   None    Shift=    0.000
 GapD=    0.174 DampG=1.000 DampE=0.500 DampFc=0.5000 IDamp=-1.
 Damping current iteration by 5.00D-01
 RMSDP=4.08D-03 MaxDP=1.89D-01              OVMax= 1.84D-01

 Cycle   2  Pass 0  IDiag  1:
 RMSU=  1.93D-03    CP:  9.59D-01
 E= -2728.93923140700     Delta-E=       -0.343906124719 Rises=F Damp=T
 DIIS: error= 4.64D-03 at cycle   2 NSaved=   2.
 NSaved= 2 IEnMin= 2 EnMin= -2728.93923140700     IErMin= 2 ErrMin= 4.64D-03
 ErrMax= 4.64D-03  0.00D+00 EMaxC= 1.00D-01 BMatC= 5.42D-02 BMatP= 8.73D-01
 IDIUse=3 WtCom= 9.54D-01 WtEn= 4.64D-02
 Coeff-Com:  0.988D-01 0.901D+00
 Coeff-En:   0.151D+00 0.849D+00
 Coeff:      0.101D+00 0.899D+00
 Gap=     0.178 Goal=   None    Shift=    0.000
 RMSDP=1.44D-03 MaxDP=1.01D-01 DE=-3.44D-01 OVMax= 1.47D-01

 Cycle   3  Pass 0  IDiag  1:
 RMSU=  1.31D-03    CP:  9.25D-01  1.13D+00
 E= -2729.37849206856     Delta-E=       -0.439260661564 Rises=F Damp=F
 DIIS: error= 4.71D-03 at cycle   3 NSaved=   3.
 NSaved= 3 IEnMin= 3 EnMin= -2729.37849206856     IErMin= 2 ErrMin= 4.64D-03
 ErrMax= 4.71D-03  0.00D+00 EMaxC= 1.00D-01 BMatC= 3.90D-02 BMatP= 5.42D-02
 IDIUse=3 WtCom= 9.53D-01 WtEn= 4.71D-02
 Coeff-Com: -0.360D-02 0.453D+00 0.551D+00
 Coeff-En:   0.000D+00 0.000D+00 0.100D+01
 Coeff:     -0.343D-02 0.431D+00 0.572D+00
 Gap=     0.160 Goal=   None    Shift=    0.000
 RMSDP=5.77D-04 MaxDP=2.55D-02 DE=-4.39D-01 OVMax= 7.78D-02

 Cycle   4  Pass 0  IDiag  1:
 RMSU=  4.87D-04    CP:  9.28D-01  1.18D+00  7.76D-01
 E= -2729.40669857570     Delta-E=       -0.028206507141 Rises=F Damp=F
 DIIS: error= 2.86D-03 at cycle   4 NSaved=   4.
 NSaved= 4 IEnMin= 4 EnMin= -2729.40669857570     IErMin= 4 ErrMin= 2.86D-03
 ErrMax= 2.86D-03  0.00D+00 EMaxC= 1.00D-01 BMatC= 9.18D-03 BMatP= 3.90D-02
 IDIUse=3 WtCom= 9.71D-01 WtEn= 2.86D-02
 Coeff-Com: -0.135D-01 0.165D+00 0.358D+00 0.490D+00
 Coeff-En:   0.000D+00 0.000D+00 0.231D+00 0.769D+00
 Coeff:     -0.131D-01 0.161D+00 0.354D+00 0.498D+00
 Gap=     0.153 Goal=   None    Shift=    0.000
 RMSDP=3.06D-04 MaxDP=1.90D-02 DE=-2.82D-02 OVMax= 4.62D-02

 Cycle   5  Pass 0  IDiag  1:
 RMSU=  1.76D-04    CP:  9.26D-01  1.16D+00  8.52D-01  5.34D-01
 E= -2729.41565049849     Delta-E=       -0.008951922786 Rises=F Damp=F
 DIIS: error= 1.39D-03 at cycle   5 NSaved=   5.
 NSaved= 5 IEnMin= 5 EnMin= -2729.41565049849     IErMin= 5 ErrMin= 1.39D-03
 ErrMax= 1.39D-03  0.00D+00 EMaxC= 1.00D-01 BMatC= 1.73D-03 BMatP= 9.18D-03
 IDIUse=3 WtCom= 9.86D-01 WtEn= 1.39D-02
 Coeff-Com: -0.898D-02 0.468D-01 0.159D+00 0.340D+00 0.463D+00
 Coeff-En:   0.000D+00 0.000D+00 0.000D+00 0.161D+00 0.839D+00
 Coeff:     -0.886D-02 0.461D-01 0.157D+00 0.337D+00 0.468D+00
 Gap=     0.153 Goal=   None    Shift=    0.000
 RMSDP=1.01D-04 MaxDP=6.56D-03 DE=-8.95D-03 OVMax= 1.71D-02

 Cycle   6  Pass 0  IDiag  1:
 RMSU=  6.64D-05    CP:  9.26D-01  1.17D+00  8.39D-01  6.13D-01  6.71D-01
 E= -2729.41747148723     Delta-E=       -0.001820988738 Rises=F Damp=F
 DIIS: error= 2.86D-04 at cycle   6 NSaved=   6.
 NSaved= 6 IEnMin= 6 EnMin= -2729.41747148723     IErMin= 6 ErrMin= 2.86D-04
 ErrMax= 2.86D-04  0.00D+00 EMaxC= 1.00D-01 BMatC= 1.12D-04 BMatP= 1.73D-03
 IDIUse=3 WtCom= 9.97D-01 WtEn= 2.86D-03
 Coeff-Com: -0.363D-02 0.870D-02 0.471D-01 0.129D+00 0.262D+00 0.556D+00
 Coeff-En:   0.000D+00 0.000D+00 0.000D+00 0.000D+00 0.324D-02 0.997D+00
 Coeff:     -0.362D-02 0.868D-02 0.469D-01 0.129D+00 0.262D+00 0.558D+00
 Gap=     0.152 Goal=   None    Shift=    0.000
 RMSDP=2.84D-05 MaxDP=1.16D-03 DE=-1.82D-03 OVMax= 4.27D-03

 Cycle   7  Pass 0  IDiag  1:
 RMSU=  2.37D-05    CP:  9.26D-01  1.17D+00  8.40D-01  6.13D-01  7.10D-01
                    CP:  7.89D-01
 E= -2729.41761338347     Delta-E=       -0.000141896246 Rises=F Damp=F
 DIIS: error= 8.97D-05 at cycle   7 NSaved=   7.
 NSaved= 7 IEnMin= 7 EnMin= -2729.41761338347     IErMin= 7 ErrMin= 8.97D-05
 ErrMax= 8.97D-05  0.00D+00 EMaxC= 1.00D-01 BMatC= 1.39D-05 BMatP= 1.12D-04
 IDIUse=1 WtCom= 1.00D+00 WtEn= 0.00D+00
 Coeff-Com: -0.159D-02 0.147D-02 0.159D-01 0.512D-01 0.122D+00 0.340D+00
 Coeff-Com:  0.471D+00
 Coeff:     -0.159D-02 0.147D-02 0.159D-01 0.512D-01 0.122D+00 0.340D+00
 Coeff:      0.471D+00
 Gap=     0.153 Goal=   None    Shift=    0.000
 RMSDP=1.33D-05 MaxDP=7.19D-04 DE=-1.42D-04 OVMax= 1.19D-03

 Cycle   8  Pass 0  IDiag  1:
 RMSU=  1.17D-05    CP:  9.26D-01  1.17D+00  8.40D-01  6.12D-01  6.83D-01
                    CP:  8.20D-01  9.74D-01
 E= -2729.41764397456     Delta-E=       -0.000030591091 Rises=F Damp=F
 DIIS: error= 2.56D-05 at cycle   8 NSaved=   8.
 NSaved= 8 IEnMin= 8 EnMin= -2729.41764397456     IErMin= 8 ErrMin= 2.56D-05
 ErrMax= 2.56D-05  0.00D+00 EMaxC= 1.00D-01 BMatC= 6.32D-07 BMatP= 1.39D-05
 IDIUse=1 WtCom= 1.00D+00 WtEn= 0.00D+00
 Coeff-Com: -0.511D-03-0.624D-04 0.394D-02 0.149D-01 0.410D-01 0.128D+00
 Coeff-Com:  0.231D+00 0.581D+00
 Coeff:     -0.511D-03-0.624D-04 0.394D-02 0.149D-01 0.410D-01 0.128D+00
 Coeff:      0.231D+00 0.581D+00
 Gap=     0.153 Goal=   None    Shift=    0.000
 RMSDP=9.51D-06 MaxDP=4.01D-04 DE=-3.06D-05 OVMax= 2.54D-04

 Initial convergence to 1.0D-05 achieved.  Increase integral accuracy.
 Cycle   9  Pass 1  IDiag  1:
 E= -2729.41735714055     Delta-E=        0.000286834016 Rises=F Damp=F
 DIIS: error= 5.92D-04 at cycle   1 NSaved=   1.
 NSaved= 1 IEnMin= 1 EnMin= -2729.41735714055     IErMin= 1 ErrMin= 5.92D-04
 ErrMax= 5.92D-04  0.00D+00 EMaxC= 1.00D-01 BMatC= 1.17D-04 BMatP= 1.17D-04
 IDIUse=3 WtCom= 9.94D-01 WtEn= 5.92D-03
 Coeff-Com:  0.100D+01
 Coeff-En:   0.100D+01
 Coeff:      0.100D+01
 Gap=     0.153 Goal=   None    Shift=    0.000
 RMSDP=9.51D-06 MaxDP=4.01D-04 DE= 2.87D-04 OVMax= 1.08D-03

 Cycle  10  Pass 1  IDiag  1:
 RMSU=  5.80D-04    CP:  9.97D-01
 E= -2729.41748370332     Delta-E=       -0.000126562776 Rises=F Damp=F
 DIIS: error= 3.55D-05 at cycle   2 NSaved=   2.
 NSaved= 2 IEnMin= 2 EnMin= -2729.41748370332     IErMin= 2 ErrMin= 3.55D-05
 ErrMax= 3.55D-05  0.00D+00 EMaxC= 1.00D-01 BMatC= 7.35D-07 BMatP= 1.17D-04
 IDIUse=1 WtCom= 1.00D+00 WtEn= 0.00D+00
 Coeff-Com: -0.706D-03 0.100D+01
 Coeff:     -0.706D-03 0.100D+01
 Gap=     0.153 Goal=   None    Shift=    0.000
 RMSDP=9.14D-06 MaxDP=3.38D-04 DE=-1.27D-04 OVMax= 7.51D-04

 Cycle  11  Pass 1  IDiag  1:
 RMSU=  5.87D-06    CP:  9.97D-01  1.01D+00
 E= -2729.41748037504     Delta-E=        0.000003328285 Rises=F Damp=F
 DIIS: error= 8.08D-05 at cycle   3 NSaved=   3.
 NSaved= 3 IEnMin= 2 EnMin= -2729.41748370332     IErMin= 2 ErrMin= 3.55D-05
 ErrMax= 8.08D-05  0.00D+00 EMaxC= 1.00D-01 BMatC= 3.63D-06 BMatP= 7.35D-07
 IDIUse=1 WtCom= 1.00D+00 WtEn= 0.00D+00
 Coeff-Com: -0.673D-02 0.696D+00 0.311D+00
 Coeff:     -0.673D-02 0.696D+00 0.311D+00
 Gap=     0.153 Goal=   None    Shift=    0.000
 RMSDP=3.75D-06 MaxDP=1.64D-04 DE= 3.33D-06 OVMax= 5.08D-04

 Cycle  12  Pass 1  IDiag  1:
 RMSU=  1.48D-06    CP:  9.97D-01  1.01D+00  4.13D-01
 E= -2729.41748455463     Delta-E=       -0.000004179592 Rises=F Damp=F
 DIIS: error= 2.44D-06 at cycle   4 NSaved=   4.
 NSaved= 4 IEnMin= 4 EnMin= -2729.41748455463     IErMin= 4 ErrMin= 2.44D-06
 ErrMax= 2.44D-06  0.00D+00 EMaxC= 1.00D-01 BMatC= 5.94D-09 BMatP= 7.35D-07
 IDIUse=1 WtCom= 1.00D+00 WtEn= 0.00D+00
 Coeff-Com: -0.344D-02 0.349D+00 0.159D+00 0.495D+00
 Coeff:     -0.344D-02 0.349D+00 0.159D+00 0.495D+00
 Gap=     0.153 Goal=   None    Shift=    0.000
 RMSDP=2.06D-07 MaxDP=8.93D-06 DE=-4.18D-06 OVMax= 2.49D-05

 Cycle  13  Pass 1  IDiag  1:
 RMSU=  1.99D-07    CP:  9.97D-01  1.01D+00  4.20D-01  9.79D-01
 E= -2729.41748456032     Delta-E=       -0.000000005695 Rises=F Damp=F
 DIIS: error= 8.04D-07 at cycle   5 NSaved=   5.
 NSaved= 5 IEnMin= 5 EnMin= -2729.41748456032     IErMin= 5 ErrMin= 8.04D-07
 ErrMax= 8.04D-07  0.00D+00 EMaxC= 1.00D-01 BMatC= 6.16D-10 BMatP= 5.94D-09
 IDIUse=1 WtCom= 1.00D+00 WtEn= 0.00D+00
 Coeff-Com: -0.593D-03 0.584D-01 0.270D-01 0.251D+00 0.664D+00
 Coeff:     -0.593D-03 0.584D-01 0.270D-01 0.251D+00 0.664D+00
 Gap=     0.153 Goal=   None    Shift=    0.000
 RMSDP=6.79D-08 MaxDP=3.12D-06 DE=-5.70D-09 OVMax= 7.66D-06

 Cycle  14  Pass 1  IDiag  1:
 RMSU=  4.70D-08    CP:  9.97D-01  1.01D+00  4.20D-01  1.00D+00  8.23D-01
 E= -2729.41748456072     Delta-E=       -0.000000000393 Rises=F Damp=F
 DIIS: error= 3.10D-07 at cycle   6 NSaved=   6.
 NSaved= 6 IEnMin= 6 EnMin= -2729.41748456072     IErMin= 6 ErrMin= 3.10D-07
 ErrMax= 3.10D-07  0.00D+00 EMaxC= 1.00D-01 BMatC= 1.70D-10 BMatP= 6.16D-10
 IDIUse=1 WtCom= 1.00D+00 WtEn= 0.00D+00
 Coeff-Com: -0.113D-04-0.623D-04 0.308D-03 0.112D+00 0.430D+00 0.458D+00
 Coeff:     -0.113D-04-0.623D-04 0.308D-03 0.112D+00 0.430D+00 0.458D+00
 Gap=     0.153 Goal=   None    Shift=    0.000
 RMSDP=2.68D-08 MaxDP=2.18D-06 DE=-3.93D-10 OVMax= 3.21D-06

 Cycle  15  Pass 1  IDiag  1:
 RMSU=  1.72D-08    CP:  9.97D-01  1.01D+00  4.21D-01  1.00D+00  8.41D-01
                    CP:  5.80D-01
 E= -2729.41748456091     Delta-E=       -0.000000000196 Rises=F Damp=F
 DIIS: error= 9.04D-08 at cycle   7 NSaved=   7.
 NSaved= 7 IEnMin= 7 EnMin= -2729.41748456091     IErMin= 7 ErrMin= 9.04D-08
 ErrMax= 9.04D-08  0.00D+00 EMaxC= 1.00D-01 BMatC= 8.48D-12 BMatP= 1.70D-10
 IDIUse=1 WtCom= 1.00D+00 WtEn= 0.00D+00
 Coeff-Com:  0.196D-04-0.264D-02-0.972D-03 0.554D-01 0.227D+00 0.279D+00
 Coeff-Com:  0.442D+00
 Coeff:      0.196D-04-0.264D-02-0.972D-03 0.554D-01 0.227D+00 0.279D+00
 Coeff:      0.442D+00
 Gap=     0.153 Goal=   None    Shift=    0.000
 RMSDP=8.82D-09 MaxDP=6.35D-07 DE=-1.96D-10 OVMax= 1.25D-06

 SCF Done:  E(RB3LYP) =  -2729.41748456     A.U. after   15 cycles
            NFock= 15  Conv=0.88D-08     -V/T= 2.0076
 KE= 2.708811111923D+03 PE=-1.904907574229D+04 EE= 7.288740205329D+03
 Leave Link  502 at Sun Aug 11 14:06:42 2024, MaxMem= 13421772800 cpu:            1665.2 elap:              52.6
 (Enter /public/software/apps/Gaussian/g16/l601.exe)
 Copying SCF densities to generalized density rwf, IOpCl= 0 IROHF=0.

 **********************************************************************

            Population analysis using the SCF Density.

 **********************************************************************

 Alpha  occ. eigenvalues --  -24.72815 -24.72780 -24.72384 -24.72369 -24.72365
 Alpha  occ. eigenvalues --  -24.72259 -24.72165 -24.72090 -24.71966 -24.71954
 Alpha  occ. eigenvalues --  -24.71690 -24.71647 -19.18699 -19.18673 -10.44091
 Alpha  occ. eigenvalues --  -10.44053 -10.43931 -10.43882 -10.27904 -10.27845
 Alpha  occ. eigenvalues --  -10.23183 -10.23170 -10.23060 -10.23050 -10.22982
 Alpha  occ. eigenvalues --  -10.22981 -10.22513 -10.22507 -10.22317 -10.22311
 Alpha  occ. eigenvalues --  -10.22266 -10.22259 -10.22091 -10.22069 -10.22000
 Alpha  occ. eigenvalues --  -10.21978 -10.21826 -10.21795 -10.21441 -10.21436
 Alpha  occ. eigenvalues --  -10.21380 -10.21367 -10.20510 -10.20492 -10.20431
 Alpha  occ. eigenvalues --  -10.20416 -10.20247 -10.20226 -10.20134 -10.20116
 Alpha  occ. eigenvalues --   -1.30690  -1.30652  -1.30527  -1.30469  -1.21449
 Alpha  occ. eigenvalues --   -1.21408  -1.21226  -1.21174  -1.20742  -1.20707
 Alpha  occ. eigenvalues --   -1.20644  -1.20590  -1.08318  -1.08027  -0.90944
 Alpha  occ. eigenvalues --   -0.90717  -0.90005  -0.89232  -0.84951  -0.84899
 Alpha  occ. eigenvalues --   -0.83108  -0.81463  -0.81456  -0.80234  -0.79406
 Alpha  occ. eigenvalues --   -0.78121  -0.75418  -0.75412  -0.74521  -0.72884
 Alpha  occ. eigenvalues --   -0.71405  -0.71392  -0.70906  -0.70683  -0.67842
 Alpha  occ. eigenvalues --   -0.66999  -0.66022  -0.65195  -0.64599  -0.64329
 Alpha  occ. eigenvalues --   -0.63461  -0.63309  -0.63105  -0.60669  -0.60196
 Alpha  occ. eigenvalues --   -0.60160  -0.60088  -0.59864  -0.59742  -0.59705
 Alpha  occ. eigenvalues --   -0.59599  -0.59548  -0.58934  -0.58779  -0.57745
 Alpha  occ. eigenvalues --   -0.57326  -0.55251  -0.55009  -0.53988  -0.53915
 Alpha  occ. eigenvalues --   -0.52830  -0.52820  -0.52313  -0.51240  -0.50510
 Alpha  occ. eigenvalues --   -0.50357  -0.48463  -0.48347  -0.48269  -0.47958
 Alpha  occ. eigenvalues --   -0.47605  -0.47566  -0.47499  -0.47470  -0.47273
 Alpha  occ. eigenvalues --   -0.47267  -0.47159  -0.47053  -0.47029  -0.45849
 Alpha  occ. eigenvalues --   -0.45450  -0.45224  -0.45137  -0.44055  -0.44005
 Alpha  occ. eigenvalues --   -0.43810  -0.43731  -0.43470  -0.43457  -0.43368
 Alpha  occ. eigenvalues --   -0.43342  -0.43135  -0.43097  -0.42801  -0.42506
 Alpha  occ. eigenvalues --   -0.42476  -0.42446  -0.42219  -0.41523  -0.41348
 Alpha  occ. eigenvalues --   -0.41309  -0.41174  -0.41111  -0.40918  -0.40478
 Alpha  occ. eigenvalues --   -0.40226  -0.40182  -0.40095  -0.39881  -0.39106
 Alpha  occ. eigenvalues --   -0.38856  -0.37718  -0.37709  -0.37030  -0.36653
 Alpha  occ. eigenvalues --   -0.36525  -0.34985  -0.34228  -0.33971  -0.32058
 Alpha  occ. eigenvalues --   -0.30646  -0.29816  -0.29651  -0.29517  -0.29500
 Alpha  occ. eigenvalues --   -0.25317  -0.25276  -0.24276  -0.23228
 Alpha virt. eigenvalues --   -0.07974  -0.07210  -0.05554  -0.05529  -0.05014
 Alpha virt. eigenvalues --   -0.04763  -0.02325  -0.01852  -0.00510   0.00699
 Alpha virt. eigenvalues --    0.04334   0.05348   0.05546   0.06420   0.06761
 Alpha virt. eigenvalues --    0.06861   0.07200   0.07465   0.08531   0.08893
 Alpha virt. eigenvalues --    0.09587   0.10068   0.10191   0.10488   0.11026
 Alpha virt. eigenvalues --    0.11536   0.11639   0.12297   0.12721   0.12895
 Alpha virt. eigenvalues --    0.13035   0.13649   0.14655   0.14672   0.14952
 Alpha virt. eigenvalues --    0.15157   0.16770   0.17252   0.18078   0.19562
 Alpha virt. eigenvalues --    0.19642   0.19937   0.20284   0.20515   0.20597
 Alpha virt. eigenvalues --    0.21297   0.21484   0.21552   0.23443   0.23494
 Alpha virt. eigenvalues --    0.23592   0.24100   0.25089   0.25236   0.25370
 Alpha virt. eigenvalues --    0.25584   0.25784   0.26012   0.26212   0.26360
 Alpha virt. eigenvalues --    0.27009   0.27502   0.27773   0.28369   0.28560
 Alpha virt. eigenvalues --    0.28675   0.29191   0.29307   0.29868   0.30227
 Alpha virt. eigenvalues --    0.31063   0.31236   0.31455   0.31746   0.32568
 Alpha virt. eigenvalues --    0.33093   0.33202   0.33335   0.33423   0.34090
 Alpha virt. eigenvalues --    0.34640   0.35343   0.35457   0.35999   0.36503
 Alpha virt. eigenvalues --    0.36729   0.37005   0.37086   0.37205   0.37496
 Alpha virt. eigenvalues --    0.38760   0.39019   0.39923   0.40434   0.41048
 Alpha virt. eigenvalues --    0.41463   0.41547   0.42187   0.42599   0.42846
 Alpha virt. eigenvalues --    0.43572   0.43926   0.44099   0.44655   0.45194
 Alpha virt. eigenvalues --    0.45569   0.45705   0.45827   0.46065   0.46075
 Alpha virt. eigenvalues --    0.46223   0.46381   0.46619   0.46928   0.47170
 Alpha virt. eigenvalues --    0.47447   0.47914   0.48201   0.48654   0.48755
 Alpha virt. eigenvalues --    0.48970   0.49559   0.50187   0.50867   0.51009
 Alpha virt. eigenvalues --    0.51621   0.51683   0.51935   0.52132   0.53152
 Alpha virt. eigenvalues --    0.53470   0.54091   0.54456   0.54908   0.55373
 Alpha virt. eigenvalues --    0.55773   0.56620   0.57002   0.57826   0.58243
 Alpha virt. eigenvalues --    0.58703   0.59126   0.60198   0.60388   0.61425
 Alpha virt. eigenvalues --    0.61914   0.62544   0.62768   0.62951   0.63670
 Alpha virt. eigenvalues --    0.64256   0.64392   0.64799   0.65136   0.65294
 Alpha virt. eigenvalues --    0.65454   0.65812   0.66011   0.66327   0.66683
 Alpha virt. eigenvalues --    0.66778   0.67012   0.67227   0.67551   0.68021
 Alpha virt. eigenvalues --    0.68092   0.68478   0.68714   0.68769   0.69090
 Alpha virt. eigenvalues --    0.69582   0.69943   0.70173   0.70244   0.70754
 Alpha virt. eigenvalues --    0.70910   0.71514   0.71989   0.72278   0.73093
 Alpha virt. eigenvalues --    0.73164   0.74030   0.74943   0.75074   0.75430
 Alpha virt. eigenvalues --    0.76088   0.76483   0.76857   0.77683   0.77927
 Alpha virt. eigenvalues --    0.78169   0.78804   0.79043   0.79154   0.80142
 Alpha virt. eigenvalues --    0.80527   0.80683   0.81008   0.81644   0.82284
 Alpha virt. eigenvalues --    0.82570   0.83081   0.83646   0.85107   0.85583
 Alpha virt. eigenvalues --    0.86883   0.87428   0.88384   0.88662   0.90252
 Alpha virt. eigenvalues --    0.90919   0.91719   0.91960   0.93904   0.94320
 Alpha virt. eigenvalues --    0.95046   0.96154   0.97015   0.98254   0.98499
 Alpha virt. eigenvalues --    1.00461   1.02295   1.03616   1.03917   1.05111
 Alpha virt. eigenvalues --    1.06952   1.07271   1.07681   1.08763   1.09003
 Alpha virt. eigenvalues --    1.09098   1.09706   1.09851   1.10032   1.10285
 Alpha virt. eigenvalues --    1.10544   1.11100   1.11430   1.11793   1.12266
 Alpha virt. eigenvalues --    1.12788   1.12926   1.13516   1.13694   1.13871
 Alpha virt. eigenvalues --    1.14376   1.14783   1.15258   1.15849   1.16526
 Alpha virt. eigenvalues --    1.17081   1.19456   1.19912   1.20470   1.21596
 Alpha virt. eigenvalues --    1.22950   1.23020   1.24204   1.24862   1.25635
 Alpha virt. eigenvalues --    1.26546   1.26842   1.27652   1.28107   1.28692
 Alpha virt. eigenvalues --    1.29030   1.29977   1.31085   1.31231   1.31792
 Alpha virt. eigenvalues --    1.32131   1.34238   1.34457   1.34582   1.34739
 Alpha virt. eigenvalues --    1.35215   1.35494   1.35987   1.36428   1.36609
 Alpha virt. eigenvalues --    1.37028   1.37778   1.37992   1.39386   1.39515
 Alpha virt. eigenvalues --    1.41003   1.41695   1.41972   1.42678   1.43142
 Alpha virt. eigenvalues --    1.43212   1.43636   1.43924   1.44147   1.44361
 Alpha virt. eigenvalues --    1.45054   1.45270   1.45806   1.45890   1.46429
 Alpha virt. eigenvalues --    1.46856   1.47066   1.47356   1.47529   1.47663
 Alpha virt. eigenvalues --    1.48148   1.48587   1.48701   1.49673   1.49993
 Alpha virt. eigenvalues --    1.50163   1.50541   1.51035   1.51785   1.51997
 Alpha virt. eigenvalues --    1.52051   1.53254   1.57543   1.57883   1.60206
 Alpha virt. eigenvalues --    1.63130   1.63409   1.64038   1.64170   1.64910
 Alpha virt. eigenvalues --    1.65872   1.68317   1.68482   1.68756   1.69389
 Alpha virt. eigenvalues --    1.70648   1.71030   1.71468   1.71866   1.72143
 Alpha virt. eigenvalues --    1.72195   1.72659   1.73040   1.73597   1.73823
 Alpha virt. eigenvalues --    1.73961   1.74207   1.74983   1.75133   1.76083
 Alpha virt. eigenvalues --    1.77089   1.78833   1.79196   1.80477   1.81486
 Alpha virt. eigenvalues --    1.82087   1.82252   1.82429   1.83534   1.83799
 Alpha virt. eigenvalues --    1.84197   1.85338   1.85537   1.86123   1.86590
 Alpha virt. eigenvalues --    1.87043   1.87434   1.88418   1.88469   1.89711
 Alpha virt. eigenvalues --    1.89741   1.91032   1.91209   1.92498   1.92725
 Alpha virt. eigenvalues --    1.93001   1.93167   1.93611   1.94404   1.97024
 Alpha virt. eigenvalues --    1.97082   1.97574   1.97706   1.98095   1.98519
 Alpha virt. eigenvalues --    1.99174   1.99318   2.00249   2.01337   2.01680
 Alpha virt. eigenvalues --    2.02114   2.03581   2.03930   2.04806   2.05621
 Alpha virt. eigenvalues --    2.06388   2.06849   2.07050   2.07248   2.08429
 Alpha virt. eigenvalues --    2.09655   2.09913   2.10551   2.11297   2.12430
 Alpha virt. eigenvalues --    2.12763   2.13141   2.14966   2.16857   2.17506
 Alpha virt. eigenvalues --    2.18181   2.18610   2.19188   2.20597   2.21288
 Alpha virt. eigenvalues --    2.21433   2.21886   2.23104   2.23458   2.23935
 Alpha virt. eigenvalues --    2.24137   2.24300   2.24520   2.26452   2.26970
 Alpha virt. eigenvalues --    2.27132   2.27935   2.28194   2.28742   2.28927
 Alpha virt. eigenvalues --    2.29667   2.29905   2.31784   2.32125   2.32482
 Alpha virt. eigenvalues --    2.33796   2.35199   2.37013   2.38615   2.40140
 Alpha virt. eigenvalues --    2.42504   2.44782   2.47242   2.47519   2.48872
 Alpha virt. eigenvalues --    2.50114   2.50759   2.51895   2.52034   2.53608
 Alpha virt. eigenvalues --    2.54247   2.55632   2.56013   2.57096   2.59139
 Alpha virt. eigenvalues --    2.59621   2.61224   2.61696   2.61798   2.62772
 Alpha virt. eigenvalues --    2.62833   2.63638   2.64686   2.65199   2.66327
 Alpha virt. eigenvalues --    2.66544   2.66714   2.69386   2.69734   2.71143
 Alpha virt. eigenvalues --    2.71226   2.71366   2.72724   2.72959   2.75333
 Alpha virt. eigenvalues --    2.75363   2.79377   2.79944   2.81991   2.83760
 Alpha virt. eigenvalues --    2.85676   2.86073   2.88518   2.90488   2.92182
 Alpha virt. eigenvalues --    2.92472   2.95245   2.96624   2.99759   2.99779
 Alpha virt. eigenvalues --    3.00042   3.00247   3.00909   3.02444   3.03105
 Alpha virt. eigenvalues --    3.03141   3.03319   3.03372   3.03522   3.03789
 Alpha virt. eigenvalues --    3.03821   3.04079   3.04129   3.04173   3.04658
 Alpha virt. eigenvalues --    3.04698   3.04893   3.04929   3.05407   3.05552
 Alpha virt. eigenvalues --    3.05894   3.05988   3.06633   3.06701   3.07433
 Alpha virt. eigenvalues --    3.07595   3.09863   3.10082   3.13749   3.13773
 Alpha virt. eigenvalues --    3.16092   3.16121   3.16858   3.16876   3.19974
 Alpha virt. eigenvalues --    3.21038   3.21118   3.21612   3.25940   3.26168
 Alpha virt. eigenvalues --    3.29563   3.31209   3.35129   3.35589   3.41891
 Alpha virt. eigenvalues --    3.42447   3.43446   3.43474   3.45566   3.45576
 Alpha virt. eigenvalues --    3.52253   3.52273   3.52675   3.52723   3.55502
 Alpha virt. eigenvalues --    3.57120   3.57166   3.57673   3.57685   3.60978
 Alpha virt. eigenvalues --    3.65152   3.65155   3.65894   3.65953   3.83027
 Alpha virt. eigenvalues --    3.83061   3.83636   3.83649   3.86096   3.86145
 Alpha virt. eigenvalues --    3.87380   3.87390
          Condensed to atoms (all electrons):
 Mulliken charges:
               1
     1  O   -0.357102
     2  C    0.122949
     3  C    0.107697
     4  C    0.151086
     5  C   -0.175428
     6  C    0.005387
     7  C    0.540849
     8  F   -0.158138
     9  F   -0.177403
    10  F   -0.173208
    11  C   -0.157086
    12  C   -0.003513
    13  C    0.539752
    14  F   -0.167583
    15  F   -0.169532
    16  F   -0.168798
    17  C   -0.131118
    18  C   -0.261106
    19  C    0.179690
    20  C   -0.129323
[...]
 000190,-0.00000437,0.00000176,0.00000287,-0.00000340,-0.00000003,0.000
 00030,-0.00000475,0.00000180,-0.00000391,-0.00000310,0.00000243,0.0000
 0726,0.00000555,-0.00000924,0.00000008,0.00001672,0.00000784,0.0000128
 8,-0.00000058,-0.00000301,0.00000111,-0.00000028,-0.00000002,0.0000014
 1,0.00000387,0.00000762,0.00000932,0.00004126,-0.00005538,-0.00093966,
 0.00016627,0.00168296,-0.00555596,0.31101165,0.00002564,0.00006543,-0.
 00003884,-0.00001721,-0.00003698,0.00006900,0.00000127,0.00000277,-0.0
 0000351,-0.00001331,-0.00000430,0.00001221,0.00000514,0.00000250,-0.00
 000402,0.00000042,0.00000209,0.00000026,-0.00000492,-0.00000411,0.0000
 0777,0.00000375,0.00000137,-0.00000477,0.00000006,0.00000153,-0.000002
 36,0.00000211,0.00000215,-0.00000090,0.00000540,0.00000015,-0.00000420
 ,-0.00000074,0.00000544,0.00000103,0.00001605,-0.00006373,0.00000560,-
 0.00000533,0.00001219,-0.00000126,-0.00000751,0.00002270,-0.00001225,-
 0.00000581,0.00002394,0.00000749,0.00000631,-0.00000075,-0.00000507,0.
 00000027,-0.00000820,-0.00000105,0.00000235,-0.00000019,0.00000306,0.0
 0000342,-0.00000401,0.00000145,0.00000264,0.00000168,-0.00000362,0.000
 00199,0.00000011,-0.00000414,-0.00000935,0.00000789,-0.00000014,0.0000
 1592,-0.00001076,-0.00000889,-0.00001480,0.00000122,-0.00002647,0.0003
 2209,0.00025881,-0.00043286,-0.00014577,0.00008695,0.00005408,-0.00000
 990,-0.00007639,0.00001676,0.00003733,0.00003455,-0.00051568,0.0000803
 6,-0.00003446,-0.00005769,-0.00000839,-0.00000054,0.00000607,-0.000004
 72,0.00000357,-0.00000445,0.00004601,-0.00003103,0.00000620,-0.0000106
 1,0.00000513,-0.00000347,-0.00001687,0.00000089,-0.00000266,-0.0000147
 8,0.00002275,-0.00000315,-0.00000993,-0.00000247,-0.00000605,0.0000026
 8,-0.00000698,-0.00001609,-0.00000861,0.00001727,0.00005259,0.00000137
 ,-0.00000990,-0.00001103,0.00000936,-0.00000208,-0.00001682,-0.0000076
 8,-0.00000369,-0.00002044,-0.00004147,-0.00000546,-0.00000450,0.000276
 82,-0.00068156,0.00018051,-0.00539484,-0.00238927,0.00486577,0.0012042
 4,-0.01568583,-0.00192629,-0.00684859,-0.10428716,-0.08390227,-0.00062
 957,0.00521406,0.00495741,-0.00240595,-0.00060386,0.00382977,-0.000139
 55,0.00038169,-0.00042595,-0.00004518,-0.00002157,0.00002654,-0.000001
 21,0.00000196,0.00000161,0.00000030,-0.00000120,0.00000011,-0.00000245
 ,-0.00000662,0.00000195,0.00000145,-0.00000102,0.00000166,0.00000126,-
 0.00000085,0.00000089,0.00000086,-0.00000031,0.00000110,0.00000066,0.0
 0000207,-0.00000014,0.00000498,0.00000363,-0.00000125,-0.00000627,0.00
 000851,-0.00001033,0.00000413,-0.00000541,-0.00000062,-0.00000003,-0.0
 0000171,0.00000059,0.00000280,-0.00000225,0.00000573,-0.00008387,-0.00
 003937,0.00014201,0.00207894,0.00195574,-0.00320742,0.01034048,0.11484
 851,0.07814743,0.00002484,-0.00004508,-0.00000619,-0.00000461,0.000037
 38,0.00001772,0.00000470,-0.00000664,0.00000016,-0.00000199,-0.0000083
 1,0.00000573,0.00000105,0.00000146,0.00000006,0.00000407,-0.00000260,-
 0.00000393,-0.00002099,0.00002134,0.00000876,0.00000797,-0.00000361,-0
 .00000633,0.00000847,-0.00000890,0.00000196,0.00000348,-0.00000617,-0.
 00000275,0.00000326,-0.00000024,-0.00000203,0.00000093,-0.00000282,-0.
 00000058,-0.00002396,-0.00001499,0.00002187,0.00001482,0.00000511,-0.0
 0000464,0.00000226,0.00000777,-0.00000825,0.00000729,0.00000061,-0.000
 01048,-0.00000215,0.00000951,-0.00000008,0.00000894,0.00000148,-0.0000
 0854,0.00000050,-0.00000122,0.00001029,0.00000177,0.00000572,-0.000002
 55,-0.00000176,-0.00000414,0.00000647,0.00000452,0.00000168,0.00000242
 ,-0.00000433,0.00000239,0.00001414,0.00000714,0.00001680,-0.00003920,0
 .00000381,0.00004346,-0.00009778,-0.00000222,-0.00002989,-0.00011321,0
 .00004730,-0.00001847,0.00032623,-0.00000261,-0.00016215,-0.00003830,0
 .00000786,0.00006638,-0.00004032,0.00005003,0.00001229,0.00000366,-0.0
 0001166,-0.00000107,0.00000008,-0.00000499,-0.00000195,0.00000211,0.00
 005720,0.00000165,-0.00001917,-0.00001406,-0.00000038,0.00001278,-0.00
 002329,-0.00000630,-0.00000066,-0.00001535,0.00000441,0.00000319,-0.00
 000771,-0.00000273,-0.00000536,-0.00000094,-0.00000492,-0.00000789,0.0
 0000582,0.00003432,0.00004384,-0.00000058,-0.00001879,-0.00000914,0.00
 000132,-0.00000685,-0.00001175,-0.00000960,-0.00000645,-0.00001830,-0.
 00001226,-0.00001207,-0.00000612,-0.00014822,-0.00021187,0.00023007,0.
 00028574,0.00050426,0.00064419,-0.00162475,0.00458480,-0.00155673,-0.0
 1412445,-0.01062786,-0.01328094,-0.22606261,-0.07057672,-0.12166774,0.
 00441361,0.00211430,0.00087368,0.00258436,0.00191693,-0.00217202,-0.00
 003307,0.00001496,0.00003669,-0.00000131,0.00000072,0.00000060,-0.0000
 0011,-0.00000044,-0.00000037,-0.00000302,-0.00000169,0.00000408,0.0000
 0123,-0.00000236,0.00000011,0.00000182,-0.00000205,-0.00000010,-0.0000
 0014,-0.00000394,0.00000039,-0.00000436,-0.00000412,-0.00000022,0.0000
 0118,0.00000030,-0.00001247,-0.00002329,0.00002032,-0.00001492,0.00000
 968,0.00000304,-0.00000478,0.00000024,0.00000015,-0.00000056,0.0000018
 2,0.00000378,0.00000694,0.00003783,0.00002965,0.00000926,-0.00074700,-
 0.00049381,-0.00058982,0.00045665,-0.00052370,0.00152501,0.23506489,0.
 00006329,-0.00000543,-0.00001749,-0.00002126,0.00000719,0.00004890,0.0
 0000430,0.00000438,-0.00000129,-0.00001308,-0.00000506,0.00001338,0.00
 000890,0.00000050,-0.00000489,-0.00000267,0.00000399,0.00000507,0.0000
 0012,-0.00001416,-0.00001951,-0.00000277,0.00000195,0.00000596,0.00000
 024,0.00000294,0.00000526,0.00000371,0.00000816,0.00000575,0.00000142,
 -0.00000091,-0.00000205,0.00000271,0.00001097,0.00000767,0.00000672,-0
 .00000770,-0.00007371,-0.00000748,0.00000010,0.00001121,0.00000756,-0.
 00001025,0.00002534,-0.00000846,0.00001466,0.00003607,0.00001373,-0.00
 001853,-0.00000341,0.00001744,-0.00002014,0.00000784,0.00001640,-0.000
 00361,0.00001058,0.00000499,-0.00000207,0.00000679,0.00000781,-0.00000
 623,0.00000697,-0.00000317,0.00000982,0.00000237,-0.00001759,0.0000050
 5,0.00002154,0.00003013,0.00001632,-0.00007112,-0.00002005,0.00010466,
 -0.00004310,-0.00111793,0.00038309,-0.00041622,-0.00018421,-0.00031720
 ,0.00003457,-0.00010172,-0.00023048,-0.00011416,0.00021428,-0.00021724
 ,-0.00006074,0.00002741,0.00002562,0.00000617,-0.00000376,-0.00000418,
 -0.00000919,-0.00000916,-0.00000261,0.00000237,0.00003365,-0.00001161,
 -0.00001986,-0.00000839,0.00000219,0.00001159,-0.00001192,-0.00000042,
 0.00000190,-0.00000977,0.00000899,0.00000318,-0.00000666,-0.00000136,-
 0.00000234,0.,-0.00000327,-0.00000106,0.00000395,0.00002027,0.00002520
 ,-0.00000043,-0.00001108,-0.00000513,0.00000022,-0.00000406,-0.0000068
 3,-0.00000573,-0.00000372,-0.00001073,-0.00000675,-0.00000855,-0.00000
 476,0.00000750,0.00023808,0.00042735,0.00019283,-0.00079551,0.00004807
 ,0.00367843,-0.00127317,-0.00097324,0.01549812,0.01013967,0.01024038,-
 0.07001676,-0.08804370,-0.05478447,-0.02385962,-0.00517052,-0.01588162
 ,0.00242870,-0.00382833,-0.00406285,-0.00007365,0.00002067,0.00006620,
 -0.00000247,0.00000266,0.00000025,-0.00000109,0.00000117,-0.00000097,-
 0.00000538,-0.00000353,-0.00002050,0.00000113,-0.00000676,-0.00000191,
 0.00000102,-0.00000530,-0.00000070,-0.00000057,-0.00000411,-0.00000104
 ,-0.00000381,-0.00000475,-0.00000172,0.00000516,0.00000030,-0.00001214
 ,-0.00004026,0.00004204,-0.00001491,0.00000386,0.00000070,-0.00000208,
 -0.00000015,0.00000058,-0.00000023,0.00000176,0.00000334,0.00000869,-0
 .00004770,-0.00000612,-0.00004552,0.00077950,0.00032756,0.00045208,-0.
 00123313,0.00044333,0.00085685,0.07439256,0.08769505,0.00003865,0.0001
 8499,-0.00004181,-0.00004065,-0.00019547,0.00006224,-0.00005474,0.0000
 5346,-0.00000669,-0.00004330,-0.00000060,0.00003378,0.00001645,0.00000
 667,-0.00001212,-0.00000485,0.00001103,0.00000861,0.00000511,-0.000035
 73,-0.00000849,-0.00000051,0.00000701,0.00000057,-0.00000565,0.0000119
 5,-0.00000165,0.00000515,0.00001598,0.00000554,0.00001114,0.00000020,-
 0.00000873,-0.00000113,0.00002431,0.00001318,0.00006287,-0.00016049,-0
 .00011765,-0.00003317,0.00002708,0.00001760,-0.00000651,0.00003290,0.0
 0001864,-0.00003305,0.00008709,0.00007966,0.00002781,-0.00002388,-0.00
 001757,0.00000012,-0.00004693,0.00003757,0.00003650,-0.00000049,-0.000
 01858,-0.00000491,-0.00002186,0.00001529,0.00002657,-0.00000372,-0.000
 01250,-0.00000954,0.00002478,-0.00001535,-0.00003012,-0.00000935,0.000
 01602,0.00007365,0.00004167,-0.00002789,-0.00007733,-0.00006741,0.0001
 9676,-0.00060257,0.00011058,-0.00006803,0.00034127,0.00012901,-0.00043
 854,-0.00001262,-0.00013618,-0.00011680,-0.00002932,-0.00005514,0.0001
 2236,0.00000392,-0.00000507,0.00004059,-0.00001092,-0.00000195,-0.0000
 0466,0.00000117,-0.00000014,-0.00000182,0.00003536,-0.00000751,0.00000
 445,-0.00000805,0.00000111,-0.00000181,-0.00001523,-0.00000324,-0.0000
 0305,-0.00000989,0.00000830,-0.00000168,-0.00001180,-0.00000379,-0.000
 00531,0.00000375,0.00000490,-0.00000525,-0.00000634,0.00001994,0.00004
 563,0.00000121,-0.00001100,-0.00000978,0.00000859,-0.00000317,-0.00001
 492,-0.00000491,-0.00000420,-0.00001561,-0.00000733,0.00000906,-0.0000
 0452,0.00022913,0.00025436,-0.00054549,0.00059024,0.00026583,-0.000240
 87,-0.00198975,-0.00057986,0.00413962,-0.00214602,-0.00271122,0.001659
 45,-0.12163151,-0.05485835,-0.12179123,-0.01005521,-0.00321222,-0.0017
 7767,-0.00184850,-0.00422608,0.00591537,-0.00005450,-0.00005521,0.0000
 0669,-0.00000355,0.00000640,0.00000362,-0.00000053,-0.00000139,-0.0000
 0063,-0.00000798,-0.00003011,-0.00000975,0.00000117,-0.00000461,0.0000
 0246,0.00000096,-0.00000360,0.00000030,0.00000110,-0.00000144,0.000000
 63,0.00000126,0.00000323,0.00000079,0.00001006,0.00000981,-0.00000583,
 -0.00003243,0.00001820,0.00000744,0.00000552,0.00000017,-0.00000088,0.
 00000024,-0.00000056,0.00000066,0.00000281,-0.00000486,0.00000769,-0.0
 0002373,-0.00000497,0.00003034,-0.00009615,-0.00015189,-0.00001266,0.0
 0121336,0.00118436,-0.00196492,0.13399163,0.06228779,0.11811107,0.0000
 8125,-0.00001808,0.00015634,0.00060394,0.00064774,0.00044354,0.0001725
 6,-0.00019942,-0.00001128,0.00005532,-0.00000116,-0.00005715,-0.000021
 23,-0.00000223,0.00001910,0.00000039,-0.00000768,-0.00000197,0.0000302
 8,-0.00001694,-0.00002136,-0.00001481,0.00000273,0.00001494,-0.0000098
 0,0.00000662,0.00000087,-0.00000774,0.00000285,0.00000555,-0.00001653,
 -0.00000157,0.00001433,-0.00000955,-0.00002693,-0.00001186,0.00000596,
 0.00011052,0.00005592,-0.00000518,-0.00002356,-0.00000540,-0.00000345,
 -0.00002527,-0.00000339,0.00000989,-0.00004752,-0.00004439,-0.00003202
 ,0.00003739,0.00001826,-0.00002355,0.00015879,-0.00017536,-0.00014025,
 -0.00009932,0.00006449,0.00004277,0.00002878,-0.00003811,-0.00007965,0
 .00001658,0.00002036,0.00007329,-0.00008991,0.00005875,0.00000184,0.00
 007124,-0.00005917,0.00015189,-0.00043303,0.00045030,0.00017220,0.0005
 3098,0.00035561,-0.00026834,0.00099883,0.00154897,-0.00035932,0.000155
 36,0.00008839,0.00024099,-0.00018559,-0.00008018,0.00011213,-0.0001348
 2,0.00005755,0.00010164,-0.00001732,0.00001664,-0.00002805,-0.00001292
 ,-0.00001536,0.00000430,0.00000246,0.00000647,0.00007836,0.00000290,-0
 .00003283,-0.00001940,-0.00000143,0.00002056,-0.00003254,-0.00000915,0
 .00000046,-0.00002020,0.00000579,0.00000508,-0.00001918,-0.00000992,-0
 .00001978,-0.00000314,-0.00001457,-0.00001594,-0.00002544,0.00007410,0
 .00007247,0.00000604,-0.00004140,-0.00001395,0.00001666,-0.00001354,-0
 .00002442,-0.00000378,-0.00001471,-0.00002485,-0.00005056,-0.00000217,
 0.00000073,-0.00057378,0.00114341,0.00017784,-0.00090244,-0.00231526,-
 0.00411233,0.00018849,-0.00081866,0.00005088,0.00266579,0.00070991,-0.
 00240225,0.00389831,-0.00172321,-0.00101993,-0.23178096,0.13323104,-0.
 04247874,-0.01536774,0.01500727,-0.00308959,-0.00028701,0.00003374,-0.
 00014632,0.00000557,-0.00001039,-0.00000879,0.00000125,-0.00000059,0.0
 0000008,0.00003353,-0.00000464,0.00000527,-0.00000190,0.00002123,0.000
 00574,-0.00000635,0.00000713,0.00000036,-0.00000202,0.00000573,-0.0000
 0638,0.00000103,0.00000190,-0.00001080,-0.00001758,0.00000286,-0.00003
 817,-0.00014912,-0.00000614,-0.00005829,0.00001724,0.00000633,-0.00001
 075,0.00000110,0.00000124,-0.00000108,-0.00000130,0.00000856,-0.000001
 59,-0.00024787,-0.00009515,-0.00021611,-0.00023790,-0.00008343,0.00039
 788,0.00009486,-0.00012429,-0.00011870,-0.00020101,-0.00061202,0.00220
 754,0.24210183,-0.00006817,-0.00099282,0.00065088,0.00030239,-0.000232
 19,-0.00202979,0.00011066,0.00004893,0.00005586,0.00010811,0.00003702,
 -0.00007795,-0.00004773,-0.00001542,0.00003692,0.00000512,-0.00001125,
 -0.00001494,0.00001843,0.00001586,-0.00000420,-0.00001006,-0.00000314,
 0.00000913,-0.00000331,-0.00000451,0.00000053,-0.00001047,-0.00001136,
 -0.00000141,-0.00001910,-0.00000075,0.00001642,-0.00000508,-0.00005427
 ,-0.00001971,-0.00005262,0.00018298,0.00014944,0.00002363,-0.00003337,
 -0.00002020,0.00000037,-0.00003411,-0.00002400,0.00003488,-0.00009556,
 -0.00009667,-0.00006556,0.00008762,0.00004524,0.00000025,0.00003592,-0
 .00005694,-0.00006530,-0.00001330,0.00010888,0.00003519,0.00000415,-0.
 00004745,-0.00005760,0.00002991,0.00000915,0.00005249,-0.00006829,0.00
 005090,0.00005586,0.00016507,-0.00000581,-0.00013300,-0.00046437,-0.00
 004516,-0.00053262,-0.00082212,-0.00056026,-0.00025916,-0.00052185,0.0
 0043188,0.00010247,0.00007118,0.00028148,0.00006292,0.00002692,-0.0000
 5612,-0.00010987,0.00012423,0.00006900,0.00001183,-0.00000977,-0.00002
 107,-0.00000409,-0.00000053,0.00000807,0.00000678,0.00000124,0.0000042
 4,-0.00001193,0.00000848,-0.00000187,0.00000274,-0.00000173,0.00000121
 ,0.00000471,-0.00000031,0.00000083,0.00000389,-0.00000578,0.00000072,0
 .00000398,-0.00000140,-0.00000339,-0.00000291,-0.00000390,-0.00000188,
 -0.00000713,0.00000516,-0.00001525,0.00000173,-0.00000308,0.00000374,0
 .00000063,-0.00000099,0.00000389,0.00000485,-0.00000094,0.00000657,-0.
 00000324,0.00000041,0.00000106,-0.00049496,0.00037844,-0.00010490,-0.0
 0105468,-0.00006080,-0.00255687,-0.00075202,-0.00019628,-0.00020183,-0
 .00040552,-0.00292024,-0.00472758,0.02413797,-0.01230066,0.00518301,0.
 13400694,-0.15099938,0.01975705,-0.00897159,0.01005594,-0.00134614,0.0
 0007248,0.00015534,0.00011938,0.00001112,-0.00001599,-0.00001032,0.000
 00232,-0.00000164,0.00000018,-0.00004296,0.00002303,0.00006923,-0.0000
 0671,0.00002161,0.00000056,-0.00000671,0.00000819,-0.00000228,0.000000
 69,0.00000700,-0.00000548,0.00000367,0.00000018,-0.00001203,0.00001411
 ,0.00000955,-0.00001282,-0.00003394,-0.00000862,-0.00001117,0.00000274
 ,0.00000172,-0.00000234,0.00000006,0.00000027,-0.00000054,-0.00000141,
 0.00000207,-0.00000604,-0.00012182,-0.00002682,-0.00016026,-0.00008108
 ,-0.00011700,0.00036485,0.00106065,-0.00056236,0.00017791,-0.00103424,
 0.00050566,0.00180154,-0.14579009,0.15860280,0.00019224,0.00062183,-0.
 00015263,0.00009258,-0.00121530,-0.00018380,0.00017164,-0.00015167,-0.
 00007792,0.00002471,0.00002436,-0.00002333,-0.00000031,-0.00000540,-0.
 00000428,-0.00001976,0.00001129,0.00002315,0.00007554,-0.00010144,-0.0
 0004354,-0.00003044,0.00001746,0.00002633,-0.00003312,0.00003841,-0.00
 000656,-0.00000797,0.00003267,0.00001585,-0.00002592,0.00000202,0.0000
 1416,0.00000059,0.00002951,0.00001113,0.00010443,0.00008175,-0.0000429
 1,-0.00005792,-0.00002445,0.00001130,-0.00001448,-0.00002855,0.0000191
 5,-0.00003173,-0.00001876,0.00000895,-0.00000030,-0.00010115,-0.000021
 06,-0.00000345,0.00011491,-0.00003061,-0.00019817,0.00006181,0.0000113
 0,0.00006460,-0.00002715,-0.00002643,-0.00004221,0.00006861,-0.0000343
 0,0.00005508,-0.00006974,-0.00000977,0.00003439,0.00014832,-0.00014803
 ,0.00009546,-0.00024866,0.00038262,-0.00018194,-0.00048003,-0.00046993
 ,0.00089012,0.00115585,-0.00164864,0.00034618,0.00029329,-0.00010821,0
 .00000659,-0.00023730,0.00013336,-0.00001201,0.00012637,-0.00005966,0.
 00005669,-0.00003687,0.00003611,-0.00002562,-0.00000461,0.00000060,0.0
 0000507,0.00000274,-0.00000838,0.00003452,0.00000170,0.00000028,-0.000
 00808,-0.00000097,0.00000019,-0.00001617,-0.00000574,-0.00000277,-0.00
 000846,0.00000321,-0.00000062,-0.00001363,-0.00000314,-0.00000715,0.00
 000369,-0.00000732,-0.00001401,-0.00003019,0.00004189,0.00005142,0.000
 00612,-0.00002325,-0.00001047,0.00001905,-0.00000674,-0.00001971,0.000
 00186,-0.00000884,-0.00001448,-0.00002822,-0.00000083,0.00000182,-0.00
 054241,0.00065323,0.00015137,-0.00340827,-0.00325393,0.00212711,0.0000
 3590,-0.00029811,-0.00071248,-0.00271935,-0.00428648,0.00485456,0.0098
 4480,-0.00781559,0.00595601,-0.04265577,0.01978885,-0.05013664,-0.0121
 5026,0.01045653,0.00139288,-0.00044137,-0.00006906,-0.00039815,0.00000
 388,-0.00000168,-0.00000497,-0.00000162,0.00000379,0.00000270,0.000091
 79,0.00003311,-0.00004190,-0.00000149,0.00002391,-0.00000975,-0.000005
 52,0.00000754,0.00000320,0.00000664,0.00000777,-0.00000180,0.00001238,
 0.00001049,-0.00000585,0.00003689,0.00001068,-0.00000267,-0.00011143,-
 0.00001248,-0.00004807,0.00001037,-0.00000323,-0.00000904,0.00000051,-
 0.00000014,-0.00000027,-0.00000280,0.00000295,-0.00000173,-0.00024869,
 -0.00013029,-0.00000087,0.00037591,0.00035992,-0.00075288,0.00038349,-
 0.00040090,0.00024892,0.00196011,0.00199812,-0.00327388,0.04803529,-0.
 01715507,0.04308567\\-0.00000088,0.00000004,0.00000013,-0.00000115,0.0
 0000111,-0.00000003,-0.00000034,-0.00000188,0.00000080,0.00000034,0.00
 000443,0.00000109,0.00000197,-0.00000248,-0.00000188,-0.00000116,0.000
 00014,-0.00000047,-0.00000223,-0.00000279,0.00000421,0.00000154,0.0000
 0131,-0.00000205,0.00000027,0.00000094,-0.00000077,0.00000089,0.000001
 05,-0.00000040,0.00000044,0.00000352,0.00000052,0.00000126,-0.00000083
 ,-0.00000055,-0.00000073,0.00000042,-0.00000090,0.00000063,-0.00000006
 ,0.00000084,0.00000038,-0.00000034,0.00000006,-0.00000030,0.00000050,0
 .00000104,-0.00000225,-0.00000208,0.00000170,0.00000107,0.00000056,-0.
 00000070,-0.00000087,-0.00000028,0.00000045,0.00000076,0.,-0.00000048,
 -0.00000079,-0.00000004,0.00000008,0.00000004,-0.00000090,0.00000031,-
 0.00000004,0.00000068,-0.00000080,-0.00000032,-0.00000053,0.00000068,0
 .00000150,-0.00000040,-0.00000105,-0.00000136,0.00000031,-0.00000005,-
 0.00000054,0.00000089,0.,0.00000026,-0.00000124,0.00000019,0.00000125,
 -0.00000078,0.00000027,-0.00000014,0.00000019,-0.00000070,0.00000014,0
 .00000091,0.00000073,0.00000017,-0.00000224,-0.00000180,0.00000223,0.0
 0000017,-0.00000134,-0.00000125,0.00000063,-0.00000024,-0.00000128,0.0
 0000084,0.00000059,-0.00000094,-0.00000110,0.00000108,0.00000025,-0.00
 000041,-0.00000099,0.00000079,-0.00000008,-0.00000019,0.00000123,-0.00
 000132,-0.00000002,-0.00000037,-0.00000024,0.00000084,0.00000039,0.000
 00104,0.,-0.00000081,0.00000152,-0.00000062,0.00000073,0.00000052,-0.0
 0000012,-0.00000058,0.00000044,-0.00000019,-0.00000026,-0.00000053,-0.
 00000020,-0.00000027,0.00000044,0.00000050,-0.00000053,0.,0.00000011,0
 .00000029,-0.00000031,0.00000040,0.00000023,-0.00000014,0.00000031,0.0
 0000049,-0.00000047,0.00000008,0.00000091,-0.00000021,0.00000030,-0.00
 000015,0.00000081,0.,0.00000001,-0.00000021,-0.00000010,0.00000062,0.0
 0000027,0.00000009,-0.00000026,0.00000005,0.00000003,-0.00000019,-0.00
 000009,-0.00000009,0.00000005,-0.00000017,-0.00000031,0.00000009,-0.00
 000023,-0.00000032,0.00000009,-0.00000040,-0.00000007,-0.00000047,0.00
 000059,-0.00000058,-0.00000002,-0.00000058,-0.00000007,0.00000012,-0.0
 0000009,0.00000012,-0.00000010,0.00000002,-0.00000031,-0.00000002,-0.0
 0000034,0.00000012,-0.00000005,-0.00000025,0.00000016,-0.00000016,-0.0
 0000026,0.00000027,-0.00000036,-0.00000013,0.00000021,-0.00000025,0.00
 000005,0.00000006\\\@
 The archive entry for this job was punched.


 I do not feel obliged to believe that the same God who
 has endowed us with sense, reason, and intellect has
 intended us to forgo their use.
                   --Galileo Galilei
 Job cpu time:       0 days  9 hours 18 minutes 58.8 seconds.
 Elapsed time:       0 days  0 hours 17 minutes 32.3 seconds.
 File lengths (MBytes):  RWF=   4212 Int=      0 D2E=      0 Chk=     46 Scr=      1
 Normal termination of Gaussian 16 at Sun Aug 11 15:03:34 2024.
