 Entering Gaussian System, Link 0=g16
 Initial command:
 /public/software/apps/Gaussian/g16/l1.exe "/public/home/LJQ_HG/tmp/Gau-51237.inp" -scrdir="/public/home/LJQ_HG/tmp/"
 Entering Link 1 = /public/software/apps/Gaussian/g16/l1.exe PID=     51269.
  
 Copyright (c) 1988-2019, Gaussian, Inc.  All Rights Reserved.
  
 This is part of the Gaussian(R) 16 program.  It is based on
 the Gaussian(R) 09 system (copyright 2009, Gaussian, Inc.),
 the Gaussian(R) 03 system (copyright 2003, Gaussian, Inc.),
 the Gaussian(R) 98 system (copyright 1998, Gaussian, Inc.),
 the Gaussian(R) 94 system (copyright 1995, Gaussian, Inc.),
 the Gaussian 92(TM) system (copyright 1992, Gaussian, Inc.),
 the Gaussian 90(TM) system (copyright 1990, Gaussian, Inc.),
 the Gaussian 88(TM) system (copyright 1988, Gaussian, Inc.),
 the Gaussian 86(TM) system (copyright 1986, Carnegie Mellon
 University), and the Gaussian 82(TM) system (copyright 1983,
 Carnegie Mellon University). Gaussian is a federally registered
 trademark of Gaussian, Inc.
  
 This software contains proprietary and confidential information,
 including trade secrets, belonging to Gaussian, Inc.
  
 This software is provided under written license and may be
 used, copied, transmitted, or stored only in accord with that
 written license.
  
 The following legend is applicable only to US Government
 contracts under FAR:
  
                    RESTRICTED RIGHTS LEGEND
  
 Use, reproduction and disclosure by the US Government is
 subject to restrictions as set forth in subparagraphs (a)
 and (c) of the Commercial Computer Software - Restricted
 Rights clause in FAR 52.227-19.
  
 Gaussian, Inc.
 340 Quinnipiac St., Bldg. 40, Wallingford CT 06492
  
  
 ---------------------------------------------------------------
 Warning -- This program may not be used in any manner that
 competes with the business of Gaussian, Inc. or will provide
 assistance to any competitor of Gaussian, Inc.  The licensee
 of this program is prohibited from giving any competitor of
 Gaussian, Inc. access to this program.  By using this program,
 the user acknowledges that Gaussian, Inc. is engaged in the
 business of creating and licensing software in the field of
 computational chemistry and represents and warrants to the
 licensee that it is not a competitor of Gaussian, Inc. and that
 it will not use this program in any manner prohibited above.
 ---------------------------------------------------------------
  

 Cite this work as:
 Gaussian 16, Revision C.01,
 M. J. Frisch, G. W. Trucks, H. B. Schlegel, G. E. Scuseria, 
 M. A. Robb, J. R. Cheeseman, G. Scalmani, V. Barone, 
 G. A. Petersson, H. Nakatsuji, X. Li, M. Caricato, A. V. Marenich, 
 J. Bloino, B. G. Janesko, R. Gomperts, B. Mennucci, H. P. Hratchian, 
 J. V. Ortiz, A. F. Izmaylov, J. L. Sonnenberg, D. Williams-Young, 
 F. Ding, F. Lipparini, F. Egidi, J. Goings, B. Peng, A. Petrone, 
 T. Henderson, D. Ranasinghe, V. G. Zakrzewski, J. Gao, N. Rega, 
 G. Zheng, W. Liang, M. Hada, M. Ehara, K. Toyota, R. Fukuda, 
 J. Hasegawa, M. Ishida, T. Nakajima, Y. Honda, O. Kitao, H. Nakai, 
 T. Vreven, K. Throssell, J. A. Montgomery, Jr., J. E. Peralta, 
 F. Ogliaro, M. J. Bearpark, J. J. Heyd, E. N. Brothers, K. N. Kudin, 
 V. N. Staroverov, T. A. Keith, R. Kobayashi, J. Normand, 
 K. Raghavachari, A. P. Rendell, J. C. Burant, S. S. Iyengar, 
 J. Tomasi, M. Cossi, J. M. Millam, M. Klene, C. Adamo, R. Cammi, 
 J. W. Ochterski, R. L. Martin, K. Morokuma, O. Farkas, 
 J. B. Foresman, and D. J. Fox, Gaussian, Inc., Wallingford CT, 2019.
 
 ******************************************
 Gaussian 16:  ES64L-G16RevC.01  3-Jul-2019
                 5-Jul-2025 
 ******************************************
 %nprocshared=32
 Will use up to   32 processors via shared memory.
 %mem=100GB
 ------------------------------------------
 #p opt freq b3lyp/def2svpp em=gd3bj nosymm
 ------------------------------------------
 1/18=20,19=15,26=3,38=1/1,3;
 2/9=110,12=2,15=1,17=6,18=5,40=1/2;
 3/5=43,7=202,11=2,25=1,30=1,71=1,74=-5,124=41/1,2,3;
 4//1;
 5/5=2,38=5/2;
 6/7=2,8=2,9=2,10=2,28=1/1;
 7/30=1/1,2,3,16;
 1/18=20,19=15,26=3/3(2);
 2/9=110,15=1/2;
 99//99;
 2/9=110,15=1/2;
 3/5=43,7=202,11=2,25=1,30=1,71=1,74=-5,124=41/1,2,3;
 4/5=5,16=3,69=1/1;
 5/5=2,38=5/2;
 7/30=1/1,2,3,16;
 1/18=20,19=15,26=3/3(-5);
 2/9=110,15=1/2;
 6/7=2,8=2,9=2,10=2,19=2,28=1/1;
 99/9=1/99;
 Leave Link    1 at Sat Jul  5 15:21:07 2025, MaxMem= 13421772800 cpu:               2.0 elap:               0.1
 (Enter /public/software/apps/Gaussian/g16/l101.exe)
 ----------------------
 $$$$Singlemol####0????
 ----------------------
 Symbolic Z-matrix:
 Charge =  0 Multiplicity = 1
 O                     0.88404   2.75615  -1.97553 
 C                    -0.25464   2.06911  -1.69697 
 C                    -1.22839   2.00761  -2.71286 
 C                    -2.4055    1.35287  -2.50359 
 C                    -2.6705    0.71145  -1.27481 
 C                    -3.8746    0.02076  -1.04261 
 C                    -4.12544  -0.61408   0.14756 
 C                    -5.41439  -1.35359   0.3952 
 C                    -6.62427  -0.41654   0.30493 
 C                    -7.91411  -1.17762   0.59547 
 C                    -8.07977  -2.34059  -0.37795 
 C                    -6.87821  -3.27712  -0.2964 
 C                    -5.58752  -2.51772  -0.58722 
 C                    -3.13807  -0.57174   1.14974 
 C                    -1.95892   0.09218   0.96306 
 C                    -1.69152   0.76399  -0.24871 
 C                    -0.47849   1.46626  -0.473 
 C                     0.53634   1.59822   0.60404 
 C                     0.27249   2.41075   1.69157 
 O                    -0.90337   3.07572   1.83793 
 C                     1.2413    2.59677   2.69647 
 C                     2.45385   1.97919   2.61092 
 C                     2.76058   1.13194   1.52554 
 C                     4.0026    0.47604   1.42027 
 C                     4.29511  -0.35799   0.37224 
 C                     5.63126  -1.0461    0.28159 
 C                     6.3874   -0.6346   -0.98697 
 C                     7.75318  -1.31225  -1.03881 
 C                     7.59979  -2.82941  -0.98933 
 C                     6.84595  -3.24658   0.26982 
 C                     5.47918  -2.57108   0.32319 
 C                     3.31209  -0.56319  -0.61578 
 C                     2.09863   0.05874  -0.55044 
 C                     1.787     0.93395   0.51278 
 H                     1.48832   2.70032  -1.22211 
 H                    -1.00846   2.49895  -3.64735 
 H                    -3.15229   1.31391  -3.2829 
 H                    -4.60364   0.00113  -1.83978 
 H                    -5.38419  -1.7691    1.40899 
 H                    -6.67792   0.01675  -0.6955 
 H                    -6.50393   0.4032    1.01709 
 H                    -8.76777  -0.50099   0.51689 
 H                    -7.88654  -1.56256   1.61772 
 H                    -8.99618  -2.88934  -0.15054 
 H                    -8.16687  -1.95148  -1.39517 
 H                    -6.994    -4.09542  -1.01034 
 H                    -6.82604  -3.7125    0.70443 
 H                    -5.61655  -2.1332   -1.60837 
 H                    -4.73023  -3.19041  -0.50894 
 H                    -3.32075  -1.08072   2.0856 
 H                    -1.21174   0.1002    1.74365 
 H                    -1.49882   2.84408   1.11151 
 H                     0.98903   3.24403   3.52137 
 H                     3.19685   2.12951   3.38018 
 H                     4.73353   0.64414   2.19953 
 H                     6.23215  -0.74269   1.14683 
 H                     6.50664   0.45137  -1.00335 
 H                     5.80985  -0.91949  -1.86833 
 H                     8.27602  -1.01968  -1.95198 
 H                     8.35533  -0.98165  -0.18898 
 H                     8.58297  -3.30431  -1.0096 
 H                     7.04769  -3.16628  -1.86998 
 H                     6.72248  -4.3316    0.28852 
 H                     7.42685  -2.96159   1.15037 
 H                     4.95335  -2.85915   1.23657 
 H                     4.879    -2.90429  -0.52551 
 H                     3.51955  -1.22803  -1.4407 
 H                     1.35545  -0.12262  -1.31378 
 
 ITRead=  0  0  0  0  0  0  0  0  0  0  0  0  0  0  0  0  0  0  0  0
 ITRead=  0  0  0  0  0  0  0  0  0  0  0  0  0  0  0  0  0  0  0  0
 ITRead=  0  0  0  0  0  0  0  0  0  0  0  0  0  0  0  0  0  0  0  0
 ITRead=  0  0  0  0  0  0  0  0
 MicOpt= -1 -1 -1 -1 -1 -1 -1 -1 -1 -1 -1 -1 -1 -1 -1 -1 -1 -1 -1 -1
 MicOpt= -1 -1 -1 -1 -1 -1 -1 -1 -1 -1 -1 -1 -1 -1 -1 -1 -1 -1 -1 -1
 MicOpt= -1 -1 -1 -1 -1 -1 -1 -1 -1 -1 -1 -1 -1 -1 -1 -1 -1 -1 -1 -1
 MicOpt= -1 -1 -1 -1 -1 -1 -1 -1
 NAtoms=     68 NQM=       68 NQMF=       0 NMMI=      0 NMMIF=      0
                NMic=       0 NMicF=      0.
                    Isotopes and Nuclear Properties:
 (Nuclear quadrupole moments (NQMom) in fm**2, nuclear magnetic moments (NMagM)
  in nuclear magnetons)

  Atom         1           2           3           4           5           6           7           8           9          10
 IAtWgt=          16          12          12          12          12          12          12          12          12          12
 AtmWgt=  15.9949146  12.0000000  12.0000000  12.0000000  12.0000000  12.0000000  12.0000000  12.0000000  12.0000000  12.0000000
 NucSpn=           0           0           0           0           0           0           0           0           0           0
 AtZEff=  -0.0000000  -0.0000000  -0.0000000  -0.0000000  -0.0000000  -0.0000000  -0.0000000  -0.0000000  -0.0000000  -0.0000000
 NQMom=    0.0000000   0.0000000   0.0000000   0.0000000   0.0000000   0.0000000   0.0000000   0.0000000   0.0000000   0.0000000
 NMagM=    0.0000000   0.0000000   0.0000000   0.0000000   0.0000000   0.0000000   0.0000000   0.0000000   0.0000000   0.0000000
 AtZNuc=   8.0000000   6.0000000   6.0000000   6.0000000   6.0000000   6.0000000   6.0000000   6.0000000   6.0000000   6.0000000

  Atom        11          12          13          14          15          16          17          18          19          20
 IAtWgt=          12          12          12          12          12          12          12          12          12          16
 AtmWgt=  12.0000000  12.0000000  12.0000000  12.0000000  12.0000000  12.0000000  12.0000000  12.0000000  12.0000000  15.9949146
 NucSpn=           0           0           0           0           0           0           0           0           0           0
 AtZEff=  -0.0000000  -0.0000000  -0.0000000  -0.0000000  -0.0000000  -0.0000000  -0.0000000  -0.0000000  -0.0000000  -0.0000000
 NQMom=    0.0000000   0.0000000   0.0000000   0.0000000   0.0000000   0.0000000   0.0000000   0.0000000   0.0000000   0.0000000
 NMagM=    0.0000000   0.0000000   0.0000000   0.0000000   0.0000000   0.0000000   0.0000000   0.0000000   0.0000000   0.0000000
 AtZNuc=   6.0000000   6.0000000   6.0000000   6.0000000   6.0000000   6.0000000   6.0000000   6.0000000   6.0000000   8.0000000

  Atom        21          22          23          24          25          26          27          28          29          30
 IAtWgt=          12          12          12          12          12          12          12          12          12          12
 AtmWgt=  12.0000000  12.0000000  12.0000000  12.0000000  12.0000000  12.0000000  12.0000000  12.0000000  12.0000000  12.0000000
 NucSpn=           0           0           0           0           0           0           0           0           0           0
 AtZEff=  -0.0000000  -0.0000000  -0.0000000  -0.0000000  -0.0000000  -0.0000000  -0.0000000  -0.0000000  -0.0000000  -0.0000000
 NQMom=    0.0000000   0.0000000   0.0000000   0.0000000   0.0000000   0.0000000   0.0000000   0.0000000   0.0000000   0.0000000
 NMagM=    0.0000000   0.0000000   0.0000000   0.0000000   0.0000000   0.0000000   0.0000000   0.0000000   0.0000000   0.0000000
 AtZNuc=   6.0000000   6.0000000   6.0000000   6.0000000   6.0000000   6.0000000   6.0000000   6.0000000   6.0000000   6.0000000

  Atom        31          32          33          34          35          36          37          38          39          40
 IAtWgt=          12          12          12          12           1           1           1           1           1           1
 AtmWgt=  12.0000000  12.0000000  12.0000000  12.0000000   1.0078250   1.0078250   1.0078250   1.0078250   1.0078250   1.0078250
 NucSpn=           0           0           0           0           1           1           1           1           1           1
 AtZEff=  -0.0000000  -0.0000000  -0.0000000  -0.0000000  -0.0000000  -0.0000000  -0.0000000  -0.0000000  -0.0000000  -0.0000000
 NQMom=    0.0000000   0.0000000   0.0000000   0.0000000   0.0000000   0.0000000   0.0000000   0.0000000   0.0000000   0.0000000
 NMagM=    0.0000000   0.0000000   0.0000000   0.0000000   2.7928460   2.7928460   2.7928460   2.7928460   2.7928460   2.7928460
 AtZNuc=   6.0000000   6.0000000   6.0000000   6.0000000   1.0000000   1.0000000   1.0000000   1.0000000   1.0000000   1.0000000

  Atom        41          42          43          44          45          46          47          48          49          50
 IAtWgt=           1           1           1           1           1           1           1           1           1           1
 AtmWgt=   1.0078250   1.0078250   1.0078250   1.0078250   1.0078250   1.0078250   1.0078250   1.0078250   1.0078250   1.0078250
 NucSpn=           1           1           1           1           1           1           1           1           1           1
 AtZEff=  -0.0000000  -0.0000000  -0.0000000  -0.0000000  -0.0000000  -0.0000000  -0.0000000  -0.0000000  -0.0000000  -0.0000000
 NQMom=    0.0000000   0.0000000   0.0000000   0.0000000   0.0000000   0.0000000   0.0000000   0.0000000   0.0000000   0.0000000
 NMagM=    2.7928460   2.7928460   2.7928460   2.7928460   2.7928460   2.7928460   2.7928460   2.7928460   2.7928460   2.7928460
 AtZNuc=   1.0000000   1.0000000   1.0000000   1.0000000   1.0000000   1.0000000   1.0000000   1.0000000   1.0000000   1.0000000

  Atom        51          52          53          54          55          56          57          58          59          60
 IAtWgt=           1           1           1           1           1           1           1           1           1           1
 AtmWgt=   1.0078250   1.0078250   1.0078250   1.0078250   1.0078250   1.0078250   1.0078250   1.0078250   1.0078250   1.0078250
 NucSpn=           1           1           1           1           1           1           1           1           1           1
 AtZEff=  -0.0000000  -0.0000000  -0.0000000  -0.0000000  -0.0000000  -0.0000000  -0.0000000  -0.0000000  -0.0000000  -0.0000000
 NQMom=    0.0000000   0.0000000   0.0000000   0.0000000   0.0000000   0.0000000   0.0000000   0.0000000   0.0000000   0.0000000
 NMagM=    2.7928460   2.7928460   2.7928460   2.7928460   2.7928460   2.7928460   2.7928460   2.7928460   2.7928460   2.7928460
 AtZNuc=   1.0000000   1.0000000   1.0000000   1.0000000   1.0000000   1.0000000   1.0000000   1.0000000   1.0000000   1.0000000

  Atom        61          62          63          64          65          66          67          68
 IAtWgt=           1           1           1           1           1           1           1           1
 AtmWgt=   1.0078250   1.0078250   1.0078250   1.0078250   1.0078250   1.0078250   1.0078250   1.0078250
 NucSpn=           1           1           1           1           1           1           1           1
 AtZEff=  -0.0000000  -0.0000000  -0.0000000  -0.0000000  -0.0000000  -0.0000000  -0.0000000  -0.0000000
 NQMom=    0.0000000   0.0000000   0.0000000   0.0000000   0.0000000   0.0000000   0.0000000   0.0000000
 NMagM=    2.7928460   2.7928460   2.7928460   2.7928460   2.7928460   2.7928460   2.7928460   2.7928460
 AtZNuc=   1.0000000   1.0000000   1.0000000   1.0000000   1.0000000   1.0000000   1.0000000   1.0000000
 Leave Link  101 at Sat Jul  5 15:21:07 2025, MaxMem= 13421772800 cpu:               6.2 elap:               0.2
 (Enter /public/software/apps/Gaussian/g16/l103.exe)

 GradGradGradGradGradGradGradGradGradGradGradGradGradGradGradGradGradGrad
 Berny optimization.
 Initialization pass.
                           ----------------------------
                           !    Initial Parameters    !
                           ! (Angstroms and Degrees)  !
 --------------------------                            --------------------------
 ! Name  Definition              Value          Derivative Info.                !
 --------------------------------------------------------------------------------
 ! R1    R(1,2)                  1.3587         estimate D2E/DX2                !
 ! R2    R(1,35)                 0.9674         estimate D2E/DX2                !
 ! R3    R(2,3)                  1.4086         estimate D2E/DX2                !
 ! R4    R(2,17)                 1.3826         estimate D2E/DX2                !
 ! R5    R(3,4)                  1.3631         estimate D2E/DX2                !
 ! R6    R(3,36)                 1.0784         estimate D2E/DX2                !
 ! R7    R(4,5)                  1.4112         estimate D2E/DX2                !
 ! R8    R(4,37)                 1.0801         estimate D2E/DX2                !
 ! R9    R(5,6)                  1.4074         estimate D2E/DX2                !
 ! R10   R(5,16)                 1.4192         estimate D2E/DX2                !
 ! R11   R(6,7)                  1.372          estimate D2E/DX2                !
 ! R12   R(6,38)                 1.0804         estimate D2E/DX2                !
 ! R13   R(7,8)                  1.5065         estimate D2E/DX2                !
 ! R14   R(7,14)                 1.4075         estimate D2E/DX2                !
 ! R15   R(8,9)                  1.533          estimate D2E/DX2                !
 ! R16   R(8,13)                 1.5331         estimate D2E/DX2                !
 ! R17   R(8,39)                 1.0961         estimate D2E/DX2                !
 ! R18   R(9,10)                 1.5256         estimate D2E/DX2                !
 ! R19   R(9,40)                 1.0915         estimate D2E/DX2                !
 ! R20   R(9,41)                 1.0925         estimate D2E/DX2                !
 ! R21   R(10,11)                1.5256         estimate D2E/DX2                !
 ! R22   R(10,42)                1.0921         estimate D2E/DX2                !
 ! R23   R(10,43)                1.0927         estimate D2E/DX2                !
 ! R24   R(11,12)                1.5256         estimate D2E/DX2                !
 ! R25   R(11,44)                1.0921         estimate D2E/DX2                !
 ! R26   R(11,45)                1.0926         estimate D2E/DX2                !
 ! R27   R(12,13)                1.5255         estimate D2E/DX2                !
 ! R28   R(12,46)                1.0921         estimate D2E/DX2                !
 ! R29   R(12,47)                1.0927         estimate D2E/DX2                !
 ! R30   R(13,48)                1.0915         estimate D2E/DX2                !
 ! R31   R(13,49)                1.0925         estimate D2E/DX2                !
 ! R32   R(14,15)                1.366          estimate D2E/DX2                !
 ! R33   R(14,50)                1.0809         estimate D2E/DX2                !
 ! R34   R(15,16)                1.4111         estimate D2E/DX2                !
 ! R35   R(15,51)                1.0806         estimate D2E/DX2                !
 ! R36   R(16,17)                1.4195         estimate D2E/DX2                !
 ! R37   R(17,18)                1.4857         estimate D2E/DX2                !
 ! R38   R(18,19)                1.3829         estimate D2E/DX2                !
 ! R39   R(18,34)                1.4191         estimate D2E/DX2                !
 ! R40   R(19,20)                1.3588         estimate D2E/DX2                !
 ! R41   R(19,21)                1.4082         estimate D2E/DX2                !
 ! R42   R(20,52)                0.9674         estimate D2E/DX2                !
 ! R43   R(21,22)                1.3635         estimate D2E/DX2                !
 ! R44   R(21,53)                1.0784         estimate D2E/DX2                !
 ! R45   R(22,23)                1.4107         estimate D2E/DX2                !
 ! R46   R(22,54)                1.08           estimate D2E/DX2                !
 ! R47   R(23,24)                1.4085         estimate D2E/DX2                !
 ! R48   R(23,34)                1.4187         estimate D2E/DX2                !
 ! R49   R(24,25)                1.371          estimate D2E/DX2                !
 ! R50   R(24,55)                1.0816         estimate D2E/DX2                !
 ! R51   R(25,26)                1.5057         estimate D2E/DX2                !
 ! R52   R(25,32)                1.4088         estimate D2E/DX2                !
 ! R53   R(26,27)                1.5331         estimate D2E/DX2                !
 ! R54   R(26,31)                1.5331         estimate D2E/DX2                !
 ! R55   R(26,56)                1.0962         estimate D2E/DX2                !
 ! R56   R(27,28)                1.5255         estimate D2E/DX2                !
 ! R57   R(27,57)                1.0926         estimate D2E/DX2                !
 ! R58   R(27,58)                1.0916         estimate D2E/DX2                !
 ! R59   R(28,29)                1.5257         estimate D2E/DX2                !
 ! R60   R(28,59)                1.0922         estimate D2E/DX2                !
 ! R61   R(28,60)                1.0927         estimate D2E/DX2                !
 ! R62   R(29,30)                1.5257         estimate D2E/DX2                !
 ! R63   R(29,61)                1.0921         estimate D2E/DX2                !
 ! R64   R(29,62)                1.0926         estimate D2E/DX2                !
 ! R65   R(30,31)                1.5255         estimate D2E/DX2                !
 ! R66   R(30,63)                1.0922         estimate D2E/DX2                !
 ! R67   R(30,64)                1.0927         estimate D2E/DX2                !
 ! R68   R(31,65)                1.0926         estimate D2E/DX2                !
 ! R69   R(31,66)                1.0916         estimate D2E/DX2                !
 ! R70   R(32,33)                1.3651         estimate D2E/DX2                !
 ! R71   R(32,67)                1.0796         estimate D2E/DX2                !
 ! R72   R(33,34)                1.4119         estimate D2E/DX2                !
 ! R73   R(33,68)                1.0807         estimate D2E/DX2                !
 ! A1    A(2,1,35)             109.5495         estimate D2E/DX2                !
 ! A2    A(1,2,3)              116.9724         estimate D2E/DX2                !
 ! A3    A(1,2,17)             122.523          estimate D2E/DX2                !
 ! A4    A(3,2,17)             120.4981         estimate D2E/DX2                !
 ! A5    A(2,3,4)              120.4794         estimate D2E/DX2                !
 ! A6    A(2,3,36)             117.6508         estimate D2E/DX2                !
 ! A7    A(4,3,36)             121.8687         estimate D2E/DX2                !
 ! A8    A(3,4,5)              120.9407         estimate D2E/DX2                !
 ! A9    A(3,4,37)             120.2408         estimate D2E/DX2                !
 ! A10   A(5,4,37)             118.818          estimate D2E/DX2                !
 ! A11   A(4,5,6)              121.827          estimate D2E/DX2                !
 ! A12   A(4,5,16)             118.8942         estimate D2E/DX2                !
 ! A13   A(6,5,16)             119.2785         estimate D2E/DX2                !
 ! A14   A(5,6,7)              121.7761         estimate D2E/DX2                !
 ! A15   A(5,6,38)             117.676          estimate D2E/DX2                !
 ! A16   A(7,6,38)             120.5475         estimate D2E/DX2                !
 ! A17   A(6,7,8)              121.7452         estimate D2E/DX2                !
 ! A18   A(6,7,14)             118.3901         estimate D2E/DX2                !
 ! A19   A(8,7,14)             119.8631         estimate D2E/DX2                !
 ! A20   A(7,8,9)              111.4397         estimate D2E/DX2                !
 ! A21   A(7,8,13)             111.348          estimate D2E/DX2                !
 ! A22   A(7,8,39)             108.334          estimate D2E/DX2                !
 ! A23   A(9,8,13)             109.7121         estimate D2E/DX2                !
 ! A24   A(9,8,39)             107.9349         estimate D2E/DX2                !
 ! A25   A(13,8,39)            107.9369         estimate D2E/DX2                !
 ! A26   A(8,9,10)             110.5561         estimate D2E/DX2                !
 ! A27   A(8,9,40)             109.597          estimate D2E/DX2                !
 ! A28   A(8,9,41)             109.4703         estimate D2E/DX2                !
 ! A29   A(10,9,40)            109.3308         estimate D2E/DX2                !
 ! A30   A(10,9,41)            110.0782         estimate D2E/DX2                !
 ! A31   A(40,9,41)            107.759          estimate D2E/DX2                !
 ! A32   A(9,10,11)            110.5237         estimate D2E/DX2                !
 ! A33   A(9,10,42)            109.7607         estimate D2E/DX2                !
 ! A34   A(9,10,43)            109.4265         estimate D2E/DX2                !
 ! A35   A(11,10,42)           109.9682         estimate D2E/DX2                !
 ! A36   A(11,10,43)           109.3364         estimate D2E/DX2                !
 ! A37   A(42,10,43)           107.7756         estimate D2E/DX2                !
 ! A38   A(10,11,12)           110.3845         estimate D2E/DX2                !
 ! A39   A(10,11,44)           109.9561         estimate D2E/DX2                !
 ! A40   A(10,11,45)           109.3419         estimate D2E/DX2                !
 ! A41   A(12,11,44)           109.9569         estimate D2E/DX2                !
 ! A42   A(12,11,45)           109.3404         estimate D2E/DX2                !
 ! A43   A(44,11,45)           107.8144         estimate D2E/DX2                !
 ! A44   A(11,12,13)           110.5233         estimate D2E/DX2                !
 ! A45   A(11,12,46)           109.9685         estimate D2E/DX2                !
 ! A46   A(11,12,47)           109.3393         estimate D2E/DX2                !
 ! A47   A(13,12,46)           109.7592         estimate D2E/DX2                !
 ! A48   A(13,12,47)           109.4255         estimate D2E/DX2                !
 ! A49   A(46,12,47)           107.7752         estimate D2E/DX2                !
 ! A50   A(8,13,12)            110.5721         estimate D2E/DX2                !
 ! A51   A(8,13,48)            109.5728         estimate D2E/DX2                !
 ! A52   A(8,13,49)            109.4521         estimate D2E/DX2                !
 ! A53   A(12,13,48)           109.3423         estimate D2E/DX2                !
 ! A54   A(12,13,49)           110.1048         estimate D2E/DX2                !
 ! A55   A(48,13,49)           107.7463         estimate D2E/DX2                !
 ! A56   A(7,14,15)            121.5242         estimate D2E/DX2                !
 ! A57   A(7,14,50)            118.9316         estimate D2E/DX2                !
 ! A58   A(15,14,50)           119.5438         estimate D2E/DX2                !
 ! A59   A(14,15,16)           120.8184         estimate D2E/DX2                !
 ! A60   A(14,15,51)           120.1162         estimate D2E/DX2                !
 ! A61   A(16,15,51)           119.0627         estimate D2E/DX2                !
 ! A62   A(5,16,15)            118.1997         estimate D2E/DX2                !
 ! A63   A(5,16,17)            119.5752         estimate D2E/DX2                !
 ! A64   A(15,16,17)           122.2196         estimate D2E/DX2                !
 ! A65   A(2,17,16)            119.6006         estimate D2E/DX2                !
 ! A66   A(2,17,18)            119.5006         estimate D2E/DX2                !
 ! A67   A(16,17,18)           120.8715         estimate D2E/DX2                !
 ! A68   A(17,18,19)           119.4685         estimate D2E/DX2                !
 ! A69   A(17,18,34)           120.9176         estimate D2E/DX2                !
 ! A70   A(19,18,34)           119.5873         estimate D2E/DX2                !
 ! A71   A(18,19,20)           122.5032         estimate D2E/DX2                !
 ! A72   A(18,19,21)           120.4993         estimate D2E/DX2                !
 ! A73   A(20,19,21)           116.9909         estimate D2E/DX2                !
 ! A74   A(19,20,52)           109.5472         estimate D2E/DX2                !
 ! A75   A(19,21,22)           120.479          estimate D2E/DX2                !
 ! A76   A(19,21,53)           117.6581         estimate D2E/DX2                !
 ! A77   A(22,21,53)           121.8618         estimate D2E/DX2                !
 ! A78   A(21,22,23)           120.91           estimate D2E/DX2                !
 ! A79   A(21,22,54)           120.2708         estimate D2E/DX2                !
 ! A80   A(23,22,54)           118.8188         estimate D2E/DX2                !
 ! A81   A(22,23,24)           121.9323         estimate D2E/DX2                !
 ! A82   A(22,23,34)           118.9379         estimate D2E/DX2                !
 ! A83   A(24,23,34)           119.1296         estimate D2E/DX2                !
 ! A84   A(23,24,25)           121.9084         estimate D2E/DX2                !
 ! A85   A(23,24,55)           118.0149         estimate D2E/DX2                !
 ! A86   A(25,24,55)           120.0763         estimate D2E/DX2                !
 ! A87   A(24,25,26)           120.89           estimate D2E/DX2                !
 ! A88   A(24,25,32)           118.4161         estimate D2E/DX2                !
 ! A89   A(26,25,32)           120.6928         estimate D2E/DX2                !
 ! A90   A(25,26,27)           111.3979         estimate D2E/DX2                !
 ! A91   A(25,26,31)           111.4031         estimate D2E/DX2                !
 ! A92   A(25,26,56)           108.2049         estimate D2E/DX2                !
 ! A93   A(27,26,31)           109.7777         estimate D2E/DX2                !
 ! A94   A(27,26,56)           107.966          estimate D2E/DX2                !
 ! A95   A(31,26,56)           107.9541         estimate D2E/DX2                !
 ! A96   A(26,27,28)           110.5149         estimate D2E/DX2                !
 ! A97   A(26,27,57)           109.4519         estimate D2E/DX2                !
 ! A98   A(26,27,58)           109.6999         estimate D2E/DX2                !
 ! A99   A(28,27,57)           110.0774         estimate D2E/DX2                !
 ! A100  A(28,27,58)           109.2884         estimate D2E/DX2                !
 ! A101  A(57,27,58)           107.7606         estimate D2E/DX2                !
 ! A102  A(27,28,29)           110.5246         estimate D2E/DX2                !
 ! A103  A(27,28,59)           109.7551         estimate D2E/DX2                !
 ! A104  A(27,28,60)           109.4221         estimate D2E/DX2                !
 ! A105  A(29,28,59)           109.9758         estimate D2E/DX2                !
 ! A106  A(29,28,60)           109.3312         estimate D2E/DX2                !
 ! A107  A(59,28,60)           107.7823         estimate D2E/DX2                !
 ! A108  A(28,29,30)           110.3856         estimate D2E/DX2                !
 ! A109  A(28,29,61)           109.9573         estimate D2E/DX2                !
 ! A110  A(28,29,62)           109.3445         estimate D2E/DX2                !
 ! A111  A(30,29,61)           109.9529         estimate D2E/DX2                !
 ! A112  A(30,29,62)           109.3425         estimate D2E/DX2                !
 ! A113  A(61,29,62)           107.8115         estimate D2E/DX2                !
 ! A114  A(29,30,31)           110.5165         estimate D2E/DX2                !
 ! A115  A(29,30,63)           109.9757         estimate D2E/DX2                !
 ! A116  A(29,30,64)           109.3335         estimate D2E/DX2                !
 ! A117  A(31,30,63)           109.7559         estimate D2E/DX2                !
 ! A118  A(31,30,64)           109.4273         estimate D2E/DX2                !
 ! A119  A(63,30,64)           107.7824         estimate D2E/DX2                !
 ! A120  A(26,31,30)           110.5259         estimate D2E/DX2                !
 ! A121  A(26,31,65)           109.4319         estimate D2E/DX2                !
 ! A122  A(26,31,66)           109.6992         estimate D2E/DX2                !
 ! A123  A(30,31,65)           110.1018         estimate D2E/DX2                !
 ! A124  A(30,31,66)           109.2835         estimate D2E/DX2                !
 ! A125  A(65,31,66)           107.7504         estimate D2E/DX2                !
 ! A126  A(25,32,33)           121.3548         estimate D2E/DX2                !
 ! A127  A(25,32,67)           119.4394         estimate D2E/DX2                !
 ! A128  A(33,32,67)           119.2055         estimate D2E/DX2                !
 ! A129  A(32,33,34)           120.9732         estimate D2E/DX2                !
 ! A130  A(32,33,68)           120.068          estimate D2E/DX2                !
 ! A131  A(34,33,68)           118.9561         estimate D2E/DX2                !
 ! A132  A(18,34,23)           119.5753         estimate D2E/DX2                !
 ! A133  A(18,34,33)           122.2159         estimate D2E/DX2                !
 ! A134  A(23,34,33)           118.2034         estimate D2E/DX2                !
 ! D1    D(35,1,2,3)          -177.7687         estimate D2E/DX2                !
 ! D2    D(35,1,2,17)            3.1635         estimate D2E/DX2                !
 ! D3    D(1,2,3,4)           -179.0823         estimate D2E/DX2                !
 ! D4    D(1,2,3,36)             0.5412         estimate D2E/DX2                !
 ! D5    D(17,2,3,4)             0.0054         estimate D2E/DX2                !
 ! D6    D(17,2,3,36)          179.629          estimate D2E/DX2                !
 ! D7    D(1,2,17,16)          179.975          estimate D2E/DX2                !
 ! D8    D(1,2,17,18)            1.8577         estimate D2E/DX2                !
 ! D9    D(3,2,17,16)            0.9392         estimate D2E/DX2                !
 ! D10   D(3,2,17,18)         -177.1781         estimate D2E/DX2                !
 ! D11   D(2,3,4,5)             -0.6735         estimate D2E/DX2                !
 ! D12   D(2,3,4,37)           179.5781         estimate D2E/DX2                !
 ! D13   D(36,3,4,5)           179.7191         estimate D2E/DX2                !
 ! D14   D(36,3,4,37)           -0.0293         estimate D2E/DX2                !
 ! D15   D(3,4,5,6)           -179.4605         estimate D2E/DX2                !
 ! D16   D(3,4,5,16)             0.3777         estimate D2E/DX2                !
 ! D17   D(37,4,5,6)             0.2914         estimate D2E/DX2                !
 ! D18   D(37,4,5,16)         -179.8705         estimate D2E/DX2                !
 ! D19   D(4,5,6,7)            179.3206         estimate D2E/DX2                !
 ! D20   D(4,5,6,38)            -0.4463         estimate D2E/DX2                !
 ! D21   D(16,5,6,7)            -0.517          estimate D2E/DX2                !
 ! D22   D(16,5,6,38)          179.7161         estimate D2E/DX2                !
 ! D23   D(4,5,16,15)         -178.5929         estimate D2E/DX2                !
 ! D24   D(4,5,16,17)            0.5664         estimate D2E/DX2                !
 ! D25   D(6,5,16,15)            1.2495         estimate D2E/DX2                !
 ! D26   D(6,5,16,17)         -179.5913         estimate D2E/DX2                !
 ! D27   D(5,6,7,8)           -179.9797         estimate D2E/DX2                !
 ! D28   D(5,6,7,14)            -0.4363         estimate D2E/DX2                !
 ! D29   D(38,6,7,8)            -0.2195         estimate D2E/DX2                !
 ! D30   D(38,6,7,14)          179.324          estimate D2E/DX2                !
 ! D31   D(6,7,8,9)            -61.1504         estimate D2E/DX2                !
 ! D32   D(6,7,8,13)            61.7069         estimate D2E/DX2                !
 ! D33   D(6,7,8,39)          -179.7476         estimate D2E/DX2                !
 ! D34   D(14,7,8,9)           119.3127         estimate D2E/DX2                !
 ! D35   D(14,7,8,13)         -117.83           estimate D2E/DX2                !
 ! D36   D(14,7,8,39)            0.7155         estimate D2E/DX2                !
 ! D37   D(6,7,14,15)            0.6503         estimate D2E/DX2                !
 ! D38   D(6,7,14,50)         -179.1457         estimate D2E/DX2                !
 ! D39   D(8,7,14,15)         -179.7974         estimate D2E/DX2                !
 ! D40   D(8,7,14,50)            0.4066         estimate D2E/DX2                !
 ! D41   D(7,8,9,10)          -178.4866         estimate D2E/DX2                !
 ! D42   D(7,8,9,40)            60.9309         estimate D2E/DX2                !
 ! D43   D(7,8,9,41)           -57.0563         estimate D2E/DX2                !
 ! D44   D(13,8,9,10)           57.7243         estimate D2E/DX2                !
 ! D45   D(13,8,9,40)          -62.8582         estimate D2E/DX2                !
 ! D46   D(13,8,9,41)          179.1547         estimate D2E/DX2                !
 ! D47   D(39,8,9,10)          -59.6509         estimate D2E/DX2                !
 ! D48   D(39,8,9,40)          179.7666         estimate D2E/DX2                !
 ! D49   D(39,8,9,41)           61.7795         estimate D2E/DX2                !
 ! D50   D(7,8,13,12)          178.4417         estimate D2E/DX2                !
 ! D51   D(7,8,13,48)          -60.967          estimate D2E/DX2                !
 ! D52   D(7,8,13,49)           56.9798         estimate D2E/DX2                !
 ! D53   D(9,8,13,12)          -57.7156         estimate D2E/DX2                !
 ! D54   D(9,8,13,48)           62.8758         estimate D2E/DX2                !
 ! D55   D(9,8,13,49)         -179.1775         estimate D2E/DX2                !
 ! D56   D(39,8,13,12)          59.6583         estimate D2E/DX2                !
 ! D57   D(39,8,13,48)        -179.7504         estimate D2E/DX2                !
 ! D58   D(39,8,13,49)         -61.8036         estimate D2E/DX2                !
 ! D59   D(8,9,10,11)          -57.9145         estimate D2E/DX2                !
 ! D60   D(8,9,10,42)         -179.3774         estimate D2E/DX2                !
 ! D61   D(8,9,10,43)           62.5446         estimate D2E/DX2                !
 ! D62   D(40,9,10,11)          62.8267         estimate D2E/DX2                !
 ! D63   D(40,9,10,42)         -58.6362         estimate D2E/DX2                !
 ! D64   D(40,9,10,43)        -176.7142         estimate D2E/DX2                !
 ! D65   D(41,9,10,11)        -178.9847         estimate D2E/DX2                !
 ! D66   D(41,9,10,42)          59.5524         estimate D2E/DX2                !
 ! D67   D(41,9,10,43)         -58.5256         estimate D2E/DX2                !
 ! D68   D(9,10,11,12)          57.5072         estimate D2E/DX2                !
 ! D69   D(9,10,11,44)         178.994          estimate D2E/DX2                !
 ! D70   D(9,10,11,45)         -62.8157         estimate D2E/DX2                !
 ! D71   D(42,10,11,12)        178.8472         estimate D2E/DX2                !
 ! D72   D(42,10,11,44)        -59.666          estimate D2E/DX2                !
 ! D73   D(42,10,11,45)         58.5244         estimate D2E/DX2                !
 ! D74   D(43,10,11,12)        -63.0058         estimate D2E/DX2                !
 ! D75   D(43,10,11,44)         58.481          estimate D2E/DX2                !
 ! D76   D(43,10,11,45)        176.6713         estimate D2E/DX2                !
 ! D77   D(10,11,12,13)        -57.4888         estimate D2E/DX2                !
 ! D78   D(10,11,12,46)       -178.827          estimate D2E/DX2                !
 ! D79   D(10,11,12,47)         63.0246         estimate D2E/DX2                !
 ! D80   D(44,11,12,13)       -178.9751         estimate D2E/DX2                !
 ! D81   D(44,11,12,46)         59.6867         estimate D2E/DX2                !
 ! D82   D(44,11,12,47)        -58.4617         estimate D2E/DX2                !
 ! D83   D(45,11,12,13)         62.835          estimate D2E/DX2                !
 ! D84   D(45,11,12,46)        -58.5032         estimate D2E/DX2                !
 ! D85   D(45,11,12,47)       -176.6516         estimate D2E/DX2                !
 ! D86   D(11,12,13,8)          57.8851         estimate D2E/DX2                !
 ! D87   D(11,12,13,48)        -62.8436         estimate D2E/DX2                !
 ! D88   D(11,12,13,49)        178.9605         estimate D2E/DX2                !
 ! D89   D(46,12,13,8)         179.3471         estimate D2E/DX2                !
 ! D90   D(46,12,13,48)         58.6184         estimate D2E/DX2                !
 ! D91   D(46,12,13,49)        -59.5774         estimate D2E/DX2                !
 ! D92   D(47,12,13,8)         -62.5768         estimate D2E/DX2                !
 ! D93   D(47,12,13,48)        176.6945         estimate D2E/DX2                !
 ! D94   D(47,12,13,49)         58.4986         estimate D2E/DX2                !
 ! D95   D(7,14,15,16)           0.1104         estimate D2E/DX2                !
 ! D96   D(7,14,15,51)        -179.2762         estimate D2E/DX2                !
 ! D97   D(50,14,15,16)        179.9051         estimate D2E/DX2                !
 ! D98   D(50,14,15,51)          0.5185         estimate D2E/DX2                !
 ! D99   D(14,15,16,5)          -1.0594         estimate D2E/DX2                !
 ! D100  D(14,15,16,17)        179.8049         estimate D2E/DX2                !
 ! D101  D(51,15,16,5)         178.3336         estimate D2E/DX2                !
 ! D102  D(51,15,16,17)         -0.8021         estimate D2E/DX2                !
 ! D103  D(5,16,17,2)           -1.2168         estimate D2E/DX2                !
 ! D104  D(5,16,17,18)         176.8741         estimate D2E/DX2                !
 ! D105  D(15,16,17,2)         177.9073         estimate D2E/DX2                !
 ! D106  D(15,16,17,18)         -4.0017         estimate D2E/DX2                !
 ! D107  D(2,17,18,19)         107.5604         estimate D2E/DX2                !
 ! D108  D(2,17,18,34)         -70.5579         estimate D2E/DX2                !
 ! D109  D(16,17,18,19)        -70.5325         estimate D2E/DX2                !
 ! D110  D(16,17,18,34)        111.3492         estimate D2E/DX2                !
 ! D111  D(17,18,19,20)          1.7656         estimate D2E/DX2                !
 ! D112  D(17,18,19,21)       -177.2705         estimate D2E/DX2                !
 ! D113  D(34,18,19,20)        179.9092         estimate D2E/DX2                !
 ! D114  D(34,18,19,21)          0.8731         estimate D2E/DX2                !
 ! D115  D(17,18,34,23)        176.9181         estimate D2E/DX2                !
 ! D116  D(17,18,34,33)         -3.9424         estimate D2E/DX2                !
 ! D117  D(19,18,34,23)         -1.198          estimate D2E/DX2                !
 ! D118  D(19,18,34,33)        177.9415         estimate D2E/DX2                !
 ! D119  D(18,19,20,52)          3.1948         estimate D2E/DX2                !
 ! D120  D(21,19,20,52)       -177.7373         estimate D2E/DX2                !
 ! D121  D(18,19,21,22)          0.0538         estimate D2E/DX2                !
 ! D122  D(18,19,21,53)        179.6854         estimate D2E/DX2                !
 ! D123  D(20,19,21,22)       -179.0339         estimate D2E/DX2                !
 ! D124  D(20,19,21,53)          0.5977         estimate D2E/DX2                !
 ! D125  D(19,21,22,23)         -0.6551         estimate D2E/DX2                !
 ! D126  D(19,21,22,54)        179.5873         estimate D2E/DX2                !
 ! D127  D(53,21,22,23)        179.7292         estimate D2E/DX2                !
 ! D128  D(53,21,22,54)         -0.0285         estimate D2E/DX2                !
 ! D129  D(21,22,23,24)       -179.5556         estimate D2E/DX2                !
 ! D130  D(21,22,23,34)          0.313          estimate D2E/DX2                !
 ! D131  D(54,22,23,24)          0.2055         estimate D2E/DX2                !
 ! D132  D(54,22,23,34)       -179.9259         estimate D2E/DX2                !
 ! D133  D(22,23,24,25)        179.3212         estimate D2E/DX2                !
 ! D134  D(22,23,24,55)         -0.4664         estimate D2E/DX2                !
 ! D135  D(34,23,24,25)         -0.5471         estimate D2E/DX2                !
 ! D136  D(34,23,24,55)        179.6652         estimate D2E/DX2                !
 ! D137  D(22,23,34,18)          0.6122         estimate D2E/DX2                !
 ! D138  D(22,23,34,33)       -178.5617         estimate D2E/DX2                !
 ! D139  D(24,23,34,18)       -179.5155         estimate D2E/DX2                !
 ! D140  D(24,23,34,33)          1.3106         estimate D2E/DX2                !
 ! D141  D(23,24,25,26)        179.9138         estimate D2E/DX2                !
 ! D142  D(23,24,25,32)         -0.4599         estimate D2E/DX2                !
 ! D143  D(55,24,25,26)         -0.3028         estimate D2E/DX2                !
 ! D144  D(55,24,25,32)        179.3235         estimate D2E/DX2                !
 ! D145  D(24,25,26,27)       -118.9853         estimate D2E/DX2                !
 ! D146  D(24,25,26,31)        118.0629         estimate D2E/DX2                !
 ! D147  D(24,25,26,56)         -0.4555         estimate D2E/DX2                !
 ! D148  D(32,25,26,27)         61.397          estimate D2E/DX2                !
 ! D149  D(32,25,26,31)        -61.5548         estimate D2E/DX2                !
 ! D150  D(32,25,26,56)        179.9268         estimate D2E/DX2                !
 ! D151  D(24,25,32,33)          0.6948         estimate D2E/DX2                !
 ! D152  D(24,25,32,67)       -179.1067         estimate D2E/DX2                !
 ! D153  D(26,25,32,33)       -179.6782         estimate D2E/DX2                !
 ! D154  D(26,25,32,67)          0.5203         estimate D2E/DX2                !
 ! D155  D(25,26,27,28)        178.4043         estimate D2E/DX2                !
 ! D156  D(25,26,27,57)         57.0134         estimate D2E/DX2                !
 ! D157  D(25,26,27,58)        -61.0255         estimate D2E/DX2                !
 ! D158  D(31,26,27,28)        -57.7183         estimate D2E/DX2                !
 ! D159  D(31,26,27,57)       -179.1092         estimate D2E/DX2                !
 ! D160  D(31,26,27,58)         62.8518         estimate D2E/DX2                !
 ! D161  D(56,26,27,28)         59.7314         estimate D2E/DX2                !
 ! D162  D(56,26,27,57)        -61.6595         estimate D2E/DX2                !
 ! D163  D(56,26,27,58)       -179.6985         estimate D2E/DX2                !
 ! D164  D(25,26,31,30)       -178.4042         estimate D2E/DX2                !
 ! D165  D(25,26,31,65)        -56.9889         estimate D2E/DX2                !
 ! D166  D(25,26,31,66)         61.0253         estimate D2E/DX2                !
 ! D167  D(27,26,31,30)         57.7215         estimate D2E/DX2                !
 ! D168  D(27,26,31,65)        179.1368         estimate D2E/DX2                !
 ! D169  D(27,26,31,66)        -62.849          estimate D2E/DX2                !
 ! D170  D(56,26,31,30)        -59.7356         estimate D2E/DX2                !
 ! D171  D(56,26,31,65)         61.6796         estimate D2E/DX2                !
 ! D172  D(56,26,31,66)        179.6939         estimate D2E/DX2                !
 ! D173  D(26,27,28,29)         57.8921         estimate D2E/DX2                !
 ! D174  D(26,27,28,59)        179.3614         estimate D2E/DX2                !
 ! D175  D(26,27,28,60)        -62.5583         estimate D2E/DX2                !
 ! D176  D(57,27,28,29)        178.912          estimate D2E/DX2                !
 ! D177  D(57,27,28,59)        -59.6187         estimate D2E/DX2                !
 ! D178  D(57,27,28,60)         58.4615         estimate D2E/DX2                !
 ! D179  D(58,27,28,29)        -62.9234         estimate D2E/DX2                !
 ! D180  D(58,27,28,59)         58.5459         estimate D2E/DX2                !
 ! D181  D(58,27,28,60)        176.6261         estimate D2E/DX2                !
 ! D182  D(27,28,29,30)        -57.5471         estimate D2E/DX2                !
 ! D183  D(27,28,29,61)       -179.0303         estimate D2E/DX2                !
 ! D184  D(27,28,29,62)         62.7806         estimate D2E/DX2                !
 ! D185  D(59,28,29,30)       -178.8858         estimate D2E/DX2                !
 ! D186  D(59,28,29,61)         59.631          estimate D2E/DX2                !
 ! D187  D(59,28,29,62)        -58.558          estimate D2E/DX2                !
 ! D188  D(60,28,29,30)         62.9577         estimate D2E/DX2                !
 ! D189  D(60,28,29,61)        -58.5255         estimate D2E/DX2                !
 ! D190  D(60,28,29,62)       -176.7145         estimate D2E/DX2                !
 ! D191  D(28,29,30,31)         57.5391         estimate D2E/DX2                !
 ! D192  D(28,29,30,63)        178.8734         estimate D2E/DX2                !
 ! D193  D(28,29,30,64)        -62.9686         estimate D2E/DX2                !
 ! D194  D(61,29,30,31)        179.0248         estimate D2E/DX2                !
 ! D195  D(61,29,30,63)        -59.6409         estimate D2E/DX2                !
 ! D196  D(61,29,30,64)         58.5171         estimate D2E/DX2                !
 ! D197  D(62,29,30,31)        -62.7899         estimate D2E/DX2                !
 ! D198  D(62,29,30,63)         58.5444         estimate D2E/DX2                !
 ! D199  D(62,29,30,64)        176.7024         estimate D2E/DX2                !
 ! D200  D(29,30,31,26)        -57.8863         estimate D2E/DX2                !
 ! D201  D(29,30,31,65)       -178.9043         estimate D2E/DX2                !
 ! D202  D(29,30,31,66)         62.9321         estimate D2E/DX2                !
 ! D203  D(63,30,31,26)       -179.3507         estimate D2E/DX2                !
 ! D204  D(63,30,31,65)         59.6313         estimate D2E/DX2                !
 ! D205  D(63,30,31,66)        -58.5324         estimate D2E/DX2                !
 ! D206  D(64,30,31,26)         62.5653         estimate D2E/DX2                !
 ! D207  D(64,30,31,65)        -58.4526         estimate D2E/DX2                !
 ! D208  D(64,30,31,66)       -176.6163         estimate D2E/DX2                !
 ! D209  D(25,32,33,34)          0.0992         estimate D2E/DX2                !
 ! D210  D(25,32,33,68)       -179.29           estimate D2E/DX2                !
 ! D211  D(67,32,33,34)        179.9011         estimate D2E/DX2                !
 ! D212  D(67,32,33,68)          0.512          estimate D2E/DX2                !
 ! D213  D(32,33,34,18)        179.7462         estimate D2E/DX2                !
 ! D214  D(32,33,34,23)         -1.103          estimate D2E/DX2                !
 ! D215  D(68,33,34,18)         -0.858          estimate D2E/DX2                !
 ! D216  D(68,33,34,23)        178.2928         estimate D2E/DX2                !
 --------------------------------------------------------------------------------
 Trust Radius=3.00D-01 FncErr=1.00D-07 GrdErr=1.00D-06 EigMax=2.50D+02 EigMin=1.00D-04
 Number of steps in this run=    408 maximum allowed number of steps=    408.
 GradGradGradGradGradGradGradGradGradGradGradGradGradGradGradGradGradGrad

 Leave Link  103 at Sat Jul  5 15:21:07 2025, MaxMem= 13421772800 cpu:               1.2 elap:               0.1
 (Enter /public/software/apps/Gaussian/g16/l202.exe)
 Symmetry turned off by external request.
 Stoichiometry    C32H34O2
 Framework group  C1[X(C32H34O2)]
 Deg. of freedom   198
 Full point group                 C1      NOp   1
                          Input orientation:                          
 ---------------------------------------------------------------------
 Center     Atomic      Atomic             Coordinates (Angstroms)
 Number     Number       Type             X           Y           Z
 ---------------------------------------------------------------------
      1          8           0        0.884035    2.756146   -1.975527
      2          6           0       -0.254637    2.069106   -1.696970
      3          6           0       -1.228394    2.007614   -2.712861
      4          6           0       -2.405495    1.352867   -2.503594
      5          6           0       -2.670500    0.711453   -1.274805
      6          6           0       -3.874597    0.020757   -1.042613
      7          6           0       -4.125444   -0.614083    0.147562
      8          6           0       -5.414387   -1.353594    0.395195
      9          6           0       -6.624270   -0.416540    0.304927
     10          6           0       -7.914109   -1.177616    0.595467
     11          6           0       -8.079775   -2.340594   -0.377950
     12          6           0       -6.878207   -3.277120   -0.296395
     13          6           0       -5.587518   -2.517718   -0.587221
     14          6           0       -3.138067   -0.571739    1.149735
     15          6           0       -1.958924    0.092176    0.963056
     16          6           0       -1.691521    0.763985   -0.248711
     17          6           0       -0.478492    1.466261   -0.473001
     18          6           0        0.536341    1.598224    0.604042
     19          6           0        0.272489    2.410745    1.691573
     20          8           0       -0.903370    3.075724    1.837930
     21          6           0        1.241296    2.596772    2.696473
     22          6           0        2.453851    1.979194    2.610921
     23          6           0        2.760576    1.131940    1.525535
     24          6           0        4.002601    0.476035    1.420270
     25          6           0        4.295107   -0.357992    0.372243
     26          6           0        5.631259   -1.046098    0.281588
     27          6           0        6.387399   -0.634595   -0.986971
     28          6           0        7.753181   -1.312249   -1.038808
     29          6           0        7.599791   -2.829410   -0.989332
     30          6           0        6.845948   -3.246580    0.269819
     31          6           0        5.479181   -2.571079    0.323190
     32          6           0        3.312088   -0.563193   -0.615776
     33          6           0        2.098629    0.058740   -0.550437
     34          6           0        1.787003    0.933947    0.512781
     35          1           0        1.488317    2.700321   -1.222109
     36          1           0       -1.008460    2.498947   -3.647350
     37          1           0       -3.152289    1.313912   -3.282904
     38          1           0       -4.603635    0.001129   -1.839784
     39          1           0       -5.384189   -1.769104    1.408989
     40          1           0       -6.677924    0.016746   -0.695497
     41          1           0       -6.503928    0.403200    1.017094
     42          1           0       -8.767770   -0.500992    0.516894
     43          1           0       -7.886544   -1.562556    1.617718
     44          1           0       -8.996178   -2.889341   -0.150544
     45          1           0       -8.166870   -1.951475   -1.395172
     46          1           0       -6.993999   -4.095419   -1.010342
     47          1           0       -6.826044   -3.712501    0.704434
     48          1           0       -5.616548   -2.133201   -1.608373
     49          1           0       -4.730231   -3.190409   -0.508944
     50          1           0       -3.320754   -1.080717    2.085596
     51          1           0       -1.211740    0.100204    1.743653
     52          1           0       -1.498823    2.844079    1.111511
     53          1           0        0.989031    3.244028    3.521373
     54          1           0        3.196849    2.129506    3.380180
     55          1           0        4.733525    0.644141    2.199529
     56          1           0        6.232149   -0.742692    1.146826
     57          1           0        6.506640    0.451372   -1.003353
     58          1           0        5.809850   -0.919485   -1.868326
     59          1           0        8.276019   -1.019679   -1.951978
     60          1           0        8.355332   -0.981652   -0.188983
     61          1           0        8.582968   -3.304309   -1.009600
     62          1           0        7.047689   -3.166277   -1.869984
     63          1           0        6.722477   -4.331603    0.288518
     64          1           0        7.426851   -2.961586    1.150367
     65          1           0        4.953346   -2.859150    1.236573
     66          1           0        4.878998   -2.904292   -0.525514
     67          1           0        3.519546   -1.228033   -1.440701
     68          1           0        1.355447   -0.122619   -1.313775
 ---------------------------------------------------------------------
 Rotational constants (GHZ):           0.2164619           0.0498738           0.0463070
 Leave Link  202 at Sat Jul  5 15:21:07 2025, MaxMem= 13421772800 cpu:               1.6 elap:               0.1
 (Enter /public/software/apps/Gaussian/g16/l301.exe)
 Standard basis: def2SVPP (5D, 7F)
 Ernie: Thresh=  0.10000D-02 Tol=  0.10000D-05 Strict=F.
   544 basis functions,   986 primitive gaussians,   578 cartesian basis functions
   121 alpha electrons      121 beta electrons
       nuclear repulsion energy      3330.2630974188 Hartrees.
 IExCor=  402 DFT=T Ex+Corr=B3LYP ExCW=0 ScaHFX=  0.200000
 ScaDFX=  0.800000  0.720000  1.000000  0.810000 ScalE2=  1.000000  1.000000
 IRadAn=      5 IRanWt=     -1 IRanGd=            0 ICorTp=0 IEmpDi=141
 NAtoms=   68 NActive=   68 NUniq=   68 SFac= 1.00D+00 NAtFMM=   60 NAOKFM=T Big=T
 Integral buffers will be    131072 words long.
 Raffenetti 2 integral format.
 Two-electron integral symmetry is turned off.
 R6Disp:  Grimme-D3(BJ) Dispersion energy=       -0.1632956698 Hartrees.
 Nuclear repulsion after empirical dispersion term =     3330.0998017490 Hartrees.
 Leave Link  301 at Sat Jul  5 15:21:07 2025, MaxMem= 13421772800 cpu:               1.8 elap:               0.1
 (Enter /public/software/apps/Gaussian/g16/l302.exe)
 NPDir=0 NMtPBC=     1 NCelOv=     1 NCel=       1 NClECP=     1 NCelD=      1
         NCelK=      1 NCelE2=     1 NClLst=     1 CellRange=     0.0.
 One-electron integrals computed using PRISM.
   1 Symmetry operations used in ECPInt.
 ECPInt:  NShTT=   37128 NPrTT=  148784 LenC2=   28934 LenP2D=   73233.
 LDataN:  DoStor=T MaxTD1= 4 Len=   56
 NBasis=   544 RedAO= T EigKep=  1.75D-04  NBF=   544
 NBsUse=   544 1.00D-06 EigRej= -1.00D+00 NBFU=   544
 Precomputing XC quadrature grid using
 IXCGrd= 4 IRadAn=           5 IRanWt=          -1 IRanGd=           0 AccXCQ= 0.00D+00.
 Generated NRdTot=       0 NPtTot=           0 NUsed=           0 NTot=          32
 NSgBfM=   551   551   551   551   551 MxSgAt=    68 MxSgA2=    68.
 Leave Link  302 at Sat Jul  5 15:21:08 2025, MaxMem= 13421772800 cpu:              20.1 elap:               0.6
 (Enter /public/software/apps/Gaussian/g16/l303.exe)
 DipDrv:  MaxL=1.
 Leave Link  303 at Sat Jul  5 15:21:08 2025, MaxMem= 13421772800 cpu:               4.2 elap:               0.2
 (Enter /public/software/apps/Gaussian/g16/l401.exe)
 ExpMin= 1.22D-01 ExpMax= 2.27D+03 ExpMxC= 3.41D+02 IAcc=3 IRadAn=         5 AccDes= 0.00D+00
 Harris functional with IExCor=  402 and IRadAn=       5 diagonalized for initial guess.
 HarFok:  IExCor=  402 AccDes= 0.00D+00 IRadAn=         5 IDoV= 1 UseB2=F ITyADJ=14
 ICtDFT=  3500011 ScaDFX=  1.000000  1.000000  1.000000  1.000000
 FoFCou: FMM=F IPFlag=           0 FMFlag=      100000 FMFlg1=        2001
         NFxFlg=           0 DoJE=T BraDBF=F KetDBF=T FulRan=T
         wScrn=  0.000000 ICntrl=       500 IOpCl=  0 I1Cent=   200000004 NGrid=           0
         NMat0=    1 NMatS0=      1 NMatT0=    0 NMatD0=    1 NMtDS0=    0 NMtDT0=    0
 Symmetry not used in FoFCou.
 Harris En= -1389.48724950896    
 JPrj=0 DoOrth=F DoCkMO=F.
 Leave Link  401 at Sat Jul  5 15:21:10 2025, MaxMem= 13421772800 cpu:              46.4 elap:               1.5
 (Enter /public/software/apps/Gaussian/g16/l502.exe)
 Two-electron integral symmetry not used.
 Closed shell SCF:
 Using DIIS extrapolation, IDIIS=  1040.
 NGot= 13421772800 LenX= 13421079408 LenY= 13420744746
 Requested convergence on RMS density matrix=1.00D-08 within 128 cycles.
 Requested convergence on MAX density matrix=1.00D-06.
 Requested convergence on             energy=1.00D-06.
 No special actions if energy rises.
 Fock matrices will be formed incrementally for  20 cycles.
 Integral accuracy reduced to 1.0D-05 until final iterations.

 Cycle   1  Pass 0  IDiag  1:
 FoFJK:  IHMeth= 1 ICntrl=       0 DoSepK=F KAlg= 0 I1Cent=           0 FoldK=F
 IRaf= 920000000 NMat=       1 IRICut=       1 DoRegI=T DoRafI=F ISym2E= 0 IDoP0=0 IntGTp=1.
 FoFCou: FMM=T IPFlag=           0 FMFlag=      100000 FMFlg1=        2001
         NFxFlg=           0 DoJE=F BraDBF=F KetDBF=F FulRan=T
         wScrn=  0.000000 ICntrl=         0 IOpCl=  0 I1Cent=           0 NGrid=           0
         NMat0=    1 NMatS0=      1 NMatT0=    0 NMatD0=    1 NMtDS0=    0 NMtDT0=    0
 Symmetry not used in FoFCou.
 FMM levels:  10  Number of levels for PrismC:   9
 E= -1388.65912181104    
 DIIS: error= 3.20D-02 at cycle   1 NSaved=   1.
 NSaved= 1 IEnMin= 1 EnMin= -1388.65912181104     IErMin= 1 ErrMin= 3.20D-02
 ErrMax= 3.20D-02  0.00D+00 EMaxC= 1.00D-01 BMatC= 7.00D-01 BMatP= 7.00D-01
 IDIUse=3 WtCom= 6.80D-01 WtEn= 3.20D-01
 Coeff-Com:  0.100D+01
 Coeff-En:   0.100D+01
 Coeff:      0.100D+01
 Gap=     0.175 Goal=   None    Shift=    0.000
 GapD=    0.175 DampG=1.000 DampE=0.500 DampFc=0.5000 IDamp=-1.
 Damping current iteration by 5.00D-01
 RMSDP=5.35D-03 MaxDP=1.64D-01              OVMax= 1.76D-01

 Cycle   2  Pass 0  IDiag  1:
 RMSU=  2.48D-03    CP:  9.44D-01
 E= -1389.01460010885     Delta-E=       -0.355478297804 Rises=F Damp=T
 DIIS: error= 9.09D-03 at cycle   2 NSaved=   2.
 NSaved= 2 IEnMin= 2 EnMin= -1389.01460010885     IErMin= 2 ErrMin= 9.09D-03
 ErrMax= 9.09D-03  0.00D+00 EMaxC= 1.00D-01 BMatC= 3.99D-02 BMatP= 7.00D-01
 IDIUse=3 WtCom= 9.09D-01 WtEn= 9.09D-02
 Coeff-Com:  0.646D-01 0.935D+00
 Coeff-En:   0.101D+00 0.899D+00
 Coeff:      0.679D-01 0.932D+00
 Gap=     0.181 Goal=   None    Shift=    0.000
 RMSDP=1.98D-03 MaxDP=1.04D-01 DE=-3.55D-01 OVMax= 1.45D-01

 Cycle   3  Pass 0  IDiag  1:
 RMSU=  1.82D-03    CP:  9.00D-01  1.04D+00
 E= -1389.42669791535     Delta-E=       -0.412097806503 Rises=F Damp=F
 DIIS: error= 7.22D-03 at cycle   3 NSaved=   3.
 NSaved= 3 IEnMin= 3 EnMin= -1389.42669791535     IErMin= 3 ErrMin= 7.22D-03
 ErrMax= 7.22D-03  0.00D+00 EMaxC= 1.00D-01 BMatC= 3.49D-02 BMatP= 3.99D-02
 IDIUse=3 WtCom= 9.28D-01 WtEn= 7.22D-02
 Coeff-Com: -0.985D-02 0.482D+00 0.528D+00
 Coeff-En:   0.000D+00 0.000D+00 0.100D+01
 Coeff:     -0.914D-02 0.447D+00 0.562D+00
 Gap=     0.165 Goal=   None    Shift=    0.000
 RMSDP=8.39D-04 MaxDP=3.59D-02 DE=-4.12D-01 OVMax= 9.04D-02

 Cycle   4  Pass 0  IDiag  1:
 RMSU=  6.72D-04    CP:  9.03D-01  1.10D+00  7.39D-01
 E= -1389.45181072392     Delta-E=       -0.025112808571 Rises=F Damp=F
 DIIS: error= 4.20D-03 at cycle   4 NSaved=   4.
 NSaved= 4 IEnMin= 4 EnMin= -1389.45181072392     IErMin= 4 ErrMin= 4.20D-03
 ErrMax= 4.20D-03  0.00D+00 EMaxC= 1.00D-01 BMatC= 1.23D-02 BMatP= 3.49D-02
 IDIUse=3 WtCom= 9.58D-01 WtEn= 4.20D-02
 Coeff-Com: -0.121D-01 0.183D+00 0.381D+00 0.449D+00
 Coeff-En:   0.000D+00 0.000D+00 0.297D+00 0.703D+00
 Coeff:     -0.116D-01 0.175D+00 0.377D+00 0.459D+00
 Gap=     0.157 Goal=   None    Shift=    0.000
 RMSDP=4.14D-04 MaxDP=2.52D-02 DE=-2.51D-02 OVMax= 4.72D-02

 Cycle   5  Pass 0  IDiag  1:
 RMSU=  2.31D-04    CP:  9.01D-01  1.07D+00  8.10D-01  5.39D-01
 E= -1389.46499052490     Delta-E=       -0.013179800981 Rises=F Damp=F
 DIIS: error= 1.36D-03 at cycle   5 NSaved=   5.
 NSaved= 5 IEnMin= 5 EnMin= -1389.46499052490     IErMin= 5 ErrMin= 1.36D-03
 ErrMax= 1.36D-03  0.00D+00 EMaxC= 1.00D-01 BMatC= 1.29D-03 BMatP= 1.23D-02
 IDIUse=3 WtCom= 9.86D-01 WtEn= 1.36D-02
 Coeff-Com: -0.629D-02 0.390D-01 0.157D+00 0.295D+00 0.516D+00
 Coeff-En:   0.000D+00 0.000D+00 0.000D+00 0.726D-01 0.927D+00
 Coeff:     -0.621D-02 0.385D-01 0.155D+00 0.292D+00 0.522D+00
 Gap=     0.156 Goal=   None    Shift=    0.000
 RMSDP=1.16D-04 MaxDP=4.34D-03 DE=-1.32D-02 OVMax= 1.44D-02

 Cycle   6  Pass 0  IDiag  1:
 RMSU=  7.53D-05    CP:  9.01D-01  1.08D+00  8.12D-01  5.93D-01  6.65D-01
 E= -1389.46629596957     Delta-E=       -0.001305444665 Rises=F Damp=F
 DIIS: error= 3.50D-04 at cycle   6 NSaved=   6.
 NSaved= 6 IEnMin= 6 EnMin= -1389.46629596957     IErMin= 6 ErrMin= 3.50D-04
 ErrMax= 3.50D-04  0.00D+00 EMaxC= 1.00D-01 BMatC= 1.08D-04 BMatP= 1.29D-03
 IDIUse=3 WtCom= 9.96D-01 WtEn= 3.50D-03
 Coeff-Com: -0.247D-02 0.562D-02 0.531D-01 0.124D+00 0.303D+00 0.517D+00
 Coeff-En:   0.000D+00 0.000D+00 0.000D+00 0.000D+00 0.220D-01 0.978D+00
 Coeff:     -0.246D-02 0.560D-02 0.529D-01 0.124D+00 0.302D+00 0.518D+00
 Gap=     0.156 Goal=   None    Shift=    0.000
 RMSDP=3.69D-05 MaxDP=1.04D-03 DE=-1.31D-03 OVMax= 5.01D-03

 Cycle   7  Pass 0  IDiag  1:
 RMSU=  2.85D-05    CP:  9.00D-01  1.08D+00  8.12D-01  5.94D-01  7.08D-01
                    CP:  7.21D-01
 E= -1389.46641538125     Delta-E=       -0.000119411678 Rises=F Damp=F
 DIIS: error= 1.18D-04 at cycle   7 NSaved=   7.
 NSaved= 7 IEnMin= 7 EnMin= -1389.46641538125     IErMin= 7 ErrMin= 1.18D-04
 ErrMax= 1.18D-04  0.00D+00 EMaxC= 1.00D-01 BMatC= 1.62D-05 BMatP= 1.08D-04
 IDIUse=3 WtCom= 9.99D-01 WtEn= 1.18D-03
 Coeff-Com: -0.877D-03-0.337D-03 0.161D-01 0.450D-01 0.133D+00 0.334D+00
 Coeff-Com:  0.473D+00
 Coeff-En:   0.000D+00 0.000D+00 0.000D+00 0.000D+00 0.000D+00 0.671D-01
 Coeff-En:   0.933D+00
 Coeff:     -0.876D-03-0.336D-03 0.160D-01 0.449D-01 0.133D+00 0.334D+00
 Coeff:      0.474D+00
 Gap=     0.156 Goal=   None    Shift=    0.000
 RMSDP=1.67D-05 MaxDP=5.73D-04 DE=-1.19D-04 OVMax= 1.38D-03

 Cycle   8  Pass 0  IDiag  1:
 RMSU=  1.24D-05    CP:  9.01D-01  1.08D+00  8.13D-01  5.97D-01  6.91D-01
                    CP:  7.23D-01  6.55D-01
 E= -1389.46644888295     Delta-E=       -0.000033501702 Rises=F Damp=F
 DIIS: error= 2.37D-05 at cycle   8 NSaved=   8.
 NSaved= 8 IEnMin= 8 EnMin= -1389.46644888295     IErMin= 8 ErrMin= 2.37D-05
 ErrMax= 2.37D-05  0.00D+00 EMaxC= 1.00D-01 BMatC= 3.28D-07 BMatP= 1.62D-05
 IDIUse=1 WtCom= 1.00D+00 WtEn= 0.00D+00
 Coeff-Com: -0.184D-03-0.589D-03 0.339D-02 0.110D-01 0.374D-01 0.109D+00
 Coeff-Com:  0.197D+00 0.643D+00
 Coeff:     -0.184D-03-0.589D-03 0.339D-02 0.110D-01 0.374D-01 0.109D+00
 Coeff:      0.197D+00 0.643D+00
 Gap=     0.156 Goal=   None    Shift=    0.000
 RMSDP=9.39D-06 MaxDP=2.47D-04 DE=-3.35D-05 OVMax= 1.68D-04

 Initial convergence to 1.0D-05 achieved.  Increase integral accuracy.
 Cycle   9  Pass 1  IDiag  1:
 E= -1389.46623853379     Delta-E=        0.000210349157 Rises=F Damp=F
 DIIS: error= 6.09D-04 at cycle   1 NSaved=   1.
 NSaved= 1 IEnMin= 1 EnMin= -1389.46623853379     IErMin= 1 ErrMin= 6.09D-04
 ErrMax= 6.09D-04  0.00D+00 EMaxC= 1.00D-01 BMatC= 4.86D-05 BMatP= 4.86D-05
 IDIUse=3 WtCom= 9.94D-01 WtEn= 6.09D-03
 Coeff-Com:  0.100D+01
 Coeff-En:   0.100D+01
 Coeff:      0.100D+01
 Gap=     0.156 Goal=   None    Shift=    0.000
 RMSDP=9.39D-06 MaxDP=2.47D-04 DE= 2.10D-04 OVMax= 1.06D-03

 Cycle  10  Pass 1  IDiag  1:
 RMSU=  4.26D-04    CP:  9.99D-01
 E= -1389.46628965960     Delta-E=       -0.000051125809 Rises=F Damp=F
 DIIS: error= 1.70D-05 at cycle   2 NSaved=   2.
 NSaved= 2 IEnMin= 2 EnMin= -1389.46628965960     IErMin= 2 ErrMin= 1.70D-05
 ErrMax= 1.70D-05  0.00D+00 EMaxC= 1.00D-01 BMatC= 2.43D-07 BMatP= 4.86D-05
 IDIUse=1 WtCom= 1.00D+00 WtEn= 0.00D+00
 Coeff-Com: -0.232D-02 0.100D+01
 Coeff:     -0.232D-02 0.100D+01
 Gap=     0.156 Goal=   None    Shift=    0.000
 RMSDP=7.01D-06 MaxDP=2.76D-04 DE=-5.11D-05 OVMax= 3.50D-04

 Cycle  11  Pass 1  IDiag  1:
 RMSU=  3.72D-06    CP:  9.99D-01  1.01D+00
 E= -1389.46628911104     Delta-E=        0.000000548564 Rises=F Damp=F
 DIIS: error= 2.85D-05 at cycle   3 NSaved=   3.
 NSaved= 3 IEnMin= 2 EnMin= -1389.46628965960     IErMin= 2 ErrMin= 1.70D-05
 ErrMax= 2.85D-05  0.00D+00 EMaxC= 1.00D-01 BMatC= 7.61D-07 BMatP= 2.43D-07
 IDIUse=1 WtCom= 1.00D+00 WtEn= 0.00D+00
 Coeff-Com: -0.645D-02 0.645D+00 0.361D+00
 Coeff:     -0.645D-02 0.645D+00 0.361D+00
 Gap=     0.156 Goal=   None    Shift=    0.000
 RMSDP=2.22D-06 MaxDP=1.05D-04 DE= 5.49D-07 OVMax= 2.50D-04

 Cycle  12  Pass 1  IDiag  1:
 RMSU=  1.18D-06    CP:  9.99D-01  1.01D+00  4.96D-01
 E= -1389.46628991123     Delta-E=       -0.000000800189 Rises=F Damp=F
 DIIS: error= 2.84D-06 at cycle   4 NSaved=   4.
 NSaved= 4 IEnMin= 4 EnMin= -1389.46628991123     IErMin= 4 ErrMin= 2.84D-06
 ErrMax= 2.84D-06  0.00D+00 EMaxC= 1.00D-01 BMatC= 6.49D-09 BMatP= 2.43D-07
 IDIUse=1 WtCom= 1.00D+00 WtEn= 0.00D+00
 Coeff-Com: -0.386D-02 0.377D+00 0.217D+00 0.409D+00
 Coeff:     -0.386D-02 0.377D+00 0.217D+00 0.409D+00
 Gap=     0.156 Goal=   None    Shift=    0.000
 RMSDP=2.52D-07 MaxDP=1.21D-05 DE=-8.00D-07 OVMax= 2.71D-05

 Cycle  13  Pass 1  IDiag  1:
 RMSU=  2.27D-07    CP:  9.99D-01  1.01D+00  5.16D-01  9.34D-01
 E= -1389.46628991795     Delta-E=       -0.000000006724 Rises=F Damp=F
 DIIS: error= 6.63D-07 at cycle   5 NSaved=   5.
 NSaved= 5 IEnMin= 5 EnMin= -1389.46628991795     IErMin= 5 ErrMin= 6.63D-07
 ErrMax= 6.63D-07  0.00D+00 EMaxC= 1.00D-01 BMatC= 3.93D-10 BMatP= 6.49D-09
 IDIUse=1 WtCom= 1.00D+00 WtEn= 0.00D+00
 Coeff-Com: -0.931D-03 0.888D-01 0.530D-01 0.211D+00 0.648D+00
 Coeff:     -0.931D-03 0.888D-01 0.530D-01 0.211D+00 0.648D+00
 Gap=     0.156 Goal=   None    Shift=    0.000
 RMSDP=9.35D-08 MaxDP=7.64D-06 DE=-6.72D-09 OVMax= 1.01D-05

 Cycle  14  Pass 1  IDiag  1:
 RMSU=  6.89D-08    CP:  9.99D-01  1.01D+00  5.15D-01  9.55D-01  7.55D-01
 E= -1389.46628991818     Delta-E=       -0.000000000236 Rises=F Damp=F
 DIIS: error= 4.84D-07 at cycle   6 NSaved=   6.
 NSaved= 6 IEnMin= 6 EnMin= -1389.46628991818     IErMin= 6 ErrMin= 4.84D-07
 ErrMax= 4.84D-07  0.00D+00 EMaxC= 1.00D-01 BMatC= 1.80D-10 BMatP= 3.93D-10
 IDIUse=1 WtCom= 1.00D+00 WtEn= 0.00D+00
 Coeff-Com: -0.553D-04 0.378D-02 0.350D-02 0.844D-01 0.462D+00 0.446D+00
 Coeff:     -0.553D-04 0.378D-02 0.350D-02 0.844D-01 0.462D+00 0.446D+00
 Gap=     0.156 Goal=   None    Shift=    0.000
 RMSDP=4.15D-08 MaxDP=2.70D-06 DE=-2.36D-10 OVMax= 5.13D-06

 Cycle  15  Pass 1  IDiag  1:
 RMSU=  1.66D-08    CP:  9.99D-01  1.01D+00  5.16D-01  9.61D-01  8.28D-01
                    CP:  5.27D-01
 E= -1389.46628991834     Delta-E=       -0.000000000160 Rises=F Damp=F
 DIIS: error= 8.41D-08 at cycle   7 NSaved=   7.
 NSaved= 7 IEnMin= 7 EnMin= -1389.46628991834     IErMin= 7 ErrMin= 8.41D-08
 ErrMax= 8.41D-08  0.00D+00 EMaxC= 1.00D-01 BMatC= 7.18D-12 BMatP= 1.80D-10
 IDIUse=1 WtCom= 1.00D+00 WtEn= 0.00D+00
 Coeff-Com:  0.165D-04-0.248D-02-0.692D-03 0.388D-01 0.241D+00 0.264D+00
 Coeff-Com:  0.460D+00
 Coeff:      0.165D-04-0.248D-02-0.692D-03 0.388D-01 0.241D+00 0.264D+00
 Coeff:      0.460D+00
 Gap=     0.156 Goal=   None    Shift=    0.000
 RMSDP=8.52D-09 MaxDP=3.55D-07 DE=-1.60D-10 OVMax= 1.20D-06

 SCF Done:  E(RB3LYP) =  -1389.46628992     A.U. after   15 cycles
            NFock= 15  Conv=0.85D-08     -V/T= 2.0097
 KE= 1.376133494352D+03 PE=-9.880321594684D+03 EE= 3.784622008664D+03
 Leave Link  502 at Sat Jul  5 15:21:45 2025, MaxMem= 13421772800 cpu:            1121.4 elap:              35.5
 (Enter /public/software/apps/Gaussian/g16/l601.exe)
 Copying SCF densities to generalized density rwf, IOpCl= 0 IROHF=0.

 **********************************************************************

            Population analysis using the SCF Density.

 **********************************************************************

 Alpha  occ. eigenvalues --  -19.15964 -19.15939 -10.25144 -10.25123 -10.19733
 Alpha  occ. eigenvalues --  -10.19719 -10.19347 -10.19329 -10.19182 -10.19136
 Alpha  occ. eigenvalues --  -10.19120 -10.19082 -10.18674 -10.18672 -10.18656
 Alpha  occ. eigenvalues --  -10.18621 -10.18491 -10.18484 -10.18310 -10.18275
 Alpha  occ. eigenvalues --  -10.18223 -10.18170 -10.18160 -10.18126 -10.17337
 Alpha  occ. eigenvalues --  -10.17328 -10.17325 -10.17320 -10.17243 -10.17241
 Alpha  occ. eigenvalues --  -10.17233 -10.17232 -10.17208 -10.17202  -1.05418
 Alpha  occ. eigenvalues --   -1.05142  -0.88244  -0.87388  -0.84529  -0.84151
 Alpha  occ. eigenvalues --   -0.81786  -0.81489  -0.79443  -0.76893  -0.75996
 Alpha  occ. eigenvalues --   -0.75103  -0.73817  -0.73814  -0.73605  -0.72152
 Alpha  occ. eigenvalues --   -0.70753  -0.70064  -0.65223  -0.63788  -0.62558
 Alpha  occ. eigenvalues --   -0.62060  -0.61343  -0.60527  -0.60527  -0.58988
 Alpha  occ. eigenvalues --   -0.58815  -0.58424  -0.55915  -0.55544  -0.54752
 Alpha  occ. eigenvalues --   -0.54206  -0.52439  -0.51995  -0.51357  -0.49716
 Alpha  occ. eigenvalues --   -0.48251  -0.47715  -0.46959  -0.46404  -0.45238
 Alpha  occ. eigenvalues --   -0.44997  -0.44801  -0.44610  -0.44600  -0.44179
 Alpha  occ. eigenvalues --   -0.43900  -0.43374  -0.42959  -0.42652  -0.42002
 Alpha  occ. eigenvalues --   -0.41686  -0.41270  -0.40539  -0.40169  -0.39763
 Alpha  occ. eigenvalues --   -0.39531  -0.39418  -0.38225  -0.38221  -0.38138
 Alpha  occ. eigenvalues --   -0.37806  -0.37666  -0.37209  -0.36814  -0.35648
 Alpha  occ. eigenvalues --   -0.35260  -0.35206  -0.35020  -0.35007  -0.34517
 Alpha  occ. eigenvalues --   -0.33947  -0.33057  -0.32591  -0.32306  -0.31690
 Alpha  occ. eigenvalues --   -0.31484  -0.30331  -0.30249  -0.30092  -0.30047
 Alpha  occ. eigenvalues --   -0.28861  -0.27557  -0.24077  -0.23933  -0.21641
 Alpha  occ. eigenvalues --   -0.20599
 Alpha virt. eigenvalues --   -0.05003  -0.03944  -0.01134  -0.00654   0.01661
 Alpha virt. eigenvalues --    0.02925   0.05504   0.05515   0.05914   0.06012
 Alpha virt. eigenvalues --    0.07175   0.07459   0.07591   0.08494   0.08786
 Alpha virt. eigenvalues --    0.08811   0.09091   0.09171   0.09821   0.10081
 Alpha virt. eigenvalues --    0.10514   0.10932   0.11502   0.11843   0.12863
 Alpha virt. eigenvalues --    0.13102   0.13462   0.13613   0.14039   0.14089
 Alpha virt. eigenvalues --    0.14255   0.14270   0.14640   0.14786   0.15074
 Alpha virt. eigenvalues --    0.15215   0.15749   0.15753   0.17199   0.17777
 Alpha virt. eigenvalues --    0.18588   0.18760   0.19577   0.19944   0.20219
 Alpha virt. eigenvalues --    0.20823   0.21138   0.22065   0.22278   0.23414
 Alpha virt. eigenvalues --    0.23970   0.24003   0.24339   0.24447   0.26266
 Alpha virt. eigenvalues --    0.26389   0.26689   0.26723   0.27061   0.27536
 Alpha virt. eigenvalues --    0.27803   0.27990   0.28162   0.28702   0.29529
 Alpha virt. eigenvalues --    0.30488   0.30573   0.31517   0.31879   0.32777
 Alpha virt. eigenvalues --    0.33425   0.33767   0.34118   0.35049   0.36005
 Alpha virt. eigenvalues --    0.36352   0.37190   0.37743   0.38894   0.39084
 Alpha virt. eigenvalues --    0.40270   0.41079   0.41795   0.42727   0.42855
 Alpha virt. eigenvalues --    0.43367   0.43530   0.43952   0.43972   0.44025
 Alpha virt. eigenvalues --    0.44659   0.45338   0.45652   0.45728   0.45820
 Alpha virt. eigenvalues --    0.46003   0.46125   0.46381   0.46895   0.47583
 Alpha virt. eigenvalues --    0.47906   0.48224   0.48557   0.48987   0.49210
 Alpha virt. eigenvalues --    0.49340   0.49545   0.50494   0.51826   0.52543
 Alpha virt. eigenvalues --    0.53072   0.53201   0.54416   0.55487   0.56304
 Alpha virt. eigenvalues --    0.56631   0.56727   0.57750   0.57954   0.58574
 Alpha virt. eigenvalues --    0.59125   0.59628   0.59876   0.59985   0.60706
 Alpha virt. eigenvalues --    0.61443   0.61966   0.62499   0.62748   0.62855
 Alpha virt. eigenvalues --    0.63124   0.64054   0.64866   0.64920   0.65895
 Alpha virt. eigenvalues --    0.66318   0.66642   0.66695   0.67056   0.67307
 Alpha virt. eigenvalues --    0.67697   0.68181   0.68310   0.68637   0.68839
 Alpha virt. eigenvalues --    0.69170   0.69556   0.69919   0.69980   0.70115
 Alpha virt. eigenvalues --    0.70204   0.70481   0.70510   0.70905   0.71283
 Alpha virt. eigenvalues --    0.71421   0.71527   0.71612   0.71798   0.71854
 Alpha virt. eigenvalues --    0.71950   0.72125   0.72605   0.72990   0.73241
 Alpha virt. eigenvalues --    0.73503   0.73670   0.73824   0.73951   0.74143
 Alpha virt. eigenvalues --    0.74583   0.74749   0.75005   0.75173   0.75729
 Alpha virt. eigenvalues --    0.75856   0.76420   0.76942   0.77042   0.77428
 Alpha virt. eigenvalues --    0.78067   0.78760   0.79025   0.79405   0.79883
 Alpha virt. eigenvalues --    0.80192   0.80346   0.81414   0.81599   0.82157
 Alpha virt. eigenvalues --    0.82615   0.83115   0.83298   0.83847   0.84169
 Alpha virt. eigenvalues --    0.84460   0.85654   0.86135   0.86371   0.86721
 Alpha virt. eigenvalues --    0.87886   0.90101   0.90541   0.94115   0.94232
 Alpha virt. eigenvalues --    0.94956   0.95053   0.95505   0.96185   0.98207
 Alpha virt. eigenvalues --    0.98683   0.99523   1.03586   1.03861   1.05105
 Alpha virt. eigenvalues --    1.05417   1.06974   1.07218   1.08784   1.10383
 Alpha virt. eigenvalues --    1.11527   1.12731   1.13557   1.14656   1.15097
 Alpha virt. eigenvalues --    1.17137   1.18190   1.18292   1.18509   1.20361
 Alpha virt. eigenvalues --    1.23022   1.23897   1.23968   1.24891   1.25088
 Alpha virt. eigenvalues --    1.25504   1.26303   1.28185   1.28918   1.29764
 Alpha virt. eigenvalues --    1.30917   1.32817   1.33287   1.33588   1.34051
 Alpha virt. eigenvalues --    1.34804   1.35186   1.36303   1.36582   1.37453
 Alpha virt. eigenvalues --    1.39468   1.40136   1.40839   1.41407   1.43966
 Alpha virt. eigenvalues --    1.45986   1.46519   1.46702   1.47151   1.48446
 Alpha virt. eigenvalues --    1.49400   1.49714   1.49979   1.50681   1.50917
 Alpha virt. eigenvalues --    1.51396   1.51613   1.53180   1.54185   1.57427
 Alpha virt. eigenvalues --    1.57616   1.60152   1.65184   1.66636   1.68250
 Alpha virt. eigenvalues --    1.68372   1.69391   1.69925   1.72117   1.72698
 Alpha virt. eigenvalues --    1.72718   1.73277   1.74191   1.74324   1.76875
 Alpha virt. eigenvalues --    1.78022   1.78372   1.78716   1.79140   1.80641
 Alpha virt. eigenvalues --    1.80772   1.81532   1.83053   1.84339   1.84865
 Alpha virt. eigenvalues --    1.85052   1.85597   1.85956   1.86030   1.86189
 Alpha virt. eigenvalues --    1.87947   1.88338   1.89528   1.89708   1.90826
 Alpha virt. eigenvalues --    1.90987   1.93518   1.93556   1.94646   1.95792
 Alpha virt. eigenvalues --    1.96707   1.97635   1.97738   1.98098   1.98599
 Alpha virt. eigenvalues --    1.98732   1.99712   2.01954   2.03512   2.04268
 Alpha virt. eigenvalues --    2.05822   2.05982   2.06482   2.07541   2.08858
 Alpha virt. eigenvalues --    2.08995   2.09631   2.09797   2.10653   2.10855
 Alpha virt. eigenvalues --    2.11313   2.12492   2.13019   2.13241   2.16616
 Alpha virt. eigenvalues --    2.16813   2.18545   2.18730   2.19497   2.20317
 Alpha virt. eigenvalues --    2.21506   2.22199   2.23284   2.23550   2.24208
 Alpha virt. eigenvalues --    2.24696   2.25915   2.26913   2.28387   2.29112
 Alpha virt. eigenvalues --    2.29728   2.31311   2.31501   2.32470   2.32841
 Alpha virt. eigenvalues --    2.33350   2.33447   2.35174   2.35586   2.35728
 Alpha virt. eigenvalues --    2.36038   2.36363   2.36554   2.36945   2.39147
 Alpha virt. eigenvalues --    2.39885   2.40162   2.43682   2.43906   2.45452
[...]
 .00020992,-0.00067436,-0.00662869,0.00046679,0.00047198,0.00022869,0.0
 0014836,0.00000291,0.00004039,0.00098277,-0.00008511,0.00008022,0.0000
 2835,0.00018008,-0.00001949,0.00000021,-0.00014929,-0.00009485,0.00010
 556,-0.00021191,0.00006753,-0.00020514,-0.00044500,0.00068853,0.000484
 16,0.00351964,-0.00059353,-0.00038237,0.00540617,0.00264100,0.00627453
 ,0.04363879,0.07978654,0.00000981,0.00002035,-0.00000128,-0.00001274,-
 0.00001079,0.00000559,0.00000219,0.00000283,0.00000758,-0.00000191,-0.
 00000036,0.00000389,0.00000156,0.00000202,-0.00000285,-0.00000178,0.00
 000053,0.00000392,0.00000410,0.00000397,-0.00000201,0.00000063,-0.0000
 0008,-0.00000336,0.00000147,-0.00000319,0.00000029,0.00000027,0.000001
 64,-0.00000177,0.00000081,-0.00000189,0.00000107,0.00000152,0.00000207
 ,-0.00000143,0.00000349,-0.00000328,0.00000141,0.00000150,0.00000675,0
 .00000059,-0.00000582,0.00000336,0.00000206,0.00000357,0.00000327,-0.0
 0000071,-0.00000570,0.00000097,-0.00000181,0.00006857,-0.00003296,0.00
 000717,0.00003486,0.00003232,0.00006298,0.00000066,0.00000841,0.000003
 21,-0.00006975,0.00003124,0.00000734,0.00004781,-0.00006503,-0.0000741
 7,-0.00014711,0.00015799,0.00004636,0.00025414,-0.00019716,-0.00011087
 ,-0.00095283,0.00004279,0.00030533,0.00093935,-0.00022767,-0.00004706,
 0.00064486,0.00045393,0.00075563,0.00001652,0.00005936,0.00007758,0.00
 079789,0.00005875,0.00081888,0.00083712,0.00092138,0.00061384,-0.10691
 095,-0.05889020,-0.20024087,-0.00011181,0.00043557,-0.00063549,0.00038
 170,0.00007735,0.00006499,-0.00008797,-0.00002200,0.00012358,-0.000005
 40,-0.00001982,-0.00000169,0.00000094,-0.00000223,-0.00000131,0.,-0.00
 000201,-0.00000074,0.00000035,-0.00000114,-0.00000162,-0.00000006,-0.0
 0000036,0.00000088,0.,-0.00000017,0.00000020,-0.00000015,0.00000133,0.
 00000080,-0.00000284,0.00000114,-0.00000013,0.00000039,-0.00000107,0.0
 0000080,-0.00000270,-0.00000048,0.00000048,0.00000038,0.00000073,-0.00
 000021,-0.00000005,-0.00000011,0.00000023,-0.00000048,-0.00000041,0.00
 000056,0.00000066,-0.00000051,0.00000089,-0.00000273,0.00000344,-0.000
 00150,0.00000153,-0.00000281,-0.00000131,0.00000117,-0.00000530,-0.000
 00496,0.00000179,-0.00000981,-0.00000637,-0.00000126,-0.00000088,-0.00
 000011,0.00000378,0.00001277,0.00001535,0.00003432,0.00005366,0.000077
 12,0.00021458,0.00019451,0.00128206,-0.00000006,-0.00008927,0.00016312
 ,-0.00022531,0.00004561,0.00048842,-0.00003067,-0.00002462,-0.00000870
 ,0.00002604,-0.00000177,-0.00018372,-0.00006697,0.00004747,0.00020002,
 -0.00015336,-0.00022198,0.00047392,-0.00026257,0.00046969,0.00025910,0
 .00046928,0.00019211,0.00123329,-0.01442806,-0.00795441,-0.01873553,0.
 11897949,0.06395941,0.21246328,0.00000203,-0.00000075,-0.00006913,-0.0
 0000331,-0.00004607,0.00002475,0.00000748,-0.00000464,-0.00001714,-0.0
 0001994,-0.00001092,-0.00001101,-0.00000582,-0.00000878,-0.00001071,-0
 .00000383,-0.00000838,-0.00000453,-0.00000574,-0.00000193,-0.00000426,
 0.00000176,0.00000240,0.00000040,-0.00000189,0.00000016,0.00000005,0.0
 0000013,-0.00000006,0.00000118,-0.00000059,0.00000196,0.00000009,-0.00
 000059,-0.00000339,-0.00000013,-0.00000696,0.00000486,0.00000183,0.000
 00728,-0.00000457,0.00000148,0.00000619,-0.00001575,0.00001471,0.00001
 071,0.00005381,-0.00002918,0.00012101,0.00002803,0.00000368,0.00054517
 ,0.00043350,0.00093640,-0.00029150,0.00001979,0.00027444,-0.00017180,0
 .00010809,0.00011084,-0.00024819,0.00006863,-0.00018738,0.00020297,-0.
 00043297,0.00000189,-0.00086598,0.00008621,-0.00002036,-0.00234938,0.0
 0106554,-0.00366331,0.00899394,-0.01321029,-0.01592352,0.00027759,-0.0
 0088293,0.00067045,-0.00063165,-0.00008725,-0.00038932,-0.00001290,0.0
 0013503,0.00025968,-0.00001294,0.00000865,-0.00002935,-0.00002572,0.00
 002273,0.00006004,-0.00035919,0.00022688,-0.00029304,-0.06512787,0.036
 34234,0.03515157,-0.00147977,0.01812404,0.02268063,-0.00350627,0.00432
 302,-0.00228958,0.00001824,-0.00004937,0.00008023,-0.00000841,0.000010
 48,-0.00000627,-0.00000598,0.00000333,-0.00000030,-0.00000449,0.000000
 99,-0.00000031,-0.00000035,-0.00000041,-0.00000085,0.00000029,0.000000
 44,0.00000012,0.00000095,-0.00000197,-0.00000146,0.00000133,-0.0000012
 3,0.00000004,-0.00000048,0.00000048,-0.00000069,0.00000186,-0.00000033
 ,-0.00000054,-0.00000026,-0.00000030,-0.00000027,-0.00000121,-0.000001
 35,-0.00000046,0.00000062,0.00000064,-0.00000077,-0.00000144,0.0000016
 0,-0.00000149,0.00000305,-0.00000422,0.00000303,-0.00000313,0.00000233
 ,0.00000300,-0.00000013,0.00000984,-0.00000448,0.00004298,0.00001221,0
 .00002614,0.00000757,0.00000797,0.00000091,0.00000227,0.00005123,0.000
 04563,0.00021335,-0.00063393,-0.00097939,0.00018936,-0.00009523,0.0001
 6294,0.00008424,0.00005906,0.00002351,-0.00115529,-0.00014064,0.000408
 62,-0.00000295,0.00000762,-0.00002492,0.00011443,-0.00004596,0.0000134
 0,0.00003168,-0.00001961,0.00001852,-0.00000539,0.00001932,0.00002386,
 0.00001327,-0.00003973,-0.00000462,0.00003943,-0.00002033,0.00000051,0
 .00008779,-0.00004307,0.00012826,-0.00023495,0.00057866,-0.00034532,0.
 06518422,-0.00020452,-0.00001521,0.00008710,0.00022343,0.00003237,-0.0
 0007507,-0.00007305,0.00000715,-0.00004804,0.00006010,0.00004314,-0.00
 000863,0.00000071,-0.00002079,0.00004688,0.00002499,0.00001444,-0.0000
 1327,0.00000196,-0.00001199,0.00003068,-0.00000302,-0.00000376,0.00000
 355,0.00000044,0.00000505,-0.00000069,-0.00000093,-0.00000260,0.000000
 51,-0.00000010,0.00000072,-0.00000221,-0.00000203,0.,0.00000153,0.0000
 0292,-0.00000129,-0.00000395,-0.00003043,-0.00001058,-0.00000833,0.000
 01162,0.00002039,-0.00003651,-0.00004448,-0.00003448,0.00009240,0.0000
 6945,0.00018692,-0.00009553,-0.00018967,-0.00018081,-0.00075188,-0.000
 08042,-0.00034566,0.00040056,0.00017273,-0.00016733,-0.00004448,0.0000
 3790,0.00010165,-0.00003216,-0.00022748,-0.00042977,0.00026526,-0.0001
 7848,-0.00010950,0.00061669,0.00042553,0.00343188,-0.00199437,0.001497
 01,0.00087656,-0.00306026,-0.00014573,-0.00187592,0.00080948,-0.000004
 93,-0.00002887,-0.00058657,-0.00000918,0.00008400,0.00039820,0.0000233
 6,0.00002531,-0.00001786,0.00001004,-0.00003843,-0.00010331,0.00026244
 ,-0.00012774,0.00015834,0.03678224,-0.14744230,-0.13736107,0.00198960,
 -0.00481794,-0.01229129,0.00468609,0.00488460,-0.00223370,0.00004896,0
 .00001231,-0.00009062,0.00000935,-0.00001191,0.00000850,0.00000592,-0.
 00000048,0.00000078,0.00000534,-0.00000084,0.00000226,0.00000061,0.000
 00074,-0.00000009,-0.00000060,-0.00000018,-0.00000030,-0.00000086,0.00
 000087,0.00000057,0.00000301,-0.00000005,0.00000012,0.00000011,0.00000
 090,0.00000003,0.00000221,0.00000126,-0.00000022,-0.00000050,-0.000000
 80,0.00000106,0.00000198,0.00000248,0.00000099,0.00000041,-0.00000034,
 -0.00000016,0.00000009,-0.00000087,0.00000016,0.00000011,-0.00000101,-
 0.00000087,-0.00000148,0.00000146,-0.00000111,-0.00000991,-0.00000809,
 0.00001176,-0.00003167,0.00000725,-0.00003418,0.00001160,0.00000587,-0
 .00001642,0.00000239,0.00002380,-0.00002948,0.00018185,-0.00000381,-0.
 00014196,-0.00019472,-0.00007643,0.00012596,-0.00002779,0.00002507,-0.
 00002519,-0.00013905,0.00033152,0.00060853,-0.00006431,0.00002373,0.00
 000362,0.00014064,-0.00006512,0.00002924,-0.00000755,-0.00002811,0.000
 00742,-0.00000892,0.00000683,0.00000091,0.00000080,-0.00000679,0.00000
 209,-0.00001202,0.00000947,-0.00001056,0.00005065,-0.00001264,0.000068
 68,0.00076641,-0.00049513,0.00047847,-0.04402878,0.14884380,0.00006813
 ,-0.00002223,0.00002352,-0.00004901,0.00003301,0.00000177,0.00001552,-
 0.00000198,0.00000769,-0.00000348,-0.00000675,0.00000922,0.00000524,0.
 00001275,0.00000114,-0.00000349,0.00000204,-0.00000036,-0.00000309,-0.
 00000125,-0.00000260,-0.00000563,-0.00000572,0.00000702,0.00000165,0.0
 0000716,-0.00000025,-0.00000098,-0.00000398,0.00000123,0.00000053,-0.0
 0000070,-0.00000176,-0.00000267,0.00000184,0.00000394,0.00001110,-0.00
 000699,-0.00000435,0.00000170,0.00000411,0.00000507,0.00000003,0.00001
 719,-0.00000811,-0.00002389,-0.00004676,0.00001763,-0.00008014,-0.0001
 1478,0.00000460,-0.00002943,-0.00020362,-0.00009562,0.00005368,0.00037
 035,-0.00004489,0.00022196,-0.00008014,-0.00003403,-0.00001577,-0.0000
 5674,0.00005469,0.00019286,0.00027911,-0.00016428,-0.00031610,0.000661
 70,0.00017054,-0.00467841,-0.00146805,-0.00048019,0.00577968,-0.013752
 72,-0.01268134,0.00174724,0.00032420,-0.00080134,-0.00006631,-0.000059
 05,-0.00032933,-0.00001889,0.00001421,0.00018264,-0.00000781,-0.000028
 22,0.00000233,0.00010293,0.00038812,0.00033298,-0.00043326,-0.00044711
 ,-0.00053200,0.03620108,-0.13760561,-0.21733376,-0.00156320,-0.0006197
 7,0.00229766,-0.00160039,-0.00269041,0.00350721,-0.00002177,0.00005819
 ,-0.00004269,0.00000188,0.00000117,0.00000456,0.00000488,0.00000014,0.
 00000193,0.00000377,-0.00000029,0.00000399,0.00000188,0.00000163,-0.00
 000273,-0.00000110,-0.00000003,-0.00000158,-0.00000175,0.00000202,0.00
 000158,0.00000290,0.00000097,0.00000028,0.00000051,0.00000125,-0.00000
 086,0.00000211,0.00000190,0.00000007,-0.00000103,-0.00000004,0.0000000
 9,0.00000348,0.00000353,0.00000214,0.00000102,-0.00000032,-0.00000224,
 -0.00000079,0.00000017,-0.00000124,-0.00000260,0.00000089,-0.00000114,
 0.00000432,0.00000041,-0.00000615,-0.00000308,-0.00001524,0.00000600,-
 0.00003824,-0.00001409,-0.00002292,0.00001058,-0.00001979,-0.00000060,
 -0.00002677,0.00000738,0.00003470,0.00028703,-0.00070222,-0.00072674,0
 .00002235,0.00019539,0.00005480,0.00014650,0.00008360,0.00006167,0.000
 39510,0.00006126,0.00059748,-0.00001121,0.00001444,-0.00002127,0.00009
 092,-0.00005252,0.00001401,0.00003650,-0.00000045,-0.00001288,-0.00001
 852,0.00002022,0.00001947,-0.00006503,0.00001438,-0.00000693,0.0002135
 1,-0.00006615,0.00001644,0.00001583,-0.00004618,0.00009840,-0.00004254
 ,0.00089523,0.00051820,-0.03777290,0.15225462,0.22599185,-0.00127946,-
 0.00035963,0.00036225,0.00021288,0.00218070,-0.00055644,0.00002122,-0.
 00011388,-0.00008613,0.00001659,0.00006049,-0.00001115,-0.00002694,-0.
 00008541,0.00005595,0.00001656,0.00004248,-0.00003739,0.00000241,-0.00
 001995,0.00004719,-0.00000922,-0.00000817,0.00001189,0.00000203,0.0000
 1574,-0.00000076,-0.00000072,-0.00000722,0.00000223,0.00000024,0.00000
 099,-0.00000388,-0.00000464,0.00000151,0.00000563,0.00001450,-0.000005
 74,-0.00000987,-0.00005394,-0.00003214,-0.00003372,0.00012434,-0.00002
 681,-0.00005591,-0.00029423,0.00010889,0.00014964,-0.00063671,0.000509
 18,0.00051859,-0.00070799,-0.00019515,0.00044143,0.00000774,-0.0002766
 6,-0.00010743,0.00004258,0.00005063,-0.00005621,0.00013217,-0.00007494
 ,0.00012266,0.00022647,0.00009573,0.00033449,0.00067576,0.00215928,0.0
 0045176,0.00006312,0.00024236,0.00080305,-0.00200184,0.00519420,0.0004
 2881,-0.00023052,-0.00047215,-0.00107062,0.00000853,0.00004573,-0.0000
 7681,0.00000727,-0.00003417,0.00004542,-0.00000232,-0.00001354,-0.0000
 2521,0.00002238,0.00004289,0.00001099,-0.00002702,-0.00017639,-0.00005
 164,-0.01440703,-0.00524457,-0.02086455,-0.18335228,-0.02585407,-0.140
 32893,0.00816586,0.00092970,0.00519179,0.00013788,-0.00024566,-0.00018
 365,0.00002931,-0.00003242,0.00002973,0.00001361,-0.00000673,0.0000026
 0,0.00000833,0.00000133,0.00000607,0.00000361,0.00000345,-0.00000371,-
 0.00000185,-0.00000010,-0.00000173,-0.00000231,0.00000139,0.00000092,0
 .00000642,0.00000089,0.00000031,0.00000051,0.00000233,-0.00000098,0.00
 000408,0.00000247,-0.00000016,-0.00000131,-0.00000099,0.00000102,0.000
 00549,0.00000551,0.00000239,0.00000159,-0.00000025,-0.00000213,-0.0000
 0122,-0.00000089,-0.00000156,-0.00000194,-0.00000163,-0.00000148,0.000
 00103,0.00000982,-0.00000503,-0.00000317,0.00001266,-0.00000113,-0.000
 00273,0.00000303,0.00001387,-0.00000422,0.00001246,-0.00002401,0.00002
 305,0.00014476,0.00005870,-0.00018835,-0.00030280,0.00011110,-0.000384
 31,0.00011735,0.00001717,-0.00001303,-0.00001370,0.00000390,-0.0000089
 5,0.00000511,0.00004526,-0.00002902,0.00001246,0.00001587,0.00001837,0
 .00000070,0.00000132,-0.00000572,0.00000499,0.00000485,0.00000645,0.00
 000495,0.00001143,-0.00001943,0.00002434,0.00000761,0.00001513,-0.0000
 0460,0.00001172,0.00000459,0.00001063,0.00000127,0.00004317,0.00003256
 ,0.00004725,0.00034311,-0.00179238,0.00126087,0.19327399,-0.00066301,-
 0.00002542,0.00035001,0.00158759,-0.00049989,-0.00008797,0.00012500,-0
 .00007405,0.00017727,-0.00014151,-0.00003322,0.00005197,-0.00007453,0.
 00000647,-0.00022041,0.00002102,-0.00003866,0.00008704,-0.00003400,0.0
 0000235,-0.00003869,0.00001976,0.00001971,-0.00002354,-0.00000706,-0.0
 0003244,0.00000204,-0.00000106,0.00001405,-0.00000485,-0.00000008,0.00
 000145,0.00000490,0.00000696,-0.00000925,-0.00001411,-0.00003768,0.000
 01784,0.00002121,0.00006411,-0.00001784,0.00005250,-0.00017768,-0.0001
 0916,0.00005463,0.00035717,0.00038356,0.00006064,0.00037128,-0.0005219
 3,-0.00009624,-0.00115251,-0.00124383,0.00100559,-0.00030977,0.0000257
 0,0.00038821,0.00027796,0.00006871,-0.00000721,-0.00014099,-0.00006522
 ,0.00001227,-0.00081653,0.00010742,-0.00056115,0.00304160,0.00086584,-
 0.00394335,0.00035968,-0.00072448,-0.00003449,0.00459473,0.00375335,-0
 .00351281,0.00031405,0.00038661,0.00046241,-0.00009533,0.00004628,0.00
 015071,0.00001300,-0.00001858,-0.00001531,0.00000220,0.00000882,0.0000
 0884,-0.00002570,-0.00000964,0.00001206,0.00000973,-0.00004548,-0.0000
 3802,0.01086332,0.00627831,0.01049560,-0.02575039,-0.05321814,-0.04183
 553,-0.01374706,0.00109668,-0.01273228,-0.00006563,-0.00058173,-0.0004
 4453,0.00002459,-0.00000311,0.00000023,-0.00003404,-0.00001000,-0.0000
 0119,-0.00000948,0.00000392,-0.00001072,-0.00000855,-0.00000827,0.0000
 0925,0.00000367,0.00000051,0.00000391,0.00000545,-0.00000303,-0.000002
 49,-0.00001002,-0.00000303,-0.00000064,-0.00000121,-0.00000410,0.00000
 262,-0.00000482,-0.00000448,-0.00000034,0.00000213,0.00000070,-0.00000
 028,-0.00001055,-0.00000952,-0.00000376,-0.00000191,0.00000064,0.00000
 442,0.00000088,0.00000230,0.00000174,0.00000678,-0.00000354,0.00000539
 ,-0.00001212,-0.00000791,0.00001684,-0.00001148,-0.00000488,0.00004419
 ,-0.00001226,-0.00006762,-0.00011622,0.00003627,0.00001972,-0.00001095
 ,0.00010461,-0.00006946,-0.00030391,-0.00030792,-0.00057143,0.00039136
 ,0.00015161,-0.00017596,0.00007910,-0.00000791,-0.00000848,-0.00001471
 ,-0.00004605,-0.00000317,-0.00005128,0.00000200,-0.00000279,-0.0000041
 5,-0.00000968,-0.00000084,-0.00001068,-0.00000179,-0.00000189,-0.00000
 120,-0.00000089,-0.00000252,-0.00000625,0.00000801,-0.00000896,-0.0000
 0144,-0.00000771,0.00000733,-0.00000195,0.00000435,-0.00001155,0.00001
 557,0.00002705,-0.00003186,0.00000661,-0.00197676,-0.00263393,0.002405
 31,0.02330907,0.04780301,0.00017810,0.00027820,-0.00000579,-0.00069009
 ,0.00042983,0.00067167,0.00022186,0.00001624,0.00013318,-0.00016973,-0
 .00019533,0.00001755,0.00009108,0.00006412,-0.00016254,-0.00003692,-0.
 00003540,0.00005641,-0.00000060,0.00002666,-0.00008615,0.00001307,0.00
 000964,-0.00001484,-0.00000111,-0.00001893,-0.00000024,0.00000100,0.00
 000889,-0.00000348,0.00000014,-0.00000316,0.00000492,0.00000580,0.0000
 0157,-0.00000664,-0.00000927,0.00000084,0.00001093,0.00009771,0.000047
 74,0.00006332,-0.00008035,-0.00004558,0.00002656,0.00050280,0.00035308
 ,0.00005129,-0.00044294,0.00043930,0.00016657,-0.00073200,0.00172422,-
 0.00036076,-0.00019402,0.00014639,-0.00031984,0.00018990,-0.00011410,0
 .00020007,0.00013819,0.00005022,0.00004657,-0.00114007,0.00020351,-0.0
 0049393,0.00155029,-0.00465938,-0.00073241,0.00085130,-0.00002505,0.00
 004852,-0.00060664,-0.00315779,0.00324616,0.00011881,-0.00010713,0.000
 16219,0.00000584,0.00000826,-0.00008176,-0.00000481,0.00000507,0.00001
 337,-0.00000003,-0.00000266,0.00000060,0.00002562,0.00000892,-0.000011
 40,-0.00006488,0.00007018,0.00004607,0.00285340,-0.00080203,0.00529066
 ,-0.13973272,-0.04197117,-0.19600881,-0.01688678,-0.00307833,-0.012986
 60,-0.00012295,-0.00014353,-0.00023731,-0.00000602,0.00001108,-0.00002
 285,-0.00001927,0.00001144,0.00000053,-0.00000738,0.00000155,-0.000007
 94,-0.00000350,-0.00000407,0.00000397,0.00000205,0.00000009,0.00000238
 ,0.00000207,0.00000024,-0.00000007,-0.00000907,0.,-0.00000053,-0.00000
 024,-0.00000349,0.00000173,-0.00000659,-0.00000267,0.00000057,0.000001
 63,0.00000173,-0.00000117,-0.00000579,-0.00000591,-0.00000243,-0.00000
 190,-0.00000010,0.00000257,0.00000118,0.00000130,0.00000222,-0.0000002
 6,0.00000610,0.00000068,-0.00000330,-0.00001014,0.00000408,0.00000349,
 -0.00005020,-0.00002887,-0.00001194,-0.00005056,-0.00011718,0.00002325
 ,-0.00002971,0.00001511,0.00003798,-0.00026444,-0.00023255,0.00010766,
 0.00041618,-0.00029847,0.00006132,0.00005985,-0.00002626,0.00000748,0.
 00000260,-0.00000071,0.00003421,-0.00000039,0.00000268,-0.00000546,0.0
 0000313,0.00000310,-0.00000224,0.00000159,0.00000149,-0.00000388,0.000
 00292,-0.00000074,0.00000171,-0.00000189,-0.00000048,-0.00000902,0.000
 00864,0.00000058,-0.00000382,-0.00000486,-0.00000388,-0.00000373,-0.00
 000066,-0.00001842,-0.00002698,-0.00000430,-0.00002041,0.00095414,0.00
 260340,-0.00069433,0.15296323,0.04776823,0.20269150\\-0.00000012,0.000
 00091,-0.00000267,-0.00000203,-0.00000143,0.00000098,0.00000211,0.0000
 0190,0.00000002,0.00000004,-0.00000082,0.00000344,0.00000157,0.0000008
 6,-0.00000159,0.,-0.00000029,0.00000217,0.00000083,0.00000125,-0.00000
 178,0.00000028,0.00000164,-0.00000009,0.00000144,0.00000060,0.00000119
 ,-0.00000206,0.00000109,0.00000086,-0.00000152,0.00000014,0.00000072,-
 0.00000090,-0.00000114,0.00000005,0.00000062,-0.00000021,0.00000074,0.
 00000105,0.00000065,-0.00000053,-0.00000098,-0.00000095,-0.00000055,0.
 00000023,-0.00000085,0.00000155,-0.00000339,0.00000050,-0.00000163,0.0
 0000470,-0.00000145,0.00000042,0.00000231,-0.00000038,0.00000048,0.000
 00063,0.00000114,0.00000292,-0.00000274,0.00000151,-0.00000075,0.00000
 122,-0.00000256,-0.00000364,-0.00000103,0.00000111,0.00000249,0.000000
 86,-0.00000117,-0.00000202,-0.00000092,0.00000085,0.00000065,-0.000002
 14,-0.00000126,-0.00000079,0.00000006,0.00000087,-0.00000013,0.0000017
 0,-0.00000042,-0.00000162,0.00000084,-0.00000125,-0.00000091,0.0000006
 0,-0.00000238,-0.00000034,-0.00000060,0.00000052,0.00000031,-0.0000012
 4,0.00000055,0.00000076,0.00000135,-0.00000115,0.00000033,-0.00000106,
 -0.00000055,-0.00000102,0.00000109,0.00000030,0.00000259,-0.00000088,-
 0.00000012,-0.00000003,-0.00000037,0.00000028,-0.00000012,-0.00000020,
 0.00000062,0.00000033,-0.00000040,0.00000041,0.00000072,-0.00000013,0.
 00000027,-0.00000052,0.00000011,-0.00000044,0.00000041,0.00000048,0.00
 000060,0.00000068,0.00000060,-0.00000011,0.00000125,0.00000028,0.00000
 096,0.00000048,0.00000023,0.00000132,-0.00000036,-0.00000006,0.0000010
 1,0.00000052,-0.00000009,0.00000083,0.00000145,-0.00000046,0.00000144,
 -0.00000023,-0.00000088,0.00000071,0.00000087,-0.00000028,0.00000006,0
 .00000034,0.00000046,0.00000052,-0.00000003,-0.00000055,0.,-0.00000277
 ,0.00000152,-0.00000024,0.00000021,0.00000063,-0.00000021,0.00000028,0
 .00000028,-0.00000037,-0.00000026,0.00000034,-0.00000074,-0.00000023,0
 .00000020,-0.00000127,0.00000006,-0.00000102,-0.00000121,-0.00000079,-
 0.00000061,-0.00000063,-0.00000037,-0.00000006,-0.00000065,0.00000043,
 -0.00000076,-0.00000042,-0.00000062,-0.00000131,-0.00000049,-0.0000012
 5,-0.00000048,-0.00000009,-0.00000059,0.00000024,0.00000025,-0.0000000
 5,0.00000067,-0.00000016,-0.00000066,-0.00000018,-0.00000039,-0.000001
 39,0.00000034,-0.00000024,-0.00000039,-0.00000050,0.00000036,0.0000000
 3\\\@
 The archive entry for this job was punched.


 "WOULD YOU TELL ME PLEASE, WHICH WAY I OUGHT TO WALK FROM HERE?"
 "THAT DEPENDS A GREAT DEAL ON WHERE YOU WANT TO GO," SAID THE CAT.
 "I DON'T MUCH CARE WHERE -- ", SAID ALICE.
 "THEN IT DOESN'T MATTER WHICH WAY YOU WALK," SAID THE CAT.

                                      -- LEWIS CARROLL
 Job cpu time:       0 days  5 hours 48 minutes 29.9 seconds.
 Elapsed time:       0 days  0 hours 10 minutes 58.0 seconds.
 File lengths (MBytes):  RWF=   2274 Int=      0 D2E=      0 Chk=     29 Scr=      2
 Normal termination of Gaussian 16 at Sat Jul  5 15:38:51 2025.
