 Entering Gaussian System, Link 0=g16
 Initial command:
 /public/software/apps/Gaussian/g16/l1.exe "/tmp/Gau-73568.inp" -scrdir="/tmp/"
 Entering Link 1 = /public/software/apps/Gaussian/g16/l1.exe PID=     73569.
  
 Copyright (c) 1988-2019, Gaussian, Inc.  All Rights Reserved.
  
 This is part of the Gaussian(R) 16 program.  It is based on
 the Gaussian(R) 09 system (copyright 2009, Gaussian, Inc.),
 the Gaussian(R) 03 system (copyright 2003, Gaussian, Inc.),
 the Gaussian(R) 98 system (copyright 1998, Gaussian, Inc.),
 the Gaussian(R) 94 system (copyright 1995, Gaussian, Inc.),
 the Gaussian 92(TM) system (copyright 1992, Gaussian, Inc.),
 the Gaussian 90(TM) system (copyright 1990, Gaussian, Inc.),
 the Gaussian 88(TM) system (copyright 1988, Gaussian, Inc.),
 the Gaussian 86(TM) system (copyright 1986, Carnegie Mellon
 University), and the Gaussian 82(TM) system (copyright 1983,
 Carnegie Mellon University). Gaussian is a federally registered
 trademark of Gaussian, Inc.
  
 This software contains proprietary and confidential information,
 including trade secrets, belonging to Gaussian, Inc.
  
 This software is provided under written license and may be
 used, copied, transmitted, or stored only in accord with that
 written license.
  
 The following legend is applicable only to US Government
 contracts under FAR:
  
                    RESTRICTED RIGHTS LEGEND
  
 Use, reproduction and disclosure by the US Government is
 subject to restrictions as set forth in subparagraphs (a)
 and (c) of the Commercial Computer Software - Restricted
 Rights clause in FAR 52.227-19.
  
 Gaussian, Inc.
 340 Quinnipiac St., Bldg. 40, Wallingford CT 06492
  
  
 ---------------------------------------------------------------
 Warning -- This program may not be used in any manner that
 competes with the business of Gaussian, Inc. or will provide
 assistance to any competitor of Gaussian, Inc.  The licensee
 of this program is prohibited from giving any competitor of
 Gaussian, Inc. access to this program.  By using this program,
 the user acknowledges that Gaussian, Inc. is engaged in the
 business of creating and licensing software in the field of
 computational chemistry and represents and warrants to the
 licensee that it is not a competitor of Gaussian, Inc. and that
 it will not use this program in any manner prohibited above.
 ---------------------------------------------------------------
  

 Cite this work as:
 Gaussian 16, Revision C.01,
 M. J. Frisch, G. W. Trucks, H. B. Schlegel, G. E. Scuseria, 
 M. A. Robb, J. R. Cheeseman, G. Scalmani, V. Barone, 
 G. A. Petersson, H. Nakatsuji, X. Li, M. Caricato, A. V. Marenich, 
 J. Bloino, B. G. Janesko, R. Gomperts, B. Mennucci, H. P. Hratchian, 
 J. V. Ortiz, A. F. Izmaylov, J. L. Sonnenberg, D. Williams-Young, 
 F. Ding, F. Lipparini, F. Egidi, J. Goings, B. Peng, A. Petrone, 
 T. Henderson, D. Ranasinghe, V. G. Zakrzewski, J. Gao, N. Rega, 
 G. Zheng, W. Liang, M. Hada, M. Ehara, K. Toyota, R. Fukuda, 
 J. Hasegawa, M. Ishida, T. Nakajima, Y. Honda, O. Kitao, H. Nakai, 
 T. Vreven, K. Throssell, J. A. Montgomery, Jr., J. E. Peralta, 
 F. Ogliaro, M. J. Bearpark, J. J. Heyd, E. N. Brothers, K. N. Kudin, 
 V. N. Staroverov, T. A. Keith, R. Kobayashi, J. Normand, 
 K. Raghavachari, A. P. Rendell, J. C. Burant, S. S. Iyengar, 
 J. Tomasi, M. Cossi, J. M. Millam, M. Klene, C. Adamo, R. Cammi, 
 J. W. Ochterski, R. L. Martin, K. Morokuma, O. Farkas, 
 J. B. Foresman, and D. J. Fox, Gaussian, Inc., Wallingford CT, 2019.
 
 ******************************************
 Gaussian 16:  ES64L-G16RevC.01  3-Jul-2019
                31-Jul-2024 
 ******************************************
 %nprocshared=32
 Will use up to   32 processors via shared memory.
 %mem=100GB
 ------------------------------------------
 #p opt freq b3lyp/def2svpp em=gd3bj nosymm
 ------------------------------------------
 1/18=20,19=15,26=3,38=1/1,3;
 2/9=110,12=2,15=1,17=6,18=5,40=1/2;
 3/5=43,7=202,11=2,25=1,30=1,71=1,74=-5,124=41/1,2,3;
 4//1;
 5/5=2,38=5/2;
 6/7=2,8=2,9=2,10=2,28=1/1;
 7/30=1/1,2,3,16;
 1/18=20,19=15,26=3/3(2);
 2/9=110,15=1/2;
 99//99;
 2/9=110,15=1/2;
 3/5=43,7=202,11=2,25=1,30=1,71=1,74=-5,124=41/1,2,3;
 4/5=5,16=3,69=1/1;
 5/5=2,38=5/2;
 7/30=1/1,2,3,16;
 1/18=20,19=15,26=3/3(-5);
 2/9=110,15=1/2;
 6/7=2,8=2,9=2,10=2,19=2,28=1/1;
 99/9=1/99;
 Leave Link    1 at Wed Jul 31 22:02:15 2024, MaxMem= 13421772800 cpu:               0.4 elap:               0.0
 (Enter /public/software/apps/Gaussian/g16/l101.exe)
 ----------------------
 $$$$Singlemol####0????
 ----------------------
 Symbolic Z-matrix:
 Charge =  0 Multiplicity = 1
 O                    -1.11989  -0.10496   1.08278 
 C                    -1.51219   0.70984   0.06298 
 C                    -2.75033   0.51137  -0.59548 
 C                    -3.56523  -0.67469  -0.25517 
 C                    -3.03199  -1.95923  -0.47687 
 C                    -1.75117  -2.16421  -1.06032 
 C                    -1.24692  -3.41845  -1.22198 
 C                    -1.99264  -4.55001  -0.83268 
 C                    -3.23918  -4.39919  -0.30917 
 C                    -3.80182  -3.11063  -0.11968 
 C                    -5.08012  -2.94401   0.4033 
 C                    -5.62291  -1.67976   0.60962 
 C                    -6.92663  -1.5107    1.14245 
 C                    -7.43414  -0.26986   1.37271 
 C                    -6.65779   0.87455   1.09659 
 C                    -5.40493   0.75461   0.57766 
 C                    -4.84825  -0.5198    0.29427 
 C                    -3.14284   1.40166  -1.56354 
 C                    -2.33689   2.49735  -1.92496 
 C                    -2.74063   3.42583  -2.90701 
 C                    -1.92495   4.46052  -3.26854 
 C                    -0.66337   4.60692  -2.67022 
 C                    -0.24212   3.72559  -1.71475 
 C                    -1.06827   2.65696  -1.30659 
 C                    -0.67157   1.73928  -0.30964 
 C                     0.67264   1.7398    0.3085 
 C                     1.51392   0.71082  -0.06382 
 O                     1.12221  -0.10438  -1.08352 
 C                     2.75199   0.513     0.59508 
 C                     3.56642  -0.67364   0.25564 
 C                     4.84947  -0.52034  -0.2941 
 C                     5.40779   0.75336  -0.57744 
 C                     6.66064   0.87168  -1.09675 
 C                     7.4353   -0.27374  -1.37345 
 C                     6.92621  -1.51392  -1.14319 
 C                     5.62251  -1.68131  -0.6098 
 C                     5.07815  -2.94488  -0.40347 
 C                     3.79998  -3.10992   0.12032 
 C                     3.23571  -4.39774   0.31 
 C                     1.98932  -4.54695   0.83435 
 C                     1.24547  -3.41443   1.22446 
 C                     1.75127  -2.16086   1.06249 
 C                     3.03188  -1.95755   0.478 
 C                     3.14389   1.40371   1.56298 
 C                     2.33717   2.49899   1.92412 
 C                     2.73992   3.42756   2.90648 
 C                     1.9232    4.46137   3.26824 
 C                     0.66165   4.6069    2.66968 
 C                     0.24139   3.72553   1.71381 
 C                     1.06853   2.6577    1.30557 
 H                    -1.77723  -0.80443   1.19924 
 H                    -1.17234  -1.31     -1.37811 
 H                    -0.26778  -3.5565   -1.65621 
 H                    -1.56835  -5.5342   -0.96721 
 H                    -3.82932  -5.25895  -0.02511 
 H                    -5.66418  -3.81749   0.65821 
 H                    -7.50551  -2.39602   1.36427 
 H                    -8.42813  -0.14906   1.77774 
 H                    -7.06769   1.85168   1.30608 
 H                    -4.81216   1.63482   0.37866 
 H                    -4.08014   1.24719  -2.07968 
 H                    -3.71029   3.3011   -3.3684 
 H                    -2.24177   5.16903  -4.01998 
 H                    -0.02615   5.42509  -2.97312 
 H                     0.72788   3.83671  -1.25291 
 H                     1.78001  -0.80344  -1.19985 
 H                     4.81628   1.63432  -0.37798 
 H                     7.07188   1.84828  -1.30608 
 H                     8.42932  -0.15422  -1.7788 
 H                     7.50381  -2.39999  -1.36535 
 H                     5.66087  -3.81908  -0.65902 
 H                     3.82446  -5.25827   0.02539 
 H                     1.56376  -5.53056   0.96903 
 H                     0.26654  -3.55122   1.65955 
 H                     1.17381  -1.30591   1.38069 
 H                     4.08106   1.24976   2.07949 
 H                     3.70959   3.30358   3.36804 
 H                     2.23922   5.1699    4.02002 
 H                     0.02355   5.4243    2.97284 
 H                    -0.72863   3.8359    1.25185 
 
 ITRead=  0  0  0  0  0  0  0  0  0  0  0  0  0  0  0  0  0  0  0  0
 ITRead=  0  0  0  0  0  0  0  0  0  0  0  0  0  0  0  0  0  0  0  0
 ITRead=  0  0  0  0  0  0  0  0  0  0  0  0  0  0  0  0  0  0  0  0
 ITRead=  0  0  0  0  0  0  0  0  0  0  0  0  0  0  0  0  0  0  0  0
 MicOpt= -1 -1 -1 -1 -1 -1 -1 -1 -1 -1 -1 -1 -1 -1 -1 -1 -1 -1 -1 -1
 MicOpt= -1 -1 -1 -1 -1 -1 -1 -1 -1 -1 -1 -1 -1 -1 -1 -1 -1 -1 -1 -1
 MicOpt= -1 -1 -1 -1 -1 -1 -1 -1 -1 -1 -1 -1 -1 -1 -1 -1 -1 -1 -1 -1
 MicOpt= -1 -1 -1 -1 -1 -1 -1 -1 -1 -1 -1 -1 -1 -1 -1 -1 -1 -1 -1 -1
 NAtoms=     80 NQM=       80 NQMF=       0 NMMI=      0 NMMIF=      0
                NMic=       0 NMicF=      0.
                    Isotopes and Nuclear Properties:
 (Nuclear quadrupole moments (NQMom) in fm**2, nuclear magnetic moments (NMagM)
  in nuclear magnetons)

  Atom         1           2           3           4           5           6           7           8           9          10
 IAtWgt=          16          12          12          12          12          12          12          12          12          12
 AtmWgt=  15.9949146  12.0000000  12.0000000  12.0000000  12.0000000  12.0000000  12.0000000  12.0000000  12.0000000  12.0000000
 NucSpn=           0           0           0           0           0           0           0           0           0           0
 AtZEff=  -0.0000000  -0.0000000  -0.0000000  -0.0000000  -0.0000000  -0.0000000  -0.0000000  -0.0000000  -0.0000000  -0.0000000
 NQMom=    0.0000000   0.0000000   0.0000000   0.0000000   0.0000000   0.0000000   0.0000000   0.0000000   0.0000000   0.0000000
 NMagM=    0.0000000   0.0000000   0.0000000   0.0000000   0.0000000   0.0000000   0.0000000   0.0000000   0.0000000   0.0000000
 AtZNuc=   8.0000000   6.0000000   6.0000000   6.0000000   6.0000000   6.0000000   6.0000000   6.0000000   6.0000000   6.0000000

  Atom        11          12          13          14          15          16          17          18          19          20
 IAtWgt=          12          12          12          12          12          12          12          12          12          12
 AtmWgt=  12.0000000  12.0000000  12.0000000  12.0000000  12.0000000  12.0000000  12.0000000  12.0000000  12.0000000  12.0000000
 NucSpn=           0           0           0           0           0           0           0           0           0           0
 AtZEff=  -0.0000000  -0.0000000  -0.0000000  -0.0000000  -0.0000000  -0.0000000  -0.0000000  -0.0000000  -0.0000000  -0.0000000
 NQMom=    0.0000000   0.0000000   0.0000000   0.0000000   0.0000000   0.0000000   0.0000000   0.0000000   0.0000000   0.0000000
 NMagM=    0.0000000   0.0000000   0.0000000   0.0000000   0.0000000   0.0000000   0.0000000   0.0000000   0.0000000   0.0000000
 AtZNuc=   6.0000000   6.0000000   6.0000000   6.0000000   6.0000000   6.0000000   6.0000000   6.0000000   6.0000000   6.0000000

  Atom        21          22          23          24          25          26          27          28          29          30
 IAtWgt=          12          12          12          12          12          12          12          16          12          12
 AtmWgt=  12.0000000  12.0000000  12.0000000  12.0000000  12.0000000  12.0000000  12.0000000  15.9949146  12.0000000  12.0000000
 NucSpn=           0           0           0           0           0           0           0           0           0           0
 AtZEff=  -0.0000000  -0.0000000  -0.0000000  -0.0000000  -0.0000000  -0.0000000  -0.0000000  -0.0000000  -0.0000000  -0.0000000
 NQMom=    0.0000000   0.0000000   0.0000000   0.0000000   0.0000000   0.0000000   0.0000000   0.0000000   0.0000000   0.0000000
 NMagM=    0.0000000   0.0000000   0.0000000   0.0000000   0.0000000   0.0000000   0.0000000   0.0000000   0.0000000   0.0000000
 AtZNuc=   6.0000000   6.0000000   6.0000000   6.0000000   6.0000000   6.0000000   6.0000000   8.0000000   6.0000000   6.0000000

  Atom        31          32          33          34          35          36          37          38          39          40
 IAtWgt=          12          12          12          12          12          12          12          12          12          12
 AtmWgt=  12.0000000  12.0000000  12.0000000  12.0000000  12.0000000  12.0000000  12.0000000  12.0000000  12.0000000  12.0000000
 NucSpn=           0           0           0           0           0           0           0           0           0           0
 AtZEff=  -0.0000000  -0.0000000  -0.0000000  -0.0000000  -0.0000000  -0.0000000  -0.0000000  -0.0000000  -0.0000000  -0.0000000
 NQMom=    0.0000000   0.0000000   0.0000000   0.0000000   0.0000000   0.0000000   0.0000000   0.0000000   0.0000000   0.0000000
 NMagM=    0.0000000   0.0000000   0.0000000   0.0000000   0.0000000   0.0000000   0.0000000   0.0000000   0.0000000   0.0000000
 AtZNuc=   6.0000000   6.0000000   6.0000000   6.0000000   6.0000000   6.0000000   6.0000000   6.0000000   6.0000000   6.0000000

  Atom        41          42          43          44          45          46          47          48          49          50
 IAtWgt=          12          12          12          12          12          12          12          12          12          12
 AtmWgt=  12.0000000  12.0000000  12.0000000  12.0000000  12.0000000  12.0000000  12.0000000  12.0000000  12.0000000  12.0000000
 NucSpn=           0           0           0           0           0           0           0           0           0           0
 AtZEff=  -0.0000000  -0.0000000  -0.0000000  -0.0000000  -0.0000000  -0.0000000  -0.0000000  -0.0000000  -0.0000000  -0.0000000
 NQMom=    0.0000000   0.0000000   0.0000000   0.0000000   0.0000000   0.0000000   0.0000000   0.0000000   0.0000000   0.0000000
 NMagM=    0.0000000   0.0000000   0.0000000   0.0000000   0.0000000   0.0000000   0.0000000   0.0000000   0.0000000   0.0000000
 AtZNuc=   6.0000000   6.0000000   6.0000000   6.0000000   6.0000000   6.0000000   6.0000000   6.0000000   6.0000000   6.0000000

  Atom        51          52          53          54          55          56          57          58          59          60
 IAtWgt=           1           1           1           1           1           1           1           1           1           1
 AtmWgt=   1.0078250   1.0078250   1.0078250   1.0078250   1.0078250   1.0078250   1.0078250   1.0078250   1.0078250   1.0078250
 NucSpn=           1           1           1           1           1           1           1           1           1           1
 AtZEff=  -0.0000000  -0.0000000  -0.0000000  -0.0000000  -0.0000000  -0.0000000  -0.0000000  -0.0000000  -0.0000000  -0.0000000
 NQMom=    0.0000000   0.0000000   0.0000000   0.0000000   0.0000000   0.0000000   0.0000000   0.0000000   0.0000000   0.0000000
 NMagM=    2.7928460   2.7928460   2.7928460   2.7928460   2.7928460   2.7928460   2.7928460   2.7928460   2.7928460   2.7928460
 AtZNuc=   1.0000000   1.0000000   1.0000000   1.0000000   1.0000000   1.0000000   1.0000000   1.0000000   1.0000000   1.0000000

  Atom        61          62          63          64          65          66          67          68          69          70
 IAtWgt=           1           1           1           1           1           1           1           1           1           1
 AtmWgt=   1.0078250   1.0078250   1.0078250   1.0078250   1.0078250   1.0078250   1.0078250   1.0078250   1.0078250   1.0078250
 NucSpn=           1           1           1           1           1           1           1           1           1           1
 AtZEff=  -0.0000000  -0.0000000  -0.0000000  -0.0000000  -0.0000000  -0.0000000  -0.0000000  -0.0000000  -0.0000000  -0.0000000
 NQMom=    0.0000000   0.0000000   0.0000000   0.0000000   0.0000000   0.0000000   0.0000000   0.0000000   0.0000000   0.0000000
 NMagM=    2.7928460   2.7928460   2.7928460   2.7928460   2.7928460   2.7928460   2.7928460   2.7928460   2.7928460   2.7928460
 AtZNuc=   1.0000000   1.0000000   1.0000000   1.0000000   1.0000000   1.0000000   1.0000000   1.0000000   1.0000000   1.0000000

  Atom        71          72          73          74          75          76          77          78          79          80
 IAtWgt=           1           1           1           1           1           1           1           1           1           1
 AtmWgt=   1.0078250   1.0078250   1.0078250   1.0078250   1.0078250   1.0078250   1.0078250   1.0078250   1.0078250   1.0078250
 NucSpn=           1           1           1           1           1           1           1           1           1           1
 AtZEff=  -0.0000000  -0.0000000  -0.0000000  -0.0000000  -0.0000000  -0.0000000  -0.0000000  -0.0000000  -0.0000000  -0.0000000
 NQMom=    0.0000000   0.0000000   0.0000000   0.0000000   0.0000000   0.0000000   0.0000000   0.0000000   0.0000000   0.0000000
 NMagM=    2.7928460   2.7928460   2.7928460   2.7928460   2.7928460   2.7928460   2.7928460   2.7928460   2.7928460   2.7928460
 AtZNuc=   1.0000000   1.0000000   1.0000000   1.0000000   1.0000000   1.0000000   1.0000000   1.0000000   1.0000000   1.0000000
 Leave Link  101 at Wed Jul 31 22:02:16 2024, MaxMem= 13421772800 cpu:               4.5 elap:               0.2
 (Enter /public/software/apps/Gaussian/g16/l103.exe)

 GradGradGradGradGradGradGradGradGradGradGradGradGradGradGradGradGradGrad
 Berny optimization.
 Initialization pass.
                           ----------------------------
                           !    Initial Parameters    !
                           ! (Angstroms and Degrees)  !
 --------------------------                            --------------------------
 ! Name  Definition              Value          Derivative Info.                !
 --------------------------------------------------------------------------------
 ! R1    R(1,2)                  1.363          estimate D2E/DX2                !
 ! R2    R(1,51)                 0.9669         estimate D2E/DX2                !
 ! R3    R(2,3)                  1.4163         estimate D2E/DX2                !
 ! R4    R(2,25)                 1.3803         estimate D2E/DX2                !
 ! R5    R(3,4)                  1.4787         estimate D2E/DX2                !
 ! R6    R(3,18)                 1.3725         estimate D2E/DX2                !
 ! R7    R(4,5)                  1.4084         estimate D2E/DX2                !
 ! R8    R(4,17)                 1.4043         estimate D2E/DX2                !
 ! R9    R(5,6)                  1.4223         estimate D2E/DX2                !
 ! R10   R(5,10)                 1.4304         estimate D2E/DX2                !
 ! R11   R(6,7)                  1.3614         estimate D2E/DX2                !
 ! R12   R(6,52)                 1.0797         estimate D2E/DX2                !
 ! R13   R(7,8)                  1.41           estimate D2E/DX2                !
 ! R14   R(7,53)                 1.08           estimate D2E/DX2                !
 ! R15   R(8,9)                  1.3604         estimate D2E/DX2                !
 ! R16   R(8,54)                 1.0802         estimate D2E/DX2                !
 ! R17   R(9,10)                 1.4187         estimate D2E/DX2                !
 ! R18   R(9,55)                 1.0808         estimate D2E/DX2                !
 ! R19   R(10,11)                1.3912         estimate D2E/DX2                !
 ! R20   R(11,12)                1.3912         estimate D2E/DX2                !
 ! R21   R(11,56)                1.0812         estimate D2E/DX2                !
 ! R22   R(12,13)                1.4185         estimate D2E/DX2                !
 ! R23   R(12,17)                1.4301         estimate D2E/DX2                !
 ! R24   R(13,14)                1.3602         estimate D2E/DX2                !
 ! R25   R(13,57)                1.0808         estimate D2E/DX2                !
 ! R26   R(14,15)                1.4102         estimate D2E/DX2                !
 ! R27   R(14,58)                1.0801         estimate D2E/DX2                !
 ! R28   R(15,16)                1.3614         estimate D2E/DX2                !
 ! R29   R(15,59)                1.0801         estimate D2E/DX2                !
 ! R30   R(16,17)                1.4193         estimate D2E/DX2                !
 ! R31   R(16,60)                1.0797         estimate D2E/DX2                !
 ! R32   R(18,19)                1.4074         estimate D2E/DX2                !
 ! R33   R(18,61)                1.0811         estimate D2E/DX2                !
 ! R34   R(19,20)                1.4105         estimate D2E/DX2                !
 ! R35   R(19,24)                1.4203         estimate D2E/DX2                !
 ! R36   R(20,21)                1.3662         estimate D2E/DX2                !
 ! R37   R(20,62)                1.0811         estimate D2E/DX2                !
 ! R38   R(21,22)                1.4039         estimate D2E/DX2                !
 ! R39   R(21,63)                1.0803         estimate D2E/DX2                !
 ! R40   R(22,23)                1.3664         estimate D2E/DX2                !
 ! R41   R(22,64)                1.0804         estimate D2E/DX2                !
 ! R42   R(23,24)                1.4111         estimate D2E/DX2                !
 ! R43   R(23,65)                1.0801         estimate D2E/DX2                !
 ! R44   R(24,25)                1.4119         estimate D2E/DX2                !
 ! R45   R(25,26)                1.4795         estimate D2E/DX2                !
 ! R46   R(26,27)                1.3803         estimate D2E/DX2                !
 ! R47   R(26,50)                1.4119         estimate D2E/DX2                !
 ! R48   R(27,28)                1.363          estimate D2E/DX2                !
 ! R49   R(27,29)                1.4164         estimate D2E/DX2                !
 ! R50   R(28,66)                0.9669         estimate D2E/DX2                !
 ! R51   R(29,30)                1.4787         estimate D2E/DX2                !
 ! R52   R(29,44)                1.3725         estimate D2E/DX2                !
 ! R53   R(30,31)                1.4043         estimate D2E/DX2                !
 ! R54   R(30,43)                1.4084         estimate D2E/DX2                !
 ! R55   R(31,32)                1.4193         estimate D2E/DX2                !
 ! R56   R(31,36)                1.4301         estimate D2E/DX2                !
 ! R57   R(32,33)                1.3614         estimate D2E/DX2                !
 ! R58   R(32,67)                1.0797         estimate D2E/DX2                !
 ! R59   R(33,34)                1.4102         estimate D2E/DX2                !
 ! R60   R(33,68)                1.0801         estimate D2E/DX2                !
 ! R61   R(34,35)                1.3602         estimate D2E/DX2                !
 ! R62   R(34,69)                1.0801         estimate D2E/DX2                !
 ! R63   R(35,36)                1.4185         estimate D2E/DX2                !
 ! R64   R(35,70)                1.0808         estimate D2E/DX2                !
 ! R65   R(36,37)                1.3912         estimate D2E/DX2                !
 ! R66   R(37,38)                1.3912         estimate D2E/DX2                !
 ! R67   R(37,71)                1.0812         estimate D2E/DX2                !
 ! R68   R(38,39)                1.4188         estimate D2E/DX2                !
 ! R69   R(38,43)                1.4303         estimate D2E/DX2                !
 ! R70   R(39,40)                1.3604         estimate D2E/DX2                !
 ! R71   R(39,72)                1.0808         estimate D2E/DX2                !
 ! R72   R(40,41)                1.41           estimate D2E/DX2                !
 ! R73   R(40,73)                1.0802         estimate D2E/DX2                !
 ! R74   R(41,42)                1.3614         estimate D2E/DX2                !
 ! R75   R(41,74)                1.08           estimate D2E/DX2                !
 ! R76   R(42,43)                1.4223         estimate D2E/DX2                !
 ! R77   R(42,75)                1.0797         estimate D2E/DX2                !
 ! R78   R(44,45)                1.4074         estimate D2E/DX2                !
 ! R79   R(44,76)                1.0811         estimate D2E/DX2                !
 ! R80   R(45,46)                1.4105         estimate D2E/DX2                !
 ! R81   R(45,50)                1.4203         estimate D2E/DX2                !
 ! R82   R(46,47)                1.3663         estimate D2E/DX2                !
 ! R83   R(46,77)                1.0811         estimate D2E/DX2                !
 ! R84   R(47,48)                1.4039         estimate D2E/DX2                !
 ! R85   R(47,78)                1.0803         estimate D2E/DX2                !
 ! R86   R(48,49)                1.3664         estimate D2E/DX2                !
 ! R87   R(48,79)                1.0804         estimate D2E/DX2                !
 ! R88   R(49,50)                1.4111         estimate D2E/DX2                !
 ! R89   R(49,80)                1.0801         estimate D2E/DX2                !
 ! A1    A(2,1,51)             109.0804         estimate D2E/DX2                !
 ! A2    A(1,2,3)              121.0434         estimate D2E/DX2                !
 ! A3    A(1,2,25)             118.1992         estimate D2E/DX2                !
 ! A4    A(3,2,25)             120.7571         estimate D2E/DX2                !
 ! A5    A(2,3,4)              119.1541         estimate D2E/DX2                !
 ! A6    A(2,3,18)             119.1442         estimate D2E/DX2                !
 ! A7    A(4,3,18)             121.6682         estimate D2E/DX2                !
 ! A8    A(3,4,5)              119.1228         estimate D2E/DX2                !
 ! A9    A(3,4,17)             120.336          estimate D2E/DX2                !
 ! A10   A(5,4,17)             120.5381         estimate D2E/DX2                !
 ! A11   A(4,5,6)              122.4778         estimate D2E/DX2                !
 ! A12   A(4,5,10)             119.4134         estimate D2E/DX2                !
 ! A13   A(6,5,10)             118.1055         estimate D2E/DX2                !
 ! A14   A(5,6,7)              120.9985         estimate D2E/DX2                !
 ! A15   A(5,6,52)             119.3078         estimate D2E/DX2                !
 ! A16   A(7,6,52)             119.6936         estimate D2E/DX2                !
 ! A17   A(6,7,8)              120.7084         estimate D2E/DX2                !
 ! A18   A(6,7,53)             120.0866         estimate D2E/DX2                !
 ! A19   A(8,7,53)             119.2044         estimate D2E/DX2                !
 ! A20   A(7,8,9)              120.125          estimate D2E/DX2                !
 ! A21   A(7,8,54)             119.2807         estimate D2E/DX2                !
 ! A22   A(9,8,54)             120.5893         estimate D2E/DX2                !
 ! A23   A(8,9,10)             121.0295         estimate D2E/DX2                !
 ! A24   A(8,9,55)             120.8814         estimate D2E/DX2                !
 ! A25   A(10,9,55)            118.0891         estimate D2E/DX2                !
 ! A26   A(5,10,9)             118.9672         estimate D2E/DX2                !
 ! A27   A(5,10,11)            119.4726         estimate D2E/DX2                !
 ! A28   A(9,10,11)            121.5602         estimate D2E/DX2                !
 ! A29   A(10,11,12)           121.5398         estimate D2E/DX2                !
 ! A30   A(10,11,56)           119.2241         estimate D2E/DX2                !
 ! A31   A(12,11,56)           119.2359         estimate D2E/DX2                !
 ! A32   A(11,12,13)           121.5058         estimate D2E/DX2                !
 ! A33   A(11,12,17)           119.5413         estimate D2E/DX2                !
 ! A34   A(13,12,17)           118.9487         estimate D2E/DX2                !
 ! A35   A(12,13,14)           121.0118         estimate D2E/DX2                !
 ! A36   A(12,13,57)           118.1467         estimate D2E/DX2                !
 ! A37   A(14,13,57)           120.8411         estimate D2E/DX2                !
 ! A38   A(13,14,15)           120.115          estimate D2E/DX2                !
 ! A39   A(13,14,58)           120.5877         estimate D2E/DX2                !
 ! A40   A(15,14,58)           119.2939         estimate D2E/DX2                !
 ! A41   A(14,15,16)           120.6499         estimate D2E/DX2                !
 ! A42   A(14,15,59)           119.1597         estimate D2E/DX2                !
 ! A43   A(16,15,59)           120.1899         estimate D2E/DX2                !
 ! A44   A(15,16,17)           121.077          estimate D2E/DX2                !
 ! A45   A(15,16,60)           120.245          estimate D2E/DX2                !
 ! A46   A(17,16,60)           118.6772         estimate D2E/DX2                !
 ! A47   A(4,17,12)            119.4547         estimate D2E/DX2                !
 ! A48   A(4,17,16)            122.3798         estimate D2E/DX2                !
 ! A49   A(12,17,16)           118.1535         estimate D2E/DX2                !
 ! A50   A(3,18,19)            121.4904         estimate D2E/DX2                !
 ! A51   A(3,18,61)            119.471          estimate D2E/DX2                !
 ! A52   A(19,18,61)           119.0206         estimate D2E/DX2                !
 ! A53   A(18,19,20)           121.8267         estimate D2E/DX2                !
 ! A54   A(18,19,24)           119.1557         estimate D2E/DX2                !
 ! A55   A(20,19,24)           119.0017         estimate D2E/DX2                !
 ! A56   A(19,20,21)           120.7876         estimate D2E/DX2                !
 ! A57   A(19,20,62)           118.5522         estimate D2E/DX2                !
 ! A58   A(21,20,62)           120.6603         estimate D2E/DX2                !
 ! A59   A(20,21,22)           120.1783         estimate D2E/DX2                !
 ! A60   A(20,21,63)           120.3753         estimate D2E/DX2                !
 ! A61   A(22,21,63)           119.4455         estimate D2E/DX2                !
 ! A62   A(21,22,23)           120.516          estimate D2E/DX2                !
 ! A63   A(21,22,64)           119.3078         estimate D2E/DX2                !
 ! A64   A(23,22,64)           120.1761         estimate D2E/DX2                !
 ! A65   A(22,23,24)           120.6789         estimate D2E/DX2                !
 ! A66   A(22,23,65)           120.6314         estimate D2E/DX2                !
 ! A67   A(24,23,65)           118.6887         estimate D2E/DX2                !
 ! A68   A(19,24,23)           118.8243         estimate D2E/DX2                !
 ! A69   A(19,24,25)           119.0358         estimate D2E/DX2                !
 ! A70   A(23,24,25)           122.1391         estimate D2E/DX2                !
 ! A71   A(2,25,24)            120.282          estimate D2E/DX2                !
 ! A72   A(2,25,26)            116.1539         estimate D2E/DX2                !
 ! A73   A(24,25,26)           123.371          estimate D2E/DX2                !
 ! A74   A(25,26,27)           116.1552         estimate D2E/DX2                !
 ! A75   A(25,26,50)           123.369          estimate D2E/DX2                !
 ! A76   A(27,26,50)           120.2808         estimate D2E/DX2                !
 ! A77   A(26,27,28)           118.1965         estimate D2E/DX2                !
 ! A78   A(26,27,29)           120.7579         estimate D2E/DX2                !
 ! A79   A(28,27,29)           121.0452         estimate D2E/DX2                !
 ! A80   A(27,28,66)           109.0805         estimate D2E/DX2                !
 ! A81   A(27,29,30)           119.1253         estimate D2E/DX2                !
 ! A82   A(27,29,44)           119.1443         estimate D2E/DX2                !
 ! A83   A(30,29,44)           121.6953         estimate D2E/DX2                !
 ! A84   A(29,30,31)           120.3636         estimate D2E/DX2                !
 ! A85   A(29,30,43)           119.0955         estimate D2E/DX2                !
 ! A86   A(31,30,43)           120.5374         estimate D2E/DX2                !
 ! A87   A(30,31,32)           122.3815         estimate D2E/DX2                !
 ! A88   A(30,31,36)           119.4524         estimate D2E/DX2                !
 ! A89   A(32,31,36)           118.1541         estimate D2E/DX2                !
 ! A90   A(31,32,33)           121.0762         estimate D2E/DX2                !
 ! A91   A(31,32,67)           118.6754         estimate D2E/DX2                !
 ! A92   A(33,32,67)           120.2476         estimate D2E/DX2                !
 ! A93   A(32,33,34)           120.6504         estimate D2E/DX2                !
 ! A94   A(32,33,68)           120.1912         estimate D2E/DX2                !
 ! A95   A(34,33,68)           119.1579         estimate D2E/DX2                !
 ! A96   A(33,34,35)           120.1153         estimate D2E/DX2                !
 ! A97   A(33,34,69)           119.2943         estimate D2E/DX2                !
 ! A98   A(35,34,69)           120.587          estimate D2E/DX2                !
 ! A99   A(34,35,36)           121.0118         estimate D2E/DX2                !
 ! A100  A(34,35,70)           120.8414         estimate D2E/DX2                !
 ! A101  A(36,35,70)           118.1464         estimate D2E/DX2                !
 ! A102  A(31,36,35)           118.9486         estimate D2E/DX2                !
 ! A103  A(31,36,37)           119.5438         estimate D2E/DX2                !
 ! A104  A(35,36,37)           121.5034         estimate D2E/DX2                !
 ! A105  A(36,37,38)           121.5397         estimate D2E/DX2                !
 ! A106  A(36,37,71)           119.2357         estimate D2E/DX2                !
 ! A107  A(38,37,71)           119.2243         estimate D2E/DX2                !
 ! A108  A(37,38,39)           121.5638         estimate D2E/DX2                !
 ! A109  A(37,38,43)           119.4698         estimate D2E/DX2                !
 ! A110  A(39,38,43)           118.9664         estimate D2E/DX2                !
 ! A111  A(38,39,40)           121.0296         estimate D2E/DX2                !
 ! A112  A(38,39,72)           118.0894         estimate D2E/DX2                !
 ! A113  A(40,39,72)           120.881          estimate D2E/DX2                !
 ! A114  A(39,40,41)           120.1249         estimate D2E/DX2                !
 ! A115  A(39,40,73)           120.5908         estimate D2E/DX2                !
 ! A116  A(41,40,73)           119.2793         estimate D2E/DX2                !
 ! A117  A(40,41,42)           120.7078         estimate D2E/DX2                !
 ! A118  A(40,41,74)           119.205          estimate D2E/DX2                !
 ! A119  A(42,41,74)           120.0867         estimate D2E/DX2                !
 ! A120  A(41,42,43)           120.9987         estimate D2E/DX2                !
 ! A121  A(41,42,75)           119.6941         estimate D2E/DX2                !
 ! A122  A(43,42,75)           119.3072         estimate D2E/DX2                !
 ! A123  A(30,43,38)           119.4165         estimate D2E/DX2                !
 ! A124  A(30,43,42)           122.4742         estimate D2E/DX2                !
 ! A125  A(38,43,42)           118.1061         estimate D2E/DX2                !
 ! A126  A(29,44,45)           121.4884         estimate D2E/DX2                !
 ! A127  A(29,44,76)           119.4737         estimate D2E/DX2                !
 ! A128  A(45,44,76)           119.0193         estimate D2E/DX2                !
 ! A129  A(44,45,46)           121.8281         estimate D2E/DX2                !
 ! A130  A(44,45,50)           119.1564         estimate D2E/DX2                !
 ! A131  A(46,45,50)           118.999          estimate D2E/DX2                !
 ! A132  A(45,46,47)           120.7886         estimate D2E/DX2                !
 ! A133  A(45,46,77)           118.5532         estimate D2E/DX2                !
 ! A134  A(47,46,77)           120.6582         estimate D2E/DX2                !
 ! A135  A(46,47,48)           120.1792         estimate D2E/DX2                !
 ! A136  A(46,47,78)           120.3754         estimate D2E/DX2                !
 ! A137  A(48,47,78)           119.4446         estimate D2E/DX2                !
 ! A138  A(47,48,49)           120.5146         estimate D2E/DX2                !
 ! A139  A(47,48,79)           119.3092         estimate D2E/DX2                !
 ! A140  A(49,48,79)           120.1762         estimate D2E/DX2                !
 ! A141  A(48,49,50)           120.6792         estimate D2E/DX2                !
 ! A142  A(48,49,80)           120.6318         estimate D2E/DX2                !
 ! A143  A(50,49,80)           118.6882         estimate D2E/DX2                !
 ! A144  A(26,50,45)           119.0366         estimate D2E/DX2                !
 ! A145  A(26,50,49)           122.1362         estimate D2E/DX2                !
 ! A146  A(45,50,49)           118.8264         estimate D2E/DX2                !
 ! D1    D(51,1,2,3)             3.4224         estimate D2E/DX2                !
 ! D2    D(51,1,2,25)         -176.8005         estimate D2E/DX2                !
 ! D3    D(1,2,3,4)             -5.8914         estimate D2E/DX2                !
 ! D4    D(1,2,3,18)           176.1773         estimate D2E/DX2                !
 ! D5    D(25,2,3,4)           174.3372         estimate D2E/DX2                !
 ! D6    D(25,2,3,18)           -3.5941         estimate D2E/DX2                !
 ! D7    D(1,2,25,24)         -176.2738         estimate D2E/DX2                !
 ! D8    D(1,2,25,26)            8.6066         estimate D2E/DX2                !
 ! D9    D(3,2,25,24)            3.5039         estimate D2E/DX2                !
 ! D10   D(3,2,25,26)         -171.6157         estimate D2E/DX2                !
 ! D11   D(2,3,4,5)            -61.2386         estimate D2E/DX2                !
 ! D12   D(2,3,4,17)           118.124          estimate D2E/DX2                !
 ! D13   D(18,3,4,5)           116.6385         estimate D2E/DX2                !
 ! D14   D(18,3,4,17)          -63.9989         estimate D2E/DX2                !
 ! D15   D(2,3,18,19)            0.6682         estimate D2E/DX2                !
 ! D16   D(2,3,18,61)          179.1102         estimate D2E/DX2                !
 ! D17   D(4,3,18,19)         -177.2091         estimate D2E/DX2                !
 ! D18   D(4,3,18,61)            1.2329         estimate D2E/DX2                !
 ! D19   D(3,4,5,6)             -2.1845         estimate D2E/DX2                !
 ! D20   D(3,4,5,10)           178.4851         estimate D2E/DX2                !
 ! D21   D(17,4,5,6)           178.4542         estimate D2E/DX2                !
 ! D22   D(17,4,5,10)           -0.8762         estimate D2E/DX2                !
 ! D23   D(3,4,17,12)          179.6639         estimate D2E/DX2                !
 ! D24   D(3,4,17,16)           -1.6202         estimate D2E/DX2                !
 ! D25   D(5,4,17,12)           -0.9826         estimate D2E/DX2                !
 ! D26   D(5,4,17,16)          177.7333         estimate D2E/DX2                !
 ! D27   D(4,5,6,7)            177.8892         estimate D2E/DX2                !
 ! D28   D(4,5,6,52)            -2.0681         estimate D2E/DX2                !
 ! D29   D(10,5,6,7)            -2.772          estimate D2E/DX2                !
 ! D30   D(10,5,6,52)          177.2706         estimate D2E/DX2                !
 ! D31   D(4,5,10,9)          -178.0918         estimate D2E/DX2                !
 ! D32   D(4,5,10,11)            1.9217         estimate D2E/DX2                !
 ! D33   D(6,5,10,9)             2.5486         estimate D2E/DX2                !
 ! D34   D(6,5,10,11)         -177.4379         estimate D2E/DX2                !
 ! D35   D(5,6,7,8)              0.9811         estimate D2E/DX2                !
 ! D36   D(5,6,7,53)          -179.2856         estimate D2E/DX2                !
 ! D37   D(52,6,7,8)          -179.0617         estimate D2E/DX2                !
 ! D38   D(52,6,7,53)            0.6715         estimate D2E/DX2                !
 ! D39   D(6,7,8,9)              1.0889         estimate D2E/DX2                !
 ! D40   D(6,7,8,54)          -179.7186         estimate D2E/DX2                !
 ! D41   D(53,7,8,9)          -178.6467         estimate D2E/DX2                !
 ! D42   D(53,7,8,54)            0.5458         estimate D2E/DX2                !
 ! D43   D(7,8,9,10)            -1.2654         estimate D2E/DX2                !
 ! D44   D(7,8,9,55)           178.7645         estimate D2E/DX2                !
 ! D45   D(54,8,9,10)          179.5528         estimate D2E/DX2                !
 ! D46   D(54,8,9,55)           -0.4173         estimate D2E/DX2                !
 ! D47   D(8,9,10,5)            -0.5822         estimate D2E/DX2                !
 ! D48   D(8,9,10,11)          179.404          estimate D2E/DX2                !
 ! D49   D(55,9,10,5)          179.3887         estimate D2E/DX2                !
 ! D50   D(55,9,10,11)          -0.6251         estimate D2E/DX2                !
 ! D51   D(5,10,11,12)          -1.0946         estimate D2E/DX2                !
 ! D52   D(5,10,11,56)         179.0977         estimate D2E/DX2                !
 ! D53   D(9,10,11,12)         178.9193         estimate D2E/DX2                !
 ! D54   D(9,10,11,56)          -0.8884         estimate D2E/DX2                !
 ! D55   D(10,11,12,13)        179.9759         estimate D2E/DX2                !
 ! D56   D(10,11,12,17)         -0.7764         estimate D2E/DX2                !
 ! D57   D(56,11,12,13)         -0.2164         estimate D2E/DX2                !
 ! D58   D(56,11,12,17)        179.0313         estimate D2E/DX2                !
 ! D59   D(11,12,13,14)        178.267          estimate D2E/DX2                !
 ! D60   D(11,12,13,57)         -1.5169         estimate D2E/DX2                !
 ! D61   D(17,12,13,14)         -0.9851         estimate D2E/DX2                !
 ! D62   D(17,12,13,57)        179.2311         estimate D2E/DX2                !
 ! D63   D(11,12,17,4)           1.8206         estimate D2E/DX2                !
 ! D64   D(11,12,17,16)       -176.9494         estimate D2E/DX2                !
 ! D65   D(13,12,17,4)        -178.9124         estimate D2E/DX2                !
 ! D66   D(13,12,17,16)          2.3177         estimate D2E/DX2                !
 ! D67   D(12,13,14,15)         -0.7392         estimate D2E/DX2                !
 ! D68   D(12,13,14,58)        179.9393         estimate D2E/DX2                !
 ! D69   D(57,13,14,15)        179.0388         estimate D2E/DX2                !
 ! D70   D(57,13,14,58)         -0.2827         estimate D2E/DX2                !
 ! D71   D(13,14,15,16)          1.0988         estimate D2E/DX2                !
 ! D72   D(13,14,15,59)       -178.6347         estimate D2E/DX2                !
 ! D73   D(58,14,15,16)       -179.5709         estimate D2E/DX2                !
 ! D74   D(58,14,15,59)          0.6956         estimate D2E/DX2                !
 ! D75   D(14,15,16,17)          0.3176         estimate D2E/DX2                !
 ! D76   D(14,15,16,60)       -179.342          estimate D2E/DX2                !
 ! D77   D(59,15,16,17)       -179.9516         estimate D2E/DX2                !
 ! D78   D(59,15,16,60)          0.3888         estimate D2E/DX2                !
 ! D79   D(15,16,17,4)         179.257          estimate D2E/DX2                !
 ! D80   D(15,16,17,12)         -2.0113         estimate D2E/DX2                !
 ! D81   D(60,16,17,4)          -1.0782         estimate D2E/DX2                !
 ! D82   D(60,16,17,12)        177.6536         estimate D2E/DX2                !
 ! D83   D(3,18,19,20)        -179.2028         estimate D2E/DX2                !
 ! D84   D(3,18,19,24)           2.261          estimate D2E/DX2                !
 ! D85   D(61,18,19,20)          2.3483         estimate D2E/DX2                !
 ! D86   D(61,18,19,24)       -176.1879         estimate D2E/DX2                !
 ! D87   D(18,19,20,21)       -178.132          estimate D2E/DX2                !
 ! D88   D(18,19,20,62)          1.8493         estimate D2E/DX2                !
 ! D89   D(24,19,20,21)          0.4063         estimate D2E/DX2                !
 ! D90   D(24,19,20,62)       -179.6124         estimate D2E/DX2                !
 ! D91   D(18,19,24,23)        177.3519         estimate D2E/DX2                !
 ! D92   D(18,19,24,25)         -2.3342         estimate D2E/DX2                !
 ! D93   D(20,19,24,23)         -1.226          estimate D2E/DX2                !
 ! D94   D(20,19,24,25)        179.0879         estimate D2E/DX2                !
 ! D95   D(19,20,21,22)          0.476          estimate D2E/DX2                !
 ! D96   D(19,20,21,63)       -179.8688         estimate D2E/DX2                !
 ! D97   D(62,20,21,22)       -179.505          estimate D2E/DX2                !
 ! D98   D(62,20,21,63)          0.1503         estimate D2E/DX2                !
 ! D99   D(20,21,22,23)         -0.526          estimate D2E/DX2                !
 ! D100  D(20,21,22,64)        179.451          estimate D2E/DX2                !
 ! D101  D(63,21,22,23)        179.8156         estimate D2E/DX2                !
 ! D102  D(63,21,22,64)         -0.2075         estimate D2E/DX2                !
 ! D103  D(21,22,23,24)         -0.3264         estimate D2E/DX2                !
 ! D104  D(21,22,23,65)       -179.9725         estimate D2E/DX2                !
 ! D105  D(64,22,23,24)        179.6969         estimate D2E/DX2                !
 ! D106  D(64,22,23,65)          0.0508         estimate D2E/DX2                !
 ! D107  D(22,23,24,19)          1.1964         estimate D2E/DX2                !
 ! D108  D(22,23,24,25)       -179.1277         estimate D2E/DX2                !
 ! D109  D(65,23,24,19)       -179.1507         estimate D2E/DX2                !
 ! D110  D(65,23,24,25)          0.5251         estimate D2E/DX2                !
 ! D111  D(19,24,25,2)          -0.513          estimate D2E/DX2                !
 ! D112  D(19,24,25,26)        174.2404         estimate D2E/DX2                !
 ! D113  D(23,24,25,2)         179.8118         estimate D2E/DX2                !
 ! D114  D(23,24,25,26)         -5.4348         estimate D2E/DX2                !
 ! D115  D(2,25,26,27)          67.6575         estimate D2E/DX2                !
 ! D116  D(2,25,26,50)        -107.2698         estimate D2E/DX2                !
 ! D117  D(24,25,26,27)       -107.2956         estimate D2E/DX2                !
 ! D118  D(24,25,26,50)         77.7771         estimate D2E/DX2                !
 ! D119  D(25,26,27,28)          8.6162         estimate D2E/DX2                !
 ! D120  D(25,26,27,29)       -171.5904         estimate D2E/DX2                !
 ! D121  D(50,26,27,28)       -176.2892         estimate D2E/DX2                !
 ! D122  D(50,26,27,29)          3.5043         estimate D2E/DX2                !
 ! D123  D(25,26,50,45)        174.2301         estimate D2E/DX2                !
 ! D124  D(25,26,50,49)         -5.4331         estimate D2E/DX2                !
 ! D125  D(27,26,50,45)         -0.4967         estimate D2E/DX2                !
 ! D126  D(27,26,50,49)        179.8401         estimate D2E/DX2                !
 ! D127  D(26,27,28,66)       -176.8055         estimate D2E/DX2                !
 ! D128  D(29,27,28,66)          3.4016         estimate D2E/DX2                !
 ! D129  D(26,27,29,30)        174.2702         estimate D2E/DX2                !
 ! D130  D(26,27,29,44)         -3.613          estimate D2E/DX2                !
 ! D131  D(28,27,29,30)         -5.9423         estimate D2E/DX2                !
 ! D132  D(28,27,29,44)        176.1745         estimate D2E/DX2                !
 ! D133  D(27,29,30,31)        118.122          estimate D2E/DX2                !
 ! D134  D(27,29,30,43)        -61.2055         estimate D2E/DX2                !
 ! D135  D(44,29,30,31)        -64.0509         estimate D2E/DX2                !
 ! D136  D(44,29,30,43)        116.6216         estimate D2E/DX2                !
 ! D137  D(27,29,44,45)          0.6886         estimate D2E/DX2                !
 ! D138  D(27,29,44,76)        179.1068         estimate D2E/DX2                !
 ! D139  D(30,29,44,45)       -177.1381         estimate D2E/DX2                !
 ! D140  D(30,29,44,76)          1.2801         estimate D2E/DX2                !
 ! D141  D(29,30,31,32)         -1.5464         estimate D2E/DX2                !
 ! D142  D(29,30,31,36)        179.7359         estimate D2E/DX2                !
 ! D143  D(43,30,31,32)        177.7714         estimate D2E/DX2                !
 ! D144  D(43,30,31,36)         -0.9463         estimate D2E/DX2                !
 ! D145  D(29,30,43,38)        178.4063         estimate D2E/DX2                !
 ! D146  D(29,30,43,42)         -2.2572         estimate D2E/DX2                !
 ! D147  D(31,30,43,38)         -0.92           estimate D2E/DX2                !
 ! D148  D(31,30,43,42)        178.4164         estimate D2E/DX2                !
 ! D149  D(30,31,32,33)        179.2614         estimate D2E/DX2                !
 ! D150  D(30,31,32,67)         -1.0688         estimate D2E/DX2                !
 ! D151  D(36,31,32,33)         -2.005          estimate D2E/DX2                !
 ! D152  D(36,31,32,67)        177.6648         estimate D2E/DX2                !
 ! D153  D(30,31,36,35)       -178.9242         estimate D2E/DX2                !
 ! D154  D(30,31,36,37)          1.8178         estimate D2E/DX2                !
 ! D155  D(32,31,36,35)          2.304          estimate D2E/DX2                !
 ! D156  D(32,31,36,37)       -176.954          estimate D2E/DX2                !
 ! D157  D(31,32,33,34)          0.3231         estimate D2E/DX2                !
 ! D158  D(31,32,33,68)       -179.943          estimate D2E/DX2                !
 ! D159  D(67,32,33,34)       -179.3415         estimate D2E/DX2                !
 ! D160  D(67,32,33,68)          0.3923         estimate D2E/DX2                !
 ! D161  D(32,33,34,35)          1.089          estimate D2E/DX2                !
 ! D162  D(32,33,34,69)       -179.5718         estimate D2E/DX2                !
 ! D163  D(68,33,34,35)       -178.6476         estimate D2E/DX2                !
 ! D164  D(68,33,34,69)          0.6917         estimate D2E/DX2                !
 ! D165  D(33,34,35,36)         -0.7372         estimate D2E/DX2                !
 ! D166  D(33,34,35,70)        179.0446         estimate D2E/DX2                !
 ! D167  D(69,34,35,36)        179.9322         estimate D2E/DX2                !
 ! D168  D(69,34,35,70)         -0.286          estimate D2E/DX2                !
 ! D169  D(34,35,36,31)         -0.9754         estimate D2E/DX2                !
 ! D170  D(34,35,36,37)        178.2675         estimate D2E/DX2                !
 ! D171  D(70,35,36,31)        179.2372         estimate D2E/DX2                !
 ! D172  D(70,35,36,37)         -1.5199         estimate D2E/DX2                !
 ! D173  D(31,36,37,38)         -0.7995         estimate D2E/DX2                !
 ! D174  D(31,36,37,71)        179.007          estimate D2E/DX2                !
 ! D175  D(35,36,37,38)        179.962          estimate D2E/DX2                !
 ! D176  D(35,36,37,71)         -0.2315         estimate D2E/DX2                !
 ! D177  D(36,37,38,39)        178.9261         estimate D2E/DX2                !
 ! D178  D(36,37,38,43)         -1.0791         estimate D2E/DX2                !
 ! D179  D(71,37,38,39)         -0.8804         estimate D2E/DX2                !
 ! D180  D(71,37,38,43)        179.1144         estimate D2E/DX2                !
 ! D181  D(37,38,39,40)        179.4012         estimate D2E/DX2                !
 ! D182  D(37,38,39,72)         -0.6284         estimate D2E/DX2                !
 ! D183  D(43,38,39,40)         -0.5936         estimate D2E/DX2                !
 ! D184  D(43,38,39,72)        179.3768         estimate D2E/DX2                !
 ! D185  D(37,38,43,30)          1.9398         estimate D2E/DX2                !
 ! D186  D(37,38,43,42)       -177.4256         estimate D2E/DX2                !
 ! D187  D(39,38,43,30)       -178.0653         estimate D2E/DX2                !
 ! D188  D(39,38,43,42)          2.5693         estimate D2E/DX2                !
 ! D189  D(38,39,40,41)         -1.2716         estimate D2E/DX2                !
 ! D190  D(38,39,40,73)        179.553          estimate D2E/DX2                !
 ! D191  D(72,39,40,41)        178.7589         estimate D2E/DX2                !
 ! D192  D(72,39,40,73)         -0.4166         estimate D2E/DX2                !
 ! D193  D(39,40,41,42)          1.1031         estimate D2E/DX2                !
 ! D194  D(39,40,41,74)       -178.6335         estimate D2E/DX2                !
 ! D195  D(73,40,41,42)       -179.7106         estimate D2E/DX2                !
 ! D196  D(73,40,41,74)          0.5528         estimate D2E/DX2                !
 ! D197  D(40,41,42,43)          0.9769         estimate D2E/DX2                !
 ! D198  D(40,41,42,75)       -179.0763         estimate D2E/DX2                !
 ! D199  D(74,41,42,43)       -179.2888         estimate D2E/DX2                !
 ! D200  D(74,41,42,75)          0.658          estimate D2E/DX2                !
 ! D201  D(41,42,43,30)        177.87           estimate D2E/DX2                !
 ! D202  D(41,42,43,38)         -2.7853         estimate D2E/DX2                !
 ! D203  D(75,42,43,30)         -2.077          estimate D2E/DX2                !
 ! D204  D(75,42,43,38)        177.2678         estimate D2E/DX2                !
 ! D205  D(29,44,45,46)       -179.2359         estimate D2E/DX2                !
 ! D206  D(29,44,45,50)          2.2572         estimate D2E/DX2                !
 ! D207  D(76,44,45,46)          2.3388         estimate D2E/DX2                !
 ! D208  D(76,44,45,50)       -176.168          estimate D2E/DX2                !
 ! D209  D(44,45,46,47)       -178.0954         estimate D2E/DX2                !
 ! D210  D(44,45,46,77)          1.8789         estimate D2E/DX2                !
 ! D211  D(50,45,46,47)          0.4137         estimate D2E/DX2                !
 ! D212  D(50,45,46,77)       -179.612          estimate D2E/DX2                !
 ! D213  D(44,45,50,26)         -2.3489         estimate D2E/DX2                !
 ! D214  D(44,45,50,49)        177.3256         estimate D2E/DX2                !
 ! D215  D(46,45,50,26)        179.1016         estimate D2E/DX2                !
 ! D216  D(46,45,50,49)         -1.224          estimate D2E/DX2                !
 ! D217  D(45,46,47,48)          0.4651         estimate D2E/DX2                !
 ! D218  D(45,46,47,78)       -179.8762         estimate D2E/DX2                !
 ! D219  D(77,46,47,48)       -179.5086         estimate D2E/DX2                !
 ! D220  D(77,46,47,78)          0.1501         estimate D2E/DX2                !
 ! D221  D(46,47,48,49)         -0.5213         estimate D2E/DX2                !
 ! D222  D(46,47,48,79)        179.4438         estimate D2E/DX2                !
 ! D223  D(78,47,48,49)        179.8168         estimate D2E/DX2                !
 ! D224  D(78,47,48,79)         -0.2181         estimate D2E/DX2                !
 ! D225  D(47,48,49,50)         -0.3214         estimate D2E/DX2                !
 ! D226  D(47,48,49,80)       -179.9791         estimate D2E/DX2                !
 ! D227  D(79,48,49,50)        179.7138         estimate D2E/DX2                !
 ! D228  D(79,48,49,80)          0.0561         estimate D2E/DX2                !
 ! D229  D(48,49,50,26)       -179.1479         estimate D2E/DX2                !
 ! D230  D(48,49,50,45)          1.1883         estimate D2E/DX2                !
 ! D231  D(80,49,50,26)          0.5164         estimate D2E/DX2                !
 ! D232  D(80,49,50,45)       -179.1475         estimate D2E/DX2                !
 --------------------------------------------------------------------------------
 Trust Radius=3.00D-01 FncErr=1.00D-07 GrdErr=1.00D-06 EigMax=2.50D+02 EigMin=1.00D-04
 Number of steps in this run=    477 maximum allowed number of steps=    480.
 GradGradGradGradGradGradGradGradGradGradGradGradGradGradGradGradGradGrad

 Leave Link  103 at Wed Jul 31 22:02:16 2024, MaxMem= 13421772800 cpu:               0.2 elap:               0.0
 (Enter /public/software/apps/Gaussian/g16/l202.exe)
 Symmetry turned off by external request.
 Stoichiometry    C48H30O2
 Framework group  C1[X(C48H30O2)]
 Deg. of freedom   234
 Full point group                 C1      NOp   1
                          Input orientation:                          
 ---------------------------------------------------------------------
 Center     Atomic      Atomic             Coordinates (Angstroms)
 Number     Number       Type             X           Y           Z
 ---------------------------------------------------------------------
      1          8           0       -1.119887   -0.104964    1.082778
      2          6           0       -1.512190    0.709838    0.062984
      3          6           0       -2.750334    0.511365   -0.595481
      4          6           0       -3.565228   -0.674688   -0.255172
      5          6           0       -3.031994   -1.959228   -0.476869
      6          6           0       -1.751165   -2.164208   -1.060317
      7          6           0       -1.246918   -3.418447   -1.221975
      8          6           0       -1.992641   -4.550014   -0.832678
      9          6           0       -3.239184   -4.399185   -0.309174
     10          6           0       -3.801822   -3.110628   -0.119677
     11          6           0       -5.080121   -2.944007    0.403301
     12          6           0       -5.622912   -1.679756    0.609616
     13          6           0       -6.926628   -1.510699    1.142455
     14          6           0       -7.434144   -0.269864    1.372711
     15          6           0       -6.657791    0.874547    1.096590
     16          6           0       -5.404934    0.754613    0.577664
     17          6           0       -4.848248   -0.519796    0.294270
     18          6           0       -3.142842    1.401657   -1.563542
     19          6           0       -2.336885    2.497353   -1.924961
     20          6           0       -2.740634    3.425828   -2.907007
     21          6           0       -1.924945    4.460518   -3.268539
     22          6           0       -0.663372    4.606918   -2.670215
     23          6           0       -0.242116    3.725591   -1.714749
     24          6           0       -1.068273    2.656959   -1.306591
     25          6           0       -0.671573    1.739283   -0.309638
     26          6           0        0.672638    1.739800    0.308497
     27          6           0        1.513924    0.710817   -0.063817
     28          8           0        1.122208   -0.104376   -1.083518
     29          6           0        2.751994    0.512998    0.595082
     30          6           0        3.566416   -0.673638    0.255640
     31          6           0        4.849472   -0.520340   -0.294101
     32          6           0        5.407791    0.753363   -0.577435
     33          6           0        6.660642    0.871678   -1.096752
     34          6           0        7.435303   -0.273743   -1.373453
     35          6           0        6.926214   -1.513923   -1.143185
     36          6           0        5.622510   -1.681307   -0.609796
     37          6           0        5.078155   -2.944882   -0.403466
     38          6           0        3.799979   -3.109923    0.120315
     39          6           0        3.235708   -4.397742    0.310000
     40          6           0        1.989322   -4.546949    0.834347
     41          6           0        1.245474   -3.414433    1.224459
     42          6           0        1.751269   -2.160862    1.062495
     43          6           0        3.031876   -1.957547    0.477995
     44          6           0        3.143888    1.403713    1.562979
     45          6           0        2.337174    2.498986    1.924117
     46          6           0        2.739915    3.427562    2.906482
     47          6           0        1.923200    4.461373    3.268241
     48          6           0        0.661645    4.606901    2.669678
     49          6           0        0.241394    3.725530    1.713813
     50          6           0        1.068534    2.657697    1.305570
     51          1           0       -1.777225   -0.804431    1.199235
     52          1           0       -1.172343   -1.310002   -1.378105
     53          1           0       -0.267783   -3.556502   -1.656210
     54          1           0       -1.568348   -5.534202   -0.967212
     55          1           0       -3.829324   -5.258951   -0.025110
     56          1           0       -5.664184   -3.817491    0.658210
     57          1           0       -7.505505   -2.396019    1.364268
     58          1           0       -8.428129   -0.149060    1.777740
     59          1           0       -7.067687    1.851675    1.306081
     60          1           0       -4.812156    1.634818    0.378659
     61          1           0       -4.080142    1.247188   -2.079677
     62          1           0       -3.710288    3.301100   -3.368400
     63          1           0       -2.241771    5.169034   -4.019981
     64          1           0       -0.026145    5.425086   -2.973116
     65          1           0        0.727881    3.836714   -1.252911
     66          1           0        1.780009   -0.803439   -1.199845
     67          1           0        4.816278    1.634317   -0.377979
     68          1           0        7.071881    1.848280   -1.306076
     69          1           0        8.429316   -0.154224   -1.778798
     70          1           0        7.503812   -2.399989   -1.365349
     71          1           0        5.660867   -3.819079   -0.659020
     72          1           0        3.824463   -5.258271    0.025385
     73          1           0        1.563756   -5.530561    0.969033
     74          1           0        0.266542   -3.551215    1.659548
     75          1           0        1.173806   -1.305908    1.380686
     76          1           0        4.081065    1.249760    2.079494
     77          1           0        3.709585    3.303582    3.368045
     78          1           0        2.239223    5.169897    4.020016
     79          1           0        0.023552    5.424297    2.972836
     80          1           0       -0.728629    3.835895    1.251846
 ---------------------------------------------------------------------
 Rotational constants (GHZ):           0.0877800           0.0489010           0.0372883
 Leave Link  202 at Wed Jul 31 22:02:16 2024, MaxMem= 13421772800 cpu:               0.1 elap:               0.0
 (Enter /public/software/apps/Gaussian/g16/l301.exe)
 Standard basis: def2SVPP (5D, 7F)
 Ernie: Thresh=  0.10000D-02 Tol=  0.10000D-05 Strict=F.
   760 basis functions,  1370 primitive gaussians,   810 cartesian basis functions
   167 alpha electrons      167 beta electrons
       nuclear repulsion energy      6026.8042458378 Hartrees.
 IExCor=  402 DFT=T Ex+Corr=B3LYP ExCW=0 ScaHFX=  0.200000
 ScaDFX=  0.800000  0.720000  1.000000  0.810000 ScalE2=  1.000000  1.000000
 IRadAn=      5 IRanWt=     -1 IRanGd=            0 ICorTp=0 IEmpDi=141
 NAtoms=   80 NActive=   80 NUniq=   80 SFac= 1.00D+00 NAtFMM=   60 NAOKFM=T Big=T
 Integral buffers will be    131072 words long.
 Raffenetti 2 integral format.
 Two-electron integral symmetry is turned off.
 R6Disp:  Grimme-D3(BJ) Dispersion energy=       -0.2388562041 Hartrees.
 Nuclear repulsion after empirical dispersion term =     6026.5653896337 Hartrees.
 Leave Link  301 at Wed Jul 31 22:02:16 2024, MaxMem= 13421772800 cpu:               0.6 elap:               0.0
 (Enter /public/software/apps/Gaussian/g16/l302.exe)
 NPDir=0 NMtPBC=     1 NCelOv=     1 NCel=       1 NClECP=     1 NCelD=      1
         NCelK=      1 NCelE2=     1 NClLst=     1 CellRange=     0.0.
 One-electron integrals computed using PRISM.
   1 Symmetry operations used in ECPInt.
 ECPInt:  NShTT=   64980 NPrTT=  260300 LenC2=   52341 LenP2D=  127659.
 LDataN:  DoStor=T MaxTD1= 4 Len=   56
 NBasis=   760 RedAO= T EigKep=  1.47D-04  NBF=   760
 NBsUse=   760 1.00D-06 EigRej= -1.00D+00 NBFU=   760
 Precomputing XC quadrature grid using
 IXCGrd= 4 IRadAn=           5 IRanWt=          -1 IRanGd=           0 AccXCQ= 0.00D+00.
 Generated NRdTot=       0 NPtTot=           0 NUsed=           0 NTot=          32
 NSgBfM=   779   778   779   779   779 MxSgAt=    80 MxSgA2=    80.
 Leave Link  302 at Wed Jul 31 22:02:17 2024, MaxMem= 13421772800 cpu:              37.0 elap:               1.2
 (Enter /public/software/apps/Gaussian/g16/l303.exe)
 DipDrv:  MaxL=1.
 Leave Link  303 at Wed Jul 31 22:02:17 2024, MaxMem= 13421772800 cpu:               3.1 elap:               0.1
 (Enter /public/software/apps/Gaussian/g16/l401.exe)
 ExpMin= 1.22D-01 ExpMax= 2.27D+03 ExpMxC= 3.41D+02 IAcc=3 IRadAn=         5 AccDes= 0.00D+00
 Harris functional with IExCor=  402 and IRadAn=       5 diagonalized for initial guess.
 HarFok:  IExCor=  402 AccDes= 0.00D+00 IRadAn=         5 IDoV= 1 UseB2=F ITyADJ=14
 ICtDFT=  3500011 ScaDFX=  1.000000  1.000000  1.000000  1.000000
 FoFCou: FMM=F IPFlag=           0 FMFlag=      100000 FMFlg1=        2001
         NFxFlg=           0 DoJE=T BraDBF=F KetDBF=T FulRan=T
         wScrn=  0.000000 ICntrl=       500 IOpCl=  0 I1Cent=   200000004 NGrid=           0
         NMat0=    1 NMatS0=      1 NMatT0=    0 NMatD0=    1 NMtDS0=    0 NMtDT0=    0
 Symmetry not used in FoFCou.
 Harris En= -1996.35641897211    
 JPrj=0 DoOrth=F DoCkMO=F.
 Leave Link  401 at Wed Jul 31 22:02:20 2024, MaxMem= 13421772800 cpu:              79.7 elap:               2.5
 (Enter /public/software/apps/Gaussian/g16/l502.exe)
 Two-electron integral symmetry not used.
 Closed shell SCF:
 Using DIIS extrapolation, IDIIS=  1040.
 NGot= 13421772800 LenX= 13420426304 LenY= 13419769394
 Requested convergence on RMS density matrix=1.00D-08 within 128 cycles.
 Requested convergence on MAX density matrix=1.00D-06.
 Requested convergence on             energy=1.00D-06.
 No special actions if energy rises.
 Fock matrices will be formed incrementally for  20 cycles.
 Integral accuracy reduced to 1.0D-05 until final iterations.

 Cycle   1  Pass 0  IDiag  1:
 FoFJK:  IHMeth= 1 ICntrl=       0 DoSepK=F KAlg= 0 I1Cent=           0 FoldK=F
 IRaf= 930000000 NMat=       1 IRICut=       1 DoRegI=T DoRafI=F ISym2E= 0 IDoP0=0 IntGTp=1.
 FoFCou: FMM=T IPFlag=           0 FMFlag=      100000 FMFlg1=        2001
         NFxFlg=           0 DoJE=F BraDBF=F KetDBF=F FulRan=T
         wScrn=  0.000000 ICntrl=         0 IOpCl=  0 I1Cent=           0 NGrid=           0
         NMat0=    1 NMatS0=      1 NMatT0=    0 NMatD0=    1 NMtDS0=    0 NMtDT0=    0
 Symmetry not used in FoFCou.
 FMM levels:  10  Number of levels for PrismC:   9
 E= -1995.50117608241    
 DIIS: error= 2.66D-02 at cycle   1 NSaved=   1.
 NSaved= 1 IEnMin= 1 EnMin= -1995.50117608241     IErMin= 1 ErrMin= 2.66D-02
 ErrMax= 2.66D-02  0.00D+00 EMaxC= 1.00D-01 BMatC= 7.63D-01 BMatP= 7.63D-01
 IDIUse=3 WtCom= 7.34D-01 WtEn= 2.66D-01
 Coeff-Com:  0.100D+01
 Coeff-En:   0.100D+01
 Coeff:      0.100D+01
 Gap=     0.117 Goal=   None    Shift=    0.000
 GapD=    0.117 DampG=1.000 DampE=0.500 DampFc=0.5000 IDamp=-1.
 Damping current iteration by 5.00D-01
 RMSDP=4.82D-03 MaxDP=1.39D-01              OVMax= 1.67D-01

 Cycle   2  Pass 0  IDiag  1:
 RMSU=  2.10D-03    CP:  9.27D-01
 E= -1995.93152248533     Delta-E=       -0.430346402914 Rises=F Damp=T
 DIIS: error= 4.08D-03 at cycle   2 NSaved=   2.
 NSaved= 2 IEnMin= 2 EnMin= -1995.93152248533     IErMin= 2 ErrMin= 4.08D-03
 ErrMax= 4.08D-03  0.00D+00 EMaxC= 1.00D-01 BMatC= 4.77D-02 BMatP= 7.63D-01
 IDIUse=3 WtCom= 9.59D-01 WtEn= 4.08D-02
 Coeff-Com:  0.213D-02 0.998D+00
 Coeff-En:   0.000D+00 0.100D+01
 Coeff:      0.204D-02 0.998D+00
 Gap=     0.136 Goal=   None    Shift=    0.000
 RMSDP=1.92D-03 MaxDP=9.98D-02 DE=-4.30D-01 OVMax= 1.80D-01

 Cycle   3  Pass 0  IDiag  1:
 RMSU=  1.66D-03    CP:  8.75D-01  1.20D+00
 E= -1996.29614795073     Delta-E=       -0.364625465401 Rises=F Damp=F
 DIIS: error= 8.82D-03 at cycle   3 NSaved=   3.
 NSaved= 3 IEnMin= 3 EnMin= -1996.29614795073     IErMin= 2 ErrMin= 4.08D-03
 ErrMax= 8.82D-03  0.00D+00 EMaxC= 1.00D-01 BMatC= 9.71D-02 BMatP= 4.77D-02
 IDIUse=3 WtCom= 9.62D-02 WtEn= 9.04D-01
 Coeff-Com: -0.523D-01 0.636D+00 0.416D+00
 Coeff-En:   0.000D+00 0.000D+00 0.100D+01
 Coeff:     -0.504D-02 0.612D-01 0.944D+00
 Gap=     0.133 Goal=   None    Shift=    0.000
 RMSDP=2.23D-03 MaxDP=1.23D-01 DE=-3.65D-01 OVMax= 2.46D-01

 Cycle   4  Pass 0  IDiag  1:
 RMSU=  1.56D-03    CP:  8.79D-01  1.49D+00  1.12D-01
 E= -1995.79618591573     Delta-E=        0.499962034999 Rises=F Damp=F
 DIIS: error= 2.08D-02 at cycle   4 NSaved=   4.
 NSaved= 4 IEnMin= 3 EnMin= -1996.29614795073     IErMin= 2 ErrMin= 4.08D-03
 ErrMax= 2.08D-02  0.00D+00 EMaxC= 1.00D-01 BMatC= 5.28D-01 BMatP= 4.77D-02
 IDIUse=2 WtCom= 0.00D+00 WtEn= 1.00D+00
 Coeff-En:   0.000D+00 0.000D+00 0.781D+00 0.219D+00
 Coeff:      0.000D+00 0.000D+00 0.781D+00 0.219D+00
 Gap=     0.128 Goal=   None    Shift=    0.000
 RMSDP=1.18D-03 MaxDP=7.15D-02 DE= 5.00D-01 OVMax= 1.45D-01

 Cycle   5  Pass 0  IDiag  1:
 RMSU=  2.57D-04    CP:  8.76D-01  1.36D+00  5.61D-01  4.64D-01
 E= -1996.36089689952     Delta-E=       -0.564710983789 Rises=F Damp=F
 DIIS: error= 5.79D-03 at cycle   5 NSaved=   5.
 NSaved= 5 IEnMin= 5 EnMin= -1996.36089689952     IErMin= 2 ErrMin= 4.08D-03
 ErrMax= 5.79D-03  0.00D+00 EMaxC= 1.00D-01 BMatC= 4.14D-02 BMatP= 4.77D-02
 IDIUse=3 WtCom= 9.42D-01 WtEn= 5.79D-02
 Coeff-Com:  0.639D-02 0.830D-02 0.363D+00-0.271D-01 0.650D+00
 Coeff-En:   0.000D+00 0.000D+00 0.348D+00 0.000D+00 0.652D+00
 Coeff:      0.602D-02 0.782D-02 0.362D+00-0.255D-01 0.650D+00
 Gap=     0.122 Goal=   None    Shift=    0.000
 RMSDP=4.45D-04 MaxDP=2.68D-02 DE=-5.65D-01 OVMax= 4.95D-02

 Cycle   6  Pass 0  IDiag  1:
 RMSU=  1.12D-04    CP:  8.74D-01  1.30D+00  7.40D-01  2.85D-01  7.90D-01
 E= -1996.40712311396     Delta-E=       -0.046226214442 Rises=F Damp=F
 DIIS: error= 9.55D-04 at cycle   6 NSaved=   6.
 NSaved= 6 IEnMin= 6 EnMin= -1996.40712311396     IErMin= 6 ErrMin= 9.55D-04
 ErrMax= 9.55D-04  0.00D+00 EMaxC= 1.00D-01 BMatC= 6.24D-04 BMatP= 4.14D-02
 IDIUse=3 WtCom= 9.90D-01 WtEn= 9.55D-03
 Coeff-Com:  0.338D-02-0.671D-02 0.145D+00-0.586D-01 0.432D+00 0.485D+00
 Coeff-En:   0.000D+00 0.000D+00 0.000D+00 0.000D+00 0.000D+00 0.100D+01
 Coeff:      0.334D-02-0.665D-02 0.143D+00-0.580D-01 0.428D+00 0.490D+00
 Gap=     0.121 Goal=   None    Shift=    0.000
 RMSDP=5.65D-05 MaxDP=3.36D-03 DE=-4.62D-02 OVMax= 1.06D-02

 Cycle   7  Pass 0  IDiag  1:
 RMSU=  3.99D-05    CP:  8.74D-01  1.30D+00  7.43D-01  2.83D-01  8.44D-01
                    CP:  6.68D-01
 E= -1996.40790720766     Delta-E=       -0.000784093700 Rises=F Damp=F
 DIIS: error= 2.23D-04 at cycle   7 NSaved=   7.
 NSaved= 7 IEnMin= 7 EnMin= -1996.40790720766     IErMin= 7 ErrMin= 2.23D-04
 ErrMax= 2.23D-04  0.00D+00 EMaxC= 1.00D-01 BMatC= 3.14D-05 BMatP= 6.24D-04
 IDIUse=3 WtCom= 9.98D-01 WtEn= 2.23D-03
 Coeff-Com:  0.170D-02-0.367D-02 0.732D-01-0.340D-01 0.230D+00 0.296D+00
 Coeff-Com:  0.436D+00
 Coeff-En:   0.000D+00 0.000D+00 0.000D+00 0.000D+00 0.000D+00 0.000D+00
 Coeff-En:   0.100D+01
 Coeff:      0.170D-02-0.366D-02 0.730D-01-0.339D-01 0.230D+00 0.295D+00
 Coeff:      0.438D+00
 Gap=     0.121 Goal=   None    Shift=    0.000
 RMSDP=1.88D-05 MaxDP=8.09D-04 DE=-7.84D-04 OVMax= 1.59D-03

 Cycle   8  Pass 0  IDiag  1:
 RMSU=  1.80D-05    CP:  8.74D-01  1.30D+00  7.44D-01  2.82D-01  8.35D-01
                    CP:  6.83D-01  1.00D+00
 E= -1996.40794734310     Delta-E=       -0.000040135443 Rises=F Damp=F
 DIIS: error= 4.17D-05 at cycle   8 NSaved=   8.
 NSaved= 8 IEnMin= 8 EnMin= -1996.40794734310     IErMin= 8 ErrMin= 4.17D-05
 ErrMax= 4.17D-05  0.00D+00 EMaxC= 1.00D-01 BMatC= 2.42D-06 BMatP= 3.14D-05
 IDIUse=1 WtCom= 1.00D+00 WtEn= 0.00D+00
 Coeff-Com:  0.306D-03-0.689D-03 0.112D-01-0.597D-02 0.343D-01 0.567D-01
 Coeff-Com:  0.218D+00 0.686D+00
 Coeff:      0.306D-03-0.689D-03 0.112D-01-0.597D-02 0.343D-01 0.567D-01
 Coeff:      0.218D+00 0.686D+00
 Gap=     0.121 Goal=   None    Shift=    0.000
 RMSDP=1.98D-05 MaxDP=7.43D-04 DE=-4.01D-05 OVMax= 3.82D-04

 Cycle   9  Pass 0  IDiag  1:
 RMSU=  1.51D-05    CP:  8.75D-01  1.30D+00  7.45D-01  2.82D-01  8.26D-01
                    CP:  6.75D-01  1.18D+00  1.54D+00
 E= -1996.40794381109     Delta-E=        0.000003532016 Rises=F Damp=F
 DIIS: error= 1.91D-05 at cycle   9 NSaved=   9.
 NSaved= 9 IEnMin= 8 EnMin= -1996.40794734310     IErMin= 9 ErrMin= 1.91D-05
 ErrMax= 1.91D-05  0.00D+00 EMaxC= 1.00D-01 BMatC= 4.74D-07 BMatP= 2.42D-06
 IDIUse=1 WtCom= 1.00D+00 WtEn= 0.00D+00
 Coeff-Com:  0.919D-04-0.267D-03 0.267D-02-0.152D-02 0.712D-02 0.163D-01
 Coeff-Com:  0.105D+00 0.410D+00 0.461D+00
 Coeff:      0.919D-04-0.267D-03 0.267D-02-0.152D-02 0.712D-02 0.163D-01
 Coeff:      0.105D+00 0.410D+00 0.461D+00
 Gap=     0.121 Goal=   None    Shift=    0.000
 RMSDP=1.38D-05 MaxDP=3.78D-04 DE= 3.53D-06 OVMax= 1.07D-04

 Cycle  10  Pass 0  IDiag  1:
 RMSU=  9.72D-06    CP:  8.74D-01  1.30D+00  7.46D-01  2.82D-01  8.26D-01
                    CP:  6.94D-01  1.27D+00  1.81D+00  1.48D+00
 E= -1996.40793218270     Delta-E=        0.000011628387 Rises=F Damp=F
 DIIS: error= 2.86D-05 at cycle  10 NSaved=  10.
 NSaved=10 IEnMin= 8 EnMin= -1996.40794734310     IErMin= 9 ErrMin= 1.91D-05
 ErrMax= 2.86D-05  0.00D+00 EMaxC= 1.00D-01 BMatC= 3.52D-07 BMatP= 4.74D-07
 IDIUse=1 WtCom= 1.00D+00 WtEn= 0.00D+00
 Coeff-Com:  0.912D-04-0.265D-03 0.266D-02-0.151D-02 0.712D-02 0.163D-01
 Coeff-Com:  0.103D+00 0.406D+00 0.453D+00 0.140D-01
 Coeff:      0.912D-04-0.265D-03 0.266D-02-0.151D-02 0.712D-02 0.163D-01
 Coeff:      0.103D+00 0.406D+00 0.453D+00 0.140D-01
 Gap=     0.121 Goal=   None    Shift=    0.000
 RMSDP=4.89D-07 MaxDP=1.41D-05 DE= 1.16D-05 OVMax= 1.65D-06

 Initial convergence to 1.0D-05 achieved.  Increase integral accuracy.
 Cycle  11  Pass 1  IDiag  1:
 E= -1996.40701329283     Delta-E=        0.000918889870 Rises=F Damp=F
 DIIS: error= 9.06D-04 at cycle   1 NSaved=   1.
 NSaved= 1 IEnMin= 1 EnMin= -1996.40701329283     IErMin= 1 ErrMin= 9.06D-04
 ErrMax= 9.06D-04  0.00D+00 EMaxC= 1.00D-01 BMatC= 3.07D-04 BMatP= 3.07D-04
 IDIUse=3 WtCom= 9.91D-01 WtEn= 9.06D-03
 Coeff-Com:  0.100D+01
 Coeff-En:   0.100D+01
 Coeff:      0.100D+01
 Gap=     0.121 Goal=   None    Shift=    0.000
 RMSDP=4.89D-07 MaxDP=1.41D-05 DE= 9.19D-04 OVMax= 1.87D-03

 Cycle  12  Pass 1  IDiag  1:
 RMSU=  1.14D-03    CP:  9.89D-01
 E= -1996.40735110232     Delta-E=       -0.000337809493 Rises=F Damp=F
 DIIS: error= 1.27D-05 at cycle   2 NSaved=   2.
 NSaved= 2 IEnMin= 2 EnMin= -1996.40735110232     IErMin= 2 ErrMin= 1.27D-05
 ErrMax= 1.27D-05  0.00D+00 EMaxC= 1.00D-01 BMatC= 8.01D-08 BMatP= 3.07D-04
 IDIUse=1 WtCom= 1.00D+00 WtEn= 0.00D+00
 Coeff-Com: -0.931D-02 0.101D+01
 Coeff:     -0.931D-02 0.101D+01
 Gap=     0.121 Goal=   None    Shift=    0.000
 RMSDP=1.33D-05 MaxDP=4.77D-04 DE=-3.38D-04 OVMax= 2.58D-04

 Cycle  13  Pass 1  IDiag  1:
 RMSU=  4.42D-06    CP:  9.89D-01  1.01D+00
 E= -1996.40735099466     Delta-E=        0.000000107661 Rises=F Damp=F
 DIIS: error= 1.39D-05 at cycle   3 NSaved=   3.
 NSaved= 3 IEnMin= 2 EnMin= -1996.40735110232     IErMin= 2 ErrMin= 1.27D-05
 ErrMax= 1.39D-05  0.00D+00 EMaxC= 1.00D-01 BMatC= 1.95D-07 BMatP= 8.01D-08
 IDIUse=1 WtCom= 1.00D+00 WtEn= 0.00D+00
 Coeff-Com: -0.637D-02 0.675D+00 0.332D+00
 Coeff:     -0.637D-02 0.675D+00 0.332D+00
 Gap=     0.121 Goal=   None    Shift=    0.000
 RMSDP=1.04D-06 MaxDP=4.70D-05 DE= 1.08D-07 OVMax= 1.91D-04

 Cycle  14  Pass 1  IDiag  1:
 RMSU=  1.00D-06    CP:  9.89D-01  1.01D+00  9.37D-01
 E= -1996.40735121596     Delta-E=       -0.000000221302 Rises=F Damp=F
 DIIS: error= 2.00D-06 at cycle   4 NSaved=   4.
 NSaved= 4 IEnMin= 4 EnMin= -1996.40735121596     IErMin= 4 ErrMin= 2.00D-06
 ErrMax= 2.00D-06  0.00D+00 EMaxC= 1.00D-01 BMatC= 5.07D-09 BMatP= 8.01D-08
 IDIUse=1 WtCom= 1.00D+00 WtEn= 0.00D+00
 Coeff-Com: -0.178D-02 0.185D+00 0.160D+00 0.657D+00
 Coeff:     -0.178D-02 0.185D+00 0.160D+00 0.657D+00
 Gap=     0.121 Goal=   None    Shift=    0.000
 RMSDP=2.55D-07 MaxDP=1.05D-05 DE=-2.21D-07 OVMax= 3.41D-05

 Cycle  15  Pass 1  IDiag  1:
 RMSU=  2.14D-07    CP:  9.89D-01  1.01D+00  9.54D-01  8.90D-01
 E= -1996.40735121942     Delta-E=       -0.000000003457 Rises=F Damp=F
 DIIS: error= 1.12D-06 at cycle   5 NSaved=   5.
 NSaved= 5 IEnMin= 5 EnMin= -1996.40735121942     IErMin= 5 ErrMin= 1.12D-06
 ErrMax= 1.12D-06  0.00D+00 EMaxC= 1.00D-01 BMatC= 2.00D-09 BMatP= 5.07D-09
 IDIUse=1 WtCom= 1.00D+00 WtEn= 0.00D+00
 Coeff-Com: -0.241D-03 0.234D-01 0.565D-01 0.440D+00 0.480D+00
 Coeff:     -0.241D-03 0.234D-01 0.565D-01 0.440D+00 0.480D+00
 Gap=     0.121 Goal=   None    Shift=    0.000
 RMSDP=1.14D-07 MaxDP=3.97D-06 DE=-3.46D-09 OVMax= 1.35D-05

 Cycle  16  Pass 1  IDiag  1:
 RMSU=  7.18D-08    CP:  9.89D-01  1.01D+00  9.59D-01  9.18D-01  6.28D-01
 E= -1996.40735122150     Delta-E=       -0.000000002078 Rises=F Damp=F
 DIIS: error= 2.59D-07 at cycle   6 NSaved=   6.
 NSaved= 6 IEnMin= 6 EnMin= -1996.40735122150     IErMin= 6 ErrMin= 2.59D-07
 ErrMax= 2.59D-07  0.00D+00 EMaxC= 1.00D-01 BMatC= 1.35D-10 BMatP= 2.00D-09
 IDIUse=1 WtCom= 1.00D+00 WtEn= 0.00D+00
 Coeff-Com:  0.220D-04-0.334D-02 0.184D-01 0.201D+00 0.283D+00 0.501D+00
 Coeff:      0.220D-04-0.334D-02 0.184D-01 0.201D+00 0.283D+00 0.501D+00
 Gap=     0.121 Goal=   None    Shift=    0.000
 RMSDP=3.51D-08 MaxDP=1.42D-06 DE=-2.08D-09 OVMax= 3.09D-06

 Cycle  17  Pass 1  IDiag  1:
 RMSU=  2.11D-08    CP:  9.89D-01  1.01D+00  9.60D-01  9.17D-01  6.37D-01
                    CP:  6.14D-01
 E= -1996.40735122173     Delta-E=       -0.000000000231 Rises=F Damp=F
 DIIS: error= 7.35D-08 at cycle   7 NSaved=   7.
 NSaved= 7 IEnMin= 7 EnMin= -1996.40735122173     IErMin= 7 ErrMin= 7.35D-08
 ErrMax= 7.35D-08  0.00D+00 EMaxC= 1.00D-01 BMatC= 5.68D-12 BMatP= 1.35D-10
 IDIUse=1 WtCom= 1.00D+00 WtEn= 0.00D+00
 Coeff-Com:  0.208D-04-0.265D-02 0.702D-02 0.882D-01 0.128D+00 0.269D+00
 Coeff-Com:  0.510D+00
 Coeff:      0.208D-04-0.265D-02 0.702D-02 0.882D-01 0.128D+00 0.269D+00
 Coeff:      0.510D+00
 Gap=     0.121 Goal=   None    Shift=    0.000
 RMSDP=7.12D-09 MaxDP=2.99D-07 DE=-2.31D-10 OVMax= 7.80D-07

 SCF Done:  E(RB3LYP) =  -1996.40735122     A.U. after   17 cycles
            NFock= 17  Conv=0.71D-08     -V/T= 2.0096
 KE= 1.977459117882D+03 PE=-1.668080621245D+04 EE= 6.680374353709D+03
 Leave Link  502 at Wed Jul 31 22:03:48 2024, MaxMem= 13421772800 cpu:            2798.1 elap:              88.6
 (Enter /public/software/apps/Gaussian/g16/l601.exe)
 Copying SCF densities to generalized density rwf, IOpCl= 0 IROHF=0.

[...]
 9,-0.00000087,0.00000074,0.00000187,0.00000136,-0.00000267,0.00000061,
 -0.00000041,-0.00000006,0.00000072,0.00000096,0.00000007,-0.00000073,0
 .00000042,-0.00000052,0.00000007,-0.00000067,0.00000283,-0.00000025,0.
 00000072,-0.00000011,0.00000002,-0.00000307,-0.00000012,0.00000179,0.0
 0000213,-0.00000017,0.00000135,-0.00000188,-0.00000449,0.00000322,0.00
 000268,0.00000280,-0.00000052,0.00000818,0.00000708,-0.00000191,-0.000
 01493,-0.00000253,-0.00000640,-0.00000637,0.00000214,-0.00000521,0.000
 00328,-0.00000596,0.00000603,0.00000433,0.00000749,-0.00001130,0.00001
 223,-0.00000111,0.00001017,-0.00001257,0.00003282,0.00000721,0.0000244
 5,0.00007126,-0.00006276,0.00028930,-0.00009329,0.00002739,-0.00003380
 ,-0.00037593,0.00006858,0.00004848,0.00007209,0.00009932,-0.00005132,0
 .00000366,-0.00009891,0.00003455,-0.00001362,-0.00001229,-0.00000290,0
 .00000936,-0.00000295,0.00000158,-0.00000675,0.00000563,0.00000168,0.0
 0000364,0.00000135,0.00000240,-0.00000078,-0.00000114,-0.00000076,-0.0
 0000029,0.00000056,0.00000068,0.00000050,0.00000091,-0.00000068,0.0000
 0169,-0.00000022,-0.00000198,0.00000203,-0.00000157,0.00000014,0.00000
 156,0.00000045,-0.00000115,-0.00000259,0.00000060,-0.00000080,0.000000
 13,-0.00000010,0.00000632,-0.00000160,-0.00000192,-0.00000974,0.000008
 17,0.00001515,-0.00012754,-0.00002501,0.00035152,-0.00008995,-0.000847
 94,-0.00043253,-0.00315102,0.00050024,-0.00458913,-0.01160741,0.021563
 74,0.00975659,-0.15732364,0.13014266,0.04158015,0.00934592,-0.00770892
 ,-0.00373933,0.00155904,0.00038710,-0.00399506,-0.00000280,-0.00001011
 ,-0.00000450,-0.00000349,-0.00000024,-0.00000298,-0.00000036,-0.000001
 27,-0.00000202,-0.00000102,0.00000070,-0.00000060,0.00000084,0.0000007
 6,-0.00000085,0.00000050,0.00000117,-0.00000052,0.00000020,0.00000162,
 -0.00000029,0.00000156,0.00000022,-0.00000108,-0.00000263,-0.00000063,
 -0.00000069,-0.00000136,0.00000014,-0.00000395,0.00000133,-0.00000067,
 0.00000083,0.00000136,-0.00000095,-0.00000005,0.00000136,-0.00000102,0
 .00000306,-0.00000403,-0.00000420,0.00001039,-0.00000426,0.00001068,-0
 .00000020,0.00001553,-0.00001709,-0.00001665,0.00000302,0.00000616,-0.
 00000944,-0.00000096,-0.00000148,-0.00000100,-0.00000303,0.00000069,0.
 00000086,-0.00000110,0.00000194,0.00000009,-0.00000114,0.00000180,0.00
 000049,-0.00000128,0.00000181,0.00000068,0.00000064,0.00000250,-0.0000
 0015,0.00000074,-0.00000045,-0.00000067,-0.00000498,-0.00000505,0.0000
 0220,0.00004344,-0.00003617,-0.00002960,-0.00064610,0.00104939,0.00037
 120,0.00059700,-0.00129325,0.00103408,0.16127227,-0.00002427,-0.000040
 35,0.00008733,-0.00001496,0.00003499,-0.00010456,0.00002496,0.00000291
 ,0.00003994,0.00000319,0.00001754,-0.00001107,-0.00000240,-0.00001377,
 0.00000019,0.00000088,0.00001167,-0.00000472,0.00000035,-0.00000157,-0
 .00000253,-0.00000409,0.00000750,0.00000015,-0.00000285,-0.00000534,0.
 00000116,0.00000045,-0.00000003,0.00000155,-0.00000176,-0.00000273,0.0
 0000172,0.00000060,-0.00000036,0.00000048,0.00000318,0.00000484,0.0000
 0010,-0.00000800,0.00000127,0.00000548,0.00000388,-0.00000200,0.000005
 10,-0.00000712,-0.00000188,0.00001231,0.00001195,-0.00001428,-0.000006
 04,-0.00002185,0.00002693,-0.00002800,-0.00003179,-0.00001299,-0.00001
 409,-0.00000809,0.00000976,-0.00001007,-0.00001731,-0.00000082,-0.0000
 0139,0.00000247,0.00000028,0.00001018,0.00004657,0.00003708,0.00001083
 ,-0.00006312,-0.00005257,0.00007892,0.00013935,0.00010034,-0.00011084,
 0.00089070,-0.00041286,0.00005681,-0.00026984,-0.00027142,0.00023155,0
 .00001648,-0.00024372,-0.00018157,-0.00009158,0.00004980,-0.00015665,-
 0.00001618,0.00005123,0.00001023,0.00000395,-0.00003102,-0.00000043,-0
 .00000493,0.00001155,-0.00000307,0.00000088,0.00000020,0.00000010,-0.0
 0000476,-0.00000090,0.00000285,0.00000277,-0.00000101,-0.00000087,-0.0
 0000093,-0.00000489,0.00000332,0.00000734,-0.00000827,-0.00000421,-0.0
 0000021,0.00000508,-0.00000077,-0.00000135,0.00000054,0.00000030,-0.00
 000127,0.00000009,-0.00000014,0.00000342,0.00000052,-0.00000049,-0.000
 00946,0.00000100,0.00000145,0.00003029,-0.00000718,-0.00000599,-0.0001
 8478,-0.00011740,0.00041715,-0.00066353,0.00000577,0.00014542,0.001405
 44,0.00286724,-0.00120140,0.00000751,0.00101696,-0.00203219,0.12974719
 ,-0.20451272,-0.06670148,0.01370011,-0.01036536,-0.00456379,-0.0001621
 7,0.00222539,-0.00580329,0.00001839,-0.00000065,-0.00002344,0.00000895
 ,0.00000251,0.00000639,-0.00000179,0.00000368,0.00000451,0.00000074,0.
 00000051,0.00000102,-0.00000093,-0.00000076,0.00000026,-0.00000109,-0.
 00000064,-0.00000058,-0.00000153,-0.00000006,-0.00000061,-0.00000291,-
 0.00000040,-0.00000122,-0.00000864,0.00000366,-0.00000242,0.00000583,-
 0.00000467,-0.00001544,-0.00000209,-0.00000107,-0.00000526,-0.00000333
 ,-0.00000134,-0.00000630,-0.00000201,0.00000059,-0.00000601,0.00000421
 ,-0.00000045,-0.00000356,-0.00001114,-0.00002021,0.00002049,-0.0000296
 0,0.00002316,-0.00002074,-0.00000777,-0.00000679,0.00000801,-0.0000003
 8,0.00000175,-0.00000017,0.00000389,-0.00000054,-0.00000163,0.00000192
 ,-0.00000302,-0.00000060,0.00000164,-0.00000269,-0.00000093,0.00000147
 ,-0.00000287,-0.00000117,-0.00000080,-0.00000533,0.00000011,-0.0000038
 0,-0.00000211,0.00000187,0.00001076,0.00001292,-0.00000957,0.00004060,
 0.00000706,-0.00000629,0.00001135,-0.00000184,-0.00017089,-0.00063636,
 -0.00063985,0.00166374,-0.14220315,0.21135942,-0.00001365,-0.00000353,
 -0.00003166,-0.00002521,0.00002313,0.00002097,0.00000050,-0.00000302,-
 0.00001304,-0.00000761,0.00000154,-0.00000838,0.00000163,-0.00000361,-
 0.00000168,-0.00000201,0.00000534,-0.00000228,-0.00000063,-0.00000110,
 -0.00000141,-0.00000149,0.00000307,-0.00000089,-0.00000128,-0.00000128
 ,-0.00000024,0.00000069,0.00000167,0.00000025,-0.00000087,0.00000067,-
 0.00000019,0.00000094,0.00000007,0.00000101,0.00000114,0.00000336,-0.0
 0000117,-0.00000373,0.00000017,0.00000037,0.00000296,-0.00000122,-0.00
 000201,-0.00000799,-0.00000379,0.00000367,0.00000803,-0.00000050,-0.00
 000425,-0.00003190,-0.00001229,-0.00000861,0.00000011,-0.00000387,0.00
 000357,0.00000201,-0.00000091,0.00001129,-0.00001258,0.00002441,-0.000
 01449,-0.00000729,0.00001651,0.00001790,-0.00000880,0.00002651,0.00001
 202,0.00000806,-0.00006763,0.00003012,0.00002505,-0.00007331,0.0001783
 5,0.00083398,-0.00033718,0.00038122,0.00026954,0.00010093,-0.00045193,
 0.00004833,-0.00016290,-0.00012064,-0.00023888,-0.00009529,-0.00012113
 ,-0.00002597,0.00001255,0.00002702,-0.00000461,-0.00001474,0.00000544,
 0.00000383,0.00000231,-0.00000190,-0.00000112,-0.00000157,0.00000050,0
 .00000173,0.00000062,-0.00000105,-0.00000060,0.00000077,0.00000011,0.0
 0000067,0.00000167,-0.00000300,-0.00000029,-0.00000210,0.00000118,0.00
 000101,-0.00000220,0.00000113,0.00000052,-0.00000436,-0.00000125,0.000
 00167,0.00000107,-0.00000200,0.00000429,0.00000038,-0.00000200,-0.0000
 1088,-0.00000013,0.00000439,0.00000990,-0.00000691,-0.00000929,0.00023
 096,0.00054806,-0.00013020,-0.00015068,0.00005463,-0.00063932,-0.00379
 634,-0.00172554,0.00142315,-0.00908153,0.01092164,0.00740411,0.0413759
 4,-0.06642525,-0.07087379,0.01477526,-0.01750706,-0.00206759,-0.004628
 57,-0.00558546,0.00111808,0.00000504,0.00000736,0.00000575,0.00000598,
 -0.00000028,0.00000334,-0.00000015,0.00000178,0.00000247,0.00000037,0.
 00000023,0.00000090,-0.00000010,0.00000017,0.00000060,0.,0.00000033,0.
 00000037,0.00000021,0.00000054,0.00000073,0.00000034,0.00000005,0.0000
 0067,-0.00000306,0.00000018,0.00000223,0.00000190,-0.00000401,-0.00000
 270,0.00000013,-0.00000027,-0.00000172,-0.00000014,0.00000043,-0.00000
 277,0.00000031,-0.00000133,-0.00000745,0.00001039,0.00000355,-0.000021
 98,0.00000715,-0.00002884,0.00000243,-0.00002258,-0.00000863,-0.000021
 32,-0.00000797,-0.00000519,0.00000360,0.00000264,0.00000161,-0.0000010
 4,0.00000181,-0.00000034,-0.00000067,0.00000111,-0.00000081,-0.0000003
 2,0.00000097,-0.00000114,-0.00000042,0.00000075,-0.00000149,-0.0000003
 3,0.00000022,-0.00000225,0.00000028,-0.00000010,0.00000050,0.00000191,
 0.00000760,0.00000555,-0.00000394,0.00001453,-0.00005187,0.00001292,-0
 .00050420,0.00044382,0.00025752,0.00159961,0.00126489,-0.00092223,-0.0
 4228204,0.07583345,0.06631032,0.00003947,-0.00016816,0.00029211,0.0002
 9788,0.00014354,-0.00044256,-0.00004781,0.00007785,0.00003321,0.000032
 08,0.00004736,-0.00003616,-0.00002310,-0.00000941,0.00002427,0.0000143
 0,-0.00000020,-0.00000485,-0.00000497,-0.00000113,0.00000615,0.0000026
 8,-0.00000131,0.00000215,-0.00000065,-0.00000211,0.00000241,0.00000157
 ,0.00000206,-0.00000162,-0.00000557,-0.00000789,0.00000373,-0.00000123
 ,0.00000075,-0.00000124,-0.00000010,0.00000089,0.00000096,-0.00000057,
 -0.00000037,-0.00000139,0.00000276,0.00000249,0.00000248,-0.00000776,-
 0.00000119,0.00001503,0.00000766,-0.00002382,-0.00000012,-0.00009305,-
 0.00005687,-0.00000694,0.00027479,-0.00003189,0.00016965,-0.00006037,0
 .00011138,-0.00008117,-0.00010054,-0.00005627,0.00002185,0.00009228,-0
 .00018305,0.00009827,0.00004593,-0.00018072,-0.00017832,0.00017376,-0.
 00022627,-0.00061828,0.00006380,-0.00039080,-0.00036587,-0.00068699,-0
 .00168302,-0.00018342,-0.00018002,-0.00006635,-0.00004883,0.00011815,0
 .00011526,0.00011168,0.00005476,-0.00009411,0.00015553,0.00008193,-0.0
 0005680,-0.00002232,-0.00000421,0.00004150,0.00000748,0.00000555,-0.00
 000968,0.00000382,0.00000094,0.00000230,0.00000218,0.00000361,-0.00000
 089,-0.00000146,-0.00000138,0.00000311,0.00000177,-0.00000229,-0.00000
 430,-0.00000515,-0.00000478,0.00001421,0.00000298,-0.00000321,0.000003
 47,-0.00000134,0.00000196,0.00000161,0.00000147,0.00000084,0.00000328,
 0.00000354,0.00000086,-0.00000346,0.00000427,0.00001584,0.00001148,-0.
 00000031,-0.00004471,0.00001197,0.00003300,-0.00063882,-0.00030250,-0.
 00070339,0.00043931,0.00365031,0.00070461,0.00052698,0.00011365,0.0007
 1362,0.00270860,0.00038039,-0.00286776,-0.00341229,0.00276660,-0.00237
 761,-0.27850245,0.03436639,-0.11453063,-0.01284210,0.00131548,-0.00888
 477,0.00002373,0.00002552,0.00000121,-0.00001764,0.00001588,0.00000517
 ,0.00000192,-0.00000273,-0.00000762,-0.00000111,-0.00000517,-0.0000019
 0,-0.00000083,-0.00000243,-0.00000011,-0.00000172,-0.00000125,-0.00000
 030,-0.00000204,-0.00000094,-0.00000002,-0.00000230,0.00000018,-0.0000
 0003,-0.00000447,0.00000136,0.00000060,0.00000547,-0.00001631,-0.00002
 171,-0.00001333,-0.00000467,-0.00000416,-0.00001007,-0.00000823,-0.000
 00853,-0.00001862,0.00000879,-0.00001084,-0.00000425,0.00001114,0.0000
 0716,-0.00025968,0.00007727,0.00006736,0.00003213,0.00001259,-0.000033
 34,0.00001102,0.00001196,-0.00001715,-0.00000295,-0.00000254,-0.000000
 53,-0.00000485,0.00000089,0.00000095,-0.00000321,0.00000282,-0.0000002
 3,-0.00000182,0.00000303,0.00000046,-0.00000106,0.00000395,0.00000036,
 -0.00000014,0.00000586,-0.00000221,0.00000280,0.00000468,-0.00000826,-
 0.00002816,-0.00001166,-0.00000323,-0.00010758,0.00026510,-0.00000426,
 -0.00027460,-0.00027006,0.00026146,-0.00018613,0.00020340,-0.00010025,
 -0.00018134,-0.00162773,0.00161504,0.29271147,-0.00009431,0.00033242,-
 0.00014177,-0.00021192,-0.00053841,0.00010910,-0.00015950,-0.00014367,
 -0.00002222,-0.00003524,-0.00005516,0.00003522,0.00004120,0.00000435,-
 0.00000998,-0.00002433,-0.00000325,-0.00000012,0.00000889,-0.00000191,
 -0.00000410,-0.00000065,0.00000027,-0.00000295,-0.00000128,0.00000235,
 -0.00000078,-0.00000046,-0.00000725,-0.00000011,0.00000737,0.00000812,
 -0.00000355,-0.00000451,0.00000494,0.00000171,0.00000474,-0.00000056,-
 0.00000137,-0.00000225,0.00000105,0.00000055,-0.00000511,0.00001350,0.
 00000778,0.00000575,-0.00003279,-0.00000196,-0.00000427,0.00003279,0.0
 0000449,0.00017105,-0.00006407,0.00002812,0.00007323,0.00014257,0.0000
 1556,-0.00006475,-0.00000510,-0.00002245,0.00006083,-0.00002810,0.0000
 5296,-0.00008133,-0.00008987,-0.00000510,0.00007245,-0.00008707,0.0000
 8919,-0.00020014,0.00030560,-0.00094864,0.00006175,-0.00033464,-0.0001
 3180,-0.00037309,-0.00042109,0.00138953,-0.00021325,0.00011675,0.00033
 045,-0.00006153,-0.00000322,-0.00013186,0.00002534,-0.00000815,0.00012
 782,-0.00006078,0.00004787,-0.00003541,0.00001289,-0.00002790,-0.00000
 653,-0.00000812,0.00000905,-0.00000295,-0.00000035,-0.00000190,-0.0000
 0223,-0.00000543,-0.00000107,0.00000309,0.00000474,-0.00000636,-0.0000
 0255,0.00000135,0.00000423,0.00000579,0.00000394,-0.00000977,-0.000002
 53,0.00000122,-0.00000270,0.00000323,-0.00000361,0.00000291,0.,-0.0000
 0473,-0.00000964,-0.00000263,0.00000067,0.00000549,-0.00000490,-0.0000
 1346,-0.00002047,-0.00000478,0.00003136,0.00000368,-0.00002080,0.00094
 086,0.00020205,0.00070720,0.00266104,-0.00147097,-0.00399925,-0.000020
 70,-0.00072656,-0.00017606,0.00138551,0.00059897,-0.00565447,-0.018631
 55,0.00629502,-0.00956733,0.03417346,-0.05405405,0.00557234,0.02095248
 ,0.00151465,0.01074711,-0.00006120,-0.00005250,0.00000229,0.00002358,-
 0.00001543,-0.00001018,-0.00000385,0.00000237,0.00000646,0.00000003,0.
 00000787,0.00000119,0.00000225,0.00000386,-0.00000105,0.00000225,0.000
 00380,-0.00000125,0.00000271,0.00000363,-0.00000063,0.00000621,0.00000
 226,-0.00000296,0.00000344,-0.00000334,-0.00000235,-0.00002514,0.00002
 478,-0.00000052,-0.00000162,0.00000517,0.00002843,0.00000946,-0.000001
 40,0.00000950,-0.00000519,-0.00000631,0.00001163,-0.00001069,-0.000020
 21,0.00002885,-0.00007737,-0.00001410,0.00003132,0.00003039,0.00003931
 ,-0.00002170,-0.00000575,-0.00000881,0.00000978,-0.00000027,0.00000053
 ,0.00000056,0.00000237,-0.00000082,-0.00000038,0.00000189,-0.00000146,
 0.00000022,0.00000040,-0.00000160,-0.00000024,-0.00000043,-0.00000232,
 0.00000051,0.00000075,-0.00000395,0.00000233,-0.00000348,-0.00000852,0
 .00000934,0.00003192,0.00000705,0.00000396,0.00025969,-0.00018978,-0.0
 0014700,-0.00028129,-0.00033995,0.00050941,-0.00077154,0.00021760,-0.0
 0051783,-0.00121953,-0.00108499,0.00283768,-0.03832549,0.04994431,-0.0
 0007516,0.00037004,-0.00042679,0.00008286,-0.00035640,0.00034528,-0.00
 001220,0.00000983,-0.00002785,-0.00004474,-0.00006225,0.00000613,0.000
 02834,0.00002250,-0.00000890,-0.00001617,-0.00001247,-0.00000714,0.000
 00171,0.00000099,-0.00000188,0.00000124,-0.00000440,-0.00000236,0.0000
 0279,0.00000602,-0.00000271,-0.00000334,-0.00000038,-0.00000127,0.0000
 0680,0.00001049,-0.00000402,0.00000170,0.00000034,0.00000079,-0.000001
 84,-0.00000363,-0.00000117,0.00000854,-0.00000044,-0.00000462,-0.00000
 389,0.00000081,-0.00001017,0.00000739,0.00000190,-0.00002194,-0.000008
 72,0.00004162,0.00000510,0.00001998,-0.00005415,0.00002667,-0.00008245
 ,0.00008339,-0.00006299,0.00001492,-0.00008454,0.00005640,0.00006911,0
 .00004351,-0.00004793,-0.00010312,0.00008966,-0.00001371,0.00003418,0.
 00000648,-0.00030516,-0.00004003,-0.00067419,-0.00104098,0.00005258,-0
 .00072959,-0.00054339,0.00086893,0.00095744,-0.00128448,-0.00006247,0.
 00038821,-0.00006859,-0.00007277,-0.00006682,-0.00001475,0.00015653,0.
 00013334,0.00005445,-0.00002706,-0.00000811,0.00002022,-0.00000068,0.0
 0000345,-0.00000471,-0.00000018,0.00000009,-0.00000101,-0.00000118,-0.
 00000184,-0.00000072,0.00000098,0.00000082,-0.00000102,-0.00000091,0.0
 0000019,-0.00000028,-0.00000143,0.00000285,0.00000098,-0.00000056,-0.0
 0000327,-0.00000051,0.00000134,-0.00000091,0.00000080,0.00000028,-0.00
 000088,-0.00000139,-0.00000008,-0.00000031,-0.00000159,-0.00000287,-0.
 00000003,-0.00000266,-0.00000263,-0.00000012,-0.00000270,0.00000329,-0
 .00000318,-0.00001125,0.00049109,-0.00012934,0.00028456,-0.00025293,-0
 .00333293,0.00189731,0.00058622,-0.00024950,-0.00044263,-0.00220945,-0
 .00612774,0.00138384,-0.02074444,0.00333325,-0.00515376,-0.11564450,0.
 00580943,-0.10163197,0.00836455,-0.00113859,0.00775470,-0.00005091,-0.
 00000282,0.00003203,0.00001178,-0.00001509,-0.00000628,0.00000019,0.00
 000040,0.00000285,0.00000022,0.00000326,0.00000086,0.00000112,0.000002
 70,-0.00000007,0.00000206,0.00000166,0.00000078,0.00000331,0.00000070,
 0.00000069,0.00000446,0.00000045,0.00000135,0.00001216,-0.00000464,0.0
 0000310,-0.00000341,0.00001211,0.00003240,0.00001586,0.00001534,0.0000
 1424,0.00000854,0.00001044,0.00002054,0.00001102,-0.00000668,0.0000197
 8,-0.00000020,-0.00002048,0.00000243,0.00006723,-0.00003130,-0.0001141
 1,-0.00002326,-0.00004102,0.00005072,-0.00000128,-0.00000156,0.0000060
 1,0.00000164,0.00000050,0.00000051,0.00000054,-0.00000022,0.00000031,0
 .00000041,0.00000006,0.00000057,0.00000029,-0.00000012,0.00000057,0.00
 000016,-0.00000034,0.00000060,0.00000075,-0.00000045,0.00000154,0.0000
 0096,-0.00000040,0.00000420,0.00000736,0.00000073,0.00001105,0.0000459
 2,-0.00021634,0.00005850,0.00027755,0.00049261,-0.00050352,-0.00094067
 ,0.00007527,-0.00023048,0.00194447,0.00256197,-0.00174961,0.12721220,-
 0.00110739,0.10166021\\-0.00000203,-0.00000119,-0.00000491,0.00000431,
 -0.00000641,0.00000006,0.00000649,0.00000326,-0.00000146,0.00000063,-0
 .00000840,0.00000068,-0.00000142,0.00000354,-0.00000001,0.00000164,0.0
 0000126,0.00000182,-0.00000052,-0.00000010,-0.00000148,-0.00000002,0.0
 0000012,0.00000045,-0.00000115,-0.00000114,0.00000087,-0.00000008,0.00
 000047,-0.00000181,-0.00000131,-0.00000102,0.00000139,0.00000113,0.000
 00060,-0.00000128,-0.00000109,-0.00000206,-0.00000022,-0.00000100,-0.0
 0000012,-0.00000019,0.00000217,0.,-0.00000032,-0.00000033,-0.00000007,
 -0.00000092,0.00000119,0.00000553,0.00000118,-0.00000650,-0.00000680,0
 .00000411,0.00000410,0.00000411,-0.00000256,-0.00000333,-0.00000328,0.
 00000158,0.00000494,0.00000173,0.00000056,-0.00000270,0.00000200,-0.00
 000296,0.00000303,-0.00000259,0.00000124,-0.00000193,0.00000518,-0.000
 00310,-0.00000350,-0.00000409,0.00000151,0.00000341,-0.00000442,-0.000
 00162,-0.00000388,-0.00000660,-0.00000042,0.00000188,-0.00000054,0.000
 00486,-0.00000654,0.00000243,0.00000160,-0.00000113,-0.00000819,-0.000
 00070,-0.00000090,0.00000531,-0.00000096,0.00000036,-0.00000005,0.0000
 0080,-0.00000204,-0.00000002,0.00000031,0.00000099,-0.00000003,0.00000
 017,0.00000105,-0.00000215,0.00000028,-0.00000111,0.00000061,0.0000012
 6,0.00000136,-0.00000108,-0.00000144,0.00000010,0.00000064,0.00000198,
 0.00000105,-0.00000115,-0.00000096,0.00000002,0.00000003,-0.00000058,0
 .00000067,-0.00000004,0.00000164,-0.00000148,0.00000146,-0.00000200,0.
 00000131,0.00000357,-0.00000006,0.00000627,-0.00000653,-0.00000399,-0.
 00000399,0.00000395,0.00000251,0.00000331,-0.00000308,-0.00000160,-0.0
 0000493,0.00000163,-0.00000046,0.00000265,0.00000205,0.00000288,-0.000
 00307,-0.00000243,-0.00000118,0.00000159,0.00000511,0.00000315,-0.0000
 0068,0.00000485,0.00000039,-0.00000049,0.00000249,-0.00000062,0.000001
 06,-0.00000035,-0.00000069,0.00000051,-0.00000127,-0.00000056,-0.00000
 016,-0.00000087,-0.00000060,-0.00000027,-0.00000066,-0.00000086,-0.000
 00064,-0.00000049,-0.00000025,-0.00000124,0.00000073,0.00000026,-0.000
 00153,0.00000076,-0.00000034,0.00000067,0.00000081,-0.00000060,0.00000
 081,0.00000026,-0.00000200,-0.00000023,0.00000068,-0.00000115,-0.00000
 057,0.00000106,-0.00000094,0.00000045,0.00000103,-0.00000047,-0.000000
 58,0.00000046,-0.00000140,0.00000045,0.00000498,-0.00000017,-0.0000004
 5,0.00000070,0.00000036,0.00000157,0.00000080,0.00000034,0.00000128,0.
 00000073,-0.00000027,0.00000068,-0.00000048,0.00000026,0.00000030,-0.0
 0000063,0.00000083,0.00000020,-0.00000086,0.00000067,-0.00000050,-0.00
 000129,0.00000056,-0.00000103,-0.00000029,0.00000069,0.00000055,0.0000
 0229,0.00000083,-0.00000086,0.00000025,0.00000207,0.00000028,0.0000007
 1,0.00000112,0.00000057,0.00000106,0.00000094,-0.00000045,0.00000103,0
 .00000049,0.00000063,0.00000049,0.00000144\\\@
 The archive entry for this job was punched.


 NOTHING PUZZLES ME MORE THAN TIME AND SPACE; AND YET NOTHING TROUBLES ME LESS
                                                          -- CHARLES LAMB (1810)
 Job cpu time:       0 days 15 hours 44 minutes  3.3 seconds.
 Elapsed time:       0 days  0 hours 29 minutes 37.7 seconds.
 File lengths (MBytes):  RWF=   4906 Int=      0 D2E=      0 Chk=     51 Scr=      1
 Normal termination of Gaussian 16 at Wed Jul 31 22:53:15 2024.
