 Entering Gaussian System, Link 0=g16
 Initial command:
 /public/software/apps/Gaussian/g16/l1.exe "/tmp/Gau-50470.inp" -scrdir="/tmp/"
 Entering Link 1 = /public/software/apps/Gaussian/g16/l1.exe PID=     50471.
  
 Copyright (c) 1988-2019, Gaussian, Inc.  All Rights Reserved.
  
 This is part of the Gaussian(R) 16 program.  It is based on
 the Gaussian(R) 09 system (copyright 2009, Gaussian, Inc.),
 the Gaussian(R) 03 system (copyright 2003, Gaussian, Inc.),
 the Gaussian(R) 98 system (copyright 1998, Gaussian, Inc.),
 the Gaussian(R) 94 system (copyright 1995, Gaussian, Inc.),
 the Gaussian 92(TM) system (copyright 1992, Gaussian, Inc.),
 the Gaussian 90(TM) system (copyright 1990, Gaussian, Inc.),
 the Gaussian 88(TM) system (copyright 1988, Gaussian, Inc.),
 the Gaussian 86(TM) system (copyright 1986, Carnegie Mellon
 University), and the Gaussian 82(TM) system (copyright 1983,
 Carnegie Mellon University). Gaussian is a federally registered
 trademark of Gaussian, Inc.
  
 This software contains proprietary and confidential information,
 including trade secrets, belonging to Gaussian, Inc.
  
 This software is provided under written license and may be
 used, copied, transmitted, or stored only in accord with that
 written license.
  
 The following legend is applicable only to US Government
 contracts under FAR:
  
                    RESTRICTED RIGHTS LEGEND
  
 Use, reproduction and disclosure by the US Government is
 subject to restrictions as set forth in subparagraphs (a)
 and (c) of the Commercial Computer Software - Restricted
 Rights clause in FAR 52.227-19.
  
 Gaussian, Inc.
 340 Quinnipiac St., Bldg. 40, Wallingford CT 06492
  
  
 ---------------------------------------------------------------
 Warning -- This program may not be used in any manner that
 competes with the business of Gaussian, Inc. or will provide
 assistance to any competitor of Gaussian, Inc.  The licensee
 of this program is prohibited from giving any competitor of
 Gaussian, Inc. access to this program.  By using this program,
 the user acknowledges that Gaussian, Inc. is engaged in the
 business of creating and licensing software in the field of
 computational chemistry and represents and warrants to the
 licensee that it is not a competitor of Gaussian, Inc. and that
 it will not use this program in any manner prohibited above.
 ---------------------------------------------------------------
  

 Cite this work as:
 Gaussian 16, Revision C.01,
 M. J. Frisch, G. W. Trucks, H. B. Schlegel, G. E. Scuseria, 
 M. A. Robb, J. R. Cheeseman, G. Scalmani, V. Barone, 
 G. A. Petersson, H. Nakatsuji, X. Li, M. Caricato, A. V. Marenich, 
 J. Bloino, B. G. Janesko, R. Gomperts, B. Mennucci, H. P. Hratchian, 
 J. V. Ortiz, A. F. Izmaylov, J. L. Sonnenberg, D. Williams-Young, 
 F. Ding, F. Lipparini, F. Egidi, J. Goings, B. Peng, A. Petrone, 
 T. Henderson, D. Ranasinghe, V. G. Zakrzewski, J. Gao, N. Rega, 
 G. Zheng, W. Liang, M. Hada, M. Ehara, K. Toyota, R. Fukuda, 
 J. Hasegawa, M. Ishida, T. Nakajima, Y. Honda, O. Kitao, H. Nakai, 
 T. Vreven, K. Throssell, J. A. Montgomery, Jr., J. E. Peralta, 
 F. Ogliaro, M. J. Bearpark, J. J. Heyd, E. N. Brothers, K. N. Kudin, 
 V. N. Staroverov, T. A. Keith, R. Kobayashi, J. Normand, 
 K. Raghavachari, A. P. Rendell, J. C. Burant, S. S. Iyengar, 
 J. Tomasi, M. Cossi, J. M. Millam, M. Klene, C. Adamo, R. Cammi, 
 J. W. Ochterski, R. L. Martin, K. Morokuma, O. Farkas, 
 J. B. Foresman, and D. J. Fox, Gaussian, Inc., Wallingford CT, 2019.
 
 ******************************************
 Gaussian 16:  ES64L-G16RevC.01  3-Jul-2019
                31-Jul-2024 
 ******************************************
 %nprocshared=32
 Will use up to   32 processors via shared memory.
 %mem=100GB
 ------------------------------------------
 #p opt freq b3lyp/def2svpp em=gd3bj nosymm
 ------------------------------------------
 1/18=20,19=15,26=3,38=1/1,3;
 2/9=110,12=2,15=1,17=6,18=5,40=1/2;
 3/5=43,7=202,11=2,25=1,30=1,71=1,74=-5,124=41/1,2,3;
 4//1;
 5/5=2,38=5/2;
 6/7=2,8=2,9=2,10=2,28=1/1;
 7/30=1/1,2,3,16;
 1/18=20,19=15,26=3/3(2);
 2/9=110,15=1/2;
 99//99;
 2/9=110,15=1/2;
 3/5=43,7=202,11=2,25=1,30=1,71=1,74=-5,124=41/1,2,3;
 4/5=5,16=3,69=1/1;
 5/5=2,38=5/2;
 7/30=1/1,2,3,16;
 1/18=20,19=15,26=3/3(-5);
 2/9=110,15=1/2;
 6/7=2,8=2,9=2,10=2,19=2,28=1/1;
 99/9=1/99;
 Leave Link    1 at Wed Jul 31 22:00:12 2024, MaxMem= 13421772800 cpu:               1.8 elap:               0.1
 (Enter /public/software/apps/Gaussian/g16/l101.exe)
 ----------------------
 $$$$Singlemol####0????
 ----------------------
 Symbolic Z-matrix:
 Charge =  0 Multiplicity = 1
 O                    -1.37936  -0.47327   0.91021 
 C                    -1.60461   0.33317  -0.16333 
 C                    -2.82644   0.2721   -0.88009 
 C                    -3.89682  -0.64017  -0.41433 
 C                    -4.21401  -1.78714  -1.15757 
 C                    -3.52146  -2.13646  -2.34602 
 C                    -3.85423  -3.25356  -3.04906 
 C                    -4.89671  -4.09525  -2.6088 
 C                    -5.57568  -3.80334  -1.46667 
 C                    -5.25854  -2.6512   -0.70249 
 C                    -5.9351   -2.3477    0.47496 
 C                    -5.62426  -1.21633   1.22246 
 C                    -6.31296  -0.90187   2.42202 
 C                    -6.00694   0.21661   3.13352 
 C                    -4.99763   1.09164   2.68104 
 C                    -4.3118    0.82502   1.53616 
 C                    -4.58855  -0.33961   0.77114 
 C                    -3.00515   1.07189  -1.97891 
 C                    -2.00446   1.96379  -2.41029 
 C                    -2.1777    2.79034  -3.53945 
 C                    -1.19409   3.6555   -3.92827 
 C                     0.00584   3.73271  -3.20411 
 C                     0.20551   2.9449   -2.10556 
 C                    -0.79013   2.04041  -1.67975 
 C                    -0.61013   1.21057  -0.54644 
 C                     0.63267   1.28276   0.26441 
 C                     1.66416   0.40572   0.01238 
 O                     1.60773  -0.50609  -0.99543 
 C                     2.84684   0.43933   0.79354 
 C                     3.9285   -0.5243    0.49988 
 C                     5.12379  -0.07545  -0.07919 
 C                     5.33768   1.28486  -0.42374 
 C                     6.51015   1.69375  -0.98139 
 C                     7.54476   0.76954  -1.23555 
 C                     7.3746   -0.54591  -0.93394 
 C                     6.16713  -1.01387  -0.35462 
 C                     5.97526  -2.35841  -0.05429 
 C                     4.7898   -2.81287   0.51466 
 C                     4.59017  -4.1829    0.82319 
 C                     3.43076  -4.61121   1.39139 
 C                     2.40635  -3.68989   1.69249 
 C                     2.55942  -2.36641   1.41312 
 C                     3.74564  -1.88055   0.80432 
 C                     2.9596    1.35871   1.80201 
 C                     1.92466   2.27137   2.08742 
 C                     2.03185   3.2194    3.12492 
 C                     1.0129    4.09312   3.38324 
 C                    -0.15778   4.0572    2.61128 
 C                    -0.29197   3.15049   1.5972 
 C                     0.73982   2.23357   1.30816 
 H                    -2.17558  -0.98898   1.0965 
 H                    -2.7201   -1.4971   -2.68635 
 H                    -3.31869  -3.50675  -3.95209 
 H                    -5.14443  -4.97409  -3.18552 
 H                    -6.37136  -4.44483  -1.11574 
 H                    -6.72239  -3.00543   0.81599 
 H                    -7.09064  -1.57448   2.75439 
 H                    -6.53643   0.44895   4.04558 
 H                    -4.7751    1.98064   3.25206 
 H                    -3.54781   1.50661   1.19193 
 H                    -3.93923   1.02759  -2.52078 
 H                    -3.1054    2.72478  -4.08998 
 H                    -1.3333    4.28618  -4.79388 
 H                     0.77331   4.42229  -3.52314 
 H                     1.12745   3.00284  -1.54574 
 H                     0.74443  -0.44339  -1.42556 
 H                     4.54664   1.99609  -0.23654 
 H                     6.6585    2.7329   -1.23763 
 H                     8.46764   1.11789  -1.6763 
 H                     8.15765  -1.26439  -1.13212 
 H                     6.76479  -3.06595  -0.26854 
 H                     5.38543  -4.87908   0.59582 
 H                     3.28563  -5.65687   1.62216 
 H                     1.49649  -4.0471    2.15299 
 H                     1.77348  -1.66655   1.65504 
 H                     3.8592    1.38148   2.40074 
 H                     2.93846   3.24059   3.71305 
 H                     1.10164   4.81637   4.18073 
 H                    -0.95468   4.7552    2.824 
 H                    -1.19186   3.12973   0.99933 
 
 ITRead=  0  0  0  0  0  0  0  0  0  0  0  0  0  0  0  0  0  0  0  0
 ITRead=  0  0  0  0  0  0  0  0  0  0  0  0  0  0  0  0  0  0  0  0
 ITRead=  0  0  0  0  0  0  0  0  0  0  0  0  0  0  0  0  0  0  0  0
 ITRead=  0  0  0  0  0  0  0  0  0  0  0  0  0  0  0  0  0  0  0  0
 MicOpt= -1 -1 -1 -1 -1 -1 -1 -1 -1 -1 -1 -1 -1 -1 -1 -1 -1 -1 -1 -1
 MicOpt= -1 -1 -1 -1 -1 -1 -1 -1 -1 -1 -1 -1 -1 -1 -1 -1 -1 -1 -1 -1
 MicOpt= -1 -1 -1 -1 -1 -1 -1 -1 -1 -1 -1 -1 -1 -1 -1 -1 -1 -1 -1 -1
 MicOpt= -1 -1 -1 -1 -1 -1 -1 -1 -1 -1 -1 -1 -1 -1 -1 -1 -1 -1 -1 -1
 NAtoms=     80 NQM=       80 NQMF=       0 NMMI=      0 NMMIF=      0
                NMic=       0 NMicF=      0.
                    Isotopes and Nuclear Properties:
 (Nuclear quadrupole moments (NQMom) in fm**2, nuclear magnetic moments (NMagM)
  in nuclear magnetons)

  Atom         1           2           3           4           5           6           7           8           9          10
 IAtWgt=          16          12          12          12          12          12          12          12          12          12
 AtmWgt=  15.9949146  12.0000000  12.0000000  12.0000000  12.0000000  12.0000000  12.0000000  12.0000000  12.0000000  12.0000000
 NucSpn=           0           0           0           0           0           0           0           0           0           0
 AtZEff=  -0.0000000  -0.0000000  -0.0000000  -0.0000000  -0.0000000  -0.0000000  -0.0000000  -0.0000000  -0.0000000  -0.0000000
 NQMom=    0.0000000   0.0000000   0.0000000   0.0000000   0.0000000   0.0000000   0.0000000   0.0000000   0.0000000   0.0000000
 NMagM=    0.0000000   0.0000000   0.0000000   0.0000000   0.0000000   0.0000000   0.0000000   0.0000000   0.0000000   0.0000000
 AtZNuc=   8.0000000   6.0000000   6.0000000   6.0000000   6.0000000   6.0000000   6.0000000   6.0000000   6.0000000   6.0000000

  Atom        11          12          13          14          15          16          17          18          19          20
 IAtWgt=          12          12          12          12          12          12          12          12          12          12
 AtmWgt=  12.0000000  12.0000000  12.0000000  12.0000000  12.0000000  12.0000000  12.0000000  12.0000000  12.0000000  12.0000000
 NucSpn=           0           0           0           0           0           0           0           0           0           0
 AtZEff=  -0.0000000  -0.0000000  -0.0000000  -0.0000000  -0.0000000  -0.0000000  -0.0000000  -0.0000000  -0.0000000  -0.0000000
 NQMom=    0.0000000   0.0000000   0.0000000   0.0000000   0.0000000   0.0000000   0.0000000   0.0000000   0.0000000   0.0000000
 NMagM=    0.0000000   0.0000000   0.0000000   0.0000000   0.0000000   0.0000000   0.0000000   0.0000000   0.0000000   0.0000000
 AtZNuc=   6.0000000   6.0000000   6.0000000   6.0000000   6.0000000   6.0000000   6.0000000   6.0000000   6.0000000   6.0000000

  Atom        21          22          23          24          25          26          27          28          29          30
 IAtWgt=          12          12          12          12          12          12          12          16          12          12
 AtmWgt=  12.0000000  12.0000000  12.0000000  12.0000000  12.0000000  12.0000000  12.0000000  15.9949146  12.0000000  12.0000000
 NucSpn=           0           0           0           0           0           0           0           0           0           0
 AtZEff=  -0.0000000  -0.0000000  -0.0000000  -0.0000000  -0.0000000  -0.0000000  -0.0000000  -0.0000000  -0.0000000  -0.0000000
 NQMom=    0.0000000   0.0000000   0.0000000   0.0000000   0.0000000   0.0000000   0.0000000   0.0000000   0.0000000   0.0000000
 NMagM=    0.0000000   0.0000000   0.0000000   0.0000000   0.0000000   0.0000000   0.0000000   0.0000000   0.0000000   0.0000000
 AtZNuc=   6.0000000   6.0000000   6.0000000   6.0000000   6.0000000   6.0000000   6.0000000   8.0000000   6.0000000   6.0000000

  Atom        31          32          33          34          35          36          37          38          39          40
 IAtWgt=          12          12          12          12          12          12          12          12          12          12
 AtmWgt=  12.0000000  12.0000000  12.0000000  12.0000000  12.0000000  12.0000000  12.0000000  12.0000000  12.0000000  12.0000000
 NucSpn=           0           0           0           0           0           0           0           0           0           0
 AtZEff=  -0.0000000  -0.0000000  -0.0000000  -0.0000000  -0.0000000  -0.0000000  -0.0000000  -0.0000000  -0.0000000  -0.0000000
 NQMom=    0.0000000   0.0000000   0.0000000   0.0000000   0.0000000   0.0000000   0.0000000   0.0000000   0.0000000   0.0000000
 NMagM=    0.0000000   0.0000000   0.0000000   0.0000000   0.0000000   0.0000000   0.0000000   0.0000000   0.0000000   0.0000000
 AtZNuc=   6.0000000   6.0000000   6.0000000   6.0000000   6.0000000   6.0000000   6.0000000   6.0000000   6.0000000   6.0000000

  Atom        41          42          43          44          45          46          47          48          49          50
 IAtWgt=          12          12          12          12          12          12          12          12          12          12
 AtmWgt=  12.0000000  12.0000000  12.0000000  12.0000000  12.0000000  12.0000000  12.0000000  12.0000000  12.0000000  12.0000000
 NucSpn=           0           0           0           0           0           0           0           0           0           0
 AtZEff=  -0.0000000  -0.0000000  -0.0000000  -0.0000000  -0.0000000  -0.0000000  -0.0000000  -0.0000000  -0.0000000  -0.0000000
 NQMom=    0.0000000   0.0000000   0.0000000   0.0000000   0.0000000   0.0000000   0.0000000   0.0000000   0.0000000   0.0000000
 NMagM=    0.0000000   0.0000000   0.0000000   0.0000000   0.0000000   0.0000000   0.0000000   0.0000000   0.0000000   0.0000000
 AtZNuc=   6.0000000   6.0000000   6.0000000   6.0000000   6.0000000   6.0000000   6.0000000   6.0000000   6.0000000   6.0000000

  Atom        51          52          53          54          55          56          57          58          59          60
 IAtWgt=           1           1           1           1           1           1           1           1           1           1
 AtmWgt=   1.0078250   1.0078250   1.0078250   1.0078250   1.0078250   1.0078250   1.0078250   1.0078250   1.0078250   1.0078250
 NucSpn=           1           1           1           1           1           1           1           1           1           1
 AtZEff=  -0.0000000  -0.0000000  -0.0000000  -0.0000000  -0.0000000  -0.0000000  -0.0000000  -0.0000000  -0.0000000  -0.0000000
 NQMom=    0.0000000   0.0000000   0.0000000   0.0000000   0.0000000   0.0000000   0.0000000   0.0000000   0.0000000   0.0000000
 NMagM=    2.7928460   2.7928460   2.7928460   2.7928460   2.7928460   2.7928460   2.7928460   2.7928460   2.7928460   2.7928460
 AtZNuc=   1.0000000   1.0000000   1.0000000   1.0000000   1.0000000   1.0000000   1.0000000   1.0000000   1.0000000   1.0000000

  Atom        61          62          63          64          65          66          67          68          69          70
 IAtWgt=           1           1           1           1           1           1           1           1           1           1
 AtmWgt=   1.0078250   1.0078250   1.0078250   1.0078250   1.0078250   1.0078250   1.0078250   1.0078250   1.0078250   1.0078250
 NucSpn=           1           1           1           1           1           1           1           1           1           1
 AtZEff=  -0.0000000  -0.0000000  -0.0000000  -0.0000000  -0.0000000  -0.0000000  -0.0000000  -0.0000000  -0.0000000  -0.0000000
 NQMom=    0.0000000   0.0000000   0.0000000   0.0000000   0.0000000   0.0000000   0.0000000   0.0000000   0.0000000   0.0000000
 NMagM=    2.7928460   2.7928460   2.7928460   2.7928460   2.7928460   2.7928460   2.7928460   2.7928460   2.7928460   2.7928460
 AtZNuc=   1.0000000   1.0000000   1.0000000   1.0000000   1.0000000   1.0000000   1.0000000   1.0000000   1.0000000   1.0000000

  Atom        71          72          73          74          75          76          77          78          79          80
 IAtWgt=           1           1           1           1           1           1           1           1           1           1
 AtmWgt=   1.0078250   1.0078250   1.0078250   1.0078250   1.0078250   1.0078250   1.0078250   1.0078250   1.0078250   1.0078250
 NucSpn=           1           1           1           1           1           1           1           1           1           1
 AtZEff=  -0.0000000  -0.0000000  -0.0000000  -0.0000000  -0.0000000  -0.0000000  -0.0000000  -0.0000000  -0.0000000  -0.0000000
 NQMom=    0.0000000   0.0000000   0.0000000   0.0000000   0.0000000   0.0000000   0.0000000   0.0000000   0.0000000   0.0000000
 NMagM=    2.7928460   2.7928460   2.7928460   2.7928460   2.7928460   2.7928460   2.7928460   2.7928460   2.7928460   2.7928460
 AtZNuc=   1.0000000   1.0000000   1.0000000   1.0000000   1.0000000   1.0000000   1.0000000   1.0000000   1.0000000   1.0000000
 Leave Link  101 at Wed Jul 31 22:00:12 2024, MaxMem= 13421772800 cpu:               4.7 elap:               0.2
 (Enter /public/software/apps/Gaussian/g16/l103.exe)

 GradGradGradGradGradGradGradGradGradGradGradGradGradGradGradGradGradGrad
 Berny optimization.
 Initialization pass.
                           ----------------------------
                           !    Initial Parameters    !
                           ! (Angstroms and Degrees)  !
 --------------------------                            --------------------------
 ! Name  Definition              Value          Derivative Info.                !
 --------------------------------------------------------------------------------
 ! R1    R(1,2)                  1.3615         estimate D2E/DX2                !
 ! R2    R(1,51)                 0.9668         estimate D2E/DX2                !
 ! R3    R(2,3)                  1.4179         estimate D2E/DX2                !
 ! R4    R(2,25)                 1.3804         estimate D2E/DX2                !
 ! R5    R(3,4)                  1.4815         estimate D2E/DX2                !
 ! R6    R(3,18)                 1.3708         estimate D2E/DX2                !
 ! R7    R(4,5)                  1.4031         estimate D2E/DX2                !
 ! R8    R(4,17)                 1.4051         estimate D2E/DX2                !
 ! R9    R(5,6)                  1.4192         estimate D2E/DX2                !
 ! R10   R(5,10)                 1.4299         estimate D2E/DX2                !
 ! R11   R(6,7)                  1.3612         estimate D2E/DX2                !
 ! R12   R(6,52)                 1.0802         estimate D2E/DX2                !
 ! R13   R(7,8)                  1.4103         estimate D2E/DX2                !
 ! R14   R(7,53)                 1.08           estimate D2E/DX2                !
 ! R15   R(8,9)                  1.3604         estimate D2E/DX2                !
 ! R16   R(8,54)                 1.08           estimate D2E/DX2                !
 ! R17   R(9,10)                 1.4184         estimate D2E/DX2                !
 ! R18   R(9,55)                 1.0806         estimate D2E/DX2                !
 ! R19   R(10,11)                1.3915         estimate D2E/DX2                !
 ! R20   R(11,12)                1.3912         estimate D2E/DX2                !
 ! R21   R(11,56)                1.0811         estimate D2E/DX2                !
 ! R22   R(12,13)                1.4185         estimate D2E/DX2                !
 ! R23   R(12,17)                1.43           estimate D2E/DX2                !
 ! R24   R(13,14)                1.3605         estimate D2E/DX2                !
 ! R25   R(13,57)                1.0806         estimate D2E/DX2                !
 ! R26   R(14,15)                1.4104         estimate D2E/DX2                !
 ! R27   R(14,58)                1.0799         estimate D2E/DX2                !
 ! R28   R(15,16)                1.361          estimate D2E/DX2                !
 ! R29   R(15,59)                1.0798         estimate D2E/DX2                !
 ! R30   R(16,17)                1.4206         estimate D2E/DX2                !
 ! R31   R(16,60)                1.0802         estimate D2E/DX2                !
 ! R32   R(18,19)                1.4082         estimate D2E/DX2                !
 ! R33   R(18,61)                1.0808         estimate D2E/DX2                !
 ! R34   R(19,20)                1.41           estimate D2E/DX2                !
 ! R35   R(19,24)                1.4192         estimate D2E/DX2                !
 ! R36   R(20,21)                1.3664         estimate D2E/DX2                !
 ! R37   R(20,62)                1.0807         estimate D2E/DX2                !
 ! R38   R(21,22)                1.4036         estimate D2E/DX2                !
 ! R39   R(21,63)                1.08           estimate D2E/DX2                !
 ! R40   R(22,23)                1.3665         estimate D2E/DX2                !
 ! R41   R(22,64)                1.08           estimate D2E/DX2                !
 ! R42   R(23,24)                1.4109         estimate D2E/DX2                !
 ! R43   R(23,65)                1.0801         estimate D2E/DX2                !
 ! R44   R(24,25)                1.4161         estimate D2E/DX2                !
 ! R45   R(25,26)                1.4857         estimate D2E/DX2                !
 ! R46   R(26,27)                1.3772         estimate D2E/DX2                !
 ! R47   R(26,50)                1.416          estimate D2E/DX2                !
 ! R48   R(27,28)                1.3602         estimate D2E/DX2                !
 ! R49   R(27,29)                1.4178         estimate D2E/DX2                !
 ! R50   R(28,66)                0.9666         estimate D2E/DX2                !
 ! R51   R(29,30)                1.4781         estimate D2E/DX2                !
 ! R52   R(29,44)                1.3693         estimate D2E/DX2                !
 ! R53   R(30,31)                1.402          estimate D2E/DX2                !
 ! R54   R(30,43)                1.402          estimate D2E/DX2                !
 ! R55   R(31,32)                1.4195         estimate D2E/DX2                !
 ! R56   R(31,36)                1.43           estimate D2E/DX2                !
 ! R57   R(32,33)                1.3612         estimate D2E/DX2                !
 ! R58   R(32,67)                1.0801         estimate D2E/DX2                !
 ! R59   R(33,34)                1.4104         estimate D2E/DX2                !
 ! R60   R(33,68)                1.0805         estimate D2E/DX2                !
 ! R61   R(34,35)                1.3603         estimate D2E/DX2                !
 ! R62   R(34,69)                1.0804         estimate D2E/DX2                !
 ! R63   R(35,36)                1.4187         estimate D2E/DX2                !
 ! R64   R(35,70)                1.081          estimate D2E/DX2                !
 ! R65   R(36,37)                1.391          estimate D2E/DX2                !
 ! R66   R(37,38)                1.3912         estimate D2E/DX2                !
 ! R67   R(37,71)                1.0816         estimate D2E/DX2                !
 ! R68   R(38,39)                1.4185         estimate D2E/DX2                !
 ! R69   R(38,43)                1.4295         estimate D2E/DX2                !
 ! R70   R(39,40)                1.3603         estimate D2E/DX2                !
 ! R71   R(39,72)                1.0811         estimate D2E/DX2                !
 ! R72   R(40,41)                1.4103         estimate D2E/DX2                !
 ! R73   R(40,73)                1.0806         estimate D2E/DX2                !
 ! R74   R(41,42)                1.3613         estimate D2E/DX2                !
 ! R75   R(41,74)                1.0805         estimate D2E/DX2                !
 ! R76   R(42,43)                1.4191         estimate D2E/DX2                !
 ! R77   R(42,75)                1.0798         estimate D2E/DX2                !
 ! R78   R(44,45)                1.4091         estimate D2E/DX2                !
 ! R79   R(44,76)                1.0809         estimate D2E/DX2                !
 ! R80   R(45,46)                1.4095         estimate D2E/DX2                !
 ! R81   R(45,50)                1.4186         estimate D2E/DX2                !
 ! R82   R(46,47)                1.3669         estimate D2E/DX2                !
 ! R83   R(46,77)                1.0809         estimate D2E/DX2                !
 ! R84   R(47,48)                1.4028         estimate D2E/DX2                !
 ! R85   R(47,78)                1.0803         estimate D2E/DX2                !
 ! R86   R(48,49)                1.3669         estimate D2E/DX2                !
 ! R87   R(48,79)                1.0805         estimate D2E/DX2                !
 ! R88   R(49,50)                1.4103         estimate D2E/DX2                !
 ! R89   R(49,80)                1.0806         estimate D2E/DX2                !
 ! A1    A(2,1,51)             109.3696         estimate D2E/DX2                !
 ! A2    A(1,2,3)              121.042          estimate D2E/DX2                !
 ! A3    A(1,2,25)             118.4335         estimate D2E/DX2                !
 ! A4    A(3,2,25)             120.5234         estimate D2E/DX2                !
 ! A5    A(2,3,4)              119.3539         estimate D2E/DX2                !
 ! A6    A(2,3,18)             119.5012         estimate D2E/DX2                !
 ! A7    A(4,3,18)             121.1373         estimate D2E/DX2                !
 ! A8    A(3,4,5)              120.0116         estimate D2E/DX2                !
 ! A9    A(3,4,17)             119.2899         estimate D2E/DX2                !
 ! A10   A(5,4,17)             120.698          estimate D2E/DX2                !
 ! A11   A(4,5,6)              122.3104         estimate D2E/DX2                !
 ! A12   A(4,5,10)             119.3748         estimate D2E/DX2                !
 ! A13   A(6,5,10)             118.31           estimate D2E/DX2                !
 ! A14   A(5,6,7)              121.0117         estimate D2E/DX2                !
 ! A15   A(5,6,52)             118.697          estimate D2E/DX2                !
 ! A16   A(7,6,52)             120.2914         estimate D2E/DX2                !
 ! A17   A(6,7,8)              120.6143         estimate D2E/DX2                !
 ! A18   A(6,7,53)             120.2004         estimate D2E/DX2                !
 ! A19   A(8,7,53)             119.1851         estimate D2E/DX2                !
 ! A20   A(7,8,9)              120.1943         estimate D2E/DX2                !
 ! A21   A(7,8,54)             119.2425         estimate D2E/DX2                !
 ! A22   A(9,8,54)             120.5624         estimate D2E/DX2                !
 ! A23   A(8,9,10)             120.9986         estimate D2E/DX2                !
 ! A24   A(8,9,55)             120.8476         estimate D2E/DX2                !
 ! A25   A(10,9,55)            118.1538         estimate D2E/DX2                !
 ! A26   A(5,10,9)             118.8602         estimate D2E/DX2                !
 ! A27   A(5,10,11)            119.5161         estimate D2E/DX2                !
 ! A28   A(9,10,11)            121.6235         estimate D2E/DX2                !
 ! A29   A(10,11,12)           121.5612         estimate D2E/DX2                !
 ! A30   A(10,11,56)           119.2296         estimate D2E/DX2                !
 ! A31   A(12,11,56)           119.2091         estimate D2E/DX2                !
 ! A32   A(11,12,13)           121.7482         estimate D2E/DX2                !
 ! A33   A(11,12,17)           119.3948         estimate D2E/DX2                !
 ! A34   A(13,12,17)           118.8562         estimate D2E/DX2                !
 ! A35   A(12,13,14)           121.018          estimate D2E/DX2                !
 ! A36   A(12,13,57)           118.1342         estimate D2E/DX2                !
 ! A37   A(14,13,57)           120.8475         estimate D2E/DX2                !
 ! A38   A(13,14,15)           120.2157         estimate D2E/DX2                !
 ! A39   A(13,14,58)           120.5501         estimate D2E/DX2                !
 ! A40   A(15,14,58)           119.2329         estimate D2E/DX2                !
 ! A41   A(14,15,16)           120.596          estimate D2E/DX2                !
 ! A42   A(14,15,59)           119.2509         estimate D2E/DX2                !
 ! A43   A(16,15,59)           120.1528         estimate D2E/DX2                !
 ! A44   A(15,16,17)           121.0265         estimate D2E/DX2                !
 ! A45   A(15,16,60)           120.0598         estimate D2E/DX2                !
 ! A46   A(17,16,60)           118.9124         estimate D2E/DX2                !
 ! A47   A(4,17,12)            119.4523         estimate D2E/DX2                !
 ! A48   A(4,17,16)            122.2626         estimate D2E/DX2                !
 ! A49   A(12,17,16)           118.2768         estimate D2E/DX2                !
 ! A50   A(3,18,19)            121.4979         estimate D2E/DX2                !
 ! A51   A(3,18,61)            119.384          estimate D2E/DX2                !
 ! A52   A(19,18,61)           119.1136         estimate D2E/DX2                !
 ! A53   A(18,19,20)           121.9573         estimate D2E/DX2                !
 ! A54   A(18,19,24)           118.9829         estimate D2E/DX2                !
 ! A55   A(20,19,24)           119.0577         estimate D2E/DX2                !
 ! A56   A(19,20,21)           120.7023         estimate D2E/DX2                !
 ! A57   A(19,20,62)           118.544          estimate D2E/DX2                !
 ! A58   A(21,20,62)           120.7537         estimate D2E/DX2                !
 ! A59   A(20,21,22)           120.2238         estimate D2E/DX2                !
 ! A60   A(20,21,63)           120.3324         estimate D2E/DX2                !
 ! A61   A(22,21,63)           119.4438         estimate D2E/DX2                !
 ! A62   A(21,22,23)           120.5279         estimate D2E/DX2                !
 ! A63   A(21,22,64)           119.3552         estimate D2E/DX2                !
 ! A64   A(23,22,64)           120.1169         estimate D2E/DX2                !
 ! A65   A(22,23,24)           120.6031         estimate D2E/DX2                !
 ! A66   A(22,23,65)           120.6933         estimate D2E/DX2                !
 ! A67   A(24,23,65)           118.7035         estimate D2E/DX2                !
 ! A68   A(19,24,23)           118.8851         estimate D2E/DX2                !
 ! A69   A(19,24,25)           119.279          estimate D2E/DX2                !
 ! A70   A(23,24,25)           121.8359         estimate D2E/DX2                !
 ! A71   A(2,25,24)            120.1983         estimate D2E/DX2                !
 ! A72   A(2,25,26)            118.8196         estimate D2E/DX2                !
 ! A73   A(24,25,26)           120.9725         estimate D2E/DX2                !
 ! A74   A(25,26,27)           119.7167         estimate D2E/DX2                !
 ! A75   A(25,26,50)           119.8834         estimate D2E/DX2                !
 ! A76   A(27,26,50)           120.3878         estimate D2E/DX2                !
 ! A77   A(26,27,28)           122.1001         estimate D2E/DX2                !
 ! A78   A(26,27,29)           120.5873         estimate D2E/DX2                !
 ! A79   A(28,27,29)           117.3046         estimate D2E/DX2                !
 ! A80   A(27,28,66)           108.8612         estimate D2E/DX2                !
 ! A81   A(27,29,30)           119.0467         estimate D2E/DX2                !
 ! A82   A(27,29,44)           119.367          estimate D2E/DX2                !
 ! A83   A(30,29,44)           121.5861         estimate D2E/DX2                !
 ! A84   A(29,30,31)           119.8182         estimate D2E/DX2                !
 ! A85   A(29,30,43)           119.4775         estimate D2E/DX2                !
 ! A86   A(31,30,43)           120.7043         estimate D2E/DX2                !
 ! A87   A(30,31,32)           122.3803         estimate D2E/DX2                !
 ! A88   A(30,31,36)           119.4383         estimate D2E/DX2                !
 ! A89   A(32,31,36)           118.1761         estimate D2E/DX2                !
 ! A90   A(31,32,33)           121.1378         estimate D2E/DX2                !
 ! A91   A(31,32,67)           118.5947         estimate D2E/DX2                !
 ! A92   A(33,32,67)           120.2673         estimate D2E/DX2                !
 ! A93   A(32,33,34)           120.5868         estimate D2E/DX2                !
 ! A94   A(32,33,68)           120.2855         estimate D2E/DX2                !
 ! A95   A(34,33,68)           119.1275         estimate D2E/DX2                !
 ! A96   A(33,34,35)           120.1311         estimate D2E/DX2                !
 ! A97   A(33,34,69)           119.2638         estimate D2E/DX2                !
 ! A98   A(35,34,69)           120.6041         estimate D2E/DX2                !
 ! A99   A(34,35,36)           121.0651         estimate D2E/DX2                !
 ! A100  A(34,35,70)           120.7616         estimate D2E/DX2                !
 ! A101  A(36,35,70)           118.1732         estimate D2E/DX2                !
 ! A102  A(31,36,35)           118.8918         estimate D2E/DX2                !
 ! A103  A(31,36,37)           119.4781         estimate D2E/DX2                !
 ! A104  A(35,36,37)           121.6297         estimate D2E/DX2                !
 ! A105  A(36,37,38)           121.4388         estimate D2E/DX2                !
 ! A106  A(36,37,71)           119.2661         estimate D2E/DX2                !
 ! A107  A(38,37,71)           119.2951         estimate D2E/DX2                !
 ! A108  A(37,38,39)           121.6261         estimate D2E/DX2                !
 ! A109  A(37,38,43)           119.487          estimate D2E/DX2                !
 ! A110  A(39,38,43)           118.8861         estimate D2E/DX2                !
 ! A111  A(38,39,40)           120.9909         estimate D2E/DX2                !
 ! A112  A(38,39,72)           118.2097         estimate D2E/DX2                !
 ! A113  A(40,39,72)           120.7994         estimate D2E/DX2                !
 ! A114  A(39,40,41)           120.171          estimate D2E/DX2                !
 ! A115  A(39,40,73)           120.5532         estimate D2E/DX2                !
 ! A116  A(41,40,73)           119.2749         estimate D2E/DX2                !
 ! A117  A(40,41,42)           120.6407         estimate D2E/DX2                !
 ! A118  A(40,41,74)           119.1233         estimate D2E/DX2                !
 ! A119  A(42,41,74)           120.2355         estimate D2E/DX2                !
 ! A120  A(41,42,43)           120.9908         estimate D2E/DX2                !
 ! A121  A(41,42,75)           120.1529         estimate D2E/DX2                !
 ! A122  A(43,42,75)           118.8562         estimate D2E/DX2                !
 ! A123  A(30,43,38)           119.4502         estimate D2E/DX2                !
 ! A124  A(30,43,42)           122.2349         estimate D2E/DX2                !
 ! A125  A(38,43,42)           118.3084         estimate D2E/DX2                !
 ! A126  A(29,44,45)           121.5722         estimate D2E/DX2                !
 ! A127  A(29,44,76)           119.3828         estimate D2E/DX2                !
 ! A128  A(45,44,76)           119.0427         estimate D2E/DX2                !
 ! A129  A(44,45,46)           121.9302         estimate D2E/DX2                !
 ! A130  A(44,45,50)           119.0067         estimate D2E/DX2                !
 ! A131  A(46,45,50)           119.063          estimate D2E/DX2                !
 ! A132  A(45,46,47)           120.8206         estimate D2E/DX2                !
 ! A133  A(45,46,77)           118.5217         estimate D2E/DX2                !
 ! A134  A(47,46,77)           120.6576         estimate D2E/DX2                !
 ! A135  A(46,47,48)           120.1163         estimate D2E/DX2                !
 ! A136  A(46,47,78)           120.4136         estimate D2E/DX2                !
 ! A137  A(48,47,78)           119.47           estimate D2E/DX2                !
 ! A138  A(47,48,49)           120.4757         estimate D2E/DX2                !
 ! A139  A(47,48,79)           119.3816         estimate D2E/DX2                !
 ! A140  A(49,48,79)           120.1427         estimate D2E/DX2                !
 ! A141  A(48,49,50)           120.764          estimate D2E/DX2                !
 ! A142  A(48,49,80)           120.3282         estimate D2E/DX2                !
 ! A143  A(50,49,80)           118.9068         estimate D2E/DX2                !
 ! A144  A(26,50,45)           119.0782         estimate D2E/DX2                !
 ! A145  A(26,50,49)           122.1614         estimate D2E/DX2                !
 ! A146  A(45,50,49)           118.76           estimate D2E/DX2                !
 ! D1    D(51,1,2,3)            -4.0062         estimate D2E/DX2                !
 ! D2    D(51,1,2,25)          176.3813         estimate D2E/DX2                !
 ! D3    D(1,2,3,4)              2.8156         estimate D2E/DX2                !
 ! D4    D(1,2,3,18)          -178.1745         estimate D2E/DX2                !
 ! D5    D(25,2,3,4)          -177.58           estimate D2E/DX2                !
 ! D6    D(25,2,3,18)            1.4299         estimate D2E/DX2                !
 ! D7    D(1,2,25,24)          178.2607         estimate D2E/DX2                !
 ! D8    D(1,2,25,26)           -2.8559         estimate D2E/DX2                !
 ! D9    D(3,2,25,24)           -1.3539         estimate D2E/DX2                !
 ! D10   D(3,2,25,26)          177.5295         estimate D2E/DX2                !
 ! D11   D(2,3,4,5)           -109.5552         estimate D2E/DX2                !
 ! D12   D(2,3,4,17)            70.6957         estimate D2E/DX2                !
 ! D13   D(18,3,4,5)            71.4516         estimate D2E/DX2                !
 ! D14   D(18,3,4,17)         -108.2975         estimate D2E/DX2                !
 ! D15   D(2,3,18,19)           -0.4544         estimate D2E/DX2                !
 ! D16   D(2,3,18,61)         -179.6794         estimate D2E/DX2                !
 ! D17   D(4,3,18,19)          178.5373         estimate D2E/DX2                !
 ! D18   D(4,3,18,61)           -0.6877         estimate D2E/DX2                !
 ! D19   D(3,4,5,6)              1.4294         estimate D2E/DX2                !
 ! D20   D(3,4,5,10)          -179.383          estimate D2E/DX2                !
 ! D21   D(17,4,5,6)          -178.8251         estimate D2E/DX2                !
 ! D22   D(17,4,5,10)            0.3626         estimate D2E/DX2                !
 ! D23   D(3,4,17,12)          179.8718         estimate D2E/DX2                !
 ! D24   D(3,4,17,16)            0.9378         estimate D2E/DX2                !
 ! D25   D(5,4,17,12)            0.1245         estimate D2E/DX2                !
 ! D26   D(5,4,17,16)         -178.8095         estimate D2E/DX2                !
 ! D27   D(4,5,6,7)           -179.7827         estimate D2E/DX2                !
 ! D28   D(4,5,6,52)             0.2213         estimate D2E/DX2                !
 ! D29   D(10,5,6,7)             1.0214         estimate D2E/DX2                !
 ! D30   D(10,5,6,52)         -178.9746         estimate D2E/DX2                !
 ! D31   D(4,5,10,9)           179.6164         estimate D2E/DX2                !
 ! D32   D(4,5,10,11)           -0.5659         estimate D2E/DX2                !
 ! D33   D(6,5,10,9)            -1.1634         estimate D2E/DX2                !
 ! D34   D(6,5,10,11)          178.6543         estimate D2E/DX2                !
 ! D35   D(5,6,7,8)             -0.1842         estimate D2E/DX2                !
 ! D36   D(5,6,7,53)           179.9735         estimate D2E/DX2                !
 ! D37   D(52,6,7,8)           179.8118         estimate D2E/DX2                !
 ! D38   D(52,6,7,53)           -0.0305         estimate D2E/DX2                !
 ! D39   D(6,7,8,9)             -0.5236         estimate D2E/DX2                !
 ! D40   D(6,7,8,54)           179.7917         estimate D2E/DX2                !
 ! D41   D(53,7,8,9)           179.3203         estimate D2E/DX2                !
 ! D42   D(53,7,8,54)           -0.3644         estimate D2E/DX2                !
 ! D43   D(7,8,9,10)             0.3547         estimate D2E/DX2                !
 ! D44   D(7,8,9,55)          -179.5451         estimate D2E/DX2                !
 ! D45   D(54,8,9,10)         -179.9648         estimate D2E/DX2                !
 ! D46   D(54,8,9,55)            0.1353         estimate D2E/DX2                !
 ! D47   D(8,9,10,5)             0.4962         estimate D2E/DX2                !
 ! D48   D(8,9,10,11)         -179.3176         estimate D2E/DX2                !
 ! D49   D(55,9,10,5)         -179.6013         estimate D2E/DX2                !
 ! D50   D(55,9,10,11)           0.5849         estimate D2E/DX2                !
 ! D51   D(5,10,11,12)           0.2796         estimate D2E/DX2                !
 ! D52   D(5,10,11,56)        -179.8535         estimate D2E/DX2                !
 ! D53   D(9,10,11,12)        -179.9078         estimate D2E/DX2                !
 ! D54   D(9,10,11,56)          -0.0409         estimate D2E/DX2                !
 ! D55   D(10,11,12,13)        179.8857         estimate D2E/DX2                !
 ! D56   D(10,11,12,17)          0.2102         estimate D2E/DX2                !
 ! D57   D(56,11,12,13)          0.0187         estimate D2E/DX2                !
 ! D58   D(56,11,12,17)       -179.6568         estimate D2E/DX2                !
 ! D59   D(11,12,13,14)       -179.2525         estimate D2E/DX2                !
 ! D60   D(11,12,13,57)          0.5694         estimate D2E/DX2                !
 ! D61   D(17,12,13,14)          0.4248         estimate D2E/DX2                !
 ! D62   D(17,12,13,57)       -179.7533         estimate D2E/DX2                !
 ! D63   D(11,12,17,4)          -0.414          estimate D2E/DX2                !
 ! D64   D(11,12,17,16)        178.5624         estimate D2E/DX2                !
 ! D65   D(13,12,17,4)         179.901          estimate D2E/DX2                !
 ! D66   D(13,12,17,16)         -1.1225         estimate D2E/DX2                !
 ! D67   D(12,13,14,15)          0.3903         estimate D2E/DX2                !
 ! D68   D(12,13,14,58)        179.9717         estimate D2E/DX2                !
 ! D69   D(57,13,14,15)       -179.4268         estimate D2E/DX2                !
 ! D70   D(57,13,14,58)          0.1546         estimate D2E/DX2                !
 ! D71   D(13,14,15,16)         -0.4898         estimate D2E/DX2                !
 ! D72   D(13,14,15,59)        179.3166         estimate D2E/DX2                !
 ! D73   D(58,14,15,16)        179.9232         estimate D2E/DX2                !
 ! D74   D(58,14,15,59)         -0.2704         estimate D2E/DX2                !
 ! D75   D(14,15,16,17)         -0.249          estimate D2E/DX2                !
 ! D76   D(14,15,16,60)        179.3413         estimate D2E/DX2                !
 ! D77   D(59,15,16,17)        179.9464         estimate D2E/DX2                !
 ! D78   D(59,15,16,60)         -0.4633         estimate D2E/DX2                !
 ! D79   D(15,16,17,4)         179.9939         estimate D2E/DX2                !
 ! D80   D(15,16,17,12)          1.048          estimate D2E/DX2                !
 ! D81   D(60,16,17,4)           0.3991         estimate D2E/DX2                !
 ! D82   D(60,16,17,12)       -178.5469         estimate D2E/DX2                !
 ! D83   D(3,18,19,20)         179.9678         estimate D2E/DX2                !
 ! D84   D(3,18,19,24)          -0.5661         estimate D2E/DX2                !
 ! D85   D(61,18,19,20)         -0.8051         estimate D2E/DX2                !
 ! D86   D(61,18,19,24)        178.6609         estimate D2E/DX2                !
 ! D87   D(18,19,20,21)        179.401          estimate D2E/DX2                !
 ! D88   D(18,19,20,62)         -0.5696         estimate D2E/DX2                !
 ! D89   D(24,19,20,21)         -0.0646         estimate D2E/DX2                !
 ! D90   D(24,19,20,62)        179.9647         estimate D2E/DX2                !
 ! D91   D(18,19,24,23)       -179.3399         estimate D2E/DX2                !
 ! D92   D(18,19,24,25)          0.6385         estimate D2E/DX2                !
 ! D93   D(20,19,24,23)          0.1419         estimate D2E/DX2                !
 ! D94   D(20,19,24,25)       -179.8798         estimate D2E/DX2                !
 ! D95   D(19,20,21,22)         -0.0474         estimate D2E/DX2                !
 ! D96   D(19,20,21,63)       -179.9734         estimate D2E/DX2                !
 ! D97   D(62,20,21,22)        179.9226         estimate D2E/DX2                !
 ! D98   D(62,20,21,63)         -0.0034         estimate D2E/DX2                !
 ! D99   D(20,21,22,23)          0.0818         estimate D2E/DX2                !
 ! D100  D(20,21,22,64)       -179.9237         estimate D2E/DX2                !
 ! D101  D(63,21,22,23)       -179.9916         estimate D2E/DX2                !
 ! D102  D(63,21,22,64)          0.0029         estimate D2E/DX2                !
 ! D103  D(21,22,23,24)         -0.0012         estimate D2E/DX2                !
 ! D104  D(21,22,23,65)       -179.9383         estimate D2E/DX2                !
 ! D105  D(64,22,23,24)       -179.9957         estimate D2E/DX2                !
 ! D106  D(64,22,23,65)          0.0673         estimate D2E/DX2                !
 ! D107  D(22,23,24,19)         -0.1101         estimate D2E/DX2                !
 ! D108  D(22,23,24,25)        179.9121         estimate D2E/DX2                !
 ! D109  D(65,23,24,19)        179.8282         estimate D2E/DX2                !
 ! D110  D(65,23,24,25)         -0.1496         estimate D2E/DX2                !
 ! D111  D(19,24,25,2)           0.3157         estimate D2E/DX2                !
 ! D112  D(19,24,25,26)       -178.5433         estimate D2E/DX2                !
 ! D113  D(23,24,25,2)        -179.7066         estimate D2E/DX2                !
 ! D114  D(23,24,25,26)          1.4344         estimate D2E/DX2                !
 ! D115  D(2,25,26,27)          85.9783         estimate D2E/DX2                !
 ! D116  D(2,25,26,50)         -92.759          estimate D2E/DX2                !
 ! D117  D(24,25,26,27)        -95.1473         estimate D2E/DX2                !
 ! D118  D(24,25,26,50)         86.1154         estimate D2E/DX2                !
 ! D119  D(25,26,27,28)          2.4128         estimate D2E/DX2                !
 ! D120  D(25,26,27,29)       -178.6405         estimate D2E/DX2                !
 ! D121  D(50,26,27,28)       -178.8565         estimate D2E/DX2                !
 ! D122  D(50,26,27,29)          0.0903         estimate D2E/DX2                !
 ! D123  D(25,26,50,45)        178.8636         estimate D2E/DX2                !
 ! D124  D(25,26,50,49)         -1.387          estimate D2E/DX2                !
 ! D125  D(27,26,50,45)          0.1349         estimate D2E/DX2                !
 ! D126  D(27,26,50,49)        179.8844         estimate D2E/DX2                !
 ! D127  D(26,27,28,66)         -2.873          estimate D2E/DX2                !
 ! D128  D(29,27,28,66)        178.1474         estimate D2E/DX2                !
 ! D129  D(26,27,29,30)        179.5511         estimate D2E/DX2                !
 ! D130  D(26,27,29,44)         -0.2903         estimate D2E/DX2                !
 ! D131  D(28,27,29,30)         -1.453          estimate D2E/DX2                !
 ! D132  D(28,27,29,44)        178.7056         estimate D2E/DX2                !
 ! D133  D(27,29,30,31)        109.2278         estimate D2E/DX2                !
 ! D134  D(27,29,30,43)        -70.7426         estimate D2E/DX2                !
 ! D135  D(44,29,30,31)        -70.9345         estimate D2E/DX2                !
 ! D136  D(44,29,30,43)        109.0951         estimate D2E/DX2                !
 ! D137  D(27,29,44,45)          0.2632         estimate D2E/DX2                !
 ! D138  D(27,29,44,76)        179.7124         estimate D2E/DX2                !
 ! D139  D(30,29,44,45)       -179.574          estimate D2E/DX2                !
 ! D140  D(30,29,44,76)         -0.1248         estimate D2E/DX2                !
 ! D141  D(29,30,31,32)         -1.117          estimate D2E/DX2                !
 ! D142  D(29,30,31,36)        179.7348         estimate D2E/DX2                !
 ! D143  D(43,30,31,32)        178.8531         estimate D2E/DX2                !
 ! D144  D(43,30,31,36)         -0.2951         estimate D2E/DX2                !
 ! D145  D(29,30,43,38)        179.7262         estimate D2E/DX2                !
 ! D146  D(29,30,43,42)         -1.2183         estimate D2E/DX2                !
 ! D147  D(31,30,43,38)         -0.2439         estimate D2E/DX2                !
 ! D148  D(31,30,43,42)        178.8116         estimate D2E/DX2                !
 ! D149  D(30,31,32,33)        179.8004         estimate D2E/DX2                !
 ! D150  D(30,31,32,67)         -0.3439         estimate D2E/DX2                !
 ! D151  D(36,31,32,33)         -1.0412         estimate D2E/DX2                !
 ! D152  D(36,31,32,67)        178.8145         estimate D2E/DX2                !
 ! D153  D(30,31,36,35)       -179.6571         estimate D2E/DX2                !
 ! D154  D(30,31,36,37)          0.5462         estimate D2E/DX2                !
 ! D155  D(32,31,36,35)          1.159          estimate D2E/DX2                !
 ! D156  D(32,31,36,37)       -178.6377         estimate D2E/DX2                !
 ! D157  D(31,32,33,34)          0.2046         estimate D2E/DX2                !
 ! D158  D(31,32,33,68)       -179.9556         estimate D2E/DX2                !
 ! D159  D(67,32,33,34)       -179.6487         estimate D2E/DX2                !
 ! D160  D(67,32,33,68)          0.1911         estimate D2E/DX2                !
 ! D161  D(32,33,34,35)          0.5283         estimate D2E/DX2                !
 ! D162  D(32,33,34,69)       -179.8285         estimate D2E/DX2                !
 ! D163  D(68,33,34,35)       -179.3132         estimate D2E/DX2                !
 ! D164  D(68,33,34,69)          0.33           estimate D2E/DX2                !
 ! D165  D(33,34,35,36)         -0.3836         estimate D2E/DX2                !
 ! D166  D(33,34,35,70)        179.4821         estimate D2E/DX2                !
 ! D167  D(69,34,35,36)        179.978          estimate D2E/DX2                !
 ! D168  D(69,34,35,70)         -0.1563         estimate D2E/DX2                !
 ! D169  D(34,35,36,31)         -0.4689         estimate D2E/DX2                !
 ! D170  D(34,35,36,37)        179.3232         estimate D2E/DX2                !
 ! D171  D(70,35,36,31)        179.662          estimate D2E/DX2                !
 ! D172  D(70,35,36,37)         -0.5459         estimate D2E/DX2                !
 ! D173  D(31,36,37,38)         -0.2529         estimate D2E/DX2                !
 ! D174  D(31,36,37,71)        179.6998         estimate D2E/DX2                !
 ! D175  D(35,36,37,38)        179.9562         estimate D2E/DX2                !
 ! D176  D(35,36,37,71)         -0.0912         estimate D2E/DX2                !
 ! D177  D(36,37,38,39)       -179.9664         estimate D2E/DX2                !
 ! D178  D(36,37,38,43)         -0.2887         estimate D2E/DX2                !
 ! D179  D(71,37,38,39)          0.081          estimate D2E/DX2                !
 ! D180  D(71,37,38,43)        179.7587         estimate D2E/DX2                !
 ! D181  D(37,38,39,40)        179.3535         estimate D2E/DX2                !
 ! D182  D(37,38,39,72)         -0.5662         estimate D2E/DX2                !
 ! D183  D(43,38,39,40)         -0.3261         estimate D2E/DX2                !
 ! D184  D(43,38,39,72)        179.7543         estimate D2E/DX2                !
 ! D185  D(37,38,43,30)          0.5385         estimate D2E/DX2                !
 ! D186  D(37,38,43,42)       -178.5541         estimate D2E/DX2                !
 ! D187  D(39,38,43,30)       -179.775          estimate D2E/DX2                !
 ! D188  D(39,38,43,42)          1.1324         estimate D2E/DX2                !
 ! D189  D(38,39,40,41)         -0.44           estimate D2E/DX2                !
 ! D190  D(38,39,40,73)        179.9106         estimate D2E/DX2                !
 ! D191  D(72,39,40,41)        179.4776         estimate D2E/DX2                !
 ! D192  D(72,39,40,73)         -0.1718         estimate D2E/DX2                !
 ! D193  D(39,40,41,42)          0.3771         estimate D2E/DX2                !
 ! D194  D(39,40,41,74)       -179.3745         estimate D2E/DX2                !
 ! D195  D(73,40,41,42)       -179.9691         estimate D2E/DX2                !
 ! D196  D(73,40,41,74)          0.2793         estimate D2E/DX2                !
 ! D197  D(40,41,42,43)          0.4724         estimate D2E/DX2                !
 ! D198  D(40,41,42,75)       -179.4549         estimate D2E/DX2                !
 ! D199  D(74,41,42,43)       -179.7787         estimate D2E/DX2                !
 ! D200  D(74,41,42,75)          0.294          estimate D2E/DX2                !
 ! D201  D(41,42,43,30)        179.7165         estimate D2E/DX2                !
 ! D202  D(41,42,43,38)         -1.2176         estimate D2E/DX2                !
 ! D203  D(75,42,43,30)         -0.3553         estimate D2E/DX2                !
 ! D204  D(75,42,43,38)        178.7106         estimate D2E/DX2                !
 ! D205  D(29,44,45,46)        179.8993         estimate D2E/DX2                !
 ! D206  D(29,44,45,50)         -0.0387         estimate D2E/DX2                !
 ! D207  D(76,44,45,46)          0.4483         estimate D2E/DX2                !
 ! D208  D(76,44,45,50)       -179.4897         estimate D2E/DX2                !
 ! D209  D(44,45,46,47)       -179.9142         estimate D2E/DX2                !
 ! D210  D(44,45,46,77)          0.0703         estimate D2E/DX2                !
 ! D211  D(50,45,46,47)          0.0238         estimate D2E/DX2                !
 ! D212  D(50,45,46,77)       -179.9917         estimate D2E/DX2                !
 ! D213  D(44,45,50,26)         -0.1619         estimate D2E/DX2                !
 ! D214  D(44,45,50,49)       -179.9199         estimate D2E/DX2                !
 ! D215  D(46,45,50,26)        179.8983         estimate D2E/DX2                !
 ! D216  D(46,45,50,49)          0.1402         estimate D2E/DX2                !
 ! D217  D(45,46,47,48)         -0.1293         estimate D2E/DX2                !
 ! D218  D(45,46,47,78)        179.9351         estimate D2E/DX2                !
 ! D219  D(77,46,47,48)        179.8865         estimate D2E/DX2                !
 ! D220  D(77,46,47,78)         -0.049          estimate D2E/DX2                !
 ! D221  D(46,47,48,49)          0.0675         estimate D2E/DX2                !
 ! D222  D(46,47,48,79)       -179.8289         estimate D2E/DX2                !
 ! D223  D(78,47,48,49)       -179.9963         estimate D2E/DX2                !
 ! D224  D(78,47,48,79)          0.1072         estimate D2E/DX2                !
 ! D225  D(47,48,49,50)          0.1012         estimate D2E/DX2                !
 ! D226  D(47,48,49,80)       -179.5484         estimate D2E/DX2                !
 ! D227  D(79,48,49,50)        179.9969         estimate D2E/DX2                !
 ! D228  D(79,48,49,80)          0.3472         estimate D2E/DX2                !
 ! D229  D(48,49,50,26)       -179.9536         estimate D2E/DX2                !
 ! D230  D(48,49,50,45)         -0.2034         estimate D2E/DX2                !
 ! D231  D(80,49,50,26)         -0.299          estimate D2E/DX2                !
 ! D232  D(80,49,50,45)        179.4512         estimate D2E/DX2                !
 --------------------------------------------------------------------------------
 Trust Radius=3.00D-01 FncErr=1.00D-07 GrdErr=1.00D-06 EigMax=2.50D+02 EigMin=1.00D-04
 Number of steps in this run=    477 maximum allowed number of steps=    480.
 GradGradGradGradGradGradGradGradGradGradGradGradGradGradGradGradGradGrad

 Leave Link  103 at Wed Jul 31 22:00:12 2024, MaxMem= 13421772800 cpu:               0.8 elap:               0.0
 (Enter /public/software/apps/Gaussian/g16/l202.exe)
 Symmetry turned off by external request.
 Stoichiometry    C48H30O2
 Framework group  C1[X(C48H30O2)]
 Deg. of freedom   234
 Full point group                 C1      NOp   1
                          Input orientation:                          
 ---------------------------------------------------------------------
 Center     Atomic      Atomic             Coordinates (Angstroms)
 Number     Number       Type             X           Y           Z
 ---------------------------------------------------------------------
      1          8           0       -1.379357   -0.473274    0.910207
      2          6           0       -1.604605    0.333172   -0.163333
      3          6           0       -2.826438    0.272097   -0.880090
      4          6           0       -3.896822   -0.640165   -0.414333
      5          6           0       -4.214008   -1.787141   -1.157570
      6          6           0       -3.521463   -2.136461   -2.346024
      7          6           0       -3.854232   -3.253558   -3.049056
      8          6           0       -4.896708   -4.095255   -2.608802
      9          6           0       -5.575680   -3.803339   -1.466674
     10          6           0       -5.258543   -2.651196   -0.702488
     11          6           0       -5.935095   -2.347700    0.474959
     12          6           0       -5.624260   -1.216328    1.222459
     13          6           0       -6.312958   -0.901869    2.422020
     14          6           0       -6.006941    0.216605    3.133521
     15          6           0       -4.997634    1.091638    2.681037
     16          6           0       -4.311800    0.825024    1.536163
     17          6           0       -4.588552   -0.339614    0.771142
     18          6           0       -3.005150    1.071891   -1.978907
     19          6           0       -2.004457    1.963785   -2.410293
     20          6           0       -2.177697    2.790336   -3.539447
     21          6           0       -1.194088    3.655501   -3.928274
     22          6           0        0.005840    3.732708   -3.204108
     23          6           0        0.205510    2.944903   -2.105556
     24          6           0       -0.790126    2.040413   -1.679748
     25          6           0       -0.610134    1.210570   -0.546439
     26          6           0        0.632671    1.282758    0.264411
     27          6           0        1.664163    0.405721    0.012376
     28          8           0        1.607733   -0.506091   -0.995431
     29          6           0        2.846836    0.439329    0.793543
     30          6           0        3.928500   -0.524300    0.499883
     31          6           0        5.123792   -0.075452   -0.079193
     32          6           0        5.337680    1.284863   -0.423738
     33          6           0        6.510148    1.693751   -0.981389
     34          6           0        7.544760    0.769538   -1.235547
     35          6           0        7.374600   -0.545907   -0.933944
     36          6           0        6.167128   -1.013873   -0.354615
     37          6           0        5.975263   -2.358405   -0.054285
     38          6           0        4.789800   -2.812867    0.514663
     39          6           0        4.590173   -4.182899    0.823186
     40          6           0        3.430764   -4.611208    1.391390
     41          6           0        2.406352   -3.689894    1.692487
     42          6           0        2.559415   -2.366413    1.413116
     43          6           0        3.745641   -1.880551    0.804319
     44          6           0        2.959599    1.358709    1.802009
     45          6           0        1.924659    2.271374    2.087421
     46          6           0        2.031848    3.219401    3.124916
     47          6           0        1.012899    4.093121    3.383238
     48          6           0       -0.157783    4.057202    2.611278
     49          6           0       -0.291965    3.150489    1.597197
     50          6           0        0.739816    2.233569    1.308160
     51          1           0       -2.175577   -0.988977    1.096501
     52          1           0       -2.720096   -1.497096   -2.686347
     53          1           0       -3.318695   -3.506753   -3.952090
     54          1           0       -5.144428   -4.974085   -3.185523
     55          1           0       -6.371358   -4.444826   -1.115739
     56          1           0       -6.722390   -3.005431    0.815986
     57          1           0       -7.090638   -1.574483    2.754392
     58          1           0       -6.536432    0.448948    4.045583
     59          1           0       -4.775103    1.980640    3.252060
     60          1           0       -3.547812    1.506611    1.191934
     61          1           0       -3.939229    1.027589   -2.520777
     62          1           0       -3.105398    2.724781   -4.089976
     63          1           0       -1.333296    4.286182   -4.793884
     64          1           0        0.773309    4.422292   -3.523140
     65          1           0        1.127451    3.002838   -1.545744
     66          1           0        0.744433   -0.443387   -1.425560
     67          1           0        4.546641    1.996088   -0.236540
     68          1           0        6.658499    2.732896   -1.237632
     69          1           0        8.467644    1.117893   -1.676303
     70          1           0        8.157647   -1.264392   -1.132118
     71          1           0        6.764790   -3.065951   -0.268541
     72          1           0        5.385427   -4.879079    0.595819
     73          1           0        3.285631   -5.656866    1.622159
     74          1           0        1.496490   -4.047097    2.152993
     75          1           0        1.773475   -1.666549    1.655043
     76          1           0        3.859203    1.381475    2.400735
     77          1           0        2.938460    3.240588    3.713047
     78          1           0        1.101636    4.816365    4.180731
     79          1           0       -0.954678    4.755201    2.823997
     80          1           0       -1.191856    3.129727    0.999326
 ---------------------------------------------------------------------
 Rotational constants (GHZ):           0.0886554           0.0408410           0.0367546
 Leave Link  202 at Wed Jul 31 22:00:12 2024, MaxMem= 13421772800 cpu:               0.4 elap:               0.0
 (Enter /public/software/apps/Gaussian/g16/l301.exe)
 Standard basis: def2SVPP (5D, 7F)
 Ernie: Thresh=  0.10000D-02 Tol=  0.10000D-05 Strict=F.
   760 basis functions,  1370 primitive gaussians,   810 cartesian basis functions
   167 alpha electrons      167 beta electrons
       nuclear repulsion energy      5900.9889529285 Hartrees.
 IExCor=  402 DFT=T Ex+Corr=B3LYP ExCW=0 ScaHFX=  0.200000
 ScaDFX=  0.800000  0.720000  1.000000  0.810000 ScalE2=  1.000000  1.000000
 IRadAn=      5 IRanWt=     -1 IRanGd=            0 ICorTp=0 IEmpDi=141
 NAtoms=   80 NActive=   80 NUniq=   80 SFac= 1.00D+00 NAtFMM=   60 NAOKFM=T Big=T
 Integral buffers will be    131072 words long.
 Raffenetti 2 integral format.
 Two-electron integral symmetry is turned off.
 R6Disp:  Grimme-D3(BJ) Dispersion energy=       -0.2318556840 Hartrees.
 Nuclear repulsion after empirical dispersion term =     5900.7570972445 Hartrees.
 Leave Link  301 at Wed Jul 31 22:00:12 2024, MaxMem= 13421772800 cpu:               0.7 elap:               0.0
 (Enter /public/software/apps/Gaussian/g16/l302.exe)
 NPDir=0 NMtPBC=     1 NCelOv=     1 NCel=       1 NClECP=     1 NCelD=      1
         NCelK=      1 NCelE2=     1 NClLst=     1 CellRange=     0.0.
 One-electron integrals computed using PRISM.
   1 Symmetry operations used in ECPInt.
 ECPInt:  NShTT=   64980 NPrTT=  260300 LenC2=   51165 LenP2D=  123973.
 LDataN:  DoStor=T MaxTD1= 4 Len=   56
 NBasis=   760 RedAO= T EigKep=  1.41D-04  NBF=   760
 NBsUse=   760 1.00D-06 EigRej= -1.00D+00 NBFU=   760
 Precomputing XC quadrature grid using
 IXCGrd= 4 IRadAn=           5 IRanWt=          -1 IRanGd=           0 AccXCQ= 0.00D+00.
 Generated NRdTot=       0 NPtTot=           0 NUsed=           0 NTot=          32
 NSgBfM=   793   786   792   793   793 MxSgAt=    80 MxSgA2=    80.
 Leave Link  302 at Wed Jul 31 22:00:14 2024, MaxMem= 13421772800 cpu:              34.1 elap:               1.1
 (Enter /public/software/apps/Gaussian/g16/l303.exe)
 DipDrv:  MaxL=1.
 Leave Link  303 at Wed Jul 31 22:00:14 2024, MaxMem= 13421772800 cpu:               4.7 elap:               0.2
 (Enter /public/software/apps/Gaussian/g16/l401.exe)
 ExpMin= 1.22D-01 ExpMax= 2.27D+03 ExpMxC= 3.41D+02 IAcc=3 IRadAn=         5 AccDes= 0.00D+00
 Harris functional with IExCor=  402 and IRadAn=       5 diagonalized for initial guess.
 HarFok:  IExCor=  402 AccDes= 0.00D+00 IRadAn=         5 IDoV= 1 UseB2=F ITyADJ=14
 ICtDFT=  3500011 ScaDFX=  1.000000  1.000000  1.000000  1.000000
 FoFCou: FMM=F IPFlag=           0 FMFlag=      100000 FMFlg1=        2001
         NFxFlg=           0 DoJE=T BraDBF=F KetDBF=T FulRan=T
         wScrn=  0.000000 ICntrl=       500 IOpCl=  0 I1Cent=   200000004 NGrid=           0
         NMat0=    1 NMatS0=      1 NMatT0=    0 NMatD0=    1 NMtDS0=    0 NMtDT0=    0
 Symmetry not used in FoFCou.
 Harris En= -1996.36178959084    
 JPrj=0 DoOrth=F DoCkMO=F.
 Leave Link  401 at Wed Jul 31 22:00:16 2024, MaxMem= 13421772800 cpu:              76.1 elap:               2.4
 (Enter /public/software/apps/Gaussian/g16/l502.exe)
 Two-electron integral symmetry not used.
 Closed shell SCF:
 Using DIIS extrapolation, IDIIS=  1040.
 NGot= 13421772800 LenX= 13420426304 LenY= 13419769394
 Requested convergence on RMS density matrix=1.00D-08 within 128 cycles.
 Requested convergence on MAX density matrix=1.00D-06.
 Requested convergence on             energy=1.00D-06.
 No special actions if energy rises.
 Fock matrices will be formed incrementally for  20 cycles.
 Integral accuracy reduced to 1.0D-05 until final iterations.

 Cycle   1  Pass 0  IDiag  1:
 FoFJK:  IHMeth= 1 ICntrl=       0 DoSepK=F KAlg= 0 I1Cent=           0 FoldK=F
 IRaf= 890000000 NMat=       1 IRICut=       1 DoRegI=T DoRafI=F ISym2E= 0 IDoP0=0 IntGTp=1.
 FoFCou: FMM=T IPFlag=           0 FMFlag=      100000 FMFlg1=        2001
         NFxFlg=           0 DoJE=F BraDBF=F KetDBF=F FulRan=T
         wScrn=  0.000000 ICntrl=         0 IOpCl=  0 I1Cent=           0 NGrid=           0
         NMat0=    1 NMatS0=      1 NMatT0=    0 NMatD0=    1 NMtDS0=    0 NMtDT0=    0
 Symmetry not used in FoFCou.
 FMM levels:  10  Number of levels for PrismC:   9
 E= -1995.49120768830    
 DIIS: error= 3.26D-02 at cycle   1 NSaved=   1.
 NSaved= 1 IEnMin= 1 EnMin= -1995.49120768830     IErMin= 1 ErrMin= 3.26D-02
 ErrMax= 3.26D-02  0.00D+00 EMaxC= 1.00D-01 BMatC= 7.68D-01 BMatP= 7.68D-01
 IDIUse=3 WtCom= 6.74D-01 WtEn= 3.26D-01
 Coeff-Com:  0.100D+01
 Coeff-En:   0.100D+01
 Coeff:      0.100D+01
 Gap=     0.097 Goal=   None    Shift=    0.000
 GapD=    0.097 DampG=0.500 DampE=0.500 DampFc=0.2500 IDamp=-1.
 Damping current iteration by 2.50D-01
 RMSDP=4.93D-03 MaxDP=1.63D-01              OVMax= 1.79D-01

 Cycle   2  Pass 0  IDiag  1:
 RMSU=  1.07D-03    CP:  9.62D-01
 E= -1995.81031786453     Delta-E=       -0.319110176230 Rises=F Damp=T
 DIIS: error= 1.84D-02 at cycle   2 NSaved=   2.
 NSaved= 2 IEnMin= 2 EnMin= -1995.81031786453     IErMin= 2 ErrMin= 1.84D-02
 ErrMax= 1.84D-02  0.00D+00 EMaxC= 1.00D-01 BMatC= 2.28D-01 BMatP= 7.68D-01
 IDIUse=3 WtCom= 8.16D-01 WtEn= 1.84D-01
 Coeff-Com: -0.100D+01 0.200D+01
 Coeff-En:   0.000D+00 0.100D+01
 Coeff:     -0.819D+00 0.182D+01
 Gap=     0.111 Goal=   None    Shift=    0.000
 RMSDP=2.71D-03 MaxDP=1.10D-01 DE=-3.19D-01 OVMax= 1.70D-01

 Cycle   3  Pass 0  IDiag  1:
 RMSU=  1.49D-03    CP:  8.68D-01  2.56D+00
 E= -1996.33890329463     Delta-E=       -0.528585430098 Rises=F Damp=F
 DIIS: error= 6.76D-03 at cycle   3 NSaved=   3.
 NSaved= 3 IEnMin= 3 EnMin= -1996.33890329463     IErMin= 3 ErrMin= 6.76D-03
 ErrMax= 6.76D-03  0.00D+00 EMaxC= 1.00D-01 BMatC= 5.53D-02 BMatP= 2.28D-01
 IDIUse=3 WtCom= 9.32D-01 WtEn= 6.76D-02
 Coeff-Com: -0.546D+00 0.107D+01 0.476D+00
 Coeff-En:   0.000D+00 0.000D+00 0.100D+01
 Coeff:     -0.509D+00 0.998D+00 0.511D+00
 Gap=     0.106 Goal=   None    Shift=    0.000
 RMSDP=8.13D-04 MaxDP=4.58D-02 DE=-5.29D-01 OVMax= 1.20D-01

 Cycle   4  Pass 0  IDiag  1:
 RMSU=  7.10D-04    CP:  8.71D-01  2.61D+00  7.39D-01
 E= -1996.37914329276     Delta-E=       -0.040239998137 Rises=F Damp=F
 DIIS: error= 5.72D-03 at cycle   4 NSaved=   4.
 NSaved= 4 IEnMin= 4 EnMin= -1996.37914329276     IErMin= 4 ErrMin= 5.72D-03
 ErrMax= 5.72D-03  0.00D+00 EMaxC= 1.00D-01 BMatC= 2.06D-02 BMatP= 5.53D-02
 IDIUse=3 WtCom= 9.43D-01 WtEn= 5.72D-02
 Coeff-Com: -0.144D+00 0.288D+00 0.369D+00 0.487D+00
 Coeff-En:   0.000D+00 0.000D+00 0.324D+00 0.676D+00
 Coeff:     -0.136D+00 0.271D+00 0.367D+00 0.498D+00
 Gap=     0.106 Goal=   None    Shift=    0.000
 RMSDP=3.97D-04 MaxDP=1.84D-02 DE=-4.02D-02 OVMax= 7.44D-02

 Cycle   5  Pass 0  IDiag  1:
 RMSU=  2.32D-04    CP:  8.69D-01  2.61D+00  8.42D-01  6.06D-01
 E= -1996.40250463577     Delta-E=       -0.023361343007 Rises=F Damp=F
 DIIS: error= 1.85D-03 at cycle   5 NSaved=   5.
 NSaved= 5 IEnMin= 5 EnMin= -1996.40250463577     IErMin= 5 ErrMin= 1.85D-03
 ErrMax= 1.85D-03  0.00D+00 EMaxC= 1.00D-01 BMatC= 1.92D-03 BMatP= 2.06D-02
 IDIUse=3 WtCom= 9.81D-01 WtEn= 1.85D-02
 Coeff-Com: -0.333D-01 0.682D-01 0.184D+00 0.322D+00 0.459D+00
 Coeff-En:   0.000D+00 0.000D+00 0.000D+00 0.391D-01 0.961D+00
 Coeff:     -0.327D-01 0.669D-01 0.181D+00 0.317D+00 0.468D+00
 Gap=     0.106 Goal=   None    Shift=    0.000
 RMSDP=1.05D-04 MaxDP=5.52D-03 DE=-2.34D-02 OVMax= 2.30D-02

 Cycle   6  Pass 0  IDiag  1:
 RMSU=  8.75D-05    CP:  8.68D-01  2.61D+00  8.43D-01  6.40D-01  7.79D-01
 E= -1996.40454270664     Delta-E=       -0.002038070873 Rises=F Damp=F
 DIIS: error= 4.18D-04 at cycle   6 NSaved=   6.
 NSaved= 6 IEnMin= 6 EnMin= -1996.40454270664     IErMin= 6 ErrMin= 4.18D-04
 ErrMax= 4.18D-04  0.00D+00 EMaxC= 1.00D-01 BMatC= 1.41D-04 BMatP= 1.92D-03
 IDIUse=3 WtCom= 9.96D-01 WtEn= 4.18D-03
 Coeff-Com: -0.655D-03 0.129D-02 0.455D-01 0.993D-01 0.259D+00 0.596D+00
 Coeff-En:   0.000D+00 0.000D+00 0.000D+00 0.000D+00 0.320D-01 0.968D+00
 Coeff:     -0.652D-03 0.128D-02 0.454D-01 0.989D-01 0.258D+00 0.598D+00
 Gap=     0.107 Goal=   None    Shift=    0.000
 RMSDP=3.76D-05 MaxDP=1.92D-03 DE=-2.04D-03 OVMax= 6.00D-03

 Cycle   7  Pass 0  IDiag  1:
 RMSU=  3.20D-05    CP:  8.68D-01  2.61D+00  8.44D-01  6.45D-01  7.95D-01
                    CP:  7.83D-01
 E= -1996.40474362290     Delta-E=       -0.000200916258 Rises=F Damp=F
 DIIS: error= 1.45D-04 at cycle   7 NSaved=   7.
 NSaved= 7 IEnMin= 7 EnMin= -1996.40474362290     IErMin= 7 ErrMin= 1.45D-04
 ErrMax= 1.45D-04  0.00D+00 EMaxC= 1.00D-01 BMatC= 2.47D-05 BMatP= 1.41D-04
 IDIUse=3 WtCom= 9.99D-01 WtEn= 1.45D-03
 Coeff-Com:  0.180D-02-0.374D-02 0.168D-01 0.416D-01 0.135D+00 0.388D+00
 Coeff-Com:  0.420D+00
 Coeff-En:   0.000D+00 0.000D+00 0.000D+00 0.000D+00 0.000D+00 0.000D+00
 Coeff-En:   0.100D+01
 Coeff:      0.180D-02-0.374D-02 0.167D-01 0.416D-01 0.135D+00 0.388D+00
 Coeff:      0.421D+00
 Gap=     0.107 Goal=   None    Shift=    0.000
 RMSDP=1.61D-05 MaxDP=5.50D-04 DE=-2.01D-04 OVMax= 1.52D-03

 Cycle   8  Pass 0  IDiag  1:
 RMSU=  1.56D-05    CP:  8.68D-01  2.61D+00  8.44D-01  6.44D-01  7.87D-01
                    CP:  8.19D-01  1.04D+00
 E= -1996.40478616242     Delta-E=       -0.000042539515 Rises=F Damp=F
 DIIS: error= 3.26D-05 at cycle   8 NSaved=   8.
 NSaved= 8 IEnMin= 8 EnMin= -1996.40478616242     IErMin= 8 ErrMin= 3.26D-05
 ErrMax= 3.26D-05  0.00D+00 EMaxC= 1.00D-01 BMatC= 1.23D-06 BMatP= 2.47D-05
 IDIUse=1 WtCom= 1.00D+00 WtEn= 0.00D+00
 Coeff-Com:  0.102D-02-0.207D-02 0.460D-02 0.122D-01 0.478D-01 0.150D+00
 Coeff-Com:  0.224D+00 0.563D+00
 Coeff:      0.102D-02-0.207D-02 0.460D-02 0.122D-01 0.478D-01 0.150D+00
 Coeff:      0.224D+00 0.563D+00
 Gap=     0.107 Goal=   None    Shift=    0.000
 RMSDP=1.75D-05 MaxDP=7.33D-04 DE=-4.25D-05 OVMax= 4.64D-04

 Cycle   9  Pass 0  IDiag  1:
 RMSU=  1.30D-05    CP:  8.68D-01  2.61D+00  8.45D-01  6.45D-01  7.82D-01
                    CP:  8.31D-01  1.29D+00  1.53D+00
 E= -1996.40479368574     Delta-E=       -0.000007523321 Rises=F Damp=F
 DIIS: error= 3.27D-05 at cycle   9 NSaved=   9.
 NSaved= 9 IEnMin= 9 EnMin= -1996.40479368574     IErMin= 8 ErrMin= 3.26D-05
 ErrMax= 3.27D-05  0.00D+00 EMaxC= 1.00D-01 BMatC= 6.24D-07 BMatP= 1.23D-06
 IDIUse=1 WtCom= 1.00D+00 WtEn= 0.00D+00
 Coeff-Com:  0.588D-03-0.118D-02 0.158D-02 0.439D-02 0.208D-01 0.686D-01
 Coeff-Com:  0.118D+00 0.410D+00 0.377D+00
 Coeff:      0.588D-03-0.118D-02 0.158D-02 0.439D-02 0.208D-01 0.686D-01
 Coeff:      0.118D+00 0.410D+00 0.377D+00
 Gap=     0.107 Goal=   None    Shift=    0.000
 RMSDP=1.49D-05 MaxDP=4.63D-04 DE=-7.52D-06 OVMax= 2.01D-04

 Cycle  10  Pass 0  IDiag  1:
 RMSU=  7.68D-06    CP:  8.68D-01  2.61D+00  8.46D-01  6.45D-01  7.79D-01
                    CP:  8.41D-01  1.40D+00  2.02D+00  1.71D+00
 E= -1996.40478971376     Delta-E=        0.000003971973 Rises=F Damp=F
 DIIS: error= 4.98D-05 at cycle  10 NSaved=  10.
 NSaved=10 IEnMin= 9 EnMin= -1996.40479368574     IErMin= 8 ErrMin= 3.26D-05
 ErrMax= 4.98D-05  0.00D+00 EMaxC= 1.00D-01 BMatC= 4.99D-07 BMatP= 6.24D-07
 IDIUse=1 WtCom= 1.00D+00 WtEn= 0.00D+00
 Coeff-Com:  0.619D-03-0.123D-02 0.151D-02 0.425D-02 0.210D-01 0.701D-01
 Coeff-Com:  0.125D+00 0.461D+00 0.473D+00-0.155D+00
 Coeff:      0.619D-03-0.123D-02 0.151D-02 0.425D-02 0.210D-01 0.701D-01
 Coeff:      0.125D+00 0.461D+00 0.473D+00-0.155D+00
 Gap=     0.107 Goal=   None    Shift=    0.000
 RMSDP=5.46D-06 MaxDP=1.81D-04 DE= 3.97D-06 OVMax= 2.53D-05

 Initial convergence to 1.0D-05 achieved.  Increase integral accuracy.
 Cycle  11  Pass 1  IDiag  1:
 E= -1996.40379957145     Delta-E=        0.000990142315 Rises=F Damp=F
 DIIS: error= 8.93D-04 at cycle   1 NSaved=   1.
 NSaved= 1 IEnMin= 1 EnMin= -1996.40379957145     IErMin= 1 ErrMin= 8.93D-04
 ErrMax= 8.93D-04  0.00D+00 EMaxC= 1.00D-01 BMatC= 3.25D-04 BMatP= 3.25D-04
 IDIUse=3 WtCom= 9.91D-01 WtEn= 8.93D-03
 Coeff-Com:  0.100D+01
 Coeff-En:   0.100D+01
 Coeff:      0.100D+01
 Gap=     0.107 Goal=   None    Shift=    0.000
 RMSDP=5.46D-06 MaxDP=1.81D-04 DE= 9.90D-04 OVMax= 1.92D-03

 Cycle  12  Pass 1  IDiag  1:
 RMSU=  1.01D-03    CP:  9.95D-01
 E= -1996.40415085152     Delta-E=       -0.000351280072 Rises=F Damp=F
 DIIS: error= 1.50D-05 at cycle   2 NSaved=   2.
 NSaved= 2 IEnMin= 2 EnMin= -1996.40415085152     IErMin= 2 ErrMin= 1.50D-05
 ErrMax= 1.50D-05  0.00D+00 EMaxC= 1.00D-01 BMatC= 1.80D-07 BMatP= 3.25D-04
 IDIUse=1 WtCom= 1.00D+00 WtEn= 0.00D+00
 Coeff-Com: -0.946D-02 0.101D+01
 Coeff:     -0.946D-02 0.101D+01
 Gap=     0.107 Goal=   None    Shift=    0.000
 RMSDP=1.41D-05 MaxDP=5.34D-04 DE=-3.51D-04 OVMax= 3.74D-04

 Cycle  13  Pass 1  IDiag  1:
 RMSU=  5.23D-06    CP:  9.95D-01  1.01D+00
 E= -1996.40415030386     Delta-E=        0.000000547660 Rises=F Damp=F
 DIIS: error= 3.26D-05 at cycle   3 NSaved=   3.
 NSaved= 3 IEnMin= 2 EnMin= -1996.40415085152     IErMin= 2 ErrMin= 1.50D-05
 ErrMax= 3.26D-05  0.00D+00 EMaxC= 1.00D-01 BMatC= 6.79D-07 BMatP= 1.80D-07
 IDIUse=1 WtCom= 1.00D+00 WtEn= 0.00D+00
 Coeff-Com: -0.692D-02 0.693D+00 0.314D+00
 Coeff:     -0.692D-02 0.693D+00 0.314D+00
 Gap=     0.107 Goal=   None    Shift=    0.000
 RMSDP=1.73D-06 MaxDP=9.83D-05 DE= 5.48D-07 OVMax= 3.09D-04

 Cycle  14  Pass 1  IDiag  1:
 RMSU=  1.56D-06    CP:  9.95D-01  1.01D+00  8.57D-01
 E= -1996.40415107333     Delta-E=       -0.000000769469 Rises=F Damp=F
 DIIS: error= 4.55D-06 at cycle   4 NSaved=   4.
 NSaved= 4 IEnMin= 4 EnMin= -1996.40415107333     IErMin= 4 ErrMin= 4.55D-06
 ErrMax= 4.55D-06  0.00D+00 EMaxC= 1.00D-01 BMatC= 1.15D-08 BMatP= 1.80D-07
 IDIUse=1 WtCom= 1.00D+00 WtEn= 0.00D+00
 Coeff-Com: -0.295D-02 0.292D+00 0.164D+00 0.546D+00
 Coeff:     -0.295D-02 0.292D+00 0.164D+00 0.546D+00
 Gap=     0.107 Goal=   None    Shift=    0.000
 RMSDP=3.43D-07 MaxDP=1.96D-05 DE=-7.69D-07 OVMax= 6.54D-05

 Cycle  15  Pass 1  IDiag  1:
 RMSU=  2.83D-07    CP:  9.95D-01  1.01D+00  8.81D-01  9.13D-01
 E= -1996.40415108190     Delta-E=       -0.000000008568 Rises=F Damp=F
 DIIS: error= 2.44D-06 at cycle   5 NSaved=   5.
 NSaved= 5 IEnMin= 5 EnMin= -1996.40415108190     IErMin= 5 ErrMin= 2.44D-06
 ErrMax= 2.44D-06  0.00D+00 EMaxC= 1.00D-01 BMatC= 3.83D-09 BMatP= 1.15D-08
 IDIUse=1 WtCom= 1.00D+00 WtEn= 0.00D+00
 Coeff-Com: -0.481D-03 0.456D-01 0.427D-01 0.381D+00 0.531D+00
 Coeff:     -0.481D-03 0.456D-01 0.427D-01 0.381D+00 0.531D+00
 Gap=     0.107 Goal=   None    Shift=    0.000
 RMSDP=1.55D-07 MaxDP=9.24D-06 DE=-8.57D-09 OVMax= 3.31D-05

 Cycle  16  Pass 1  IDiag  1:
 RMSU=  9.77D-08    CP:  9.95D-01  1.01D+00  8.86D-01  9.38D-01  6.21D-01
 E= -1996.40415108571     Delta-E=       -0.000000003807 Rises=F Damp=F
 DIIS: error= 9.10D-07 at cycle   6 NSaved=   6.
 NSaved= 6 IEnMin= 6 EnMin= -1996.40415108571     IErMin= 6 ErrMin= 9.10D-07
 ErrMax= 9.10D-07  0.00D+00 EMaxC= 1.00D-01 BMatC= 4.70D-10 BMatP= 3.83D-09
 IDIUse=1 WtCom= 1.00D+00 WtEn= 0.00D+00
 Coeff-Com: -0.216D-04 0.745D-03 0.115D-01 0.194D+00 0.347D+00 0.446D+00
 Coeff:     -0.216D-04 0.745D-03 0.115D-01 0.194D+00 0.347D+00 0.446D+00
 Gap=     0.107 Goal=   None    Shift=    0.000
 RMSDP=4.66D-08 MaxDP=2.61D-06 DE=-3.81D-09 OVMax= 9.62D-06

 Cycle  17  Pass 1  IDiag  1:
 RMSU=  2.68D-08    CP:  9.95D-01  1.01D+00  8.86D-01  9.42D-01  6.73D-01
                    CP:  6.50D-01
 E= -1996.40415108627     Delta-E=       -0.000000000567 Rises=F Damp=F
 DIIS: error= 1.62D-07 at cycle   7 NSaved=   7.
 NSaved= 7 IEnMin= 7 EnMin= -1996.40415108627     IErMin= 7 ErrMin= 1.62D-07
 ErrMax= 1.62D-07  0.00D+00 EMaxC= 1.00D-01 BMatC= 1.74D-11 BMatP= 4.70D-10
 IDIUse=1 WtCom= 1.00D+00 WtEn= 0.00D+00
 Coeff-Com:  0.191D-04-0.253D-02 0.357D-02 0.804D-01 0.154D+00 0.241D+00
 Coeff-Com:  0.524D+00
 Coeff:      0.191D-04-0.253D-02 0.357D-02 0.804D-01 0.154D+00 0.241D+00
 Coeff:      0.524D+00
 Gap=     0.107 Goal=   None    Shift=    0.000
 RMSDP=1.12D-08 MaxDP=6.07D-07 DE=-5.67D-10 OVMax= 1.98D-06

 Cycle  18  Pass 1  IDiag  1:
 RMSU=  9.53D-09    CP:  9.95D-01  1.01D+00  8.87D-01  9.42D-01  6.69D-01
                    CP:  6.60D-01  7.96D-01
 E= -1996.40415108628     Delta-E=       -0.000000000007 Rises=F Damp=F
 DIIS: error= 7.10D-08 at cycle   8 NSaved=   8.
 NSaved= 8 IEnMin= 8 EnMin= -1996.40415108628     IErMin= 8 ErrMin= 7.10D-08
 ErrMax= 7.10D-08  0.00D+00 EMaxC= 1.00D-01 BMatC= 3.79D-12 BMatP= 1.74D-11
[...]
 .00000297,0.00000037,-0.00000084,0.00000074,0.00000042,-0.00000112,-0.
 00000053,-0.00000064,-0.00000072,0.00000125,0.00000091,0.00000076,-0.0
 0000193,0.00000056,0.00000033,0.00000004,0.00000015,0.00000277,0.00000
 165,0.00000238,0.00000203,-0.00000106,-0.00000374,0.00000022,0.0000065
 9,0.00000321,0.00000052,-0.00000313,-0.00000888,-0.00000834,0.00000877
 ,0.00000711,0.00000416,-0.00000571,0.00001364,0.00000631,0.00000083,-0
 .00001494,0.00000143,-0.00000669,-0.00000494,0.00000080,-0.00000471,0.
 00000721,-0.00000822,0.00000753,0.00000610,0.00000247,-0.00001339,0.00
 000312,-0.00001049,0.00000307,0.00000200,0.00004804,-0.00000427,0.0000
 2103,0.00006497,-0.00007142,0.00014331,0.00005248,0.00003818,0.0000411
 1,-0.00035962,0.00009576,0.00004009,0.00008693,0.00012077,-0.00003352,
 -0.00000862,-0.00010096,0.00004287,-0.00001564,-0.00000478,-0.00000413
 ,0.00001301,-0.00000410,0.00000276,-0.00000512,0.00000615,0.00000134,0
 .00000379,0.00000098,0.00000220,-0.00000004,-0.00000103,-0.00000094,-0
 .00000068,0.00000062,0.00000033,0.00000189,0.00000033,-0.00000303,0.00
 000169,0.00000109,-0.00000009,0.00000087,-0.00000169,-0.00000062,0.000
 00136,-0.00000004,0.00000003,-0.00000344,0.00000105,-0.00000148,0.0000
 0155,0.00000055,0.00000731,-0.00000350,-0.00000073,-0.00001662,0.00001
 198,0.00000988,-0.00014651,-0.00004019,0.00032788,0.00009663,-0.000869
 13,-0.00032897,-0.00267245,-0.00013690,-0.00480666,-0.01328021,0.01999
 126,0.00732697,-0.18655973,0.13832266,0.03090700,0.00752326,-0.0049890
 4,-0.00235592,0.00209019,0.00051218,-0.00342676,-0.00000784,-0.0000076
 8,-0.00000025,-0.00000009,-0.00000034,-0.00000270,-0.00000109,0.000000
 14,-0.00000007,-0.00000013,0.00000141,0.00000045,0.00000058,0.00000092
 ,-0.00000077,0.00000060,0.00000141,-0.00000025,0.00000062,0.00000205,0
 .00000020,0.00000167,0.00000111,-0.00000202,-0.00000433,-0.00000151,0.
 00000571,-0.00000098,-0.00000223,-0.00000644,0.00000139,-0.00000076,0.
 00000117,0.00000182,-0.00000058,0.00000110,0.00000128,-0.00000042,0.00
 000557,-0.00000772,-0.00000210,0.00001206,-0.00000523,0.00001567,-0.00
 000332,-0.00002130,0.00000764,-0.00001483,0.00000282,0.00000720,-0.000
 01068,-0.00000116,-0.00000246,-0.00000006,-0.00000389,0.00000020,0.000
 00120,-0.00000196,0.00000208,0.,-0.00000201,0.00000207,0.00000025,-0.0
 0000211,0.00000214,0.00000035,0.00000009,0.00000342,-0.00000086,0.0000
 0141,-0.00000024,-0.00000085,-0.00000643,-0.00000533,0.00000354,0.0000
 4163,-0.00003023,-0.00002648,-0.00071966,0.00096836,0.00026896,0.00056
 545,-0.00123279,0.00107694,0.19300200,-0.00003762,-0.00004823,0.000090
 37,0.00001160,0.00003441,-0.00011029,0.00003205,0.00000734,0.00003627,
 0.00000729,0.00003365,-0.00001081,-0.00001209,-0.00000918,0.00000904,0
 .00000740,0.00001052,-0.00000418,-0.00000163,0.00000255,0.00000144,-0.
 00000146,0.00000570,0.00000527,-0.00000633,-0.00000672,0.00000175,0.00
 000053,0.00000181,0.00000118,-0.00000558,-0.00000707,0.00000096,0.0000
 0592,0.00001006,-0.00000068,0.00000838,0.00001037,-0.00000375,-0.00001
 124,0.00000750,0.00002688,0.00000490,-0.00003300,-0.00003241,-0.000011
 75,0.00001377,0.00002462,0.00000607,-0.00002347,-0.00002992,-0.0000208
 4,0.00002319,-0.00003435,-0.00003756,-0.00000738,-0.00000881,-0.000010
 38,0.00001262,-0.00001386,-0.00002030,-0.00000239,-0.00000208,0.000006
 67,-0.00000401,0.00001260,0.00005098,0.00003916,0.00000713,-0.00006842
 ,-0.00005549,0.00008229,0.00013341,0.00012412,-0.00007169,0.00099929,-
 0.00029057,0.00018280,-0.00022157,-0.00028696,0.00017088,0.00000093,-0
 .00026625,-0.00018647,-0.00011797,0.00002015,-0.00018441,-0.00003234,0
 .00005138,-0.00000652,0.00001246,-0.00002774,0.00000095,-0.00000787,0.
 00000853,-0.00000247,0.00000195,-0.00000035,-0.00000063,-0.00000428,-0
 .00000076,0.00000258,0.00000260,-0.00000111,-0.00000083,0.00000059,-0.
 00000246,0.00000318,0.00000737,-0.00000651,-0.00000179,-0.00000046,0.0
 0000241,-0.00000222,-0.00000141,0.00000022,0.00000062,-0.00000118,0.00
 000041,0.00000018,0.00000362,-0.00000034,-0.00000051,-0.00000832,0.000
 00090,0.00000142,0.00002523,-0.00000580,-0.00000550,-0.00021648,-0.000
 07663,0.00044154,-0.00064816,-0.00012307,0.00005863,0.00078455,0.00282
 614,-0.00166096,-0.00178030,0.00335106,-0.00103950,0.13802515,-0.18656
 352,-0.04607748,0.01655998,-0.01081832,-0.00309519,-0.00006637,0.00146
 516,-0.00619053,0.00003184,-0.00000064,-0.00001922,-0.00000109,-0.0000
 0027,0.00000547,0.00000053,0.00000086,0.00000289,0.00000015,-0.0000001
 3,0.00000109,0.00000055,-0.00000035,-0.00000012,0.00000086,0.00000070,
 0.00000059,0.00000071,0.00000361,0.00000298,-0.00000221,-0.00000220,0.
 00000061,-0.00002164,0.00000258,0.00002082,0.00002095,-0.00001882,-0.0
 0003170,-0.00000271,-0.00000100,-0.00000789,-0.00000348,-0.00000128,-0
 .00000739,-0.00000182,0.00000038,-0.00000581,0.00000335,-0.00000111,-0
 .00000158,-0.00001800,-0.00001682,0.00002410,0.00005703,0.00000646,0.0
 0002912,-0.00000591,-0.00000799,0.00000813,-0.00000036,0.00000184,-0.0
 0000037,0.00000410,-0.00000001,-0.00000162,0.00000262,-0.00000275,-0.0
 0000033,0.00000236,-0.00000268,-0.00000046,0.00000217,-0.00000282,-0.0
 0000060,-0.00000004,-0.00000526,0.00000085,-0.00000398,-0.00000270,0.0
 0000189,0.00000967,0.00001110,-0.00001008,0.00004170,0.00000666,-0.000
 00795,-0.00007711,0.00009781,-0.00013514,-0.00056577,-0.00064851,0.001
 72355,-0.15115715,0.19221359,-0.00000789,0.00000604,-0.00003287,-0.000
 01219,0.00001981,0.00000513,-0.00000740,0.00000037,-0.00001389,-0.0000
 0879,0.00000114,-0.00000605,-0.00000009,0.00000096,-0.00000045,-0.0000
 0080,0.00000104,-0.00000060,-0.00000092,0.00000051,-0.00000001,-0.0000
 0022,0.00000025,-0.00000040,-0.00000019,0.00000045,-0.00000036,0.00000
 106,0.,0.00000071,0.00000042,0.00000091,-0.00000093,0.00000070,0.00000
 113,0.00000106,0.00000071,0.00000254,-0.00000075,-0.00000317,-0.000000
 87,-0.00000106,-0.00000163,0.00001074,-0.00000157,-0.00001641,-0.00000
 942,0.00000576,0.00000619,0.00000425,-0.00000855,-0.00003378,-0.000013
 45,-0.00000331,0.00000540,-0.00000324,0.00000783,-0.00000080,0.0000016
 3,0.00000806,-0.00001196,0.00002455,-0.00001331,-0.00000420,0.00001910
 ,0.00001406,-0.00000312,0.00002805,0.00001272,0.00000416,-0.00007848,0
 .00002046,-0.00002412,-0.00006487,0.00019594,0.00081395,-0.00031581,0.
 00040039,0.00022756,0.00008529,-0.00043009,0.00005251,-0.00014256,-0.0
 0013614,-0.00019613,-0.00010877,-0.00008510,-0.00002325,0.00000639,0.0
 0001936,-0.00000340,-0.00001013,0.00000501,0.00000304,0.00000104,-0.00
 000064,-0.00000042,-0.00000127,0.00000078,0.00000235,0.00000083,-0.000
 00141,-0.00000103,0.00000075,0.00000035,0.00000054,0.00000022,-0.00000
 302,0.00000077,-0.00000071,0.00000014,-0.00000026,-0.00000173,0.000001
 48,0.00000177,-0.00000344,-0.00000027,0.00000086,0.00000178,-0.0000014
 5,0.00000361,-0.00000080,-0.00000146,-0.00000966,0.00000210,0.00000323
 ,0.00000788,-0.00000856,-0.00000403,0.00019982,0.00054059,-0.00017576,
 -0.00011405,-0.00004027,-0.00071474,-0.00399864,-0.00219896,0.00105720
 ,-0.01139258,0.01176409,0.00672704,0.03064106,-0.04575765,-0.05892730,
 0.01613665,-0.01590925,-0.00000504,-0.00400032,-0.00586590,0.00123179,
 0.00000668,0.00000230,0.00000480,0.00000127,-0.00000082,0.00000079,0.0
 0000062,-0.00000032,0.00000039,0.00000032,-0.00000029,0.00000027,0.000
 00040,-0.00000013,0.00000035,0.00000056,0.00000021,0.00000054,0.000000
 87,-0.00000004,0.00000040,0.00000361,0.00000083,-0.00000003,0.00000414
 ,-0.00000557,0.00000699,0.00000452,-0.00000957,-0.00000064,-0.00000032
 ,-0.00000168,-0.00000243,-0.00000040,-0.00000059,-0.00000367,0.0000006
 9,-0.00000197,-0.00000813,0.00001108,-0.00000017,-0.00001806,0.0000032
 4,-0.00002048,0.00000178,0.00002911,-0.00000382,0.00003044,-0.00000648
 ,-0.00000485,0.00000304,0.00000228,0.00000191,-0.00000155,0.00000150,-
 0.00000010,-0.00000063,0.00000095,-0.00000040,-0.00000031,0.00000098,-
 0.00000075,-0.00000015,0.00000088,-0.00000104,-0.00000005,0.00000045,-
 0.00000142,0.00000041,0.00000018,0.00000090,0.00000068,0.00000562,0.00
 000320,-0.00000371,0.00002464,-0.00005097,0.00001727,-0.00060398,0.000
 47405,0.00023229,0.00164733,0.00132938,-0.00093395,-0.03094934,0.05348
 146,0.05331379,-0.00000730,-0.00020252,0.00035613,0.00046337,0.0001848
 1,-0.00051227,0.00001180,0.00008761,0.00001507,0.00003018,0.00005880,-
 0.00001686,-0.00001969,-0.00001187,0.00002736,0.00001314,0.00000491,-0
 .00001023,0.00000047,0.00000030,0.00000304,-0.00000048,0.00000275,0.00
 000390,-0.00000263,-0.00000530,0.00000018,-0.00000289,-0.00000043,-0.0
 0000017,-0.00000440,-0.00000708,0.00000301,-0.00000291,0.00000459,0.00
 000399,0.00000135,0.00000103,0.00000233,0.00000101,-0.00000212,0.00000
 220,0.00000850,0.00000451,-0.00000977,-0.00004708,0.00002857,0.0000195
 0,0.00000986,-0.00002770,-0.00002231,-0.00010363,-0.00001261,0.0000214
 7,0.00030473,-0.00006195,0.00018466,-0.00002677,0.00011728,-0.00005913
 ,-0.00009316,-0.00004802,0.00001760,0.00011207,-0.00015650,0.00010280,
 -0.00011205,-0.00021269,-0.00008686,0.00037745,-0.00034383,-0.00044656
 ,0.00005470,-0.00033964,-0.00043124,-0.00055804,-0.00167592,-0.0001409
 6,-0.00020775,-0.00017752,-0.00011694,0.00024390,0.00020398,0.00018013
 ,0.00008245,-0.00008024,0.00013890,0.00009810,-0.00004601,-0.00000646,
 -0.00000758,0.00004404,0.00000290,0.00000621,-0.00000770,0.00000654,0.
 00000009,0.00000347,0.00000399,0.00000275,-0.00000042,-0.00000079,-0.0
 0000212,0.00000265,0.00000164,-0.00000345,-0.00000335,-0.00000457,-0.0
 0000946,0.00001153,0.00000324,0.00000081,0.00000448,-0.00000332,0.0000
 0025,0.00000088,0.00000103,0.00000181,0.00000142,0.00000140,0.00000167
 ,0.00000236,0.00000513,0.00000901,0.00001056,0.00000252,-0.00005077,0.
 00001406,0.00002537,-0.00068598,-0.00044258,-0.00082414,-0.00012014,0.
 00420066,0.00068713,0.00039160,0.00027051,0.00076969,0.00286868,0.0008
 1698,-0.00237939,-0.00073403,0.00187077,-0.00136095,-0.26343581,0.0084
 2499,-0.12660931,-0.01456010,-0.00088755,-0.01157422,0.00004136,0.0000
 3284,0.00000312,-0.00000648,0.00001182,0.00001211,0.00000017,0.0000010
 1,-0.00000207,-0.00000219,-0.00000324,-0.00000187,-0.00000300,-0.00000
 219,0.00000012,-0.00000211,-0.00000160,0.00000115,-0.00000255,-0.00000
 073,0.00000148,-0.00000261,0.00000004,0.00000304,-0.00000081,-0.000000
 09,0.00000248,0.00009254,0.00000665,-0.00001260,-0.00001659,-0.0000047
 3,-0.00000894,-0.00001123,-0.00000793,-0.00001408,-0.00001209,0.000009
 14,-0.00001166,-0.00000725,0.00002049,0.00000229,-0.00014904,0.0000375
 0,0.00001469,-0.00014306,0.00007549,-0.00000907,0.00000875,0.00001447,
 -0.00002226,-0.00000377,-0.00000448,-0.00000008,-0.00000626,0.,0.00000
 107,-0.00000457,0.00000266,-0.00000041,-0.00000331,0.00000343,-0.00000
 011,-0.00000253,0.00000446,-0.00000046,-0.00000041,0.00000565,-0.00000
 282,0.00000314,0.00000432,-0.00000742,-0.00002501,-0.00001777,-0.00000
 198,-0.00017283,0.00027384,-0.00001034,-0.00026768,-0.00028936,0.00025
 490,-0.00008075,0.00018357,-0.00008535,-0.00015800,-0.00166434,0.00157
 505,0.27664041,-0.00002377,0.00027039,-0.00013131,-0.00021360,-0.00055
 025,-0.00004019,-0.00016701,-0.00007903,0.00001575,-0.00001585,-0.0000
 4195,0.00003022,0.00001420,-0.00000307,-0.00002727,-0.00000553,0.00000
 569,0.00001453,-0.00000180,-0.00000187,-0.00000040,0.00000181,-0.00000
 070,-0.00000165,-0.00000290,0.00000022,0.00000388,0.00000542,-0.000000
 19,-0.00000595,0.00000541,0.00000658,-0.00000345,-0.00000577,0.0000115
 3,0.00001323,0.00000749,0.00000311,-0.00000255,-0.00000405,-0.00000488
 ,-0.00000371,0.00002516,0.00004810,0.00002727,-0.00007623,-0.00013453,
 0.00008309,0.00004275,0.00003273,-0.00003786,0.00011242,-0.00004714,0.
 00002648,0.00013596,0.00009938,0.00000494,-0.00006280,-0.00000722,-0.0
 0001656,0.00005857,-0.00002997,0.00005587,-0.00009165,-0.00007359,-0.0
 0002632,0.00001707,-0.00009526,0.00014817,-0.00006339,0.00015823,-0.00
 106254,0.00012699,-0.00060435,-0.00033338,-0.00059512,-0.00042568,0.00
 141647,-0.00017842,0.00008537,0.00030467,-0.00005719,0.00004170,-0.000
 20569,0.00001165,0.00001288,0.00012743,-0.00004294,0.00002439,-0.00003
 485,0.00000938,-0.00002501,-0.00000655,-0.00000651,0.00000453,-0.00000
 284,-0.00000034,-0.00000181,-0.00000270,-0.00000357,-0.00000150,0.0000
 0193,0.00000449,-0.00000394,-0.00000145,0.00000035,0.00000481,0.000004
 23,0.00000377,-0.00000715,-0.00000144,0.00000140,-0.00000218,0.0000025
 3,-0.00000362,0.00000212,0.00000044,-0.00000149,-0.00000707,0.00000019
 ,-0.00000157,0.00000230,-0.00000445,-0.00000173,-0.00001868,-0.0000022
 2,0.00002441,0.00000714,-0.00001256,0.00083488,0.00029084,0.00071277,0
 .00307612,-0.00123705,-0.00351578,0.00014254,-0.00076317,-0.00011539,0
 .00184164,0.00007592,-0.00568099,-0.01980466,0.00424100,-0.01172607,0.
 00845079,-0.05027470,-0.00674658,0.01888522,0.00402480,0.01154089,-0.0
 0006739,-0.00003732,0.00000908,0.00000512,-0.00000872,-0.00001356,-0.0
 0000176,0.00000085,0.00000331,0.00000146,0.00000491,0.00000253,0.00000
 309,0.00000311,-0.00000155,0.00000312,0.00000559,-0.00000053,0.0000034
 9,0.00000546,-0.00000120,0.00000673,0.00000646,-0.00000813,-0.00000533
 ,-0.00000435,-0.00000987,-0.00003792,0.00008713,-0.00006095,-0.0000038
 4,0.00000762,0.00002650,0.00000838,0.00000008,0.00000951,-0.00000682,-
 0.00000326,0.00001285,-0.00001211,-0.00001637,0.00002143,-0.00006283,-
 0.00000941,-0.00000158,0.00009828,-0.00005135,0.00000145,-0.00000269,-
 0.00000637,0.00001043,0.00000018,0.00000098,0.00000077,0.00000244,-0.0
 0000021,-0.00000025,0.00000206,-0.00000111,0.00000028,0.00000094,-0.00
 000158,0.00000011,0.00000039,-0.00000198,0.00000080,0.00000028,-0.0000
 0235,0.00000163,-0.00000253,-0.00000588,0.00000656,0.00001911,0.000010
 64,0.00000474,0.00027064,-0.00016040,-0.00012556,-0.00029149,-0.000330
 90,0.00049866,-0.00080547,0.00014387,-0.00062095,-0.00121804,-0.001026
 06,0.00282033,-0.01031588,0.04637913,-0.00001844,0.00035413,-0.0003955
 7,0.00014112,-0.00034327,0.00023682,-0.00003403,0.00004214,0.00001232,
 -0.00004619,-0.00007078,0.00000450,0.00003067,0.00002484,-0.00002818,-
 0.00001726,-0.00001283,0.00000609,0.00000291,-0.00000088,-0.00000511,0
 .00000142,-0.00000846,-0.00000756,0.00001131,0.00001250,-0.00000512,-0
 .00000132,-0.00000268,0.00000626,0.00000771,0.00001082,-0.00000172,-0.
 00000388,-0.00002373,-0.00001135,-0.00001634,-0.00002008,0.00000268,0.
 00002178,-0.00000007,-0.00003259,-0.00002290,-0.00000101,0.00002176,0.
 00008738,0.00010841,-0.00013944,-0.00004002,0.00005372,0.00010137,-0.0
 0002005,-0.00005503,0.00007221,-0.00003250,0.00007596,-0.00003582,-0.0
 0000069,-0.00002914,0.00003675,0.00003797,0.00001967,-0.00004287,-0.00
 007223,0.00006468,0.00002806,0.00002528,-0.00005001,-0.00021865,0.0001
 2134,-0.00084580,-0.00130045,0.00023116,-0.00100912,-0.00065584,0.0007
 3813,0.00081313,-0.00144237,-0.00011358,0.00033887,-0.00016924,-0.0000
 5092,-0.00009171,0.00013121,0.00016981,0.00012310,0.00008361,-0.000004
 66,-0.00002250,0.00002157,-0.00000612,0.00001371,-0.00000224,0.0000039
 7,-0.00000292,-0.00000073,-0.00000065,-0.00000114,-0.00000040,0.000002
 67,0.00000139,-0.00000188,-0.00000238,0.00000147,0.00000028,-0.0000014
 5,0.00000048,0.00000007,-0.00000100,0.00000035,-0.00000023,-0.00000036
 ,0.00000034,0.00000120,0.00000180,-0.00000081,-0.00000091,0.00000037,0
 .00000208,-0.00000058,-0.00000336,-0.00000191,-0.00000039,0.00000204,0
 .00000471,-0.00000285,-0.00000744,-0.00000592,-0.00000535,0.00035733,-
 0.00011473,0.00019115,-0.00028952,-0.00282916,0.00232731,0.00065743,-0
 .00016254,-0.00029740,-0.00158890,-0.00616936,0.00169203,-0.01970773,0
 .00119727,-0.00639707,-0.12781878,-0.00676821,-0.11792194,0.00553931,-
 0.00015219,0.00676364,-0.00006403,0.00000563,0.00003153,0.00000956,-0.
 00000690,-0.00001194,0.00000009,-0.00000143,-0.00000226,0.00000125,0.0
 0000090,-0.00000081,0.00000043,0.00000105,0.00000092,-0.00000031,-0.00
 000298,-0.00000189,-0.00000071,-0.00000620,-0.00000504,-0.00000202,-0.
 00000296,0.00000191,0.00003463,-0.00000141,-0.00003529,0.00006537,0.00
 003444,0.00014296,0.00001724,0.00001131,0.00001300,0.00000924,0.000006
 23,0.00001817,0.00000510,-0.00000523,0.00001633,0.00000104,-0.00001852
 ,-0.00000101,0.00003211,0.00004539,-0.00000841,0.00000077,0.00000326,-
 0.00000794,0.00000068,0.00000142,0.00000177,0.00000166,0.00000056,0.,-
 0.00000055,0.00000001,0.00000050,-0.00000054,0.00000080,0.00000032,-0.
 00000034,0.00000075,0.00000036,-0.00000022,0.00000070,0.00000030,0.000
 00011,0.00000160,0.00000024,0.00000197,0.00000203,-0.00000005,-0.00000
 176,-0.00000140,0.00000885,0.00002885,-0.00016242,0.00007342,0.0002595
 1,0.00048741,-0.00052333,-0.00091108,-0.00003468,-0.00026170,0.0018981
 5,0.00254195,-0.00178889,0.14034358,0.01263091,0.11972092\\0.00000336,
 0.00000080,-0.00000055,-0.00000405,0.00000061,-0.00000351,-0.00000118,
 -0.00000337,0.00000320,0.00000134,0.00000101,-0.00000187,-0.00000114,0
 .00000131,0.00000075,-0.00000066,-0.00000050,-0.00000015,-0.00000038,0
 .00000058,0.00000032,-0.00000035,0.,-0.00000003,0.00000048,0.00000090,
 -0.00000038,-0.00000042,-0.00000005,-0.00000044,0.00000101,0.00000144,
 0.00000017,-0.00000053,-0.00000033,0.00000013,0.00000074,0.00000104,0.
 00000007,-0.00000043,-0.00000095,0.00000016,0.00000073,-0.00000035,-0.
 00000106,-0.00000134,0.00000058,0.00000135,0.00000100,-0.00000110,-0.0
 0000050,0.00000323,0.00000295,-0.00000208,-0.00000142,-0.00000107,0.00
 000077,0.00000140,0.00000139,0.,-0.00000149,-0.00000030,-0.00000017,0.
 00000058,-0.00000079,0.00000156,-0.00000051,0.00000119,-0.00000144,-0.
 00000055,-0.00000031,0.00000090,0.00000491,-0.00000029,0.00000431,-0.0
 0000113,-0.00000109,-0.00000262,-0.00000451,0.00000056,-0.00000148,0.0
 0000448,0.00000095,0.00000290,0.00000648,-0.00000278,0.00000062,-0.000
 00258,0.00000036,0.00000158,-0.00000117,0.00000021,-0.00000024,0.00000
 076,-0.00000140,0.00000026,-0.00000030,-0.00000053,0.00000041,0.000000
 46,-0.00000088,-0.00000040,-0.00000020,0.00000108,-0.00000044,0.000000
 20,-0.00000047,0.00000024,-0.00000101,0.00000079,-0.00000022,0.0000000
 9,-0.00000050,-0.00000062,-0.00000139,0.00000035,0.00000029,0.00000105
 ,-0.00000048,-0.00000070,-0.00000025,0.00000111,-0.00000057,-0.0000007
 8,-0.00000129,0.00000036,0.00000274,0.00000063,-0.00000107,-0.00000217
 ,-0.00000145,-0.00000194,-0.00000113,0.00000151,0.00000041,0.00000021,
 -0.00000120,-0.00000039,-0.00000048,-0.00000003,0.00000007,0.00000153,
 -0.00000055,0.00000088,0.00000060,-0.00000108,-0.00000008,0.00000015,0
 .00000180,0.00000102,-0.00000144,-0.00000119,0.00000096,0.00000052,0.0
 0000058,-0.00000022,0.00000046,0.00000047,-0.00000060,-0.00000038,-0.0
 0000014,-0.00000042,-0.00000062,-0.00000018,-0.00000001,-0.00000071,-0
 .00000043,0.,-0.00000049,-0.00000042,0.00000009,-0.00000020,-0.0000001
 6,0.00000042,0.00000054,0.00000046,0.00000030,-0.00000048,0.00000074,0
 .00000066,-0.00000101,-0.00000004,0.00000003,-0.00000070,0.00000006,0.
 ,0.,0.00000057,-0.00000002,0.00000072,0.00000047,0.00000025,0.00000052
 ,0.00000004,0.00000044,-0.00000310,0.00000018,-0.00000125,-0.00000049,
 0.00000091,0.,-0.00000059,0.00000065,-0.00000021,0.00000048,-0.0000001
 3,-0.00000001,0.00000008,-0.00000081,-0.00000022,0.00000048,-0.0000006
 0,-0.00000030,0.00000019,-0.00000069,-0.00000061,0.00000007,-0.0000007
 4,-0.00000022,-0.00000046,0.00000002,0.00000011,-0.00000065,0.00000024
 ,-0.00000065,0.00000122,0.00000022,0.00000058,0.00000068,-0.00000042,0
 .00000030,0.00000026,0.00000004,0.00000055,-0.00000047,0.00000011,0.00
 000021,-0.00000041,0.00000017,0.00000004\\\@
 The archive entry for this job was punched.


 I WANT TO KNOW HOW GOD CREATED THE WORLD.  I AM NOT INTERESTED IN
 THIS OR THAT PHENOMENON, IN THE SPECTRUM OF THIS OR THAT ELEMENT.
 I WANT TO KNOW HIS THOUGHTS, THE REST ARE DETAILS.
     -- ALBERT EINSTEIN
 Job cpu time:       0 days 15 hours 10 minutes  7.6 seconds.
 Elapsed time:       0 days  0 hours 28 minutes 35.7 seconds.
 File lengths (MBytes):  RWF=   4907 Int=      0 D2E=      0 Chk=     51 Scr=      1
 Normal termination of Gaussian 16 at Wed Jul 31 22:46:53 2024.
