 Entering Gaussian System, Link 0=g16
 Initial command:
 /public/software/apps/Gaussian/g16/l1.exe "/public/home/LJQ_HG/tmp/Gau-18006.inp" -scrdir="/public/home/LJQ_HG/tmp/"
 Entering Link 1 = /public/software/apps/Gaussian/g16/l1.exe PID=     18007.
  
 Copyright (c) 1988-2019, Gaussian, Inc.  All Rights Reserved.
  
 This is part of the Gaussian(R) 16 program.  It is based on
 the Gaussian(R) 09 system (copyright 2009, Gaussian, Inc.),
 the Gaussian(R) 03 system (copyright 2003, Gaussian, Inc.),
 the Gaussian(R) 98 system (copyright 1998, Gaussian, Inc.),
 the Gaussian(R) 94 system (copyright 1995, Gaussian, Inc.),
 the Gaussian 92(TM) system (copyright 1992, Gaussian, Inc.),
 the Gaussian 90(TM) system (copyright 1990, Gaussian, Inc.),
 the Gaussian 88(TM) system (copyright 1988, Gaussian, Inc.),
 the Gaussian 86(TM) system (copyright 1986, Carnegie Mellon
 University), and the Gaussian 82(TM) system (copyright 1983,
 Carnegie Mellon University). Gaussian is a federally registered
 trademark of Gaussian, Inc.
  
 This software contains proprietary and confidential information,
 including trade secrets, belonging to Gaussian, Inc.
  
 This software is provided under written license and may be
 used, copied, transmitted, or stored only in accord with that
 written license.
  
 The following legend is applicable only to US Government
 contracts under FAR:
  
                    RESTRICTED RIGHTS LEGEND
  
 Use, reproduction and disclosure by the US Government is
 subject to restrictions as set forth in subparagraphs (a)
 and (c) of the Commercial Computer Software - Restricted
 Rights clause in FAR 52.227-19.
  
 Gaussian, Inc.
 340 Quinnipiac St., Bldg. 40, Wallingford CT 06492
  
  
 ---------------------------------------------------------------
 Warning -- This program may not be used in any manner that
 competes with the business of Gaussian, Inc. or will provide
 assistance to any competitor of Gaussian, Inc.  The licensee
 of this program is prohibited from giving any competitor of
 Gaussian, Inc. access to this program.  By using this program,
 the user acknowledges that Gaussian, Inc. is engaged in the
 business of creating and licensing software in the field of
 computational chemistry and represents and warrants to the
 licensee that it is not a competitor of Gaussian, Inc. and that
 it will not use this program in any manner prohibited above.
 ---------------------------------------------------------------
  

 Cite this work as:
 Gaussian 16, Revision C.01,
 M. J. Frisch, G. W. Trucks, H. B. Schlegel, G. E. Scuseria, 
 M. A. Robb, J. R. Cheeseman, G. Scalmani, V. Barone, 
 G. A. Petersson, H. Nakatsuji, X. Li, M. Caricato, A. V. Marenich, 
 J. Bloino, B. G. Janesko, R. Gomperts, B. Mennucci, H. P. Hratchian, 
 J. V. Ortiz, A. F. Izmaylov, J. L. Sonnenberg, D. Williams-Young, 
 F. Ding, F. Lipparini, F. Egidi, J. Goings, B. Peng, A. Petrone, 
 T. Henderson, D. Ranasinghe, V. G. Zakrzewski, J. Gao, N. Rega, 
 G. Zheng, W. Liang, M. Hada, M. Ehara, K. Toyota, R. Fukuda, 
 J. Hasegawa, M. Ishida, T. Nakajima, Y. Honda, O. Kitao, H. Nakai, 
 T. Vreven, K. Throssell, J. A. Montgomery, Jr., J. E. Peralta, 
 F. Ogliaro, M. J. Bearpark, J. J. Heyd, E. N. Brothers, K. N. Kudin, 
 V. N. Staroverov, T. A. Keith, R. Kobayashi, J. Normand, 
 K. Raghavachari, A. P. Rendell, J. C. Burant, S. S. Iyengar, 
 J. Tomasi, M. Cossi, J. M. Millam, M. Klene, C. Adamo, R. Cammi, 
 J. W. Ochterski, R. L. Martin, K. Morokuma, O. Farkas, 
 J. B. Foresman, and D. J. Fox, Gaussian, Inc., Wallingford CT, 2019.
 
 ******************************************
 Gaussian 16:  ES64L-G16RevC.01  3-Jul-2019
                24-Sep-2025 
 ******************************************
 %nprocshared=32
 Will use up to   32 processors via shared memory.
 %mem=100GB
 ------------------------------------------
 #p opt freq b3lyp/def2svpp em=gd3bj nosymm
 ------------------------------------------
 1/18=20,19=15,26=3,38=1/1,3;
 2/9=110,12=2,15=1,17=6,18=5,40=1/2;
 3/5=43,7=202,11=2,25=1,30=1,71=1,74=-5,124=41/1,2,3;
 4//1;
 5/5=2,38=5/2;
 6/7=2,8=2,9=2,10=2,28=1/1;
 7/30=1/1,2,3,16;
 1/18=20,19=15,26=3/3(2);
 2/9=110,15=1/2;
 99//99;
 2/9=110,15=1/2;
 3/5=43,7=202,11=2,25=1,30=1,71=1,74=-5,124=41/1,2,3;
 4/5=5,16=3,69=1/1;
 5/5=2,38=5/2;
 7/30=1/1,2,3,16;
 1/18=20,19=15,26=3/3(-5);
 2/9=110,15=1/2;
 6/7=2,8=2,9=2,10=2,19=2,28=1/1;
 99/9=1/99;
 Leave Link    1 at Wed Sep 24 10:55:12 2025, MaxMem= 13421772800 cpu:               2.3 elap:               0.1
 (Enter /public/software/apps/Gaussian/g16/l101.exe)
 ----------------------
 $$$$Singlemol####0????
 ----------------------
 Symbolic Z-matrix:
 Charge =  0 Multiplicity = 1
 O                     1.88199   1.62736   1.37204 
 C                     1.20843   1.73024   0.19637 
 C                     1.24675   2.98101  -0.474 
 C                     1.93864   4.13108   0.13084 
 C                     1.70545   4.49428   1.45346 
 C                     2.34161   5.59252   2.00069 
 C                     3.2214    6.34116   1.23731 
 C                     3.45978   5.98719  -0.08007 
 C                     2.8209    4.89222  -0.63111 
 C                     0.63647   3.09878  -1.69746 
 C                    -0.05074   2.0257   -2.29257 
 C                    -0.68402   2.14376  -3.54713 
 C                    -1.35157   1.09025  -4.10092 
 C                    -1.43739  -0.14405  -3.42247 
 C                    -2.15481  -1.2755   -4.02613 
 C                    -3.36601  -1.08545  -4.68663 
 C                    -4.03421  -2.15624  -5.25073 
 C                    -3.50101  -3.43175  -5.16991 
 C                    -2.29519  -3.63165  -4.51858 
 C                    -1.62847  -2.5632   -3.9498 
 C                    -0.83364  -0.27654  -2.19399 
 C                    -0.1149    0.7842   -1.60896 
 C                     0.54354   0.65132  -0.35661 
 C                     0.54405  -0.65267   0.35621 
 C                     1.20874  -1.73201  -0.19597 
 O                     1.88004  -1.63101  -1.37313 
 C                     1.24964  -2.98139   0.47691 
 C                     1.94071  -4.13178  -0.12835 
 C                     1.70002  -4.49893  -1.44853 
 C                     2.33568  -5.59674  -1.99713 
 C                     3.22242  -6.34101  -1.23749 
 C                     3.46788  -5.98333   0.07756 
 C                     2.82948  -4.88875   0.63004 
 C                     0.64318  -3.09711   1.70239 
 C                    -0.04463  -2.02371   2.2964 
 C                    -0.67503  -2.13965   3.5526 
 C                    -1.34469  -1.08638   4.10431 
 C                    -1.43563   0.14549   3.42211 
 C                    -2.15624   1.27612   4.02354 
 C                    -3.36605   1.08342   4.68589 
 C                    -4.03706   2.15309   5.24868 
 C                    -3.50827   3.43024   5.16451 
 C                    -2.30415   3.63287   4.51092 
 C                    -1.63452   2.56545   3.94353 
 C                    -0.83366   0.27627   2.19259 
 C                    -0.11271  -0.78415   1.60969 
 H                     1.78661   0.72944   1.71983 
 H                     1.01512   3.9192    2.05083 
 H                     2.15012   5.86638   3.02815 
 H                     3.72056   7.19713   1.66734 
 H                     4.1472    6.56614  -0.67988 
 H                     3.01784   4.61025  -1.6557 
 H                     0.66274   4.04795  -2.21278 
 H                    -0.62565   3.08979  -4.06625 
 H                    -1.81135   1.18724  -5.07327 
 H                    -3.79576  -0.09542  -4.73836 
 H                    -4.97623  -1.99555  -5.75476 
 H                    -4.02313  -4.26682  -5.61314 
 H                    -1.87255  -4.62403  -4.45577 
 H                    -0.67803  -2.71966  -3.46048 
 H                    -0.93165  -1.20525  -1.6505 
 H                     1.7825   -0.73417  -1.72304 
 H                     1.00388  -3.92742  -2.04261 
 H                     2.13817  -5.87388  -3.02256 
 H                     3.72144  -7.19647  -1.66868 
 H                     4.16089  -6.55879   0.6743 
 H                     3.03202  -4.60382   1.65271 
 H                     0.67268  -4.04486   2.22016 
 H                    -0.61329  -3.08397   4.07443 
 H                    -1.8025   -1.18165   5.07775 
 H                    -3.7926    0.09213   4.73979 
 H                    -4.97807   1.99036   5.75406 
 H                    -4.03232   4.26434   5.60731 
 H                    -1.88471   4.62642   4.44575 
 H                    -0.68559   2.72425   3.45214 
 H                    -0.93491   1.20313   1.64653 
 
 ITRead=  0  0  0  0  0  0  0  0  0  0  0  0  0  0  0  0  0  0  0  0
 ITRead=  0  0  0  0  0  0  0  0  0  0  0  0  0  0  0  0  0  0  0  0
 ITRead=  0  0  0  0  0  0  0  0  0  0  0  0  0  0  0  0  0  0  0  0
 ITRead=  0  0  0  0  0  0  0  0  0  0  0  0  0  0  0  0
 MicOpt= -1 -1 -1 -1 -1 -1 -1 -1 -1 -1 -1 -1 -1 -1 -1 -1 -1 -1 -1 -1
 MicOpt= -1 -1 -1 -1 -1 -1 -1 -1 -1 -1 -1 -1 -1 -1 -1 -1 -1 -1 -1 -1
 MicOpt= -1 -1 -1 -1 -1 -1 -1 -1 -1 -1 -1 -1 -1 -1 -1 -1 -1 -1 -1 -1
 MicOpt= -1 -1 -1 -1 -1 -1 -1 -1 -1 -1 -1 -1 -1 -1 -1 -1
 NAtoms=     76 NQM=       76 NQMF=       0 NMMI=      0 NMMIF=      0
                NMic=       0 NMicF=      0.
                    Isotopes and Nuclear Properties:
 (Nuclear quadrupole moments (NQMom) in fm**2, nuclear magnetic moments (NMagM)
  in nuclear magnetons)

  Atom         1           2           3           4           5           6           7           8           9          10
 IAtWgt=          16          12          12          12          12          12          12          12          12          12
 AtmWgt=  15.9949146  12.0000000  12.0000000  12.0000000  12.0000000  12.0000000  12.0000000  12.0000000  12.0000000  12.0000000
 NucSpn=           0           0           0           0           0           0           0           0           0           0
 AtZEff=  -0.0000000  -0.0000000  -0.0000000  -0.0000000  -0.0000000  -0.0000000  -0.0000000  -0.0000000  -0.0000000  -0.0000000
 NQMom=    0.0000000   0.0000000   0.0000000   0.0000000   0.0000000   0.0000000   0.0000000   0.0000000   0.0000000   0.0000000
 NMagM=    0.0000000   0.0000000   0.0000000   0.0000000   0.0000000   0.0000000   0.0000000   0.0000000   0.0000000   0.0000000
 AtZNuc=   8.0000000   6.0000000   6.0000000   6.0000000   6.0000000   6.0000000   6.0000000   6.0000000   6.0000000   6.0000000

  Atom        11          12          13          14          15          16          17          18          19          20
 IAtWgt=          12          12          12          12          12          12          12          12          12          12
 AtmWgt=  12.0000000  12.0000000  12.0000000  12.0000000  12.0000000  12.0000000  12.0000000  12.0000000  12.0000000  12.0000000
 NucSpn=           0           0           0           0           0           0           0           0           0           0
 AtZEff=  -0.0000000  -0.0000000  -0.0000000  -0.0000000  -0.0000000  -0.0000000  -0.0000000  -0.0000000  -0.0000000  -0.0000000
 NQMom=    0.0000000   0.0000000   0.0000000   0.0000000   0.0000000   0.0000000   0.0000000   0.0000000   0.0000000   0.0000000
 NMagM=    0.0000000   0.0000000   0.0000000   0.0000000   0.0000000   0.0000000   0.0000000   0.0000000   0.0000000   0.0000000
 AtZNuc=   6.0000000   6.0000000   6.0000000   6.0000000   6.0000000   6.0000000   6.0000000   6.0000000   6.0000000   6.0000000

  Atom        21          22          23          24          25          26          27          28          29          30
 IAtWgt=          12          12          12          12          12          16          12          12          12          12
 AtmWgt=  12.0000000  12.0000000  12.0000000  12.0000000  12.0000000  15.9949146  12.0000000  12.0000000  12.0000000  12.0000000
 NucSpn=           0           0           0           0           0           0           0           0           0           0
 AtZEff=  -0.0000000  -0.0000000  -0.0000000  -0.0000000  -0.0000000  -0.0000000  -0.0000000  -0.0000000  -0.0000000  -0.0000000
 NQMom=    0.0000000   0.0000000   0.0000000   0.0000000   0.0000000   0.0000000   0.0000000   0.0000000   0.0000000   0.0000000
 NMagM=    0.0000000   0.0000000   0.0000000   0.0000000   0.0000000   0.0000000   0.0000000   0.0000000   0.0000000   0.0000000
 AtZNuc=   6.0000000   6.0000000   6.0000000   6.0000000   6.0000000   8.0000000   6.0000000   6.0000000   6.0000000   6.0000000

  Atom        31          32          33          34          35          36          37          38          39          40
 IAtWgt=          12          12          12          12          12          12          12          12          12          12
 AtmWgt=  12.0000000  12.0000000  12.0000000  12.0000000  12.0000000  12.0000000  12.0000000  12.0000000  12.0000000  12.0000000
 NucSpn=           0           0           0           0           0           0           0           0           0           0
 AtZEff=  -0.0000000  -0.0000000  -0.0000000  -0.0000000  -0.0000000  -0.0000000  -0.0000000  -0.0000000  -0.0000000  -0.0000000
 NQMom=    0.0000000   0.0000000   0.0000000   0.0000000   0.0000000   0.0000000   0.0000000   0.0000000   0.0000000   0.0000000
 NMagM=    0.0000000   0.0000000   0.0000000   0.0000000   0.0000000   0.0000000   0.0000000   0.0000000   0.0000000   0.0000000
 AtZNuc=   6.0000000   6.0000000   6.0000000   6.0000000   6.0000000   6.0000000   6.0000000   6.0000000   6.0000000   6.0000000

  Atom        41          42          43          44          45          46          47          48          49          50
 IAtWgt=          12          12          12          12          12          12           1           1           1           1
 AtmWgt=  12.0000000  12.0000000  12.0000000  12.0000000  12.0000000  12.0000000   1.0078250   1.0078250   1.0078250   1.0078250
 NucSpn=           0           0           0           0           0           0           1           1           1           1
 AtZEff=  -0.0000000  -0.0000000  -0.0000000  -0.0000000  -0.0000000  -0.0000000  -0.0000000  -0.0000000  -0.0000000  -0.0000000
 NQMom=    0.0000000   0.0000000   0.0000000   0.0000000   0.0000000   0.0000000   0.0000000   0.0000000   0.0000000   0.0000000
 NMagM=    0.0000000   0.0000000   0.0000000   0.0000000   0.0000000   0.0000000   2.7928460   2.7928460   2.7928460   2.7928460
 AtZNuc=   6.0000000   6.0000000   6.0000000   6.0000000   6.0000000   6.0000000   1.0000000   1.0000000   1.0000000   1.0000000

  Atom        51          52          53          54          55          56          57          58          59          60
 IAtWgt=           1           1           1           1           1           1           1           1           1           1
 AtmWgt=   1.0078250   1.0078250   1.0078250   1.0078250   1.0078250   1.0078250   1.0078250   1.0078250   1.0078250   1.0078250
 NucSpn=           1           1           1           1           1           1           1           1           1           1
 AtZEff=  -0.0000000  -0.0000000  -0.0000000  -0.0000000  -0.0000000  -0.0000000  -0.0000000  -0.0000000  -0.0000000  -0.0000000
 NQMom=    0.0000000   0.0000000   0.0000000   0.0000000   0.0000000   0.0000000   0.0000000   0.0000000   0.0000000   0.0000000
 NMagM=    2.7928460   2.7928460   2.7928460   2.7928460   2.7928460   2.7928460   2.7928460   2.7928460   2.7928460   2.7928460
 AtZNuc=   1.0000000   1.0000000   1.0000000   1.0000000   1.0000000   1.0000000   1.0000000   1.0000000   1.0000000   1.0000000

  Atom        61          62          63          64          65          66          67          68          69          70
 IAtWgt=           1           1           1           1           1           1           1           1           1           1
 AtmWgt=   1.0078250   1.0078250   1.0078250   1.0078250   1.0078250   1.0078250   1.0078250   1.0078250   1.0078250   1.0078250
 NucSpn=           1           1           1           1           1           1           1           1           1           1
 AtZEff=  -0.0000000  -0.0000000  -0.0000000  -0.0000000  -0.0000000  -0.0000000  -0.0000000  -0.0000000  -0.0000000  -0.0000000
 NQMom=    0.0000000   0.0000000   0.0000000   0.0000000   0.0000000   0.0000000   0.0000000   0.0000000   0.0000000   0.0000000
 NMagM=    2.7928460   2.7928460   2.7928460   2.7928460   2.7928460   2.7928460   2.7928460   2.7928460   2.7928460   2.7928460
 AtZNuc=   1.0000000   1.0000000   1.0000000   1.0000000   1.0000000   1.0000000   1.0000000   1.0000000   1.0000000   1.0000000

  Atom        71          72          73          74          75          76
 IAtWgt=           1           1           1           1           1           1
 AtmWgt=   1.0078250   1.0078250   1.0078250   1.0078250   1.0078250   1.0078250
 NucSpn=           1           1           1           1           1           1
 AtZEff=  -0.0000000  -0.0000000  -0.0000000  -0.0000000  -0.0000000  -0.0000000
 NQMom=    0.0000000   0.0000000   0.0000000   0.0000000   0.0000000   0.0000000
 NMagM=    2.7928460   2.7928460   2.7928460   2.7928460   2.7928460   2.7928460
 AtZNuc=   1.0000000   1.0000000   1.0000000   1.0000000   1.0000000   1.0000000
 Leave Link  101 at Wed Sep 24 10:55:12 2025, MaxMem= 13421772800 cpu:               3.5 elap:               0.1
 (Enter /public/software/apps/Gaussian/g16/l103.exe)

 GradGradGradGradGradGradGradGradGradGradGradGradGradGradGradGradGradGrad
 Berny optimization.
 Initialization pass.
                           ----------------------------
                           !    Initial Parameters    !
                           ! (Angstroms and Degrees)  !
 --------------------------                            --------------------------
 ! Name  Definition              Value          Derivative Info.                !
 --------------------------------------------------------------------------------
 ! R1    R(1,2)                  1.3588         estimate D2E/DX2                !
 ! R2    R(1,47)                 0.9676         estimate D2E/DX2                !
 ! R3    R(2,3)                  1.4196         estimate D2E/DX2                !
 ! R4    R(2,23)                 1.3827         estimate D2E/DX2                !
 ! R5    R(3,4)                  1.4721         estimate D2E/DX2                !
 ! R6    R(3,10)                 1.3723         estimate D2E/DX2                !
 ! R7    R(4,5)                  1.3913         estimate D2E/DX2                !
 ! R8    R(4,9)                  1.3922         estimate D2E/DX2                !
 ! R9    R(5,6)                  1.3821         estimate D2E/DX2                !
 ! R10   R(5,48)                 1.0789         estimate D2E/DX2                !
 ! R11   R(6,7)                  1.3846         estimate D2E/DX2                !
 ! R12   R(6,49)                 1.0804         estimate D2E/DX2                !
 ! R13   R(7,8)                  1.3848         estimate D2E/DX2                !
 ! R14   R(7,50)                 1.0802         estimate D2E/DX2                !
 ! R15   R(8,9)                  1.3823         estimate D2E/DX2                !
 ! R16   R(8,51)                 1.0805         estimate D2E/DX2                !
 ! R17   R(9,52)                 1.0808         estimate D2E/DX2                !
 ! R18   R(10,11)                1.4064         estimate D2E/DX2                !
 ! R19   R(10,53)                1.0804         estimate D2E/DX2                !
 ! R20   R(11,12)                1.4103         estimate D2E/DX2                !
 ! R21   R(11,22)                1.4187         estimate D2E/DX2                !
 ! R22   R(12,13)                1.3646         estimate D2E/DX2                !
 ! R23   R(12,54)                1.0807         estimate D2E/DX2                !
 ! R24   R(13,14)                1.4111         estimate D2E/DX2                !
 ! R25   R(13,55)                1.0799         estimate D2E/DX2                !
 ! R26   R(14,15)                1.4695         estimate D2E/DX2                !
 ! R27   R(14,21)                1.3752         estimate D2E/DX2                !
 ! R28   R(15,16)                1.3926         estimate D2E/DX2                !
 ! R29   R(15,20)                1.3932         estimate D2E/DX2                !
 ! R30   R(16,17)                1.3825         estimate D2E/DX2                !
 ! R31   R(16,56)                1.0805         estimate D2E/DX2                !
 ! R32   R(17,18)                1.3848         estimate D2E/DX2                !
 ! R33   R(17,57)                1.0804         estimate D2E/DX2                !
 ! R34   R(18,19)                1.385          estimate D2E/DX2                !
 ! R35   R(18,58)                1.08           estimate D2E/DX2                !
 ! R36   R(19,20)                1.3819         estimate D2E/DX2                !
 ! R37   R(19,59)                1.0805         estimate D2E/DX2                !
 ! R38   R(20,60)                1.0804         estimate D2E/DX2                !
 ! R39   R(21,22)                1.4086         estimate D2E/DX2                !
 ! R40   R(21,61)                1.0805         estimate D2E/DX2                !
 ! R41   R(22,23)                1.4211         estimate D2E/DX2                !
 ! R42   R(23,24)                1.4861         estimate D2E/DX2                !
 ! R43   R(24,25)                1.3826         estimate D2E/DX2                !
 ! R44   R(24,46)                1.4212         estimate D2E/DX2                !
 ! R45   R(25,26)                1.3589         estimate D2E/DX2                !
 ! R46   R(25,27)                1.4196         estimate D2E/DX2                !
 ! R47   R(26,62)                0.9676         estimate D2E/DX2                !
 ! R48   R(27,28)                1.4722         estimate D2E/DX2                !
 ! R49   R(27,34)                1.3722         estimate D2E/DX2                !
 ! R50   R(28,29)                1.3913         estimate D2E/DX2                !
 ! R51   R(28,33)                1.3921         estimate D2E/DX2                !
 ! R52   R(29,30)                1.3821         estimate D2E/DX2                !
 ! R53   R(29,63)                1.079          estimate D2E/DX2                !
 ! R54   R(30,31)                1.3847         estimate D2E/DX2                !
 ! R55   R(30,64)                1.0804         estimate D2E/DX2                !
 ! R56   R(31,32)                1.3847         estimate D2E/DX2                !
 ! R57   R(31,65)                1.0802         estimate D2E/DX2                !
 ! R58   R(32,33)                1.3824         estimate D2E/DX2                !
 ! R59   R(32,66)                1.0805         estimate D2E/DX2                !
 ! R60   R(33,67)                1.0808         estimate D2E/DX2                !
 ! R61   R(34,35)                1.4064         estimate D2E/DX2                !
 ! R62   R(34,68)                1.0804         estimate D2E/DX2                !
 ! R63   R(35,36)                1.4103         estimate D2E/DX2                !
 ! R64   R(35,46)                1.4187         estimate D2E/DX2                !
 ! R65   R(36,37)                1.3646         estimate D2E/DX2                !
 ! R66   R(36,69)                1.0807         estimate D2E/DX2                !
 ! R67   R(37,38)                1.4111         estimate D2E/DX2                !
 ! R68   R(37,70)                1.0799         estimate D2E/DX2                !
 ! R69   R(38,39)                1.4695         estimate D2E/DX2                !
 ! R70   R(38,45)                1.3752         estimate D2E/DX2                !
 ! R71   R(39,40)                1.3927         estimate D2E/DX2                !
 ! R72   R(39,44)                1.3932         estimate D2E/DX2                !
 ! R73   R(40,41)                1.3825         estimate D2E/DX2                !
 ! R74   R(40,71)                1.0805         estimate D2E/DX2                !
 ! R75   R(41,42)                1.3848         estimate D2E/DX2                !
 ! R76   R(41,72)                1.0805         estimate D2E/DX2                !
 ! R77   R(42,43)                1.385          estimate D2E/DX2                !
 ! R78   R(42,73)                1.08           estimate D2E/DX2                !
 ! R79   R(43,44)                1.3819         estimate D2E/DX2                !
 ! R80   R(43,74)                1.0804         estimate D2E/DX2                !
 ! R81   R(44,75)                1.0803         estimate D2E/DX2                !
 ! R82   R(45,46)                1.4086         estimate D2E/DX2                !
 ! R83   R(45,76)                1.0805         estimate D2E/DX2                !
 ! A1    A(2,1,47)             109.4126         estimate D2E/DX2                !
 ! A2    A(1,2,3)              117.5089         estimate D2E/DX2                !
 ! A3    A(1,2,23)             121.6874         estimate D2E/DX2                !
 ! A4    A(3,2,23)             120.7714         estimate D2E/DX2                !
 ! A5    A(2,3,4)              120.4634         estimate D2E/DX2                !
 ! A6    A(2,3,10)             118.9874         estimate D2E/DX2                !
 ! A7    A(4,3,10)             120.5479         estimate D2E/DX2                !
 ! A8    A(3,4,5)              121.0477         estimate D2E/DX2                !
 ! A9    A(3,4,9)              120.0051         estimate D2E/DX2                !
 ! A10   A(5,4,9)              118.9329         estimate D2E/DX2                !
 ! A11   A(4,5,6)              120.4432         estimate D2E/DX2                !
 ! A12   A(4,5,48)             119.6334         estimate D2E/DX2                !
 ! A13   A(6,5,48)             119.9203         estimate D2E/DX2                !
 ! A14   A(5,6,7)              120.2509         estimate D2E/DX2                !
 ! A15   A(5,6,49)             119.7589         estimate D2E/DX2                !
 ! A16   A(7,6,49)             119.9901         estimate D2E/DX2                !
 ! A17   A(6,7,8)              119.7127         estimate D2E/DX2                !
 ! A18   A(6,7,50)             120.1708         estimate D2E/DX2                !
 ! A19   A(8,7,50)             120.1164         estimate D2E/DX2                !
 ! A20   A(7,8,9)              120.1434         estimate D2E/DX2                !
 ! A21   A(7,8,51)             120.043          estimate D2E/DX2                !
 ! A22   A(9,8,51)             119.8136         estimate D2E/DX2                !
 ! A23   A(4,9,8)              120.5159         estimate D2E/DX2                !
 ! A24   A(4,9,52)             119.4514         estimate D2E/DX2                !
 ! A25   A(8,9,52)             120.0238         estimate D2E/DX2                !
 ! A26   A(3,10,11)            121.9433         estimate D2E/DX2                !
 ! A27   A(3,10,53)            119.3303         estimate D2E/DX2                !
 ! A28   A(11,10,53)           118.7119         estimate D2E/DX2                !
 ! A29   A(10,11,12)           122.1391         estimate D2E/DX2                !
 ! A30   A(10,11,22)           119.0714         estimate D2E/DX2                !
 ! A31   A(12,11,22)           118.7891         estimate D2E/DX2                !
 ! A32   A(11,12,13)           121.0682         estimate D2E/DX2                !
 ! A33   A(11,12,54)           118.4468         estimate D2E/DX2                !
 ! A34   A(13,12,54)           120.4843         estimate D2E/DX2                !
 ! A35   A(12,13,14)           120.6586         estimate D2E/DX2                !
 ! A36   A(12,13,55)           120.287          estimate D2E/DX2                !
 ! A37   A(14,13,55)           119.0495         estimate D2E/DX2                !
 ! A38   A(13,14,15)           120.3774         estimate D2E/DX2                !
 ! A39   A(13,14,21)           119.1484         estimate D2E/DX2                !
 ! A40   A(15,14,21)           120.4728         estimate D2E/DX2                !
 ! A41   A(14,15,16)           120.9564         estimate D2E/DX2                !
 ! A42   A(14,15,20)           120.3124         estimate D2E/DX2                !
 ! A43   A(16,15,20)           118.7309         estimate D2E/DX2                !
 ! A44   A(15,16,17)           120.5432         estimate D2E/DX2                !
 ! A45   A(15,16,56)           119.5811         estimate D2E/DX2                !
 ! A46   A(17,16,56)           119.8619         estimate D2E/DX2                !
 ! A47   A(16,17,18)           120.2309         estimate D2E/DX2                !
 ! A48   A(16,17,57)           119.7738         estimate D2E/DX2                !
 ! A49   A(18,17,57)           119.9952         estimate D2E/DX2                !
 ! A50   A(17,18,19)           119.7096         estimate D2E/DX2                !
 ! A51   A(17,18,58)           120.1381         estimate D2E/DX2                !
 ! A52   A(19,18,58)           120.1524         estimate D2E/DX2                !
 ! A53   A(18,19,20)           120.1342         estimate D2E/DX2                !
 ! A54   A(18,19,59)           120.0314         estimate D2E/DX2                !
 ! A55   A(20,19,59)           119.8343         estimate D2E/DX2                !
 ! A56   A(15,20,19)           120.6505         estimate D2E/DX2                !
 ! A57   A(15,20,60)           119.4076         estimate D2E/DX2                !
 ! A58   A(19,20,60)           119.9261         estimate D2E/DX2                !
 ! A59   A(14,21,22)           121.4993         estimate D2E/DX2                !
 ! A60   A(14,21,61)           119.4927         estimate D2E/DX2                !
 ! A61   A(22,21,61)           118.9892         estimate D2E/DX2                !
 ! A62   A(11,22,21)           118.8125         estimate D2E/DX2                !
 ! A63   A(11,22,23)           119.0453         estimate D2E/DX2                !
 ! A64   A(21,22,23)           122.142          estimate D2E/DX2                !
 ! A65   A(2,23,22)            120.1493         estimate D2E/DX2                !
 ! A66   A(2,23,24)            119.5168         estimate D2E/DX2                !
 ! A67   A(22,23,24)           120.3246         estimate D2E/DX2                !
 ! A68   A(23,24,25)           119.5766         estimate D2E/DX2                !
 ! A69   A(23,24,46)           120.269          estimate D2E/DX2                !
 ! A70   A(25,24,46)           120.1438         estimate D2E/DX2                !
 ! A71   A(24,25,26)           121.6972         estimate D2E/DX2                !
 ! A72   A(24,25,27)           120.769          estimate D2E/DX2                !
 ! A73   A(26,25,27)           117.5012         estimate D2E/DX2                !
 ! A74   A(25,26,62)           109.4118         estimate D2E/DX2                !
 ! A75   A(25,27,28)           120.4218         estimate D2E/DX2                !
 ! A76   A(25,27,34)           118.9972         estimate D2E/DX2                !
 ! A77   A(28,27,34)           120.5797         estimate D2E/DX2                !
 ! A78   A(27,28,29)           121.0061         estimate D2E/DX2                !
 ! A79   A(27,28,33)           120.0404         estimate D2E/DX2                !
 ! A80   A(29,28,33)           118.9394         estimate D2E/DX2                !
 ! A81   A(28,29,30)           120.4441         estimate D2E/DX2                !
 ! A82   A(28,29,63)           119.624          estimate D2E/DX2                !
 ! A83   A(30,29,63)           119.9285         estimate D2E/DX2                !
 ! A84   A(29,30,31)           120.2462         estimate D2E/DX2                !
 ! A85   A(29,30,64)           119.7618         estimate D2E/DX2                !
 ! A86   A(31,30,64)           119.992          estimate D2E/DX2                !
 ! A87   A(30,31,32)           119.7144         estimate D2E/DX2                !
 ! A88   A(30,31,65)           120.1681         estimate D2E/DX2                !
 ! A89   A(32,31,65)           120.1174         estimate D2E/DX2                !
 ! A90   A(31,32,33)           120.1464         estimate D2E/DX2                !
 ! A91   A(31,32,66)           120.0401         estimate D2E/DX2                !
 ! A92   A(33,32,66)           119.8134         estimate D2E/DX2                !
 ! A93   A(28,33,32)           120.5083         estimate D2E/DX2                !
 ! A94   A(28,33,67)           119.4572         estimate D2E/DX2                !
 ! A95   A(32,33,67)           120.0254         estimate D2E/DX2                !
 ! A96   A(27,34,35)           121.9352         estimate D2E/DX2                !
 ! A97   A(27,34,68)           119.3346         estimate D2E/DX2                !
 ! A98   A(35,34,68)           118.7152         estimate D2E/DX2                !
 ! A99   A(34,35,36)           122.1453         estimate D2E/DX2                !
 ! A100  A(34,35,46)           119.0689         estimate D2E/DX2                !
 ! A101  A(36,35,46)           118.7853         estimate D2E/DX2                !
 ! A102  A(35,36,37)           121.0665         estimate D2E/DX2                !
 ! A103  A(35,36,69)           118.4513         estimate D2E/DX2                !
 ! A104  A(37,36,69)           120.4817         estimate D2E/DX2                !
 ! A105  A(36,37,38)           120.6621         estimate D2E/DX2                !
 ! A106  A(36,37,70)           120.2893         estimate D2E/DX2                !
 ! A107  A(38,37,70)           119.0439         estimate D2E/DX2                !
 ! A108  A(37,38,39)           120.3598         estimate D2E/DX2                !
 ! A109  A(37,38,45)           119.1472         estimate D2E/DX2                !
 ! A110  A(39,38,45)           120.4914         estimate D2E/DX2                !
 ! A111  A(38,39,40)           120.9437         estimate D2E/DX2                !
 ! A112  A(38,39,44)           120.3257         estimate D2E/DX2                !
 ! A113  A(40,39,44)           118.7303         estimate D2E/DX2                !
 ! A114  A(39,40,41)           120.544          estimate D2E/DX2                !
 ! A115  A(39,40,71)           119.578          estimate D2E/DX2                !
 ! A116  A(41,40,71)           119.8637         estimate D2E/DX2                !
 ! A117  A(40,41,42)           120.2311         estimate D2E/DX2                !
 ! A118  A(40,41,72)           119.7762         estimate D2E/DX2                !
 ! A119  A(42,41,72)           119.9926         estimate D2E/DX2                !
 ! A120  A(41,42,43)           119.7092         estimate D2E/DX2                !
 ! A121  A(41,42,73)           120.1352         estimate D2E/DX2                !
 ! A122  A(43,42,73)           120.1555         estimate D2E/DX2                !
 ! A123  A(42,43,44)           120.1344         estimate D2E/DX2                !
 ! A124  A(42,43,74)           120.0356         estimate D2E/DX2                !
 ! A125  A(44,43,74)           119.8298         estimate D2E/DX2                !
 ! A126  A(39,44,43)           120.6503         estimate D2E/DX2                !
 ! A127  A(39,44,75)           119.4115         estimate D2E/DX2                !
 ! A128  A(43,44,75)           119.9229         estimate D2E/DX2                !
 ! A129  A(38,45,46)           121.4955         estimate D2E/DX2                !
 ! A130  A(38,45,76)           119.4985         estimate D2E/DX2                !
 ! A131  A(46,45,76)           118.987          estimate D2E/DX2                !
 ! A132  A(24,46,35)           119.0496         estimate D2E/DX2                !
 ! A133  A(24,46,45)           122.1315         estimate D2E/DX2                !
 ! A134  A(35,46,45)           118.8186         estimate D2E/DX2                !
 ! D1    D(47,1,2,3)          -179.3457         estimate D2E/DX2                !
 ! D2    D(47,1,2,23)           -1.3943         estimate D2E/DX2                !
 ! D3    D(1,2,3,4)             -2.9932         estimate D2E/DX2                !
 ! D4    D(1,2,3,10)           176.6015         estimate D2E/DX2                !
 ! D5    D(23,2,3,4)           179.0356         estimate D2E/DX2                !
 ! D6    D(23,2,3,10)           -1.3698         estimate D2E/DX2                !
 ! D7    D(1,2,23,22)         -177.9949         estimate D2E/DX2                !
 ! D8    D(1,2,23,24)            0.8996         estimate D2E/DX2                !
 ! D9    D(3,2,23,22)           -0.1096         estimate D2E/DX2                !
 ! D10   D(3,2,23,24)          178.7849         estimate D2E/DX2                !
 ! D11   D(2,3,4,5)            -48.9548         estimate D2E/DX2                !
 ! D12   D(2,3,4,9)            132.439          estimate D2E/DX2                !
 ! D13   D(10,3,4,5)           131.4569         estimate D2E/DX2                !
 ! D14   D(10,3,4,9)           -47.1492         estimate D2E/DX2                !
 ! D15   D(2,3,10,11)            1.4395         estimate D2E/DX2                !
 ! D16   D(2,3,10,53)         -179.9648         estimate D2E/DX2                !
 ! D17   D(4,3,10,11)         -178.9662         estimate D2E/DX2                !
 ! D18   D(4,3,10,53)           -0.3706         estimate D2E/DX2                !
 ! D19   D(3,4,5,6)           -178.6928         estimate D2E/DX2                !
 ! D20   D(3,4,5,48)             0.6706         estimate D2E/DX2                !
 ! D21   D(9,4,5,6)             -0.072          estimate D2E/DX2                !
 ! D22   D(9,4,5,48)           179.2914         estimate D2E/DX2                !
 ! D23   D(3,4,9,8)            178.9521         estimate D2E/DX2                !
 ! D24   D(3,4,9,52)            -2.1372         estimate D2E/DX2                !
 ! D25   D(5,4,9,8)              0.3166         estimate D2E/DX2                !
 ! D26   D(5,4,9,52)           179.2272         estimate D2E/DX2                !
 ! D27   D(4,5,6,7)             -0.1667         estimate D2E/DX2                !
 ! D28   D(4,5,6,49)           179.8185         estimate D2E/DX2                !
 ! D29   D(48,5,6,7)          -179.5284         estimate D2E/DX2                !
 ! D30   D(48,5,6,49)            0.4568         estimate D2E/DX2                !
 ! D31   D(5,6,7,8)              0.1628         estimate D2E/DX2                !
 ! D32   D(5,6,7,50)          -179.7816         estimate D2E/DX2                !
 ! D33   D(49,6,7,8)          -179.8224         estimate D2E/DX2                !
 ! D34   D(49,6,7,50)            0.2333         estimate D2E/DX2                !
 ! D35   D(6,7,8,9)              0.0813         estimate D2E/DX2                !
 ! D36   D(6,7,8,51)          -179.8446         estimate D2E/DX2                !
 ! D37   D(50,7,8,9)          -179.9743         estimate D2E/DX2                !
 ! D38   D(50,7,8,51)            0.0998         estimate D2E/DX2                !
 ! D39   D(7,8,9,4)             -0.3232         estimate D2E/DX2                !
 ! D40   D(7,8,9,52)          -179.2275         estimate D2E/DX2                !
 ! D41   D(51,8,9,4)           179.6029         estimate D2E/DX2                !
 ! D42   D(51,8,9,52)            0.6985         estimate D2E/DX2                !
 ! D43   D(3,10,11,12)         179.7344         estimate D2E/DX2                !
 ! D44   D(3,10,11,22)          -0.0332         estimate D2E/DX2                !
 ! D45   D(53,10,11,12)          1.1304         estimate D2E/DX2                !
 ! D46   D(53,10,11,22)       -178.6372         estimate D2E/DX2                !
 ! D47   D(10,11,12,13)       -179.6182         estimate D2E/DX2                !
 ! D48   D(10,11,12,54)          0.664          estimate D2E/DX2                !
 ! D49   D(22,11,12,13)          0.1501         estimate D2E/DX2                !
 ! D50   D(22,11,12,54)       -179.5678         estimate D2E/DX2                !
 ! D51   D(10,11,22,21)        178.3868         estimate D2E/DX2                !
 ! D52   D(10,11,22,23)         -1.4479         estimate D2E/DX2                !
 ! D53   D(12,11,22,21)         -1.3887         estimate D2E/DX2                !
 ! D54   D(12,11,22,23)        178.7767         estimate D2E/DX2                !
 ! D55   D(11,12,13,14)          0.6964         estimate D2E/DX2                !
 ! D56   D(11,12,13,55)       -178.4939         estimate D2E/DX2                !
 ! D57   D(54,12,13,14)       -179.5915         estimate D2E/DX2                !
 ! D58   D(54,12,13,55)          1.2182         estimate D2E/DX2                !
 ! D59   D(12,13,14,15)       -179.8405         estimate D2E/DX2                !
 ! D60   D(12,13,14,21)         -0.2701         estimate D2E/DX2                !
 ! D61   D(55,13,14,15)         -0.6402         estimate D2E/DX2                !
 ! D62   D(55,13,14,21)        178.9301         estimate D2E/DX2                !
 ! D63   D(13,14,15,16)        -41.4369         estimate D2E/DX2                !
 ! D64   D(13,14,15,20)        138.3621         estimate D2E/DX2                !
 ! D65   D(21,14,15,16)        138.9985         estimate D2E/DX2                !
 ! D66   D(21,14,15,20)        -41.2025         estimate D2E/DX2                !
 ! D67   D(13,14,21,22)         -1.021          estimate D2E/DX2                !
 ! D68   D(13,14,21,61)        177.3861         estimate D2E/DX2                !
 ! D69   D(15,14,21,22)        178.5489         estimate D2E/DX2                !
 ! D70   D(15,14,21,61)         -3.044          estimate D2E/DX2                !
 ! D71   D(14,15,16,17)       -179.9568         estimate D2E/DX2                !
 ! D72   D(14,15,16,56)         -1.3136         estimate D2E/DX2                !
 ! D73   D(20,15,16,17)          0.2411         estimate D2E/DX2                !
 ! D74   D(20,15,16,56)        178.8844         estimate D2E/DX2                !
 ! D75   D(14,15,20,19)       -179.7991         estimate D2E/DX2                !
 ! D76   D(14,15,20,60)         -1.2501         estimate D2E/DX2                !
 ! D77   D(16,15,20,19)          0.0043         estimate D2E/DX2                !
 ! D78   D(16,15,20,60)        178.5533         estimate D2E/DX2                !
 ! D79   D(15,16,17,18)         -0.3082         estimate D2E/DX2                !
 ! D80   D(15,16,17,57)        179.607          estimate D2E/DX2                !
 ! D81   D(56,16,17,18)       -178.9477         estimate D2E/DX2                !
 ! D82   D(56,16,17,57)          0.9675         estimate D2E/DX2                !
 ! D83   D(16,17,18,19)          0.1264         estimate D2E/DX2                !
 ! D84   D(16,17,18,58)       -179.8559         estimate D2E/DX2                !
 ! D85   D(57,17,18,19)       -179.7887         estimate D2E/DX2                !
 ! D86   D(57,17,18,58)          0.229          estimate D2E/DX2                !
 ! D87   D(17,18,19,20)          0.1183         estimate D2E/DX2                !
 ! D88   D(17,18,19,59)       -179.7632         estimate D2E/DX2                !
 ! D89   D(58,18,19,20)       -179.8994         estimate D2E/DX2                !
 ! D90   D(58,18,19,59)          0.2191         estimate D2E/DX2                !
 ! D91   D(18,19,20,15)         -0.1836         estimate D2E/DX2                !
 ! D92   D(18,19,20,60)       -178.725          estimate D2E/DX2                !
 ! D93   D(59,19,20,15)        179.6981         estimate D2E/DX2                !
 ! D94   D(59,19,20,60)          1.1566         estimate D2E/DX2                !
 ! D95   D(14,21,22,11)          1.8472         estimate D2E/DX2                !
 ! D96   D(14,21,22,23)       -178.3235         estimate D2E/DX2                !
 ! D97   D(61,21,22,11)       -176.5677         estimate D2E/DX2                !
 ! D98   D(61,21,22,23)          3.2616         estimate D2E/DX2                !
 ! D99   D(11,22,23,2)           1.5146         estimate D2E/DX2                !
 ! D100  D(11,22,23,24)       -177.3709         estimate D2E/DX2                !
 ! D101  D(21,22,23,2)        -178.3143         estimate D2E/DX2                !
 ! D102  D(21,22,23,24)          2.8002         estimate D2E/DX2                !
 ! D103  D(2,23,24,25)        -112.8989         estimate D2E/DX2                !
 ! D104  D(2,23,24,46)          65.9187         estimate D2E/DX2                !
 ! D105  D(22,23,24,25)         65.9936         estimate D2E/DX2                !
 ! D106  D(22,23,24,46)       -115.1888         estimate D2E/DX2                !
 ! D107  D(23,24,25,26)          0.7784         estimate D2E/DX2                !
 ! D108  D(23,24,25,27)        178.6472         estimate D2E/DX2                !
 ! D109  D(46,24,25,26)       -178.0407         estimate D2E/DX2                !
 ! D110  D(46,24,25,27)         -0.172          estimate D2E/DX2                !
 ! D111  D(23,24,46,35)       -177.1631         estimate D2E/DX2                !
 ! D112  D(23,24,46,45)          3.0167         estimate D2E/DX2                !
 ! D113  D(25,24,46,35)          1.6477         estimate D2E/DX2                !
 ! D114  D(25,24,46,45)       -178.1724         estimate D2E/DX2                !
 ! D115  D(24,25,26,62)         -1.4574         estimate D2E/DX2                !
 ! D116  D(27,25,26,62)       -179.3929         estimate D2E/DX2                !
 ! D117  D(24,25,27,28)        178.9895         estimate D2E/DX2                !
 ! D118  D(24,25,27,34)         -1.4263         estimate D2E/DX2                !
 ! D119  D(26,25,27,28)         -3.0548         estimate D2E/DX2                !
 ! D120  D(26,25,27,34)        176.5294         estimate D2E/DX2                !
 ! D121  D(25,27,28,29)        -49.1598         estimate D2E/DX2                !
 ! D122  D(25,27,28,33)        132.2218         estimate D2E/DX2                !
 ! D123  D(34,27,28,29)        131.2626         estimate D2E/DX2                !
 ! D124  D(34,27,28,33)        -47.3558         estimate D2E/DX2                !
 ! D125  D(25,27,34,35)          1.5441         estimate D2E/DX2                !
 ! D126  D(25,27,34,68)       -179.8791         estimate D2E/DX2                !
 ! D127  D(28,27,34,35)       -178.8724         estimate D2E/DX2                !
 ! D128  D(28,27,34,68)         -0.2956         estimate D2E/DX2                !
 ! D129  D(27,28,29,30)       -178.7324         estimate D2E/DX2                !
 ! D130  D(27,28,29,63)          0.6035         estimate D2E/DX2                !
 ! D131  D(33,28,29,30)         -0.099          estimate D2E/DX2                !
 ! D132  D(33,28,29,63)        179.2369         estimate D2E/DX2                !
 ! D133  D(27,28,33,32)        178.9922         estimate D2E/DX2                !
 ! D134  D(27,28,33,67)         -2.1098         estimate D2E/DX2                !
 ! D135  D(29,28,33,32)          0.3453         estimate D2E/DX2                !
 ! D136  D(29,28,33,67)        179.2432         estimate D2E/DX2                !
 ! D137  D(28,29,30,31)         -0.1644         estimate D2E/DX2                !
 ! D138  D(28,29,30,64)        179.8021         estimate D2E/DX2                !
 ! D139  D(63,29,30,31)       -179.4983         estimate D2E/DX2                !
 ! D140  D(63,29,30,64)          0.4682         estimate D2E/DX2                !
 ! D141  D(29,30,31,32)          0.1836         estimate D2E/DX2                !
 ! D142  D(29,30,31,65)       -179.7616         estimate D2E/DX2                !
 ! D143  D(64,30,31,32)       -179.7828         estimate D2E/DX2                !
 ! D144  D(64,30,31,65)          0.272          estimate D2E/DX2                !
 ! D145  D(30,31,32,33)          0.0622         estimate D2E/DX2                !
 ! D146  D(30,31,32,66)       -179.8326         estimate D2E/DX2                !
 ! D147  D(65,31,32,33)       -179.9926         estimate D2E/DX2                !
 ! D148  D(65,31,32,66)          0.1126         estimate D2E/DX2                !
 ! D149  D(31,32,33,28)         -0.329          estimate D2E/DX2                !
 ! D150  D(31,32,33,67)       -179.2207         estimate D2E/DX2                !
 ! D151  D(66,32,33,28)        179.566          estimate D2E/DX2                !
 ! D152  D(66,32,33,67)          0.6743         estimate D2E/DX2                !
 ! D153  D(27,34,35,36)        179.6836         estimate D2E/DX2                !
 ! D154  D(27,34,35,46)         -0.0659         estimate D2E/DX2                !
 ! D155  D(68,34,35,36)          1.0983         estimate D2E/DX2                !
 ! D156  D(68,34,35,46)       -178.6512         estimate D2E/DX2                !
 ! D157  D(34,35,36,37)       -179.5291         estimate D2E/DX2                !
 ! D158  D(34,35,36,69)          0.7158         estimate D2E/DX2                !
 ! D159  D(46,35,36,37)          0.221          estimate D2E/DX2                !
 ! D160  D(46,35,36,69)       -179.534          estimate D2E/DX2                !
 ! D161  D(34,35,46,24)         -1.5344         estimate D2E/DX2                !
 ! D162  D(34,35,46,45)        178.2918         estimate D2E/DX2                !
 ! D163  D(36,35,46,24)        178.7076         estimate D2E/DX2                !
 ! D164  D(36,35,46,45)         -1.4662         estimate D2E/DX2                !
 ! D165  D(35,36,37,38)          0.6945         estimate D2E/DX2                !
 ! D166  D(35,36,37,70)       -178.5127         estimate D2E/DX2                !
 ! D167  D(69,36,37,38)       -179.5554         estimate D2E/DX2                !
 ! D168  D(69,36,37,70)          1.2374         estimate D2E/DX2                !
 ! D169  D(36,37,38,39)       -179.8843         estimate D2E/DX2                !
 ! D170  D(36,37,38,45)         -0.3306         estimate D2E/DX2                !
 ! D171  D(70,37,38,39)         -0.6673         estimate D2E/DX2                !
 ! D172  D(70,37,38,45)        178.8864         estimate D2E/DX2                !
 ! D173  D(37,38,39,40)        -41.4576         estimate D2E/DX2                !
 ! D174  D(37,38,39,44)        138.3283         estimate D2E/DX2                !
 ! D175  D(45,38,39,40)        138.9948         estimate D2E/DX2                !
 ! D176  D(45,38,39,44)        -41.2193         estimate D2E/DX2                !
 ! D177  D(37,38,45,46)         -0.9683         estimate D2E/DX2                !
 ! D178  D(37,38,45,76)        177.43           estimate D2E/DX2                !
 ! D179  D(39,38,45,46)        178.5848         estimate D2E/DX2                !
 ! D180  D(39,38,45,76)         -3.0169         estimate D2E/DX2                !
 ! D181  D(38,39,40,41)       -179.9978         estimate D2E/DX2                !
 ! D182  D(38,39,40,71)         -1.3729         estimate D2E/DX2                !
 ! D183  D(44,39,40,41)          0.2129         estimate D2E/DX2                !
 ! D184  D(44,39,40,71)        178.8379         estimate D2E/DX2                !
 ! D185  D(38,39,44,43)       -179.7647         estimate D2E/DX2                !
 ! D186  D(38,39,44,75)         -1.1916         estimate D2E/DX2                !
 ! D187  D(40,39,44,43)          0.0259         estimate D2E/DX2                !
 ! D188  D(40,39,44,75)        178.599          estimate D2E/DX2                !
 ! D189  D(39,40,41,42)         -0.2961         estimate D2E/DX2                !
 ! D190  D(39,40,41,72)        179.5975         estimate D2E/DX2                !
 ! D191  D(71,40,41,42)       -178.9171         estimate D2E/DX2                !
 ! D192  D(71,40,41,72)          0.9764         estimate D2E/DX2                !
 ! D193  D(40,41,42,43)          0.1372         estimate D2E/DX2                !
 ! D194  D(40,41,42,73)       -179.8152         estimate D2E/DX2                !
 ! D195  D(72,41,42,43)       -179.7561         estimate D2E/DX2                !
 ! D196  D(72,41,42,73)          0.2915         estimate D2E/DX2                !
 ! D197  D(41,42,43,44)          0.1009         estimate D2E/DX2                !
 ! D198  D(41,42,43,74)       -179.7411         estimate D2E/DX2                !
 ! D199  D(73,42,43,44)       -179.9467         estimate D2E/DX2                !
 ! D200  D(73,42,43,74)          0.2112         estimate D2E/DX2                !
 ! D201  D(42,43,44,39)         -0.1826         estimate D2E/DX2                !
 ! D202  D(42,43,44,75)       -178.7484         estimate D2E/DX2                !
 ! D203  D(74,43,44,39)        179.6598         estimate D2E/DX2                !
 ! D204  D(74,43,44,75)          1.094          estimate D2E/DX2                !
 ! D205  D(38,45,46,24)       -178.3158         estimate D2E/DX2                !
 ! D206  D(38,45,46,35)          1.8636         estimate D2E/DX2                !
 ! D207  D(76,45,46,24)          3.2779         estimate D2E/DX2                !
 ! D208  D(76,45,46,35)       -176.5427         estimate D2E/DX2                !
 --------------------------------------------------------------------------------
 Trust Radius=3.00D-01 FncErr=1.00D-07 GrdErr=1.00D-06 EigMax=2.50D+02 EigMin=1.00D-04
 Number of steps in this run=    435 maximum allowed number of steps=    456.
 GradGradGradGradGradGradGradGradGradGradGradGradGradGradGradGradGradGrad

 Leave Link  103 at Wed Sep 24 10:55:12 2025, MaxMem= 13421772800 cpu:               0.4 elap:               0.0
 (Enter /public/software/apps/Gaussian/g16/l202.exe)
 Symmetry turned off by external request.
 Stoichiometry    C44H30O2
 Framework group  C1[X(C44H30O2)]
 Deg. of freedom   222
 Full point group                 C1      NOp   1
                          Input orientation:                          
 ---------------------------------------------------------------------
 Center     Atomic      Atomic             Coordinates (Angstroms)
 Number     Number       Type             X           Y           Z
 ---------------------------------------------------------------------
      1          8           0        1.881993    1.627355    1.372039
      2          6           0        1.208430    1.730235    0.196371
      3          6           0        1.246753    2.981005   -0.473995
      4          6           0        1.938637    4.131082    0.130839
      5          6           0        1.705448    4.494277    1.453456
      6          6           0        2.341609    5.592519    2.000688
      7          6           0        3.221404    6.341162    1.237308
      8          6           0        3.459776    5.987187   -0.080066
      9          6           0        2.820902    4.892215   -0.631111
     10          6           0        0.636469    3.098780   -1.697464
     11          6           0       -0.050736    2.025705   -2.292572
     12          6           0       -0.684019    2.143755   -3.547126
     13          6           0       -1.351569    1.090253   -4.100923
     14          6           0       -1.437386   -0.144047   -3.422471
     15          6           0       -2.154810   -1.275501   -4.026131
     16          6           0       -3.366009   -1.085452   -4.686633
     17          6           0       -4.034207   -2.156240   -5.250726
     18          6           0       -3.501009   -3.431748   -5.169912
     19          6           0       -2.295191   -3.631650   -4.518582
     20          6           0       -1.628466   -2.563199   -3.949798
     21          6           0       -0.833635   -0.276542   -2.193990
     22          6           0       -0.114900    0.784200   -1.608955
     23          6           0        0.543535    0.651317   -0.356605
     24          6           0        0.544046   -0.652674    0.356207
     25          6           0        1.208735   -1.732011   -0.195968
     26          8           0        1.880040   -1.631012   -1.373128
     27          6           0        1.249643   -2.981393    0.476908
     28          6           0        1.940713   -4.131779   -0.128348
     29          6           0        1.700023   -4.498928   -1.448531
     30          6           0        2.335683   -5.596737   -1.997130
     31          6           0        3.222422   -6.341006   -1.237486
     32          6           0        3.467883   -5.983330    0.077556
     33          6           0        2.829479   -4.888747    0.630037
     34          6           0        0.643176   -3.097107    1.702391
     35          6           0       -0.044627   -2.023712    2.296403
     36          6           0       -0.675030   -2.139645    3.552597
     37          6           0       -1.344688   -1.086377    4.104309
     38          6           0       -1.435633    0.145487    3.422108
     39          6           0       -2.156243    1.276124    4.023540
     40          6           0       -3.366049    1.083419    4.685892
     41          6           0       -4.037063    2.153092    5.248678
     42          6           0       -3.508269    3.430235    5.164505
     43          6           0       -2.304145    3.632873    4.510924
     44          6           0       -1.634518    2.565452    3.943534
     45          6           0       -0.833664    0.276274    2.192588
     46          6           0       -0.112713   -0.784151    1.609694
     47          1           0        1.786607    0.729441    1.719833
     48          1           0        1.015121    3.919203    2.050833
     49          1           0        2.150124    5.866377    3.028152
     50          1           0        3.720556    7.197126    1.667342
     51          1           0        4.147204    6.566138   -0.679878
     52          1           0        3.017842    4.610251   -1.655700
     53          1           0        0.662742    4.047951   -2.212777
     54          1           0       -0.625647    3.089794   -4.066248
     55          1           0       -1.811345    1.187237   -5.073274
     56          1           0       -3.795756   -0.095420   -4.738356
     57          1           0       -4.976230   -1.995549   -5.754760
     58          1           0       -4.023133   -4.266823   -5.613136
     59          1           0       -1.872549   -4.624031   -4.455768
     60          1           0       -0.678034   -2.719663   -3.460479
     61          1           0       -0.931653   -1.205247   -1.650495
     62          1           0        1.782499   -0.734165   -1.723044
     63          1           0        1.003881   -3.927418   -2.042608
     64          1           0        2.138173   -5.873878   -3.022562
     65          1           0        3.721436   -7.196467   -1.668682
     66          1           0        4.160891   -6.558785    0.674301
     67          1           0        3.032019   -4.603824    1.652713
     68          1           0        0.672684   -4.044855    2.220161
     69          1           0       -0.613286   -3.083973    4.074432
     70          1           0       -1.802498   -1.181651    5.077752
     71          1           0       -3.792598    0.092129    4.739794
     72          1           0       -4.978071    1.990363    5.754059
     73          1           0       -4.032316    4.264337    5.607313
     74          1           0       -1.884705    4.626421    4.445752
     75          1           0       -0.685591    2.724248    3.452139
     76          1           0       -0.934908    1.203127    1.646529
 ---------------------------------------------------------------------
 Rotational constants (GHZ):           0.0756973           0.0485041           0.0442096
 Leave Link  202 at Wed Sep 24 10:55:12 2025, MaxMem= 13421772800 cpu:               0.2 elap:               0.0
 (Enter /public/software/apps/Gaussian/g16/l301.exe)
 Standard basis: def2SVPP (5D, 7F)
 Ernie: Thresh=  0.10000D-02 Tol=  0.10000D-05 Strict=F.
   704 basis functions,  1270 primitive gaussians,   750 cartesian basis functions
   155 alpha electrons      155 beta electrons
       nuclear repulsion energy      5126.0745743261 Hartrees.
 IExCor=  402 DFT=T Ex+Corr=B3LYP ExCW=0 ScaHFX=  0.200000
 ScaDFX=  0.800000  0.720000  1.000000  0.810000 ScalE2=  1.000000  1.000000
 IRadAn=      5 IRanWt=     -1 IRanGd=            0 ICorTp=0 IEmpDi=141
 NAtoms=   76 NActive=   76 NUniq=   76 SFac= 1.00D+00 NAtFMM=   60 NAOKFM=T Big=T
 Integral buffers will be    131072 words long.
 Raffenetti 2 integral format.
 Two-electron integral symmetry is turned off.
 R6Disp:  Grimme-D3(BJ) Dispersion energy=       -0.2070577171 Hartrees.
 Nuclear repulsion after empirical dispersion term =     5125.8675166090 Hartrees.
 Leave Link  301 at Wed Sep 24 10:55:12 2025, MaxMem= 13421772800 cpu:               0.9 elap:               0.1
 (Enter /public/software/apps/Gaussian/g16/l302.exe)
 NPDir=0 NMtPBC=     1 NCelOv=     1 NCel=       1 NClECP=     1 NCelD=      1
         NCelK=      1 NCelE2=     1 NClLst=     1 CellRange=     0.0.
 One-electron integrals computed using PRISM.
   1 Symmetry operations used in ECPInt.
 ECPInt:  NShTT=   56616 NPrTT=  226816 LenC2=   44874 LenP2D=  108975.
 LDataN:  DoStor=T MaxTD1= 4 Len=   56
 NBasis=   704 RedAO= T EigKep=  1.54D-04  NBF=   704
 NBsUse=   704 1.00D-06 EigRej= -1.00D+00 NBFU=   704
 Precomputing XC quadrature grid using
 IXCGrd= 4 IRadAn=           5 IRanWt=          -1 IRanGd=           0 AccXCQ= 0.00D+00.
 Generated NRdTot=       0 NPtTot=           0 NUsed=           0 NTot=          32
 NSgBfM=   731   731   731   731   731 MxSgAt=    76 MxSgA2=    76.
 Leave Link  302 at Wed Sep 24 10:55:13 2025, MaxMem= 13421772800 cpu:              33.0 elap:               1.2
 (Enter /public/software/apps/Gaussian/g16/l303.exe)
 DipDrv:  MaxL=1.
 Leave Link  303 at Wed Sep 24 10:55:14 2025, MaxMem= 13421772800 cpu:               3.5 elap:               0.1
 (Enter /public/software/apps/Gaussian/g16/l401.exe)
 ExpMin= 1.22D-01 ExpMax= 2.27D+03 ExpMxC= 3.41D+02 IAcc=3 IRadAn=         5 AccDes= 0.00D+00
 Harris functional with IExCor=  402 and IRadAn=       5 diagonalized for initial guess.
 HarFok:  IExCor=  402 AccDes= 0.00D+00 IRadAn=         5 IDoV= 1 UseB2=F ITyADJ=14
 ICtDFT=  3500011 ScaDFX=  1.000000  1.000000  1.000000  1.000000
 FoFCou: FMM=F IPFlag=           0 FMFlag=      100000 FMFlg1=        2001
         NFxFlg=           0 DoJE=T BraDBF=F KetDBF=T FulRan=T
         wScrn=  0.000000 ICntrl=       500 IOpCl=  0 I1Cent=   200000004 NGrid=           0
         NMat0=    1 NMatS0=      1 NMatT0=    0 NMatD0=    1 NMtDS0=    0 NMtDT0=    0
 Symmetry not used in FoFCou.
 Harris En= -1844.02848786614    
 JPrj=0 DoOrth=F DoCkMO=F.
 Leave Link  401 at Wed Sep 24 10:55:16 2025, MaxMem= 13421772800 cpu:              67.0 elap:               2.1
 (Enter /public/software/apps/Gaussian/g16/l502.exe)
 Two-electron integral symmetry not used.
 Closed shell SCF:
 Using DIIS extrapolation, IDIIS=  1040.
 NGot= 13421772800 LenX= 13420615932 LenY= 13420052682
 Requested convergence on RMS density matrix=1.00D-08 within 128 cycles.
 Requested convergence on MAX density matrix=1.00D-06.
 Requested convergence on             energy=1.00D-06.
 No special actions if energy rises.
 Fock matrices will be formed incrementally for  20 cycles.
 Integral accuracy reduced to 1.0D-05 until final iterations.

 Cycle   1  Pass 0  IDiag  1:
 FoFJK:  IHMeth= 1 ICntrl=       0 DoSepK=F KAlg= 0 I1Cent=           0 FoldK=F
 IRaf= 910000000 NMat=       1 IRICut=       1 DoRegI=T DoRafI=F ISym2E= 0 IDoP0=0 IntGTp=1.
 FoFCou: FMM=T IPFlag=           0 FMFlag=      100000 FMFlg1=        2001
         NFxFlg=           0 DoJE=F BraDBF=F KetDBF=F FulRan=T
         wScrn=  0.000000 ICntrl=         0 IOpCl=  0 I1Cent=           0 NGrid=           0
         NMat0=    1 NMatS0=      1 NMatT0=    0 NMatD0=    1 NMtDS0=    0 NMtDT0=    0
 Symmetry not used in FoFCou.
 FMM levels:  10  Number of levels for PrismC:   9
 E= -1843.16891916916    
 DIIS: error= 3.58D-02 at cycle   1 NSaved=   1.
 NSaved= 1 IEnMin= 1 EnMin= -1843.16891916916     IErMin= 1 ErrMin= 3.58D-02
 ErrMax= 3.58D-02  0.00D+00 EMaxC= 1.00D-01 BMatC= 7.43D-01 BMatP= 7.43D-01
 IDIUse=3 WtCom= 6.42D-01 WtEn= 3.58D-01
 Coeff-Com:  0.100D+01
 Coeff-En:   0.100D+01
 Coeff:      0.100D+01
 Gap=     0.175 Goal=   None    Shift=    0.000
 GapD=    0.175 DampG=1.000 DampE=0.500 DampFc=0.5000 IDamp=-1.
 Damping current iteration by 5.00D-01
 RMSDP=4.84D-03 MaxDP=1.72D-01              OVMax= 1.49D-01

 Cycle   2  Pass 0  IDiag  1:
 RMSU=  2.13D-03    CP:  9.31D-01
 E= -1843.58978000761     Delta-E=       -0.420860838452 Rises=F Damp=T
 DIIS: error= 4.49D-03 at cycle   2 NSaved=   2.
 NSaved= 2 IEnMin= 2 EnMin= -1843.58978000761     IErMin= 2 ErrMin= 4.49D-03
 ErrMax= 4.49D-03  0.00D+00 EMaxC= 1.00D-01 BMatC= 3.88D-02 BMatP= 7.43D-01
 IDIUse=3 WtCom= 9.55D-01 WtEn= 4.49D-02
 Coeff-Com:  0.590D-02 0.994D+00
 Coeff-En:   0.000D+00 0.100D+01
 Coeff:      0.563D-02 0.994D+00
 Gap=     0.175 Goal=   None    Shift=    0.000
 RMSDP=1.64D-03 MaxDP=1.09D-01 DE=-4.21D-01 OVMax= 1.50D-01

 Cycle   3  Pass 0  IDiag  1:
 RMSU=  1.45D-03    CP:  8.88D-01  1.11D+00
 E= -1844.00053136434     Delta-E=       -0.410751356730 Rises=F Damp=F
 DIIS: error= 7.59D-03 at cycle   3 NSaved=   3.
 NSaved= 3 IEnMin= 3 EnMin= -1844.00053136434     IErMin= 2 ErrMin= 4.49D-03
 ErrMax= 7.59D-03  0.00D+00 EMaxC= 1.00D-01 BMatC= 4.61D-02 BMatP= 3.88D-02
 IDIUse=3 WtCom= 1.03D-01 WtEn= 8.97D-01
 Coeff-Com: -0.421D-01 0.547D+00 0.495D+00
 Coeff-En:   0.000D+00 0.000D+00 0.100D+01
 Coeff:     -0.434D-02 0.564D-01 0.948D+00
 Gap=     0.181 Goal=   None    Shift=    0.000
 RMSDP=1.52D-03 MaxDP=9.35D-02 DE=-4.11D-01 OVMax= 1.52D-01

 Cycle   4  Pass 0  IDiag  1:
 RMSU=  1.12D-03    CP:  8.86D-01  1.34D+00  3.72D-01
 E= -1843.84594246431     Delta-E=        0.154588900030 Rises=F Damp=F
 DIIS: error= 1.81D-02 at cycle   4 NSaved=   4.
 NSaved= 4 IEnMin= 3 EnMin= -1844.00053136434     IErMin= 2 ErrMin= 4.49D-03
 ErrMax= 1.81D-02  0.00D+00 EMaxC= 1.00D-01 BMatC= 1.81D-01 BMatP= 3.88D-02
 IDIUse=2 WtCom= 0.00D+00 WtEn= 1.00D+00
 Coeff-En:   0.000D+00 0.000D+00 0.746D+00 0.254D+00
 Coeff:      0.000D+00 0.000D+00 0.746D+00 0.254D+00
 Gap=     0.155 Goal=   None    Shift=    0.000
 RMSDP=8.07D-04 MaxDP=5.96D-02 DE= 1.55D-01 OVMax= 1.05D-01

 Cycle   5  Pass 0  IDiag  1:
 RMSU=  1.94D-04    CP:  8.85D-01  1.23D+00  6.86D-01  4.66D-01
 E= -1844.04044794069     Delta-E=       -0.194505476377 Rises=F Damp=F
 DIIS: error= 3.58D-03 at cycle   5 NSaved=   5.
 NSaved= 5 IEnMin= 5 EnMin= -1844.04044794069     IErMin= 5 ErrMin= 3.58D-03
 ErrMax= 3.58D-03  0.00D+00 EMaxC= 1.00D-01 BMatC= 1.07D-02 BMatP= 3.88D-02
 IDIUse=3 WtCom= 9.64D-01 WtEn= 3.58D-02
 Coeff-Com:  0.510D-02 0.106D-01 0.355D+00 0.379D-01 0.591D+00
 Coeff-En:   0.000D+00 0.000D+00 0.229D+00 0.000D+00 0.771D+00
 Coeff:      0.492D-02 0.103D-01 0.351D+00 0.366D-01 0.597D+00
 Gap=     0.150 Goal=   None    Shift=    0.000
 RMSDP=2.60D-04 MaxDP=1.50D-02 DE=-1.95D-01 OVMax= 2.65D-02

 Cycle   6  Pass 0  IDiag  1:
 RMSU=  8.15D-05    CP:  8.85D-01  1.19D+00  7.95D-01  3.21D-01  7.69D-01
 E= -1844.05186191524     Delta-E=       -0.011413974544 Rises=F Damp=F
 DIIS: error= 3.92D-04 at cycle   6 NSaved=   6.
 NSaved= 6 IEnMin= 6 EnMin= -1844.05186191524     IErMin= 6 ErrMin= 3.92D-04
 ErrMax= 3.92D-04  0.00D+00 EMaxC= 1.00D-01 BMatC= 2.09D-04 BMatP= 1.07D-02
 IDIUse=3 WtCom= 9.96D-01 WtEn= 3.92D-03
 Coeff-Com:  0.334D-02-0.909D-02 0.126D+00-0.200D-01 0.371D+00 0.529D+00
 Coeff-En:   0.000D+00 0.000D+00 0.000D+00 0.000D+00 0.000D+00 0.100D+01
 Coeff:      0.333D-02-0.906D-02 0.125D+00-0.200D-01 0.370D+00 0.531D+00
 Gap=     0.148 Goal=   None    Shift=    0.000
 RMSDP=4.01D-05 MaxDP=1.34D-03 DE=-1.14D-02 OVMax= 4.74D-03

 Cycle   7  Pass 0  IDiag  1:
 RMSU=  3.46D-05    CP:  8.85D-01  1.19D+00  7.96D-01  3.22D-01  8.06D-01
                    CP:  7.72D-01
 E= -1844.05213077718     Delta-E=       -0.000268861943 Rises=F Damp=F
 DIIS: error= 1.32D-04 at cycle   7 NSaved=   7.
 NSaved= 7 IEnMin= 7 EnMin= -1844.05213077718     IErMin= 7 ErrMin= 1.32D-04
 ErrMax= 1.32D-04  0.00D+00 EMaxC= 1.00D-01 BMatC= 2.28D-05 BMatP= 2.09D-04
 IDIUse=3 WtCom= 9.99D-01 WtEn= 1.32D-03
 Coeff-Com:  0.169D-02-0.579D-02 0.530D-01-0.165D-01 0.191D+00 0.336D+00
 Coeff-Com:  0.441D+00
 Coeff-En:   0.000D+00 0.000D+00 0.000D+00 0.000D+00 0.000D+00 0.000D+00
 Coeff-En:   0.100D+01
 Coeff:      0.169D-02-0.578D-02 0.529D-01-0.165D-01 0.191D+00 0.335D+00
 Coeff:      0.441D+00
 Gap=     0.148 Goal=   None    Shift=    0.000
 RMSDP=1.95D-05 MaxDP=1.05D-03 DE=-2.69D-04 OVMax= 1.34D-03

 Cycle   8  Pass 0  IDiag  1:
 RMSU=  1.83D-05    CP:  8.85D-01  1.19D+00  7.94D-01  3.22D-01  7.87D-01
                    CP:  8.09D-01  1.04D+00
 E= -1844.05216252121     Delta-E=       -0.000031744032 Rises=F Damp=F
 DIIS: error= 4.58D-05 at cycle   8 NSaved=   8.
 NSaved= 8 IEnMin= 8 EnMin= -1844.05216252121     IErMin= 8 ErrMin= 4.58D-05
 ErrMax= 4.58D-05  0.00D+00 EMaxC= 1.00D-01 BMatC= 1.82D-06 BMatP= 2.28D-05
 IDIUse=1 WtCom= 1.00D+00 WtEn= 0.00D+00
 Coeff-Com:  0.655D-03-0.229D-02 0.168D-01-0.791D-02 0.707D-01 0.138D+00
 Coeff-Com:  0.261D+00 0.523D+00
 Coeff:      0.655D-03-0.229D-02 0.168D-01-0.791D-02 0.707D-01 0.138D+00
 Coeff:      0.261D+00 0.523D+00
 Gap=     0.148 Goal=   None    Shift=    0.000
 RMSDP=1.58D-05 MaxDP=5.58D-04 DE=-3.17D-05 OVMax= 3.09D-04

 Cycle   9  Pass 0  IDiag  1:
 RMSU=  1.13D-05    CP:  8.85D-01  1.19D+00  7.94D-01  3.21D-01  7.79D-01
                    CP:  8.13D-01  1.25D+00  1.40D+00
 E= -1844.05216034479     Delta-E=        0.000002176424 Rises=F Damp=F
 DIIS: error= 3.69D-05 at cycle   9 NSaved=   9.
 NSaved= 9 IEnMin= 8 EnMin= -1844.05216252121     IErMin= 9 ErrMin= 3.69D-05
 ErrMax= 3.69D-05  0.00D+00 EMaxC= 1.00D-01 BMatC= 3.72D-07 BMatP= 1.82D-06
 IDIUse=1 WtCom= 1.00D+00 WtEn= 0.00D+00
 Coeff-Com:  0.212D-03-0.698D-03 0.454D-02-0.315D-02 0.225D-01 0.480D-01
 Coeff-Com:  0.117D+00 0.336D+00 0.476D+00
 Coeff:      0.212D-03-0.698D-03 0.454D-02-0.315D-02 0.225D-01 0.480D-01
 Coeff:      0.117D+00 0.336D+00 0.476D+00
 Gap=     0.148 Goal=   None    Shift=    0.000
 RMSDP=1.72D-05 MaxDP=4.91D-04 DE= 2.18D-06 OVMax= 9.91D-05

 Cycle  10  Pass 0  IDiag  1:
 RMSU=  8.77D-06    CP:  8.85D-01  1.19D+00  7.94D-01  3.21D-01  7.71D-01
                    CP:  8.14D-01  1.39D+00  1.79D+00  2.05D+00
 E= -1844.05215555970     Delta-E=        0.000004785084 Rises=F Damp=F
 DIIS: error= 3.93D-05 at cycle  10 NSaved=  10.
 NSaved=10 IEnMin= 8 EnMin= -1844.05216252121     IErMin= 9 ErrMin= 3.69D-05
 ErrMax= 3.93D-05  0.00D+00 EMaxC= 1.00D-01 BMatC= 2.73D-07 BMatP= 3.72D-07
 IDIUse=1 WtCom= 1.00D+00 WtEn= 0.00D+00
 Coeff-Com:  0.214D-03-0.701D-03 0.452D-02-0.322D-02 0.226D-01 0.486D-01
 Coeff-Com:  0.120D+00 0.350D+00 0.511D+00-0.526D-01
 Coeff:      0.214D-03-0.701D-03 0.452D-02-0.322D-02 0.226D-01 0.486D-01
 Coeff:      0.120D+00 0.350D+00 0.511D+00-0.526D-01
 Gap=     0.148 Goal=   None    Shift=    0.000
 RMSDP=1.95D-06 MaxDP=6.13D-05 DE= 4.79D-06 OVMax= 3.94D-06

 Initial convergence to 1.0D-05 achieved.  Increase integral accuracy.
 Cycle  11  Pass 1  IDiag  1:
 E= -1844.05166802478     Delta-E=        0.000487534925 Rises=F Damp=F
 DIIS: error= 7.30D-04 at cycle   1 NSaved=   1.
 NSaved= 1 IEnMin= 1 EnMin= -1844.05166802478     IErMin= 1 ErrMin= 7.30D-04
 ErrMax= 7.30D-04  0.00D+00 EMaxC= 1.00D-01 BMatC= 1.45D-04 BMatP= 1.45D-04
 IDIUse=3 WtCom= 9.93D-01 WtEn= 7.30D-03
 Coeff-Com:  0.100D+01
 Coeff-En:   0.100D+01
 Coeff:      0.100D+01
 Gap=     0.148 Goal=   None    Shift=    0.000
 RMSDP=1.95D-06 MaxDP=6.13D-05 DE= 4.88D-04 OVMax= 1.39D-03

 Cycle  12  Pass 1  IDiag  1:
 RMSU=  6.02D-04    CP:  9.96D-01
 E= -1844.05182927808     Delta-E=       -0.000161253307 Rises=F Damp=F
 DIIS: error= 1.04D-05 at cycle   2 NSaved=   2.
 NSaved= 2 IEnMin= 2 EnMin= -1844.05182927808     IErMin= 2 ErrMin= 1.04D-05
 ErrMax= 1.04D-05  0.00D+00 EMaxC= 1.00D-01 BMatC= 4.61D-08 BMatP= 1.45D-04
 IDIUse=1 WtCom= 1.00D+00 WtEn= 0.00D+00
 Coeff-Com: -0.967D-02 0.101D+01
 Coeff:     -0.967D-02 0.101D+01
 Gap=     0.148 Goal=   None    Shift=    0.000
 RMSDP=7.79D-06 MaxDP=2.14D-04 DE=-1.61D-04 OVMax= 1.12D-04

 Cycle  13  Pass 1  IDiag  1:
 RMSU=  2.59D-06    CP:  9.96D-01  1.01D+00
 E= -1844.05182922010     Delta-E=        0.000000057984 Rises=F Damp=F
 DIIS: error= 1.21D-05 at cycle   3 NSaved=   3.
 NSaved= 3 IEnMin= 2 EnMin= -1844.05182927808     IErMin= 2 ErrMin= 1.04D-05
 ErrMax= 1.21D-05  0.00D+00 EMaxC= 1.00D-01 BMatC= 1.07D-07 BMatP= 4.61D-08
 IDIUse=1 WtCom= 1.00D+00 WtEn= 0.00D+00
 Coeff-Com: -0.652D-02 0.659D+00 0.347D+00
 Coeff:     -0.652D-02 0.659D+00 0.347D+00
 Gap=     0.148 Goal=   None    Shift=    0.000
 RMSDP=7.29D-07 MaxDP=2.54D-05 DE= 5.80D-08 OVMax= 8.98D-05

 Cycle  14  Pass 1  IDiag  1:
 RMSU=  6.72D-07    CP:  9.96D-01  1.01D+00  8.91D-01
 E= -1844.05182934255     Delta-E=       -0.000000122453 Rises=F Damp=F
 DIIS: error= 1.49D-06 at cycle   4 NSaved=   4.
 NSaved= 4 IEnMin= 4 EnMin= -1844.05182934255     IErMin= 4 ErrMin= 1.49D-06
 ErrMax= 1.49D-06  0.00D+00 EMaxC= 1.00D-01 BMatC= 1.96D-09 BMatP= 4.61D-08
 IDIUse=1 WtCom= 1.00D+00 WtEn= 0.00D+00
 Coeff-Com: -0.182D-02 0.181D+00 0.150D+00 0.671D+00
 Coeff:     -0.182D-02 0.181D+00 0.150D+00 0.671D+00
 Gap=     0.148 Goal=   None    Shift=    0.000
 RMSDP=1.64D-07 MaxDP=9.79D-06 DE=-1.22D-07 OVMax= 1.79D-05

 Cycle  15  Pass 1  IDiag  1:
 RMSU=  1.31D-07    CP:  9.96D-01  1.01D+00  9.16D-01  8.95D-01
 E= -1844.05182934380     Delta-E=       -0.000000001248 Rises=F Damp=F
 DIIS: error= 7.64D-07 at cycle   5 NSaved=   5.
 NSaved= 5 IEnMin= 5 EnMin= -1844.05182934380     IErMin= 5 ErrMin= 7.64D-07
 ErrMax= 7.64D-07  0.00D+00 EMaxC= 1.00D-01 BMatC= 9.31D-10 BMatP= 1.96D-09
 IDIUse=1 WtCom= 1.00D+00 WtEn= 0.00D+00
 Coeff-Com: -0.125D-03 0.106D-01 0.433D-01 0.454D+00 0.492D+00
 Coeff:     -0.125D-03 0.106D-01 0.433D-01 0.454D+00 0.492D+00
 Gap=     0.148 Goal=   None    Shift=    0.000
 RMSDP=7.61D-08 MaxDP=3.63D-06 DE=-1.25D-09 OVMax= 8.90D-06

 Cycle  16  Pass 1  IDiag  1:
 RMSU=  4.09D-08    CP:  9.96D-01  1.01D+00  9.17D-01  9.28D-01  5.52D-01
 E= -1844.05182934478     Delta-E=       -0.000000000980 Rises=F Damp=F
 DIIS: error= 2.61D-07 at cycle   6 NSaved=   6.
 NSaved= 6 IEnMin= 6 EnMin= -1844.05182934478     IErMin= 6 ErrMin= 2.61D-07
 ErrMax= 2.61D-07  0.00D+00 EMaxC= 1.00D-01 BMatC= 7.96D-11 BMatP= 9.31D-10
 IDIUse=1 WtCom= 1.00D+00 WtEn= 0.00D+00
 Coeff-Com:  0.285D-04-0.405D-02 0.195D-01 0.257D+00 0.322D+00 0.406D+00
 Coeff:      0.285D-04-0.405D-02 0.195D-01 0.257D+00 0.322D+00 0.406D+00
 Gap=     0.148 Goal=   None    Shift=    0.000
 RMSDP=2.27D-08 MaxDP=8.11D-07 DE=-9.80D-10 OVMax= 2.43D-06

 Cycle  17  Pass 1  IDiag  1:
 RMSU=  1.18D-08    CP:  9.96D-01  1.01D+00  9.19D-01  9.27D-01  5.80D-01
                    CP:  5.49D-01
 E= -1844.05182934484     Delta-E=       -0.000000000058 Rises=F Damp=F
 DIIS: error= 4.74D-08 at cycle   7 NSaved=   7.
 NSaved= 7 IEnMin= 7 EnMin= -1844.05182934484     IErMin= 7 ErrMin= 4.74D-08
 ErrMax= 4.74D-08  0.00D+00 EMaxC= 1.00D-01 BMatC= 2.97D-12 BMatP= 7.96D-11
 IDIUse=1 WtCom= 1.00D+00 WtEn= 0.00D+00
 Coeff-Com:  0.237D-04-0.292D-02 0.818D-02 0.113D+00 0.147D+00 0.226D+00
 Coeff-Com:  0.508D+00
 Coeff:      0.237D-04-0.292D-02 0.818D-02 0.113D+00 0.147D+00 0.226D+00
 Coeff:      0.508D+00
 Gap=     0.148 Goal=   None    Shift=    0.000
 RMSDP=4.91D-09 MaxDP=2.69D-07 DE=-5.82D-11 OVMax= 6.58D-07

 SCF Done:  E(RB3LYP) =  -1844.05182934     A.U. after   17 cycles
            NFock= 17  Conv=0.49D-08     -V/T= 2.0095
 KE= 1.826617605021D+03 PE=-1.452567133876D+04 EE= 5.729134387781D+03
 Leave Link  502 at Wed Sep 24 10:56:30 2025, MaxMem= 13421772800 cpu:            2331.4 elap:              74.1
 (Enter /public/software/apps/Gaussian/g16/l601.exe)
 Copying SCF densities to generalized density rwf, IOpCl= 0 IROHF=0.

 **********************************************************************

            Population analysis using the SCF Density.

 **********************************************************************

 Alpha  occ. eigenvalues --  -19.16758 -19.16751 -10.25913 -10.25912 -10.20346
 Alpha  occ. eigenvalues --  -10.20343 -10.20126 -10.20126 -10.19989 -10.19970
 Alpha  occ. eigenvalues --  -10.19808 -10.19806 -10.19650 -10.19649 -10.19550
 Alpha  occ. eigenvalues --  -10.19548 -10.19452 -10.19452 -10.19393 -10.19391
 Alpha  occ. eigenvalues --  -10.19078 -10.19076 -10.18683 -10.18681 -10.18662
 Alpha  occ. eigenvalues --  -10.18659 -10.18641 -10.18638 -10.18578 -10.18576
 Alpha  occ. eigenvalues --  -10.18565 -10.18564 -10.18548 -10.18546 -10.18533
 Alpha  occ. eigenvalues --  -10.18530 -10.18383 -10.18382 -10.18340 -10.18340
 Alpha  occ. eigenvalues --  -10.18306 -10.18305 -10.18271 -10.18270 -10.18229
 Alpha  occ. eigenvalues --  -10.18227  -1.06311  -1.06037  -0.89013  -0.88292
 Alpha  occ. eigenvalues --   -0.86491  -0.86469  -0.85763  -0.85496  -0.82978
 Alpha  occ. eigenvalues --   -0.82615  -0.80611  -0.77977  -0.77966  -0.76849
 Alpha  occ. eigenvalues --   -0.74658  -0.74618  -0.74407  -0.74384  -0.74232
 Alpha  occ. eigenvalues --   -0.74220  -0.73108  -0.72460  -0.71268  -0.70133
 Alpha  occ. eigenvalues --   -0.66138  -0.64891  -0.63448  -0.63236  -0.62449
 Alpha  occ. eigenvalues --   -0.61241  -0.60389  -0.60193  -0.60143  -0.60036
 Alpha  occ. eigenvalues --   -0.59970  -0.58534  -0.58103  -0.57867  -0.56015
 Alpha  occ. eigenvalues --   -0.55785  -0.53925  -0.53844  -0.53711  -0.52644
 Alpha  occ. eigenvalues --   -0.50603  -0.50442  -0.49519  -0.49111  -0.47808
 Alpha  occ. eigenvalues --   -0.47805  -0.46693  -0.46592  -0.46350  -0.46013
 Alpha  occ. eigenvalues --   -0.45909  -0.45462  -0.45219  -0.45009  -0.44881
 Alpha  occ. eigenvalues --   -0.44259  -0.43970  -0.43750  -0.43552  -0.42919
 Alpha  occ. eigenvalues --   -0.42896  -0.42757  -0.42631  -0.42404  -0.42321
 Alpha  occ. eigenvalues --   -0.41480  -0.41452  -0.40796  -0.39921  -0.39212
 Alpha  occ. eigenvalues --   -0.39193  -0.39025  -0.38537  -0.37710  -0.37628
 Alpha  occ. eigenvalues --   -0.37412  -0.37390  -0.36955  -0.36953  -0.36159
 Alpha  occ. eigenvalues --   -0.35363  -0.35221  -0.35169  -0.34868  -0.34776
 Alpha  occ. eigenvalues --   -0.34481  -0.34245  -0.34120  -0.32985  -0.32288
 Alpha  occ. eigenvalues --   -0.32046  -0.30421  -0.28762  -0.27740  -0.27715
 Alpha  occ. eigenvalues --   -0.26078  -0.26076  -0.25718  -0.25713  -0.25196
 Alpha  occ. eigenvalues --   -0.25175  -0.22784  -0.22496  -0.22224  -0.21175
 Alpha virt. eigenvalues --   -0.06350  -0.05404  -0.03032  -0.02676  -0.01193
 Alpha virt. eigenvalues --   -0.01176  -0.00980  -0.00971  -0.00510  -0.00505
 Alpha virt. eigenvalues --    0.00694   0.01984   0.02005   0.02971   0.04841
 Alpha virt. eigenvalues --    0.04979   0.06796   0.07126   0.07197   0.07603
 Alpha virt. eigenvalues --    0.07748   0.08139   0.08612   0.08813   0.09492
 Alpha virt. eigenvalues --    0.09840   0.10267   0.10333   0.11039   0.11194
 Alpha virt. eigenvalues --    0.11764   0.11965   0.12642   0.12761   0.13713
 Alpha virt. eigenvalues --    0.13976   0.14314   0.14386   0.14848   0.15028
 Alpha virt. eigenvalues --    0.15580   0.15595   0.15847   0.16004   0.16019
 Alpha virt. eigenvalues --    0.16740   0.17229   0.17420   0.18853   0.18882
 Alpha virt. eigenvalues --    0.19991   0.21678   0.23605   0.23880   0.24666
 Alpha virt. eigenvalues --    0.25552   0.25755   0.26383   0.26559   0.26680
 Alpha virt. eigenvalues --    0.27576   0.27608   0.28037   0.28197   0.28488
 Alpha virt. eigenvalues --    0.28799   0.28991   0.29454   0.29562   0.29715
 Alpha virt. eigenvalues --    0.30006   0.30275   0.30320   0.30538   0.30780
 Alpha virt. eigenvalues --    0.31024   0.31319   0.31663   0.32315   0.32321
 Alpha virt. eigenvalues --    0.32617   0.32630   0.33211   0.33654   0.33838
 Alpha virt. eigenvalues --    0.33983   0.34804   0.35090   0.35686   0.35751
 Alpha virt. eigenvalues --    0.36016   0.36833   0.36992   0.37181   0.37816
 Alpha virt. eigenvalues --    0.38675   0.38902   0.39391   0.39748   0.39938
 Alpha virt. eigenvalues --    0.40285   0.40688   0.41140   0.41279   0.41668
[...]
 4905,0.00003172,0.00001378,-0.00000533,0.00000889,-0.00000313,-0.00000
 880,0.00000356,-0.00000087,-0.00000211,0.00000256,-0.00000025,-0.00000
 427,0.00000548,0.00000372,0.00000155,-0.00000806,0.00000147,0.00000009
 ,-0.00000367,0.00000129,-0.00000027,0.00000037,-0.00000133,0.00000042,
 -0.00000188,0.00000083,-0.00000016,0.00000021,0.00000063,0.00000100,0.
 00000036,-0.00000009,0.00000169,0.00000004,-0.00000005,-0.00000160,-0.
 00000030,0.00000318,0.00000207,0.00000083,0.00000825,-0.00001297,0.000
 00076,-0.00000040,-0.00000010,-0.00000082,0.00000033,-0.00000052,-0.00
 000031,-0.00000016,0.00000028,0.00000011,-0.00000047,0.00000047,-0.000
 00019,0.00000019,-0.00000023,-0.00000034,0.00000077,0.00000083,0.00000
 072,0.00001715,-0.00000957,-0.00000028,-0.00000417,0.00000279,-0.00001
 732,-0.00052253,0.00009875,-0.00068467,0.00033116,0.00076798,0.0000429
 5,-0.00253367,0.00007006,-0.00233527,-0.02890413,-0.03515891,0.0417336
 2,0.00000237,-0.00000994,-0.00034764,0.00016004,-0.00005508,0.00030019
 ,0.00002834,0.00004277,-0.00004812,0.00001972,0.00004148,-0.00002394,-
 0.00038502,0.00006044,0.00001010,0.00004215,0.00005195,0.00000538,0.00
 001244,0.00000243,0.00001195,-0.00000649,0.00000388,0.00000075,0.00000
 926,-0.00002801,-0.00001973,-0.00002875,0.00001294,-0.00000255,-0.0000
 1330,0.00000390,-0.00002043,-0.00000376,0.00000332,-0.00000518,-0.0000
 0310,0.00000549,-0.00000218,-0.00000360,-0.00000712,-0.00000257,-0.000
 00431,-0.00000786,-0.00000588,0.00000244,0.00000395,0.00000120,-0.0000
 0318,0.00000150,-0.00000074,0.00000207,0.00000305,0.00000152,0.0000018
 2,-0.00000190,-0.00000009,0.00000326,0.00000330,0.00000487,-0.00000855
 ,-0.00000438,0.00000103,-0.00000737,-0.00000707,0.00000073,-0.00006521
 ,-0.00004396,-0.00004027,0.00007007,-0.00003830,-0.00000542,0.00000163
 ,-0.00000561,-0.00000703,-0.00002606,0.00000957,0.00002764,0.00001034,
 -0.00003603,0.00000485,-0.00000090,0.00000004,-0.00000149,0.00000231,-
 0.00000369,0.00000174,0.00000022,0.00000187,-0.00000141,0.00000063,-0.
 00000046,0.00000018,-0.00000108,-0.00000128,-0.00000003,-0.00000032,0.
 00000089,0.00000009,0.00002173,0.00003949,-0.00004813,-0.00011349,-0.0
 0000576,0.00007602,0.00009977,0.00008188,-0.00008909,0.00015484,0.0001
 2075,0.00008838,-0.00094303,0.00084132,-0.00179461,-0.00572719,0.00082
 743,0.00698727,0.00267529,-0.00238819,0.00191011,0.00027769,0.00030469
 ,-0.00065908,0.00228067,0.00234184,0.00353679,-0.00770761,-0.00463744,
 0.00742728,-0.24573232,-0.03730624,0.13084437,0.00044723,-0.00020615,0
 .00088484,0.00005549,0.00035885,-0.00036287,0.00000112,0.00002736,0.00
 003665,0.00008293,-0.00049822,0.00027884,0.00000096,0.00001009,-0.0000
 0094,0.00000124,-0.00000308,-0.00000287,0.00000001,-0.00000118,0.00000
 117,0.00000359,0.00000384,0.00000016,0.00000596,0.00000083,-0.00000759
 ,0.00000195,-0.00000070,-0.00000325,0.00000214,-0.00000078,0.00000128,
 -0.00000213,0.00000001,-0.00000227,0.00000143,-0.00000003,0.00000111,0
 .00000077,0.00000154,0.00000091,-0.00000035,0.00000208,0.00000006,0.00
 000035,-0.00000257,-0.00000049,0.00000271,0.00000043,-0.00000169,0.000
 00873,-0.00000733,-0.00000177,-0.00000139,-0.00000149,-0.00000177,0.00
 000018,-0.00000050,0.00000010,-0.00000046,0.00000070,0.00000036,-0.000
 00081,0.00000066,-0.00000033,0.00000174,-0.00000023,0.00000034,-0.0000
 0799,0.00000970,0.00000402,-0.00002630,-0.00001197,-0.00001871,-0.0000
 4140,0.00006333,-0.00006418,-0.00021449,0.00006089,0.00045466,-0.00038
 122,0.00005034,-0.00043862,-0.00042801,-0.00024155,0.00032769,-0.00066
 554,0.00033455,-0.00235025,0.25582395,-0.00020398,-0.00003680,0.000675
 43,-0.00024531,0.00008657,-0.00050577,0.00001726,0.00010026,0.00006363
 ,0.00017005,0.00016575,0.00005264,-0.00010684,-0.00054232,0.00023994,0
 .00004147,0.00003892,-0.00008881,-0.00003225,-0.00002727,0.00000858,0.
 00002237,-0.00000889,-0.00003893,-0.00001568,0.00000929,-0.00008487,0.
 00000891,-0.00005378,0.00001828,0.00002428,-0.00003768,0.00001024,-0.0
 0000225,0.00000130,0.00000282,0.00000628,-0.00002118,0.00001760,-0.000
 01756,0.00000205,-0.00002656,0.00000181,-0.00000371,0.00000041,0.00000
 039,0.00000356,0.00000056,0.00000040,0.00000021,0.00000001,0.00000058,
 -0.00000008,0.00000059,0.00000166,-0.00000160,0.00000195,-0.00000715,0
 .00000177,-0.00000190,0.00003237,0.00002467,0.00003166,-0.00007379,-0.
 00002070,-0.00011968,0.00006547,0.00002965,0.00013457,-0.00013869,0.00
 007606,0.00013284,0.00011937,-0.00015134,-0.00012331,-0.00008513,-0.00
 001012,0.00017855,0.00001332,0.00001514,-0.00004563,0.00002164,-0.0000
 2786,-0.00001458,-0.00000955,0.00001894,0.00000140,-0.00000202,-0.0000
 0328,-0.00000306,-0.00000583,0.00000948,0.00000245,0.00000525,0.000000
 47,0.00000624,-0.00000893,0.00000936,0.00000957,-0.00004890,0.00002809
 ,0.00001470,0.00008410,0.00011337,-0.00014238,-0.00015387,0.00019253,0
 .00006104,0.00014042,-0.00026658,0.00018330,-0.00077821,0.00130036,0.0
 0093023,-0.02362447,-0.00021770,0.01541085,-0.00145513,-0.00515757,-0.
 00042202,0.00020064,-0.00100342,-0.00018001,0.00149930,-0.00334955,-0.
 00233686,0.02136110,0.00760397,-0.01387308,-0.03590522,-0.06419822,0.0
 2103523,0.00006226,-0.00064835,-0.00000880,0.00040653,-0.00011886,-0.0
 0045927,0.00014212,-0.00007619,-0.00012087,-0.00020543,0.00058162,-0.0
 0003326,-0.00002193,-0.00003960,-0.00001360,0.00000506,0.00001456,-0.0
 0000817,0.00000330,-0.00000035,-0.00000970,0.00001584,0.00001397,-0.00
 002490,0.00000613,-0.00000384,0.00002320,0.00000071,-0.00000423,0.0000
 0811,-0.00000098,-0.00000065,0.00000320,-0.00000065,-0.00000152,0.0000
 0003,0.00000188,0.00000018,0.00000140,0.00000086,0.00000112,0.00000067
 ,-0.00000083,-0.00000090,-0.00000160,0.00000257,-0.00000162,-0.0000017
 3,-0.00001181,-0.00000891,-0.00001042,-0.00000217,0.00002770,-0.000028
 49,-0.00000094,-0.00000491,-0.00000480,-0.00000047,0.00000298,0.000004
 84,-0.00000192,0.00000346,0.00000192,-0.00000247,0.00000406,-0.0000016
 3,0.00000479,-0.00000512,0.00000362,-0.00000368,0.00001421,0.00000030,
 -0.00000888,0.00001016,-0.00000240,-0.00002548,0.00008527,-0.00007749,
 -0.00130336,-0.00008440,0.00081791,0.00005710,0.00008076,0.00009742,0.
 00095793,0.00019598,-0.00064817,-0.00011661,0.00108504,0.00075562,0.03
 934887,0.06496499,-0.00011729,0.00002621,-0.00006314,0.00002978,-0.000
 04221,-0.00007738,-0.00000131,0.00005239,0.00000885,0.00002973,0.00005
 137,0.00003280,0.00003726,-0.00000595,-0.00016077,-0.00002524,0.000044
 14,0.00011592,-0.00001187,-0.00004740,-0.00001032,-0.00000860,-0.00000
 228,-0.00001998,0.00001673,-0.00000444,-0.00003006,-0.00004034,-0.0000
 0615,-0.00002176,0.00001500,0.00000768,-0.00000374,-0.00000887,0.00000
 319,-0.00001101,0.00000292,0.00000783,0.00000434,-0.00000211,-0.000008
 64,0.00000233,-0.00000261,-0.00000461,-0.00000283,0.00000101,0.0000021
 3,0.00000138,-0.00000243,0.00000082,-0.00000014,0.00000058,0.00000145,
 0.00000111,0.00000064,-0.00000148,0.00000052,0.00000219,0.00000177,0.0
 0000384,-0.00000282,-0.00000410,0.00000046,-0.00002427,0.00000547,-0.0
 0001049,-0.00003720,-0.00003634,0.00003012,0.00007594,-0.00007331,-0.0
 0009358,-0.00003341,0.00010213,-0.00001991,-0.00000940,0.00000249,0.00
 001637,-0.00002111,-0.00007586,0.00007204,-0.00000085,-0.00000056,-0.0
 0000107,0.00000112,-0.00000206,0.00000018,-0.00000145,0.00000137,-0.00
 000145,-0.00000010,0.00000005,0.00000109,-0.00000168,-0.00000162,-0.00
 000097,-0.00000077,0.00000116,0.00000463,0.00007652,-0.00002714,-0.000
 06274,-0.00007879,-0.00006905,0.00023960,0.00030484,-0.00008358,-0.000
 32812,-0.00031075,0.00085339,0.00015870,-0.00076552,-0.00112989,-0.003
 24598,0.00342128,0.00118411,0.00139847,0.00252288,0.00025443,0.0044499
 2,-0.00068418,0.00011435,-0.00011069,0.00323626,-0.00319563,0.00463846
 ,0.01086411,0.00318662,-0.00304309,0.13046841,0.02116581,-0.11990987,-
 0.00042935,-0.00171481,-0.00030949,-0.00025360,0.00035547,0.00006934,0
 .00004047,-0.00000583,0.00008459,0.00014991,0.00010827,0.00012075,-0.0
 0003309,-0.00004814,-0.00002680,-0.00000141,-0.00000432,0.00000310,0.0
 0000125,-0.00000258,-0.00000455,0.00000135,-0.00000199,-0.00000367,0.0
 0000557,-0.00000133,0.00000412,0.00000212,-0.00000156,-0.00000062,0.00
 000157,-0.00000022,0.00000045,-0.00000105,0.00000044,-0.00000208,0.000
 00099,0.,-0.00000001,0.00000076,0.00000092,0.00000008,0.00000015,0.000
 00146,-0.00000030,0.00000049,-0.00000173,-0.00000099,0.00000397,0.0000
 0036,-0.00000022,0.00001107,-0.00001150,-0.00000370,-0.00000035,-0.000
 00048,-0.00000203,0.00000035,-0.00000012,-0.00000012,0.00000015,0.0000
 0080,0.,-0.00000048,0.00000144,-0.00000025,0.00000223,0.00000096,-0.00
 000126,0.00000293,0.00000281,-0.00000079,-0.00001334,0.00002568,0.0000
 1063,-0.00001916,-0.00000116,-0.00001616,0.00021715,-0.00002963,0.0000
 9032,-0.00043322,0.00008500,-0.00072881,0.00051869,0.00015170,-0.00011
 133,-0.00250687,0.00032288,-0.00262843,-0.14640172,-0.02014659,0.12026
 604,-0.00040748,-0.00005616,-0.00066192,-0.00078913,-0.00030390,0.0016
 9811,-0.00008429,-0.00021784,0.00010054,-0.00001575,-0.00000925,-0.000
 03749,-0.00003781,-0.00000919,0.00007469,0.00001056,0.00000573,-0.0000
 5314,0.00001261,0.00002266,0.00000462,0.00000352,0.00001214,0.00000790
 ,0.00000196,0.00000165,0.00001938,-0.00000411,0.00001078,-0.00013498,-
 0.00000681,0.00020373,-0.00006695,-0.00001473,-0.00006428,0.00003667,-
 0.00004670,0.00003260,-0.00008291,0.00000539,-0.00002374,0.00006687,0.
 00002006,0.00003955,0.00002187,-0.00001286,-0.00002638,-0.00000016,0.0
 0000482,-0.00000514,0.00000331,-0.00001113,-0.00001600,-0.00000721,-0.
 00000880,0.00000410,0.00000412,-0.00001921,-0.00001748,-0.00001698,-0.
 00009844,-0.00002627,-0.00020582,0.00037864,-0.00014709,0.00029638,-0.
 00073703,0.00020901,0.00063042,-0.00189742,-0.00053514,-0.00114408,0.0
 0002267,-0.00046188,-0.00038317,0.00008135,-0.00005095,0.00028610,-0.0
 0004444,0.00006296,-0.00022660,0.00004307,-0.00005513,0.00002497,-0.00
 002035,0.00002670,0.00000027,-0.00000420,-0.00000246,0.00000353,-0.000
 00319,0.00000862,0.00000959,0.00000659,-0.00001184,-0.00000137,-0.0000
 1394,0.00001193,0.00000433,0.00013323,0.00065258,-0.00047576,0.0024101
 0,0.00276978,0.00360057,-0.00086730,0.00003079,0.00029516,0.00401413,0
 .00158952,0.00474519,0.00422229,-0.01080509,0.00807006,-0.00227309,-0.
 00257918,-0.00202613,-0.00065871,0.00041644,0.00060985,0.00007816,-0.0
 0063300,0.00008384,0.00037468,0.00032562,-0.00026793,-0.00068478,0.000
 27097,0.00024223,0.00069354,0.00003035,-0.00049805,-0.04490693,0.02799
 989,-0.00574650,0.00292348,0.01245124,-0.00863397,-0.00066264,0.000523
 77,0.00009711,-0.00001052,-0.00007657,-0.00006714,0.00000611,0.0000047
 4,0.00001232,0.00000875,0.00000992,-0.00000017,0.00000662,0.00000772,-
 0.00000287,-0.00000525,-0.00000440,-0.00000173,-0.00000930,0.00001175,
 -0.00003083,0.00000330,0.00000823,-0.00000776,0.00000296,-0.00000600,-
 0.00001110,0.00001196,0.00000277,-0.00000016,-0.00000365,-0.00000213,-
 0.00000619,-0.00000071,-0.00000310,-0.00000362,0.00000026,-0.00000755,
 -0.00000318,0.00000270,0.00001181,-0.00000397,-0.00000627,-0.00003521,
 -0.00001954,-0.00005593,0.00012476,0.00001293,0.00000397,0.00000111,-0
 .00000057,-0.00000036,0.00000487,0.00000377,0.00000016,0.00000200,0.00
 000116,-0.00000023,0.00000266,-0.00000091,0.00001097,-0.00000340,0.000
 00276,-0.00000252,0.00022216,0.00016166,-0.00066049,-0.00022128,-0.000
 38492,0.00024056,-0.00054132,0.00046158,-0.00002147,0.00002109,-0.0000
 4504,-0.00001122,0.00001252,-0.00001244,0.00002962,-0.00000507,0.00003
 871,0.00002975,-0.00002919,0.00001863,0.00023318,-0.00022602,0.0002183
 1,0.03908749,-0.00041066,0.00007043,0.00046968,-0.00120144,0.00049168,
 0.00052946,0.00008809,0.00020029,-0.00019225,0.00002949,0.00002938,-0.
 00000552,-0.00002112,-0.00005465,0.00007013,0.00001640,0.00000041,-0.0
 0002403,-0.00000721,-0.00000586,-0.00000179,0.00000388,0.00000448,-0.0
 0001224,-0.00000519,-0.00000627,-0.00000970,0.00015121,-0.00002727,0.0
 0020944,-0.00001934,-0.00018034,-0.00010757,0.00002338,0.00003594,0.00
 004212,-0.00001245,-0.00008063,0.00001463,-0.00004761,0.00006475,-0.00
 011048,-0.00001192,-0.00002041,-0.00001168,-0.00000105,0.00001415,0.00
 000045,-0.00000704,0.00000558,-0.00000166,0.00000693,0.00000747,0.0000
 0554,0.00000138,-0.00000802,-0.00000313,0.00001934,0.00000867,0.000022
 50,0.00008947,0.00003789,0.00010362,-0.00042221,0.00022972,-0.00045600
 ,-0.00041777,0.00025160,0.00064137,-0.00156490,-0.00027290,0.00107223,
 -0.00008261,-0.00044025,0.00005865,0.00009112,0.00023036,-0.00010534,-
 0.00000365,0.00017416,-0.00009720,-0.00000383,0.00006951,-0.00002355,0
 .00003224,-0.00004971,0.00002312,0.00000412,0.00000329,-0.00000568,0.0
 0000808,-0.00001712,-0.00000732,-0.00001053,0.00000453,-0.00001187,0.0
 0001476,-0.00001227,-0.00002213,-0.00026577,-0.00062588,0.00101882,0.0
 0380390,-0.00068726,-0.00235773,-0.00000355,0.00034349,-0.00056774,0.0
 0156367,0.00183707,0.00085079,0.00029978,0.00085163,0.00146076,-0.0005
 1568,-0.00108327,-0.00151954,-0.00054963,0.00037938,0.00033748,0.00001
 197,-0.00035669,0.00001848,0.00021761,0.00008314,-0.00007663,-0.000027
 02,0.00016627,0.00005519,0.00007731,-0.00065707,-0.00152287,0.02790208
 ,-0.26430789,0.12415003,0.00145886,-0.01726356,0.01182216,0.00025790,-
 0.00036952,0.00003391,-0.00006221,-0.00001101,-0.00006063,-0.00000350,
 -0.00000464,-0.00000509,0.00000049,0.00000056,-0.00000301,-0.00000045,
 -0.00000310,0.00000003,0.00000760,0.00000337,-0.00000753,-0.00001027,0
 .00000005,0.00001867,-0.00000039,-0.00000421,0.00000429,0.00000370,-0.
 00000299,0.00000407,-0.00000497,0.00000088,-0.00000481,0.00000262,0.00
 000119,0.00000146,0.00000140,0.00000240,0.00000140,0.00000136,0.000007
 51,0.00000207,-0.00000042,-0.00000890,0.00000035,0.00003527,-0.0000222
 3,-0.00000406,0.00003710,-0.00011759,-0.00002967,-0.00000563,0.0000021
 6,-0.00000143,0.00000227,-0.00000756,-0.00000865,0.00000115,-0.0000043
 3,-0.00000310,0.00000267,-0.00000648,0.00000146,-0.00001481,0.00000435
 ,-0.00000981,0.00015072,-0.00023924,-0.00012010,-0.00025012,-0.0001866
 5,-0.00007918,0.00005600,0.00005523,-0.00002911,-0.00001730,0.00000563
 ,-0.00002689,0.00000207,0.00001516,0.00003309,0.00002101,0.00000469,0.
 00002025,-0.00005354,0.00001085,-0.00005478,0.00047993,-0.00077873,-0.
 00133425,-0.03094259,0.28221522,-0.00036374,0.00011510,-0.00148364,0.0
 0255084,0.00052817,0.00033337,-0.00006721,0.00020969,0.00002307,0.0000
 6719,0.00009305,0.00007446,-0.00008549,-0.00013316,0.00008945,0.000019
 84,0.00002311,-0.00003827,-0.00001193,-0.00001847,-0.00000231,0.000013
 67,0.00000408,-0.00001528,-0.00002758,-0.00003690,-0.00004862,0.000057
 03,-0.00001548,0.00005997,-0.00006877,-0.00008212,-0.00006717,0.000033
 21,0.00003681,0.00000965,0.00000054,-0.00005180,0.00002833,-0.00006071
 ,0.00003633,-0.00008584,-0.00000690,-0.00003261,-0.00002034,0.00000528
 ,0.00002281,0.00000053,-0.00000747,0.00000578,-0.00000142,0.00000889,0
 .00001113,0.00000680,0.00000634,-0.00000738,-0.00000116,0.00001334,0.0
 0001228,0.00002055,-0.00000696,0.00002663,0.00016568,-0.00001525,-0.00
 003792,-0.00047178,0.00052808,-0.00057635,-0.00080239,-0.00065428,-0.0
 0026684,-0.00053195,-0.00025207,0.00000362,0.00007365,0.00008435,0.000
 10194,0.00003880,-0.00007853,-0.00008645,0.00003965,0.00001569,0.00001
 403,-0.00002073,0.00000942,-0.00001204,0.00001395,0.00000189,-0.000002
 26,-0.00000603,-0.00000064,-0.00000243,-0.00000563,-0.00000576,0.00000
 485,-0.00000191,0.00001400,-0.00000114,0.00000140,-0.00006837,-0.00055
 599,0.00040611,0.00316799,-0.00123535,-0.00031276,0.00001225,-0.000631
 81,-0.00029847,0.00493493,-0.00038598,-0.00266069,-0.00214865,0.024896
 28,-0.00875083,-0.00226466,-0.00002833,-0.00021972,0.00009316,0.000135
 96,0.00020259,-0.00012054,-0.00001284,0.00016100,-0.00010717,-0.000008
 40,0.00001104,-0.00013809,-0.00040821,0.00020315,0.00088464,0.00005318
 ,-0.00061406,-0.00487135,0.12441673,-0.12278857,0.00075730,-0.01178766
 ,0.01023172,-0.00023474,0.00010171,0.00019186,-0.00003019,-0.00002445,
 -0.00001160,-0.00001021,-0.00001537,-0.00001220,0.00000178,0.00000168,
 -0.00000589,-0.00000142,-0.00000572,-0.00000272,0.00001646,0.00001359,
 -0.00001733,0.00000113,-0.00000798,0.00001954,0.00000234,-0.00000840,0
 .00000789,0.00000373,-0.00000057,0.00000930,-0.00000817,-0.00000164,-0
 .00000468,0.00000499,0.00000155,0.00000463,0.00000219,0.00000414,0.000
 00273,-0.00000006,0.00000712,0.00000083,0.00000170,-0.00001041,-0.0000
 0022,0.00001959,-0.00000405,-0.00000351,0.00002062,-0.00005269,-0.0000
 1609,-0.00000397,-0.00000328,-0.00000461,0.00000117,-0.00000252,-0.000
 00146,-0.00000098,0.00000037,-0.00000048,-0.00000051,0.00000054,-0.000
 00056,-0.00000410,-0.00000058,-0.00000662,0.00017250,-0.00014063,-0.00
 003598,-0.00038158,-0.00007317,-0.00016030,-0.00002877,0.00127938,-0.0
 0037206,-0.00015315,-0.00003140,0.00000307,-0.00003499,0.00000706,0.00
 000224,-0.00006050,0.00000671,0.00003344,0.00000324,0.00002153,-0.0000
 1419,-0.00044962,-0.00133418,-0.00075980,-0.00069623,-0.13406197,0.128
 20942\\0.00001098,-0.00000902,0.00000138,-0.00000831,-0.00000052,-0.00
 000337,-0.00000121,-0.00000892,-0.00000681,-0.00000143,0.00000463,0.00
 000637,0.00000356,0.00000075,0.00000111,-0.00000152,-0.00000336,-0.000
 00205,-0.00000071,0.00000222,-0.00000315,-0.00000004,-0.00000028,0.000
 00227,-0.00000034,-0.00000129,0.00000031,-0.00000031,0.00000253,0.0000
 0085,0.00000249,0.00000086,0.00000450,0.00000083,0.00000158,-0.0000003
 5,-0.00000236,-0.00000261,0.00000748,-0.00000678,-0.00000411,-0.000007
 28,0.00000101,0.00000822,0.00000068,0.00000678,-0.00000021,0.00000028,
 -0.00000004,-0.00000586,0.00000015,-0.00000569,0.00000161,-0.00000305,
 0.00000421,0.00000401,0.00000268,-0.00000468,-0.00000310,0.00000062,0.
 00000952,0.00000564,0.00000712,0.00000312,-0.00000671,-0.00000687,0.00
 000327,0.00000925,0.00000612,0.00001046,-0.00001801,-0.00002261,-0.000
 00884,0.00000731,0.00000925,-0.00000311,0.00001484,-0.00000772,-0.0000
 0167,0.00001049,0.00000855,-0.00000322,-0.00000548,-0.00000797,0.00000
 494,0.00000017,0.00000027,-0.00000139,0.00000402,0.00000205,-0.0000008
 6,-0.00000238,0.00000338,0.00000006,0.00000029,-0.00000226,0.00000025,
 0.00000154,0.00000010,0.00000085,-0.00000156,0.00000038,0.00000129,-0.
 00000259,-0.00000302,0.00000113,-0.00000123,0.00000121,-0.00000096,0.0
 0000273,-0.00000738,-0.00000720,0.00000471,0.00000637,0.00000216,-0.00
 000854,0.,0.00000702,0.00000021,-0.00000068,-0.00000016,0.00000582,-0.
 00000019,-0.00000571,-0.00000155,0.00000323,0.00000470,-0.00000414,-0.
 00000275,-0.00000443,0.00000226,-0.00000090,-0.00000384,-0.00000443,-0
 .00000160,-0.00000345,0.00000211,0.00000990,0.00000200,0.00001227,-0.0
 0000275,-0.00000014,0.00000334,-0.00000162,0.00000052,0.00000084,0.000
 00067,0.00000077,-0.00000055,0.00000136,0.00000046,0.00000003,-0.00000
 058,0.00000101,0.00000197,0.00000087,-0.00000079,-0.00000248,-0.000000
 71,-0.00000046,-0.00000039,-0.00000133,0.00000413,0.00000318,-0.000001
 10,-0.00000333,-0.00000323,0.00000032,-0.00000046,0.00000085,-0.000000
 43,0.00000060,0.00000008,-0.00000026,0.00000012,-0.00000068,-0.0000003
 0,-0.00000032,-0.00000365,-0.00000198,0.00000206,0.00000093,0.00000274
 ,-0.00000137,-0.00001027,0.00000489,-0.00000231,-0.00000151,0.00000035
 ,0.00000052,-0.00000098,-0.00000061,0.00000078,0.00000060,-0.00000141,
 0.00000048,0.,0.00000063,0.00000132,-0.00000211,-0.00000103,-0.0000020
 9,0.00000218,-0.00000014,-0.00000114,0.00000029,0.00000134,0.00000392,
 -0.00000353,0.00000083,-0.00000348,0.00000329,-0.00000030,-0.00000046,
 -0.00000097,0.00000041,0.00000062,-0.00000003,0.00000022,0.00000046,0.
 00000061,-0.00000021,-0.00000183,0.00000294,0.00000201,-0.00000196,-0.
 00000492,0.00000148\\\@
 The archive entry for this job was punched.


 ROSE IS A RED
 TY COBB IS BLUE
 'CAUSE PETE JUST HIT
 NO. 4592.
 Job cpu time:       0 days 11 hours 55 minutes 30.3 seconds.
 Elapsed time:       0 days  0 hours 22 minutes 33.3 seconds.
 File lengths (MBytes):  RWF=   4105 Int=      0 D2E=      0 Chk=     44 Scr=      2
 Normal termination of Gaussian 16 at Wed Sep 24 11:29:58 2025.
