 Entering Gaussian System, Link 0=g16
 Initial command:
 /public/apps/g16-C01//g16/l1.exe "/public/home/ljq/tmp/Gau-19680.inp" -scrdir="/public/home/ljq/tmp/"
 Entering Link 1 = /public/apps/g16-C01//g16/l1.exe PID=     19682.
  
 Copyright (c) 1988-2019, Gaussian, Inc.  All Rights Reserved.
  
 This is part of the Gaussian(R) 16 program.  It is based on
 the Gaussian(R) 09 system (copyright 2009, Gaussian, Inc.),
 the Gaussian(R) 03 system (copyright 2003, Gaussian, Inc.),
 the Gaussian(R) 98 system (copyright 1998, Gaussian, Inc.),
 the Gaussian(R) 94 system (copyright 1995, Gaussian, Inc.),
 the Gaussian 92(TM) system (copyright 1992, Gaussian, Inc.),
 the Gaussian 90(TM) system (copyright 1990, Gaussian, Inc.),
 the Gaussian 88(TM) system (copyright 1988, Gaussian, Inc.),
 the Gaussian 86(TM) system (copyright 1986, Carnegie Mellon
 University), and the Gaussian 82(TM) system (copyright 1983,
 Carnegie Mellon University). Gaussian is a federally registered
 trademark of Gaussian, Inc.
  
 This software contains proprietary and confidential information,
 including trade secrets, belonging to Gaussian, Inc.
  
 This software is provided under written license and may be
 used, copied, transmitted, or stored only in accord with that
 written license.
  
 The following legend is applicable only to US Government
 contracts under FAR:
  
                    RESTRICTED RIGHTS LEGEND
  
 Use, reproduction and disclosure by the US Government is
 subject to restrictions as set forth in subparagraphs (a)
 and (c) of the Commercial Computer Software - Restricted
 Rights clause in FAR 52.227-19.
  
 Gaussian, Inc.
 340 Quinnipiac St., Bldg. 40, Wallingford CT 06492
  
  
 ---------------------------------------------------------------
 Warning -- This program may not be used in any manner that
 competes with the business of Gaussian, Inc. or will provide
 assistance to any competitor of Gaussian, Inc.  The licensee
 of this program is prohibited from giving any competitor of
 Gaussian, Inc. access to this program.  By using this program,
 the user acknowledges that Gaussian, Inc. is engaged in the
 business of creating and licensing software in the field of
 computational chemistry and represents and warrants to the
 licensee that it is not a competitor of Gaussian, Inc. and that
 it will not use this program in any manner prohibited above.
 ---------------------------------------------------------------
  

 Cite this work as:
 Gaussian 16, Revision C.01,
 M. J. Frisch, G. W. Trucks, H. B. Schlegel, G. E. Scuseria, 
 M. A. Robb, J. R. Cheeseman, G. Scalmani, V. Barone, 
 G. A. Petersson, H. Nakatsuji, X. Li, M. Caricato, A. V. Marenich, 
 J. Bloino, B. G. Janesko, R. Gomperts, B. Mennucci, H. P. Hratchian, 
 J. V. Ortiz, A. F. Izmaylov, J. L. Sonnenberg, D. Williams-Young, 
 F. Ding, F. Lipparini, F. Egidi, J. Goings, B. Peng, A. Petrone, 
 T. Henderson, D. Ranasinghe, V. G. Zakrzewski, J. Gao, N. Rega, 
 G. Zheng, W. Liang, M. Hada, M. Ehara, K. Toyota, R. Fukuda, 
 J. Hasegawa, M. Ishida, T. Nakajima, Y. Honda, O. Kitao, H. Nakai, 
 T. Vreven, K. Throssell, J. A. Montgomery, Jr., J. E. Peralta, 
 F. Ogliaro, M. J. Bearpark, J. J. Heyd, E. N. Brothers, K. N. Kudin, 
 V. N. Staroverov, T. A. Keith, R. Kobayashi, J. Normand, 
 K. Raghavachari, A. P. Rendell, J. C. Burant, S. S. Iyengar, 
 J. Tomasi, M. Cossi, J. M. Millam, M. Klene, C. Adamo, R. Cammi, 
 J. W. Ochterski, R. L. Martin, K. Morokuma, O. Farkas, 
 J. B. Foresman, and D. J. Fox, Gaussian, Inc., Wallingford CT, 2019.
 
 ******************************************
 Gaussian 16:  ES64L-G16RevC.01  3-Jul-2019
                15-Aug-2022 
 ******************************************
 %nproc=40
 Will use up to   40 processors via shared memory.
 %mem=56GB
 ------------------------------------------
 #p opt freq b3lyp/def2svpp em=gd3bj nosymm
 ------------------------------------------
 1/18=20,19=15,26=3,38=1/1,3;
 2/9=110,12=2,15=1,17=6,18=5,40=1/2;
 3/5=43,7=202,11=2,25=1,30=1,71=1,74=-5,124=41/1,2,3;
 4//1;
 5/5=2,38=5/2;
 6/7=2,8=2,9=2,10=2,28=1/1;
 7/30=1/1,2,3,16;
 1/18=20,19=15,26=3/3(2);
 2/9=110,15=1/2;
 99//99;
 2/9=110,15=1/2;
 3/5=43,7=202,11=2,25=1,30=1,71=1,74=-5,124=41/1,2,3;
 4/5=5,16=3,69=1/1;
 5/5=2,38=5/2;
 7/30=1/1,2,3,16;
 1/18=20,19=15,26=3/3(-5);
 2/9=110,15=1/2;
 6/7=2,8=2,9=2,10=2,19=2,28=1/1;
 99/9=1/99;
 Leave Link    1 at Mon Aug 15 05:13:27 2022, MaxMem=  7516192768 cpu:               1.4 elap:               0.1
 (Enter /public/apps/g16-C01//g16/l101.exe)
 ----------------------
 $$$$Singlemol####0????
 ----------------------
 Symbolic Z-matrix:
 Charge =  0 Multiplicity = 1
 C                     5.06233   0.62646  -0.53043 
 C                     3.80322  -0.24114  -0.48746 
 C                     4.19491  -1.69623  -0.21761 
 C                     3.05821  -0.16399  -1.82094 
 C                     2.89359   0.21811   0.67675 
 C                     2.36282   1.67747   0.59993 
 O                     0.94491   1.53971   0.57423 
 C                     0.69713   0.21558   0.65243 
 C                    -0.69634  -0.21267   0.65262 
 N                    -1.68477   0.57454   0.72149 
 C                    -2.8928   -0.21683   0.67658 
 C                    -3.80409   0.23939  -0.48746 
 C                    -5.06151  -0.63078  -0.52861 
 C                    -4.19851   1.69396  -0.21887 
 C                    -3.05984   0.16225  -1.82137 
 C                    -2.36097  -1.67589   0.60195 
 O                    -0.94316  -1.53717   0.57745 
 N                     1.68498  -0.57215   0.72368 
 H                     5.73818   0.25526  -1.29729 
 H                     4.82655   1.66289  -0.75951 
 H                     5.58056   0.59712   0.42561 
 H                     4.78643  -1.77127   0.69193 
 H                     4.78172  -2.08923  -1.0444 
 H                     3.30034  -2.30015  -0.09712 
 H                     2.75043   0.85364  -2.05127 
 H                     2.17266  -0.79441  -1.78764 
 H                     3.70166  -0.5121   -2.62555 
 H                     3.4421    0.05046   1.61091 
 H                     2.64058   2.27127   1.47444 
 H                     2.67283   2.20605  -0.304 
 H                    -3.44057  -0.04802   1.61099 
 H                    -4.82389  -1.66687  -0.75732 
 H                    -5.73895  -0.26145  -1.29496 
 H                    -5.57881  -0.60196   0.42796 
 H                    -4.78609   2.08513  -1.04599 
 H                    -3.3051    2.29968  -0.09895 
 H                    -4.7902    1.76866   0.69061 
 H                    -2.17545   0.79435  -1.7893 
 H                    -3.70451   0.50831  -2.62588 
 H                    -2.75033  -0.85505  -2.05083 
 H                    -2.63917  -2.26904   1.47674 
 H                    -2.66967  -2.20554  -0.30182 
 
 ITRead=  0  0  0  0  0  0  0  0  0  0  0  0  0  0  0  0  0  0  0  0
 ITRead=  0  0  0  0  0  0  0  0  0  0  0  0  0  0  0  0  0  0  0  0
 ITRead=  0  0
 MicOpt= -1 -1 -1 -1 -1 -1 -1 -1 -1 -1 -1 -1 -1 -1 -1 -1 -1 -1 -1 -1
 MicOpt= -1 -1 -1 -1 -1 -1 -1 -1 -1 -1 -1 -1 -1 -1 -1 -1 -1 -1 -1 -1
 MicOpt= -1 -1
 NAtoms=     42 NQM=       42 NQMF=       0 NMMI=      0 NMMIF=      0
                NMic=       0 NMicF=      0.
                    Isotopes and Nuclear Properties:
 (Nuclear quadrupole moments (NQMom) in fm**2, nuclear magnetic moments (NMagM)
  in nuclear magnetons)

  Atom         1           2           3           4           5           6           7           8           9          10
 IAtWgt=          12          12          12          12          12          12          16          12          12          14
 AtmWgt=  12.0000000  12.0000000  12.0000000  12.0000000  12.0000000  12.0000000  15.9949146  12.0000000  12.0000000  14.0030740
 NucSpn=           0           0           0           0           0           0           0           0           0           2
 AtZEff=  -0.0000000  -0.0000000  -0.0000000  -0.0000000  -0.0000000  -0.0000000  -0.0000000  -0.0000000  -0.0000000  -0.0000000
 NQMom=    0.0000000   0.0000000   0.0000000   0.0000000   0.0000000   0.0000000   0.0000000   0.0000000   0.0000000   2.0440000
 NMagM=    0.0000000   0.0000000   0.0000000   0.0000000   0.0000000   0.0000000   0.0000000   0.0000000   0.0000000   0.4037610
 AtZNuc=   6.0000000   6.0000000   6.0000000   6.0000000   6.0000000   6.0000000   8.0000000   6.0000000   6.0000000   7.0000000

  Atom        11          12          13          14          15          16          17          18          19          20
 IAtWgt=          12          12          12          12          12          12          16          14           1           1
 AtmWgt=  12.0000000  12.0000000  12.0000000  12.0000000  12.0000000  12.0000000  15.9949146  14.0030740   1.0078250   1.0078250
 NucSpn=           0           0           0           0           0           0           0           2           1           1
 AtZEff=  -0.0000000  -0.0000000  -0.0000000  -0.0000000  -0.0000000  -0.0000000  -0.0000000  -0.0000000  -0.0000000  -0.0000000
 NQMom=    0.0000000   0.0000000   0.0000000   0.0000000   0.0000000   0.0000000   0.0000000   2.0440000   0.0000000   0.0000000
 NMagM=    0.0000000   0.0000000   0.0000000   0.0000000   0.0000000   0.0000000   0.0000000   0.4037610   2.7928460   2.7928460
 AtZNuc=   6.0000000   6.0000000   6.0000000   6.0000000   6.0000000   6.0000000   8.0000000   7.0000000   1.0000000   1.0000000

  Atom        21          22          23          24          25          26          27          28          29          30
 IAtWgt=           1           1           1           1           1           1           1           1           1           1
 AtmWgt=   1.0078250   1.0078250   1.0078250   1.0078250   1.0078250   1.0078250   1.0078250   1.0078250   1.0078250   1.0078250
 NucSpn=           1           1           1           1           1           1           1           1           1           1
 AtZEff=  -0.0000000  -0.0000000  -0.0000000  -0.0000000  -0.0000000  -0.0000000  -0.0000000  -0.0000000  -0.0000000  -0.0000000
 NQMom=    0.0000000   0.0000000   0.0000000   0.0000000   0.0000000   0.0000000   0.0000000   0.0000000   0.0000000   0.0000000
 NMagM=    2.7928460   2.7928460   2.7928460   2.7928460   2.7928460   2.7928460   2.7928460   2.7928460   2.7928460   2.7928460
 AtZNuc=   1.0000000   1.0000000   1.0000000   1.0000000   1.0000000   1.0000000   1.0000000   1.0000000   1.0000000   1.0000000

  Atom        31          32          33          34          35          36          37          38          39          40
 IAtWgt=           1           1           1           1           1           1           1           1           1           1
 AtmWgt=   1.0078250   1.0078250   1.0078250   1.0078250   1.0078250   1.0078250   1.0078250   1.0078250   1.0078250   1.0078250
 NucSpn=           1           1           1           1           1           1           1           1           1           1
 AtZEff=  -0.0000000  -0.0000000  -0.0000000  -0.0000000  -0.0000000  -0.0000000  -0.0000000  -0.0000000  -0.0000000  -0.0000000
 NQMom=    0.0000000   0.0000000   0.0000000   0.0000000   0.0000000   0.0000000   0.0000000   0.0000000   0.0000000   0.0000000
 NMagM=    2.7928460   2.7928460   2.7928460   2.7928460   2.7928460   2.7928460   2.7928460   2.7928460   2.7928460   2.7928460
 AtZNuc=   1.0000000   1.0000000   1.0000000   1.0000000   1.0000000   1.0000000   1.0000000   1.0000000   1.0000000   1.0000000

  Atom        41          42
 IAtWgt=           1           1
 AtmWgt=   1.0078250   1.0078250
 NucSpn=           1           1
 AtZEff=  -0.0000000  -0.0000000
 NQMom=    0.0000000   0.0000000
 NMagM=    2.7928460   2.7928460
 AtZNuc=   1.0000000   1.0000000
 Leave Link  101 at Mon Aug 15 05:13:28 2022, MaxMem=  7516192768 cpu:               6.9 elap:               0.6
 (Enter /public/apps/g16-C01//g16/l103.exe)

 GradGradGradGradGradGradGradGradGradGradGradGradGradGradGradGradGradGrad
 Berny optimization.
 Initialization pass.
                           ----------------------------
                           !    Initial Parameters    !
                           ! (Angstroms and Degrees)  !
 --------------------------                            --------------------------
 ! Name  Definition              Value          Derivative Info.                !
 --------------------------------------------------------------------------------
 ! R1    R(1,2)                  1.5297         estimate D2E/DX2                !
 ! R2    R(1,19)                 1.0875         estimate D2E/DX2                !
 ! R3    R(1,20)                 1.0873         estimate D2E/DX2                !
 ! R4    R(1,21)                 1.0879         estimate D2E/DX2                !
 ! R5    R(2,3)                  1.5309         estimate D2E/DX2                !
 ! R6    R(2,4)                  1.5294         estimate D2E/DX2                !
 ! R7    R(2,5)                  1.5472         estimate D2E/DX2                !
 ! R8    R(3,22)                 1.0876         estimate D2E/DX2                !
 ! R9    R(3,23)                 1.0874         estimate D2E/DX2                !
 ! R10   R(3,24)                 1.086          estimate D2E/DX2                !
 ! R11   R(4,25)                 1.0878         estimate D2E/DX2                !
 ! R12   R(4,26)                 1.0875         estimate D2E/DX2                !
 ! R13   R(4,27)                 1.0875         estimate D2E/DX2                !
 ! R14   R(5,6)                  1.5548         estimate D2E/DX2                !
 ! R15   R(5,18)                 1.4448         estimate D2E/DX2                !
 ! R16   R(5,28)                 1.0962         estimate D2E/DX2                !
 ! R17   R(6,7)                  1.4248         estimate D2E/DX2                !
 ! R18   R(6,29)                 1.0929         estimate D2E/DX2                !
 ! R19   R(6,30)                 1.0921         estimate D2E/DX2                !
 ! R20   R(7,8)                  1.3494         estimate D2E/DX2                !
 ! R21   R(8,9)                  1.4578         estimate D2E/DX2                !
 ! R22   R(8,18)                 1.2655         estimate D2E/DX2                !
 ! R23   R(9,10)                 1.2655         estimate D2E/DX2                !
 ! R24   R(9,17)                 1.3494         estimate D2E/DX2                !
 ! R25   R(10,11)                1.4449         estimate D2E/DX2                !
 ! R26   R(11,12)                1.5471         estimate D2E/DX2                !
 ! R27   R(11,16)                1.5548         estimate D2E/DX2                !
 ! R28   R(11,31)                1.0962         estimate D2E/DX2                !
 ! R29   R(12,13)                1.5297         estimate D2E/DX2                !
 ! R30   R(12,14)                1.5309         estimate D2E/DX2                !
 ! R31   R(12,15)                1.5294         estimate D2E/DX2                !
 ! R32   R(13,32)                1.0873         estimate D2E/DX2                !
 ! R33   R(13,33)                1.0875         estimate D2E/DX2                !
 ! R34   R(13,34)                1.0879         estimate D2E/DX2                !
 ! R35   R(14,35)                1.0874         estimate D2E/DX2                !
 ! R36   R(14,36)                1.086          estimate D2E/DX2                !
 ! R37   R(14,37)                1.0876         estimate D2E/DX2                !
 ! R38   R(15,38)                1.0875         estimate D2E/DX2                !
 ! R39   R(15,39)                1.0875         estimate D2E/DX2                !
 ! R40   R(15,40)                1.0878         estimate D2E/DX2                !
 ! R41   R(16,17)                1.4248         estimate D2E/DX2                !
 ! R42   R(16,41)                1.0929         estimate D2E/DX2                !
 ! R43   R(16,42)                1.0921         estimate D2E/DX2                !
 ! A1    A(2,1,19)             109.7403         estimate D2E/DX2                !
 ! A2    A(2,1,20)             111.5957         estimate D2E/DX2                !
 ! A3    A(2,1,21)             110.6173         estimate D2E/DX2                !
 ! A4    A(19,1,20)            108.1538         estimate D2E/DX2                !
 ! A5    A(19,1,21)            108.3277         estimate D2E/DX2                !
 ! A6    A(20,1,21)            108.3109         estimate D2E/DX2                !
 ! A7    A(1,2,3)              109.4786         estimate D2E/DX2                !
 ! A8    A(1,2,4)              110.3558         estimate D2E/DX2                !
 ! A9    A(1,2,5)              109.6774         estimate D2E/DX2                !
 ! A10   A(3,2,4)              109.0424         estimate D2E/DX2                !
 ! A11   A(3,2,5)              107.4532         estimate D2E/DX2                !
 ! A12   A(4,2,5)              110.7754         estimate D2E/DX2                !
 ! A13   A(2,3,22)             110.6195         estimate D2E/DX2                !
 ! A14   A(2,3,23)             110.3395         estimate D2E/DX2                !
 ! A15   A(2,3,24)             109.716          estimate D2E/DX2                !
 ! A16   A(22,3,23)            108.5078         estimate D2E/DX2                !
 ! A17   A(22,3,24)            108.4729         estimate D2E/DX2                !
 ! A18   A(23,3,24)            109.1412         estimate D2E/DX2                !
 ! A19   A(2,4,25)             111.6918         estimate D2E/DX2                !
 ! A20   A(2,4,26)             109.9196         estimate D2E/DX2                !
 ! A21   A(2,4,27)             109.9211         estimate D2E/DX2                !
 ! A22   A(25,4,26)            108.5646         estimate D2E/DX2                !
 ! A23   A(25,4,27)            108.0716         estimate D2E/DX2                !
 ! A24   A(26,4,27)            108.5962         estimate D2E/DX2                !
 ! A25   A(2,5,6)              116.2403         estimate D2E/DX2                !
 ! A26   A(2,5,18)             110.7262         estimate D2E/DX2                !
 ! A27   A(2,5,28)             107.5576         estimate D2E/DX2                !
 ! A28   A(6,5,18)             103.2641         estimate D2E/DX2                !
 ! A29   A(6,5,28)             110.8842         estimate D2E/DX2                !
 ! A30   A(18,5,28)            107.8935         estimate D2E/DX2                !
 ! A31   A(5,6,7)              104.4689         estimate D2E/DX2                !
 ! A32   A(5,6,29)             112.561          estimate D2E/DX2                !
 ! A33   A(5,6,30)             113.4728         estimate D2E/DX2                !
 ! A34   A(7,6,29)             108.6549         estimate D2E/DX2                !
 ! A35   A(7,6,30)             108.3225         estimate D2E/DX2                !
 ! A36   A(29,6,30)            109.0985         estimate D2E/DX2                !
 ! A37   A(6,7,8)              106.0559         estimate D2E/DX2                !
 ! A38   A(7,8,9)              117.6329         estimate D2E/DX2                !
 ! A39   A(7,8,18)             118.0823         estimate D2E/DX2                !
 ! A40   A(9,8,18)             124.2846         estimate D2E/DX2                !
 ! A41   A(8,9,10)             124.3238         estimate D2E/DX2                !
 ! A42   A(8,9,17)             117.5926         estimate D2E/DX2                !
 ! A43   A(10,9,17)            118.0834         estimate D2E/DX2                !
 ! A44   A(9,10,11)            108.0975         estimate D2E/DX2                !
 ! A45   A(10,11,12)           110.7533         estimate D2E/DX2                !
 ! A46   A(10,11,16)           103.2676         estimate D2E/DX2                !
 ! A47   A(10,11,31)           107.8759         estimate D2E/DX2                !
 ! A48   A(12,11,16)           116.2378         estimate D2E/DX2                !
 ! A49   A(12,11,31)           107.5535         estimate D2E/DX2                !
 ! A50   A(16,11,31)           110.8771         estimate D2E/DX2                !
 ! A51   A(11,12,13)           109.6743         estimate D2E/DX2                !
 ! A52   A(11,12,14)           107.4541         estimate D2E/DX2                !
 ! A53   A(11,12,15)           110.7756         estimate D2E/DX2                !
 ! A54   A(13,12,14)           109.4771         estimate D2E/DX2                !
 ! A55   A(13,12,15)           110.3562         estimate D2E/DX2                !
 ! A56   A(14,12,15)           109.0456         estimate D2E/DX2                !
 ! A57   A(12,13,32)           111.5962         estimate D2E/DX2                !
 ! A58   A(12,13,33)           109.744          estimate D2E/DX2                !
 ! A59   A(12,13,34)           110.6193         estimate D2E/DX2                !
 ! A60   A(32,13,33)           108.1515         estimate D2E/DX2                !
 ! A61   A(32,13,34)           108.3077         estimate D2E/DX2                !
 ! A62   A(33,13,34)           108.3267         estimate D2E/DX2                !
 ! A63   A(12,14,35)           110.3394         estimate D2E/DX2                !
 ! A64   A(12,14,36)           109.7162         estimate D2E/DX2                !
 ! A65   A(12,14,37)           110.6193         estimate D2E/DX2                !
 ! A66   A(35,14,36)           109.1398         estimate D2E/DX2                !
 ! A67   A(35,14,37)           108.506          estimate D2E/DX2                !
 ! A68   A(36,14,37)           108.4763         estimate D2E/DX2                !
 ! A69   A(12,15,38)           109.9189         estimate D2E/DX2                !
 ! A70   A(12,15,39)           109.9197         estimate D2E/DX2                !
 ! A71   A(12,15,40)           111.6902         estimate D2E/DX2                !
 ! A72   A(38,15,39)           108.5987         estimate D2E/DX2                !
 ! A73   A(38,15,40)           108.5655         estimate D2E/DX2                !
 ! A74   A(39,15,40)           108.072          estimate D2E/DX2                !
 ! A75   A(11,16,17)           104.4682         estimate D2E/DX2                !
 ! A76   A(11,16,41)           112.5708         estimate D2E/DX2                !
 ! A77   A(11,16,42)           113.4643         estimate D2E/DX2                !
 ! A78   A(17,16,41)           108.6574         estimate D2E/DX2                !
 ! A79   A(17,16,42)           108.3169         estimate D2E/DX2                !
 ! A80   A(41,16,42)           109.1007         estimate D2E/DX2                !
 ! A81   A(9,17,16)            106.0589         estimate D2E/DX2                !
 ! A82   A(5,18,8)             108.1014         estimate D2E/DX2                !
 ! D1    D(19,1,2,3)            57.8817         estimate D2E/DX2                !
 ! D2    D(19,1,2,4)           -62.1419         estimate D2E/DX2                !
 ! D3    D(19,1,2,5)           175.5498         estimate D2E/DX2                !
 ! D4    D(20,1,2,3)           177.7533         estimate D2E/DX2                !
 ! D5    D(20,1,2,4)            57.7297         estimate D2E/DX2                !
 ! D6    D(20,1,2,5)           -64.5786         estimate D2E/DX2                !
 ! D7    D(21,1,2,3)           -61.5872         estimate D2E/DX2                !
 ! D8    D(21,1,2,4)           178.3892         estimate D2E/DX2                !
 ! D9    D(21,1,2,5)            56.0809         estimate D2E/DX2                !
 ! D10   D(1,2,3,22)            55.2857         estimate D2E/DX2                !
 ! D11   D(1,2,3,23)           -64.7933         estimate D2E/DX2                !
 ! D12   D(1,2,3,24)           174.9203         estimate D2E/DX2                !
 ! D13   D(4,2,3,22)           176.1101         estimate D2E/DX2                !
 ! D14   D(4,2,3,23)            56.0311         estimate D2E/DX2                !
 ! D15   D(4,2,3,24)           -64.2553         estimate D2E/DX2                !
 ! D16   D(5,2,3,22)           -63.7665         estimate D2E/DX2                !
 ! D17   D(5,2,3,23)           176.1545         estimate D2E/DX2                !
 ! D18   D(5,2,3,24)            55.8681         estimate D2E/DX2                !
 ! D19   D(1,2,4,25)           -60.2555         estimate D2E/DX2                !
 ! D20   D(1,2,4,26)           179.1745         estimate D2E/DX2                !
 ! D21   D(1,2,4,27)            59.6953         estimate D2E/DX2                !
 ! D22   D(3,2,4,25)           179.4586         estimate D2E/DX2                !
 ! D23   D(3,2,4,26)            58.8886         estimate D2E/DX2                !
 ! D24   D(3,2,4,27)           -60.5907         estimate D2E/DX2                !
 ! D25   D(5,2,4,25)            61.405          estimate D2E/DX2                !
 ! D26   D(5,2,4,26)           -59.165          estimate D2E/DX2                !
 ! D27   D(5,2,4,27)          -178.6443         estimate D2E/DX2                !
 ! D28   D(1,2,5,6)             61.6042         estimate D2E/DX2                !
 ! D29   D(1,2,5,18)           178.9929         estimate D2E/DX2                !
 ! D30   D(1,2,5,28)           -63.3431         estimate D2E/DX2                !
 ! D31   D(3,2,5,6)           -179.4712         estimate D2E/DX2                !
 ! D32   D(3,2,5,18)           -62.0825         estimate D2E/DX2                !
 ! D33   D(3,2,5,28)            55.5815         estimate D2E/DX2                !
 ! D34   D(4,2,5,6)            -60.4539         estimate D2E/DX2                !
 ! D35   D(4,2,5,18)            56.9347         estimate D2E/DX2                !
 ! D36   D(4,2,5,28)           174.5987         estimate D2E/DX2                !
 ! D37   D(2,5,6,7)            119.8549         estimate D2E/DX2                !
 ! D38   D(2,5,6,29)          -122.4397         estimate D2E/DX2                !
 ! D39   D(2,5,6,30)             2.0796         estimate D2E/DX2                !
 ! D40   D(18,5,6,7)            -1.5832         estimate D2E/DX2                !
 ! D41   D(18,5,6,29)          116.1222         estimate D2E/DX2                !
 ! D42   D(18,5,6,30)         -119.3585         estimate D2E/DX2                !
 ! D43   D(28,5,6,7)          -116.9118         estimate D2E/DX2                !
 ! D44   D(28,5,6,29)            0.7936         estimate D2E/DX2                !
 ! D45   D(28,5,6,30)          125.313          estimate D2E/DX2                !
 ! D46   D(2,5,18,8)          -123.5565         estimate D2E/DX2                !
 ! D47   D(6,5,18,8)             1.5351         estimate D2E/DX2                !
 ! D48   D(28,5,18,8)          118.9852         estimate D2E/DX2                !
 ! D49   D(5,6,7,8)              1.0975         estimate D2E/DX2                !
 ! D50   D(29,6,7,8)          -119.2551         estimate D2E/DX2                !
 ! D51   D(30,6,7,8)           122.3479         estimate D2E/DX2                !
 ! D52   D(6,7,8,9)            179.6986         estimate D2E/DX2                !
 ! D53   D(6,7,8,18)            -0.147          estimate D2E/DX2                !
 ! D54   D(7,8,9,10)            -7.5203         estimate D2E/DX2                !
 ! D55   D(7,8,9,17)           172.6455         estimate D2E/DX2                !
 ! D56   D(18,8,9,10)          172.3147         estimate D2E/DX2                !
 ! D57   D(18,8,9,17)           -7.5195         estimate D2E/DX2                !
 ! D58   D(7,8,18,5)            -0.972          estimate D2E/DX2                !
 ! D59   D(9,8,18,5)           179.1936         estimate D2E/DX2                !
 ! D60   D(8,9,10,11)          179.226          estimate D2E/DX2                !
 ! D61   D(17,9,10,11)          -0.9405         estimate D2E/DX2                !
 ! D62   D(8,9,17,16)          179.7314         estimate D2E/DX2                !
 ! D63   D(10,9,17,16)          -0.1134         estimate D2E/DX2                !
 ! D64   D(9,10,11,12)        -123.6465         estimate D2E/DX2                !
 ! D65   D(9,10,11,16)           1.4593         estimate D2E/DX2                !
 ! D66   D(9,10,11,31)         118.8955         estimate D2E/DX2                !
 ! D67   D(10,11,12,13)        178.929          estimate D2E/DX2                !
 ! D68   D(10,11,12,14)        -62.1495         estimate D2E/DX2                !
 ! D69   D(10,11,12,15)         56.8723         estimate D2E/DX2                !
 ! D70   D(16,11,12,13)         61.517          estimate D2E/DX2                !
 ! D71   D(16,11,12,14)       -179.5615         estimate D2E/DX2                !
 ! D72   D(16,11,12,15)        -60.5396         estimate D2E/DX2                !
 ! D73   D(31,11,12,13)        -63.4157         estimate D2E/DX2                !
 ! D74   D(31,11,12,14)         55.5058         estimate D2E/DX2                !
 ! D75   D(31,11,12,15)        174.5277         estimate D2E/DX2                !
 ! D76   D(10,11,16,17)         -1.4908         estimate D2E/DX2                !
 ! D77   D(10,11,16,41)        116.2221         estimate D2E/DX2                !
 ! D78   D(10,11,16,42)       -119.2544         estimate D2E/DX2                !
 ! D79   D(12,11,16,17)        119.9824         estimate D2E/DX2                !
 ! D80   D(12,11,16,41)       -122.3047         estimate D2E/DX2                !
 ! D81   D(12,11,16,42)          2.2188         estimate D2E/DX2                !
 ! D82   D(31,11,16,17)       -116.7977         estimate D2E/DX2                !
 ! D83   D(31,11,16,41)          0.9152         estimate D2E/DX2                !
 ! D84   D(31,11,16,42)        125.4387         estimate D2E/DX2                !
 ! D85   D(11,12,13,32)        -64.6127         estimate D2E/DX2                !
 ! D86   D(11,12,13,33)        175.5158         estimate D2E/DX2                !
 ! D87   D(11,12,13,34)         56.0446         estimate D2E/DX2                !
 ! D88   D(14,12,13,32)        177.7209         estimate D2E/DX2                !
 ! D89   D(14,12,13,33)         57.8494         estimate D2E/DX2                !
 ! D90   D(14,12,13,34)        -61.6219         estimate D2E/DX2                !
 ! D91   D(15,12,13,32)         57.6941         estimate D2E/DX2                !
 ! D92   D(15,12,13,33)        -62.1774         estimate D2E/DX2                !
 ! D93   D(15,12,13,34)        178.3513         estimate D2E/DX2                !
 ! D94   D(11,12,14,35)        176.1169         estimate D2E/DX2                !
 ! D95   D(11,12,14,36)         55.832          estimate D2E/DX2                !
 ! D96   D(11,12,14,37)        -63.8067         estimate D2E/DX2                !
 ! D97   D(13,12,14,35)        -64.835          estimate D2E/DX2                !
 ! D98   D(13,12,14,36)        174.8801         estimate D2E/DX2                !
 ! D99   D(13,12,14,37)         55.2414         estimate D2E/DX2                !
 ! D100  D(15,12,14,35)         55.9908         estimate D2E/DX2                !
 ! D101  D(15,12,14,36)        -64.294          estimate D2E/DX2                !
 ! D102  D(15,12,14,37)        176.0672         estimate D2E/DX2                !
 ! D103  D(11,12,15,38)        -59.1597         estimate D2E/DX2                !
 ! D104  D(11,12,15,39)       -178.6408         estimate D2E/DX2                !
 ! D105  D(11,12,15,40)         61.4099         estimate D2E/DX2                !
 ! D106  D(13,12,15,38)        179.1833         estimate D2E/DX2                !
 ! D107  D(13,12,15,39)         59.7023         estimate D2E/DX2                !
 ! D108  D(13,12,15,40)        -60.247          estimate D2E/DX2                !
 ! D109  D(14,12,15,38)         58.8971         estimate D2E/DX2                !
 ! D110  D(14,12,15,39)        -60.584          estimate D2E/DX2                !
 ! D111  D(14,12,15,40)        179.4667         estimate D2E/DX2                !
 ! D112  D(11,16,17,9)           1.0206         estimate D2E/DX2                !
 ! D113  D(41,16,17,9)        -119.3443         estimate D2E/DX2                !
 ! D114  D(42,16,17,9)         122.2579         estimate D2E/DX2                !
 --------------------------------------------------------------------------------
 Trust Radius=3.00D-01 FncErr=1.00D-07 GrdErr=1.00D-06 EigMax=2.50D+02 EigMin=1.00D-04
 Number of steps in this run=    249 maximum allowed number of steps=    252.
 GradGradGradGradGradGradGradGradGradGradGradGradGradGradGradGradGradGrad

 Leave Link  103 at Mon Aug 15 05:13:28 2022, MaxMem=  7516192768 cpu:               1.1 elap:               0.1
 (Enter /public/apps/g16-C01//g16/l202.exe)
                          Input orientation:                          
 ---------------------------------------------------------------------
 Center     Atomic      Atomic             Coordinates (Angstroms)
 Number     Number       Type             X           Y           Z
 ---------------------------------------------------------------------
      1          6           0        5.062332    0.626463   -0.530430
      2          6           0        3.803222   -0.241137   -0.487458
      3          6           0        4.194905   -1.696231   -0.217609
      4          6           0        3.058211   -0.163987   -1.820942
      5          6           0        2.893585    0.218110    0.676754
      6          6           0        2.362824    1.677469    0.599928
      7          8           0        0.944914    1.539705    0.574230
      8          6           0        0.697126    0.215580    0.652434
      9          6           0       -0.696341   -0.212670    0.652618
     10          7           0       -1.684766    0.574544    0.721486
     11          6           0       -2.892799   -0.216830    0.676584
     12          6           0       -3.804086    0.239386   -0.487462
     13          6           0       -5.061513   -0.630782   -0.528605
     14          6           0       -4.198514    1.693961   -0.218869
     15          6           0       -3.059838    0.162253   -1.821371
     16          6           0       -2.360974   -1.675890    0.601954
     17          8           0       -0.943162   -1.537167    0.577448
     18          7           0        1.684984   -0.572149    0.723679
     19          1           0        5.738184    0.255257   -1.297288
     20          1           0        4.826545    1.662891   -0.759510
     21          1           0        5.580559    0.597116    0.425609
     22          1           0        4.786431   -1.771268    0.691930
     23          1           0        4.781718   -2.089235   -1.044401
     24          1           0        3.300341   -2.300145   -0.097117
     25          1           0        2.750432    0.853639   -2.051266
     26          1           0        2.172659   -0.794408   -1.787635
     27          1           0        3.701660   -0.512097   -2.625554
     28          1           0        3.442095    0.050460    1.610910
     29          1           0        2.640580    2.271267    1.474441
     30          1           0        2.672826    2.206050   -0.303999
     31          1           0       -3.440571   -0.048017    1.610985
     32          1           0       -4.823892   -1.666868   -0.757316
     33          1           0       -5.738949   -0.261446   -1.294955
     34          1           0       -5.578805   -0.601964    0.427957
     35          1           0       -4.786092    2.085133   -1.045989
     36          1           0       -3.305095    2.299680   -0.098954
     37          1           0       -4.790201    1.768659    0.690605
     38          1           0       -2.175447    0.794354   -1.789301
     39          1           0       -3.704505    0.508311   -2.625884
     40          1           0       -2.750325   -0.855053   -2.050834
     41          1           0       -2.639173   -2.269038    1.476736
     42          1           0       -2.669670   -2.205541   -0.301816
 ---------------------------------------------------------------------
                    Distance matrix (angstroms):
                    1          2          3          4          5
     1  C    0.000000
     2  C    1.529684   0.000000
     3  C    2.499039   1.530860   0.000000
     4  C    2.511321   1.529436   2.492092   0.000000
     5  C    2.515454   1.547171   2.481536   2.532111   0.000000
     6  C    3.109609   2.634047   3.925142   3.120118   1.554779
     7  O    4.359749   3.531077   4.654109   3.620144   2.356787
     8  C    4.541257   3.340026   4.080007   3.440404   2.196595
     9  C    5.938524   4.641837   5.184837   4.496391   3.615760
    10  N    6.862457   5.678459   6.372507   5.431869   4.592422
    11  C    8.090249   6.796490   7.295461   6.454064   5.802707
    12  C    8.874967   7.622469   8.234275   7.002285   6.798136
    13  C   10.201613   8.873390   9.322724   8.235165   8.090556
    14  C    9.327373   8.236779   9.052231   7.660200   7.299188
    15  C    8.237212   7.003116   7.658806   6.126741   6.456547
    16  C    7.854209   6.422044   6.606939   6.125671   5.585984
    17  O    6.478784   5.034072   5.201649   4.863012   4.220366
    18  N    3.796833   2.462388   2.906766   2.920179   1.444793
    19  H    1.087493   2.155530   2.712143   2.762650   3.462653
    20  H    1.087316   2.178652   3.460683   2.755200   2.808306
    21  H    1.087856   2.166861   2.755577   3.462443   2.725169
    22  H    2.705439   2.167708   1.087564   3.447408   2.746037
    23  H    2.778116   2.164049   1.087376   2.698161   3.442566
    24  H    3.443459   2.155173   1.086036   2.755607   2.665696
    25  H    2.776587   2.179999   3.456969   1.087814   2.804725
    26  H    3.456826   2.157616   2.714359   1.087540   2.760098
    27  H    2.745413   2.157589   2.728308   1.087478   3.477273
    28  H    2.746322   2.149090   2.638396   3.459908   1.096183
    29  H    3.548207   3.393075   4.584757   4.118789   2.217154
    30  H    2.873344   2.701884   4.189509   2.840196   2.227671
    31  H    8.794313   7.544090   8.022522   7.350220   6.408209
    32  H   10.151269   8.748293   9.034979   8.094288   8.072741
    33  H   10.864647   9.576298  10.094590   8.813409   8.867821
    34  H   10.754596   9.433484   9.855942   8.935738   8.515622
    35  H    9.969201   8.916266   9.779736   8.197084   8.088947
    36  H    8.543984   7.558760   8.498905   7.037511   6.584701
    37  H    9.993395   8.903597   9.672768   8.464075   7.838684
    38  H    7.348360   6.205765   7.018163   5.320770   5.666442
    39  H    9.014561   7.842226   8.547542   6.843555   7.384201
    40  H    8.095933   6.765354   7.232186   5.854017   6.359649
    41  H    8.469110   7.033839   7.064243   6.911303   6.118602
    42  H    8.237498   6.766955   6.883958   6.267719   6.146665
                    6          7          8          9         10
     6  C    0.000000
     7  O    1.424819   0.000000
     8  C    2.216851   1.349378   0.000000
     9  C    3.596372   2.402224   1.457789   0.000000
    10  N    4.196928   2.805073   2.409779   1.265477   0.000000
    11  C    5.587112   4.221840   3.615954   2.196593   1.444864
    12  C    6.425051   5.036965   4.643365   3.340990   2.462804
    13  C    7.856360   6.481082   5.939117   4.541457   3.797099
    14  C    6.612251   5.206501   5.187684   4.081660   2.907970
    15  C    6.128934   4.865626   4.498592   3.441992   2.920091
    16  C    5.793038   4.611910   3.596134   2.216886   2.352870
    17  O    4.611283   3.609984   2.401726   1.349394   2.242777
    18  N    2.352778   2.242759   1.265487   2.409353   3.559512
    19  H    4.124945   5.303567   5.405114   6.739748   7.699193
    20  H    2.813931   4.106227   4.597869   6.001175   6.765724
    21  H    3.398730   4.732839   4.903564   6.332990   7.271382
    22  H    4.216174   5.072834   4.546597   5.700137   6.883320
    23  H    4.768954   5.523607   4.987516   6.034111   7.213147
    24  H    4.145627   4.554469   3.696948   4.570899   5.812507
    25  H    2.803171   3.259419   3.454443   4.508686   5.238037
    26  H    3.441917   3.540317   3.025097   3.811091   4.800984
    27  H    4.121943   4.695547   4.505768   5.493494   6.434054
    28  H    2.198652   3.086822   2.912181   4.256080   5.229765
    29  H    1.092940   2.054470   2.945939   4.240328   4.706849
    30  H    1.092055   2.049630   2.963128   4.256361   4.764666
    31  H    6.138317   4.777887   4.255448   2.911422   2.064374
    32  H    8.042113   6.733071   6.001054   4.597748   4.130968
    33  H    8.543342   7.170218   6.741138   5.405859   4.604488
    34  H    8.264070   6.867827   6.332936   4.903109   4.078464
    35  H    7.347260   5.980554   6.037015   4.989111   3.876090
    36  H    5.744640   4.369590   4.574476   3.698967   2.504932
    37  H    7.154181   5.740863   5.703005   4.548274   3.327250
    38  H    5.204249   3.984781   3.814279   3.027345   2.567710
    39  H    6.970314   5.737735   5.496127   4.507487   3.910066
    40  H    6.291621   5.126463   4.509859   3.455454   3.296198
    41  H    6.431460   5.307233   4.240718   2.946594   3.093098
    42  H    6.420039   5.278214   4.255318   2.962517   3.121867
                   11         12         13         14         15
    11  C    0.000000
    12  C    1.547120   0.000000
    13  C    2.515384   1.529708   0.000000
    14  C    2.481502   1.530851   2.499027   0.000000
    15  C    2.532071   1.529434   2.511345   2.492133   0.000000
    16  C    1.554755   2.633948   3.108589   3.925073   3.120847
    17  O    2.356735   3.532005   4.359553   4.655279   3.622524
    18  N    4.591793   5.679379   6.861988   6.374888   5.434148
    19  H    8.866392   9.576585  10.863213  10.098060   8.814108
    20  H    8.073660   8.751467  10.153223   9.041291   8.097808
    21  H    8.516061   9.435742  10.755090   9.861475   8.938372
    22  H    7.834991   8.901162   9.988614   9.672983   8.462808
    23  H    8.084918   8.913399   9.964052   9.779501   8.195296
    24  H    6.579802   7.554765   8.537772   8.497090   7.034794
    25  H    6.358705   6.766424   8.096202   7.235445   5.855775
    26  H    5.662582   6.203278   7.344738   7.017468   5.319339
    27  H    7.380934   7.840433   9.011353   8.548191   6.842464
    28  H    6.409001   7.546257   8.795053   8.026711   7.353107
    29  H    6.119272   7.036428   8.470910   7.069214   6.914122
    30  H    6.148827   6.771397   8.241242   6.890921   6.272397
    31  H    1.096201   2.149005   2.746801   2.637675   3.459803
    32  H    2.808523   2.178676   1.087312   3.460664   2.754956
    33  H    3.462590   2.155591   1.087484   2.711921   2.763018
    34  H    2.724843   2.166908   1.087857   2.755877   3.462470
    35  H    3.442506   2.164040   2.778442   1.087378   2.697895
    36  H    2.665384   2.155166   3.443430   1.086035   2.755987
    37  H    2.746361   2.167704   2.705069   1.087574   3.447422
    38  H    2.760014   2.157600   3.456840   2.714470   1.087533
    39  H    3.477210   2.157565   2.745466   2.728284   1.087471
    40  H    2.804717   2.179986   2.776521   3.456996   1.087825
    41  H    2.217234   3.392239   3.545844   4.583883   4.118937
    42  H    2.227560   2.701672   2.872666   4.189315   2.840374
                   16         17         18         19         20
    16  C    0.000000
    17  O    1.424793   0.000000
    18  N    4.195574   2.803533   0.000000
    19  H    8.540071   7.167134   4.604057   0.000000
    20  H    8.041236   6.731816   4.130939   1.761171   0.000000
    21  H    8.262300   6.865650   4.078177   1.763544   1.763213
    22  H    7.148608   5.735516   3.325337   2.994933   3.728503
    23  H    7.341620   5.975736   3.875231   2.544685   3.763193
    24  H    5.738369   4.363999   2.503808   3.730090   4.298106
    25  H    6.290037   5.125303   3.296721   3.138982   2.575610
    26  H    5.200094   3.981664   2.567864   3.749027   3.760116
    27  H    6.966115   5.734489   3.909981   2.549618   3.078646
    28  H    6.137906   4.776932   2.064524   3.711008   3.183634
    29  H    6.430927   5.305843   3.092220   4.619733   3.184196
    30  H    6.421009   5.278635   3.122554   3.766781   2.267381
    31  H    2.198555   3.085906   5.228130   9.633253   8.768789
    32  H    2.813123   4.105908   6.764409  10.749120  10.208733
    33  H    4.124273   5.304048   7.699753  11.488758  10.752648
    34  H    3.396767   4.731399   7.269867  11.479788  10.714987
    35  H    4.768879   5.524918   7.215795  10.685129   9.626170
    36  H    4.145816   4.556056   5.815928   9.348613   8.183239
    37  H    4.215913   5.073559   6.885383  10.820767   9.726038
    38  H    3.443055   3.543447   4.804719   7.947217   7.130408
    39  H    4.122469   4.697907   6.436890   9.539055   8.808815
    40  H    2.804042   3.261746   5.239267   8.593917   8.088048
    41  H    1.092915   2.054460   4.705833   9.178637   8.729136
    42  H    1.092073   2.049551   4.762628   8.816944   8.447928
                   21         22         23         24         25
    21  H    0.000000
    22  H    2.512132   0.000000
    23  H    3.164737   1.765211   0.000000
    24  H    3.723810   1.763737   1.770962   0.000000
    25  H    3.769659   4.308196   3.714890   3.750660   0.000000
    26  H    4.295180   3.732868   3.006021   2.529182   1.766177
    27  H    3.751028   3.710517   2.480712   3.122686   1.760647
    28  H    2.505354   2.443452   3.663818   2.909088   3.812483
    29  H    3.542077   4.643177   5.472021   4.878820   3.801624
    30  H    3.402339   4.612836   4.842013   4.554379   2.210878
    31  H    9.121518   8.455638   8.878270   7.309555   7.249385
    32  H   10.713428   9.719543   9.619176   8.175577   8.086881
    33  H   11.481669  10.817158  10.681200   9.343440   8.595639
    34  H   11.223600  10.434322  10.569780   9.055316   8.811442
    35  H   10.575786  10.465438  10.438790   9.247779   7.702360
    36  H    9.062491   9.092354   9.249486   8.049235   6.524719
    37  H   10.440086  10.209944  10.464952   9.090244   8.075659
    38  H    8.068479   7.823469   7.567834   6.513345   4.933196
    39  H    9.774043   9.396827   9.014672   7.959269   6.489657
    40  H    8.811651   8.072478   7.698557   6.520419   5.760031
    41  H    8.768335   7.483535   7.839521   6.144575   7.158614
    42  H    8.743587   7.534558   7.489202   5.974268   6.465034
                   26         27         28         29         30
    26  H    0.000000
    27  H    1.766254   0.000000
    28  H    3.724967   4.281527   0.000000
    29  H    4.500939   5.067836   2.364960   0.000000
    30  H    3.384389   3.719737   2.984161   1.779927   0.000000
    31  H    6.604246   8.317157   6.883370   6.509848   6.791289
    32  H    7.125621   8.803911   8.768366   8.729719   8.450194
    33  H    7.944830   9.537212   9.634983   9.181541   8.822046
    34  H    8.064185   9.770314   9.121495   8.769771   8.747006
    35  H    7.567431   9.015684   8.882684   7.844914   7.496708
    36  H    6.513894   7.961433   7.314861   6.150401   5.982169
    37  H    7.822557   9.397365   8.459898   7.488893   7.541705
    38  H    4.629276   6.078365   6.608448   6.002283   5.263531
    39  H    6.077894   7.476130   8.320694   7.757627   6.995986
    40  H    4.930388   6.486604   7.250820   7.159839   6.467793
    41  H    5.998698   7.753824   6.509984   6.963488   7.170409
    42  H    5.258051   6.990090   6.789826   7.169076   6.928521
                   31         32         33         34         35
    31  H    0.000000
    32  H    3.184824   0.000000
    33  H    3.711143   1.761135   0.000000
    34  H    2.505685   1.763175   1.763526   0.000000
    35  H    3.663368   3.763279   2.544868   3.165660   0.000000
    36  H    2.907564   4.298103   3.730071   3.723833   1.770948
    37  H    2.443136   3.728332   2.993977   2.512117   1.765200
    38  H    3.724523   3.759903   3.749352   4.295205   3.005676
    39  H    4.281381   3.078308   2.550071   3.751221   2.480376
    40  H    3.812698   2.575250   3.139362   3.769451   3.714667
    41  H    2.364994   3.182231   4.617500   3.538433   5.471034
    42  H    2.984628   2.266787   3.766471   3.401043   4.841789
                   36         37         38         39         40
    36  H    0.000000
    37  H    1.763782   0.000000
    38  H    2.529700   3.733114   0.000000
    39  H    3.123124   3.710298   1.766270   0.000000
    40  H    3.750993   4.308184   1.766190   1.760654   0.000000
    41  H    4.878466   4.641974   4.501823   5.067553   3.802033
    42  H    4.554331   4.612572   3.384706   3.719834   2.211196
                   41         42
    41  H    0.000000
    42  H    1.779946   0.000000
 Symmetry turned off by external request.
 Stoichiometry    C14H24N2O2
 Framework group  C1[X(C14H24N2O2)]
 Deg. of freedom   120
 Full point group                 C1      NOp   1
 Rotational constants (GHZ):           1.0403671           0.1904205           0.1837892
 Leave Link  202 at Mon Aug 15 05:13:29 2022, MaxMem=  7516192768 cpu:               2.6 elap:               0.2
 (Enter /public/apps/g16-C01//g16/l301.exe)
 Standard basis: def2SVPP (5D, 7F)
 Ernie: Thresh=  0.10000D-02 Tol=  0.10000D-05 Strict=F.
   300 basis functions,   546 primitive gaussians,   318 cartesian basis functions
    69 alpha electrons       69 beta electrons
       nuclear repulsion energy      1425.5921540553 Hartrees.
 IExCor=  402 DFT=T Ex+Corr=B3LYP ExCW=0 ScaHFX=  0.200000
 ScaDFX=  0.800000  0.720000  1.000000  0.810000 ScalE2=  1.000000  1.000000
 IRadAn=      5 IRanWt=     -1 IRanGd=            0 ICorTp=0 IEmpDi=141
 NAtoms=   42 NActive=   42 NUniq=   42 SFac= 1.00D+00 NAtFMM=   60 NAOKFM=F Big=F
 Integral buffers will be    131072 words long.
 Raffenetti 2 integral format.
 Two-electron integral symmetry is turned off.
 R6Disp:  Grimme-D3(BJ) Dispersion energy=       -0.0795525697 Hartrees.
 Nuclear repulsion after empirical dispersion term =     1425.5126014855 Hartrees.
 Leave Link  301 at Mon Aug 15 05:13:29 2022, MaxMem=  7516192768 cpu:               2.3 elap:               0.2
 (Enter /public/apps/g16-C01//g16/l302.exe)
 NPDir=0 NMtPBC=     1 NCelOv=     1 NCel=       1 NClECP=     1 NCelD=      1
         NCelK=      1 NCelE2=     1 NClLst=     1 CellRange=     0.0.
 One-electron integrals computed using PRISM.
   1 Symmetry operations used in ECPInt.
 ECPInt:  NShTT=   12246 NPrTT=   49134 LenC2=   11301 LenP2D=   31262.
 LDataN:  DoStor=T MaxTD1= 4 Len=   56
 NBasis=   300 RedAO= T EigKep=  8.68D-04  NBF=   300
 NBsUse=   300 1.00D-06 EigRej= -1.00D+00 NBFU=   300
 Precomputing XC quadrature grid using
 IXCGrd= 4 IRadAn=           5 IRanWt=          -1 IRanGd=           0 AccXCQ= 0.00D+00.
 Generated NRdTot=       0 NPtTot=           0 NUsed=           0 NTot=          32
 NSgBfM=   314   314   314   314   314 MxSgAt=    42 MxSgA2=    42.
 Leave Link  302 at Mon Aug 15 05:13:33 2022, MaxMem=  7516192768 cpu:              57.6 elap:               4.1
 (Enter /public/apps/g16-C01//g16/l303.exe)
 DipDrv:  MaxL=1.
 Leave Link  303 at Mon Aug 15 05:13:34 2022, MaxMem=  7516192768 cpu:               5.9 elap:               0.5
 (Enter /public/apps/g16-C01//g16/l401.exe)
 ExpMin= 1.22D-01 ExpMax= 2.27D+03 ExpMxC= 3.41D+02 IAcc=3 IRadAn=         5 AccDes= 0.00D+00
 Harris functional with IExCor=  402 and IRadAn=       5 diagonalized for initial guess.
 HarFok:  IExCor=  402 AccDes= 0.00D+00 IRadAn=         5 IDoV= 1 UseB2=F ITyADJ=14
 ICtDFT=  3500011 ScaDFX=  1.000000  1.000000  1.000000  1.000000
 FoFCou: FMM=F IPFlag=           0 FMFlag=      100000 FMFlg1=           0
         NFxFlg=           0 DoJE=T BraDBF=F KetDBF=T FulRan=T
         wScrn=  0.000000 ICntrl=       500 IOpCl=  0 I1Cent=   200000004 NGrid=           0
         NMat0=    1 NMatS0=      1 NMatT0=    0 NMatD0=    1 NMtDS0=    0 NMtDT0=    0
 Symmetry not used in FoFCou.
 Harris En= -807.314597918751    
 JPrj=0 DoOrth=F DoCkMO=F.
 Leave Link  401 at Mon Aug 15 05:13:38 2022, MaxMem=  7516192768 cpu:              58.3 elap:               4.5
 (Enter /public/apps/g16-C01//g16/l502.exe)
 Two-electron integral symmetry not used.
 Closed shell SCF:
 Using DIIS extrapolation, IDIIS=  1040.
 NGot=  7516192768 LenX=  7515973776 LenY=  7515872211
 Requested convergence on RMS density matrix=1.00D-08 within 128 cycles.
 Requested convergence on MAX density matrix=1.00D-06.
 Requested convergence on             energy=1.00D-06.
 No special actions if energy rises.
 Fock matrices will be formed incrementally for  20 cycles.
 Integral accuracy reduced to 1.0D-05 until final iterations.

 Cycle   1  Pass 0  IDiag  1:
 FoFJK:  IHMeth= 1 ICntrl=       0 DoSepK=F KAlg= 0 I1Cent=           0 FoldK=F
 IRaf= 860000000 NMat=       1 IRICut=       1 DoRegI=T DoRafI=F ISym2E= 0 IDoP0=0 IntGTp=1.
 FoFCou: FMM=F IPFlag=           0 FMFlag=      100000 FMFlg1=           0
         NFxFlg=           0 DoJE=F BraDBF=F KetDBF=F FulRan=T
         wScrn=  0.000000 ICntrl=         0 IOpCl=  0 I1Cent=           0 NGrid=           0
         NMat0=    1 NMatS0=      1 NMatT0=    0 NMatD0=    1 NMtDS0=    0 NMtDT0=    0
 Symmetry not used in FoFCou.
 E= -806.791021628825    
 DIIS: error= 5.19D-02 at cycle   1 NSaved=   1.
 NSaved= 1 IEnMin= 1 EnMin= -806.791021628825     IErMin= 1 ErrMin= 5.19D-02
 ErrMax= 5.19D-02  0.00D+00 EMaxC= 1.00D-01 BMatC= 4.85D-01 BMatP= 4.85D-01
 IDIUse=3 WtCom= 4.81D-01 WtEn= 5.19D-01
 Coeff-Com:  0.100D+01
 Coeff-En:   0.100D+01
 Coeff:      0.100D+01
 Gap=     0.164 Goal=   None    Shift=    0.000
 GapD=    0.164 DampG=1.000 DampE=0.500 DampFc=0.5000 IDamp=-1.
 Damping current iteration by 5.00D-01
 RMSDP=6.32D-03 MaxDP=1.79D-01              OVMax= 2.33D-01

 Cycle   2  Pass 0  IDiag  1:
 RMSU=  3.13D-03    CP:  9.78D-01
 E= -806.984906152232     Delta-E=       -0.193884523407 Rises=F Damp=T
 DIIS: error= 7.53D-03 at cycle   2 NSaved=   2.
 NSaved= 2 IEnMin= 2 EnMin= -806.984906152232     IErMin= 2 ErrMin= 7.53D-03
 ErrMax= 7.53D-03  0.00D+00 EMaxC= 1.00D-01 BMatC= 4.03D-02 BMatP= 4.85D-01
 IDIUse=3 WtCom= 9.25D-01 WtEn= 7.53D-02
 Coeff-Com:  0.141D+00 0.859D+00
 Coeff-En:   0.234D+00 0.766D+00
 Coeff:      0.148D+00 0.852D+00
 Gap=     0.232 Goal=   None    Shift=    0.000
 RMSDP=2.00D-03 MaxDP=6.43D-02 DE=-1.94D-01 OVMax= 2.29D-01

 Cycle   3  Pass 0  IDiag  1:
 RMSU=  1.86D-03    CP:  9.72D-01  7.73D-01
 E= -807.264559634601     Delta-E=       -0.279653482369 Rises=F Damp=F
 DIIS: error= 1.03D-02 at cycle   3 NSaved=   3.
 NSaved= 3 IEnMin= 3 EnMin= -807.264559634601     IErMin= 2 ErrMin= 7.53D-03
 ErrMax= 1.03D-02  0.00D+00 EMaxC= 1.00D-01 BMatC= 4.39D-02 BMatP= 4.03D-02
 IDIUse=3 WtCom= 8.97D-01 WtEn= 1.03D-01
 Coeff-Com:  0.427D-01 0.509D+00 0.448D+00
 Coeff-En:   0.000D+00 0.000D+00 0.100D+01
 Coeff:      0.383D-01 0.457D+00 0.505D+00
 Gap=     0.214 Goal=   None    Shift=    0.000
 RMSDP=1.02D-03 MaxDP=4.35D-02 DE=-2.80D-01 OVMax= 1.04D-01

 Cycle   4  Pass 0  IDiag  1:
 RMSU=  7.11D-04    CP:  9.75D-01  8.50D-01  6.35D-01
 E= -807.296463321736     Delta-E=       -0.031903687136 Rises=F Damp=F
 DIIS: error= 5.20D-03 at cycle   4 NSaved=   4.
 NSaved= 4 IEnMin= 4 EnMin= -807.296463321736     IErMin= 4 ErrMin= 5.20D-03
 ErrMax= 5.20D-03  0.00D+00 EMaxC= 1.00D-01 BMatC= 9.93D-03 BMatP= 4.03D-02
 IDIUse=3 WtCom= 9.48D-01 WtEn= 5.20D-02
 Coeff-Com:  0.559D-02 0.125D+00 0.329D+00 0.540D+00
 Coeff-En:   0.000D+00 0.000D+00 0.213D+00 0.787D+00
 Coeff:      0.530D-02 0.119D+00 0.323D+00 0.553D+00
 Gap=     0.204 Goal=   None    Shift=    0.000
 RMSDP=3.66D-04 MaxDP=1.64D-02 DE=-3.19D-02 OVMax= 3.74D-02

 Cycle   5  Pass 0  IDiag  1:
 RMSU=  1.94D-04    CP:  9.74D-01  8.27D-01  6.92D-01  6.05D-01
 E= -807.304677267317     Delta-E=       -0.008213945581 Rises=F Damp=F
 DIIS: error= 1.34D-03 at cycle   5 NSaved=   5.
 NSaved= 5 IEnMin= 5 EnMin= -807.304677267317     IErMin= 5 ErrMin= 1.34D-03
 ErrMax= 1.34D-03  0.00D+00 EMaxC= 1.00D-01 BMatC= 5.22D-04 BMatP= 9.93D-03
 IDIUse=3 WtCom= 9.87D-01 WtEn= 1.34D-02
 Coeff-Com: -0.203D-04 0.228D-01 0.136D+00 0.304D+00 0.538D+00
 Coeff-En:   0.000D+00 0.000D+00 0.000D+00 0.000D+00 0.100D+01
 Coeff:     -0.200D-04 0.225D-01 0.134D+00 0.300D+00 0.544D+00
 Gap=     0.206 Goal=   None    Shift=    0.000
 RMSDP=1.01D-04 MaxDP=3.16D-03 DE=-8.21D-03 OVMax= 5.87D-03

 Cycle   6  Pass 0  IDiag  1:
 RMSU=  6.87D-05    CP:  9.74D-01  8.25D-01  6.97D-01  6.31D-01  6.34D-01
 E= -807.305097612448     Delta-E=       -0.000420345131 Rises=F Damp=F
 DIIS: error= 3.32D-04 at cycle   6 NSaved=   6.
 NSaved= 6 IEnMin= 6 EnMin= -807.305097612448     IErMin= 6 ErrMin= 3.32D-04
 ErrMax= 3.32D-04  0.00D+00 EMaxC= 1.00D-01 BMatC= 3.84D-05 BMatP= 5.22D-04
 IDIUse=3 WtCom= 9.97D-01 WtEn= 3.32D-03
 Coeff-Com: -0.439D-03-0.216D-02 0.320D-01 0.891D-01 0.277D+00 0.605D+00
 Coeff-En:   0.000D+00 0.000D+00 0.000D+00 0.000D+00 0.000D+00 0.100D+01
 Coeff:     -0.438D-03-0.216D-02 0.319D-01 0.888D-01 0.276D+00 0.606D+00
 Gap=     0.206 Goal=   None    Shift=    0.000
 RMSDP=2.44D-05 MaxDP=8.35D-04 DE=-4.20D-04 OVMax= 8.00D-04

 Cycle   7  Pass 0  IDiag  1:
 RMSU=  1.32D-05    CP:  9.74D-01  8.25D-01  7.00D-01  6.36D-01  6.45D-01
                    CP:  7.21D-01
 E= -807.305126964108     Delta-E=       -0.000029351660 Rises=F Damp=F
 DIIS: error= 5.69D-05 at cycle   7 NSaved=   7.
 NSaved= 7 IEnMin= 7 EnMin= -807.305126964108     IErMin= 7 ErrMin= 5.69D-05
 ErrMax= 5.69D-05  0.00D+00 EMaxC= 1.00D-01 BMatC= 1.73D-06 BMatP= 3.84D-05
 IDIUse=1 WtCom= 1.00D+00 WtEn= 0.00D+00
 Coeff-Com: -0.135D-03-0.209D-02 0.106D-01 0.316D-01 0.118D+00 0.297D+00
 Coeff-Com:  0.544D+00
 Coeff:     -0.135D-03-0.209D-02 0.106D-01 0.316D-01 0.118D+00 0.297D+00
 Coeff:      0.544D+00
 Gap=     0.206 Goal=   None    Shift=    0.000
 RMSDP=6.09D-06 MaxDP=1.63D-04 DE=-2.94D-05 OVMax= 1.82D-04

 Initial convergence to 1.0D-05 achieved.  Increase integral accuracy.
 Cycle   8  Pass 1  IDiag  1:
 E= -807.305160454353     Delta-E=       -0.000033490245 Rises=F Damp=F
 DIIS: error= 1.12D-04 at cycle   1 NSaved=   1.
 NSaved= 1 IEnMin= 1 EnMin= -807.305160454353     IErMin= 1 ErrMin= 1.12D-04
 ErrMax= 1.12D-04  0.00D+00 EMaxC= 1.00D-01 BMatC= 1.08D-06 BMatP= 1.08D-06
 IDIUse=3 WtCom= 9.99D-01 WtEn= 1.12D-03
 Coeff-Com:  0.100D+01
 Coeff-En:   0.100D+01
 Coeff:      0.100D+01
 Gap=     0.206 Goal=   None    Shift=    0.000
 RMSDP=6.09D-06 MaxDP=1.63D-04 DE=-3.35D-05 OVMax= 1.75D-04

 Cycle   9  Pass 1  IDiag  1:
 RMSU=  5.08D-05    CP:  1.00D+00
 E= -807.305161572183     Delta-E=       -0.000001117829 Rises=F Damp=F
 DIIS: error= 3.16D-05 at cycle   2 NSaved=   2.
 NSaved= 2 IEnMin= 2 EnMin= -807.305161572183     IErMin= 2 ErrMin= 3.16D-05
 ErrMax= 3.16D-05  0.00D+00 EMaxC= 1.00D-01 BMatC= 2.28D-07 BMatP= 1.08D-06
 IDIUse=1 WtCom= 1.00D+00 WtEn= 0.00D+00
 Coeff-Com:  0.228D+00 0.772D+00
 Coeff:      0.228D+00 0.772D+00
 Gap=     0.206 Goal=   None    Shift=    0.000
 RMSDP=3.29D-06 MaxDP=1.41D-04 DE=-1.12D-06 OVMax= 2.43D-04

 Cycle  10  Pass 1  IDiag  1:
 RMSU=  3.27D-06    CP:  1.00D+00  1.01D+00
 E= -807.305161541809     Delta-E=        0.000000030373 Rises=F Damp=F
 DIIS: error= 3.54D-05 at cycle   3 NSaved=   3.
 NSaved= 3 IEnMin= 2 EnMin= -807.305161572183     IErMin= 2 ErrMin= 3.16D-05
 ErrMax= 3.54D-05  0.00D+00 EMaxC= 1.00D-01 BMatC= 2.72D-07 BMatP= 2.28D-07
 IDIUse=1 WtCom= 1.00D+00 WtEn= 0.00D+00
 Coeff-Com:  0.270D-02 0.522D+00 0.476D+00
 Coeff:      0.270D-02 0.522D+00 0.476D+00
 Gap=     0.206 Goal=   None    Shift=    0.000
 RMSDP=1.81D-06 MaxDP=8.52D-05 DE= 3.04D-08 OVMax= 1.67D-04

 Cycle  11  Pass 1  IDiag  1:
 RMSU=  6.32D-07    CP:  1.00D+00  1.01D+00  4.90D-01
 E= -807.305161753558     Delta-E=       -0.000000211749 Rises=F Damp=F
 DIIS: error= 5.62D-06 at cycle   4 NSaved=   4.
 NSaved= 4 IEnMin= 4 EnMin= -807.305161753558     IErMin= 4 ErrMin= 5.62D-06
 ErrMax= 5.62D-06  0.00D+00 EMaxC= 1.00D-01 BMatC= 1.25D-08 BMatP= 2.28D-07
 IDIUse=1 WtCom= 1.00D+00 WtEn= 0.00D+00
 Coeff-Com: -0.438D-02 0.322D+00 0.312D+00 0.371D+00
 Coeff:     -0.438D-02 0.322D+00 0.312D+00 0.371D+00
 Gap=     0.206 Goal=   None    Shift=    0.000
 RMSDP=3.76D-07 MaxDP=2.37D-05 DE=-2.12D-07 OVMax= 3.68D-05

 Cycle  12  Pass 1  IDiag  1:
 RMSU=  1.73D-07    CP:  1.00D+00  1.01D+00  5.04D-01  4.77D-01
 E= -807.305161764439     Delta-E=       -0.000000010880 Rises=F Damp=F
 DIIS: error= 5.13D-07 at cycle   5 NSaved=   5.
 NSaved= 5 IEnMin= 5 EnMin= -807.305161764439     IErMin= 5 ErrMin= 5.13D-07
 ErrMax= 5.13D-07  0.00D+00 EMaxC= 1.00D-01 BMatC= 1.78D-10 BMatP= 1.25D-08
 IDIUse=1 WtCom= 1.00D+00 WtEn= 0.00D+00
 Coeff-Com: -0.239D-02 0.147D+00 0.143D+00 0.197D+00 0.516D+00
 Coeff:     -0.239D-02 0.147D+00 0.143D+00 0.197D+00 0.516D+00
 Gap=     0.206 Goal=   None    Shift=    0.000
 RMSDP=6.92D-08 MaxDP=2.85D-06 DE=-1.09D-08 OVMax= 3.95D-06

 Cycle  13  Pass 1  IDiag  1:
 RMSU=  5.02D-08    CP:  1.00D+00  1.01D+00  5.00D-01  4.78D-01  7.42D-01
 E= -807.305161764578     Delta-E=       -0.000000000139 Rises=F Damp=F
 DIIS: error= 1.95D-07 at cycle   6 NSaved=   6.
 NSaved= 6 IEnMin= 6 EnMin= -807.305161764578     IErMin= 6 ErrMin= 1.95D-07
 ErrMax= 1.95D-07  0.00D+00 EMaxC= 1.00D-01 BMatC= 1.81D-11 BMatP= 1.78D-10
 IDIUse=1 WtCom= 1.00D+00 WtEn= 0.00D+00
 Coeff-Com: -0.981D-03 0.563D-01 0.542D-01 0.834D-01 0.295D+00 0.512D+00
 Coeff:     -0.981D-03 0.563D-01 0.542D-01 0.834D-01 0.295D+00 0.512D+00
 Gap=     0.206 Goal=   None    Shift=    0.000
 RMSDP=1.96D-08 MaxDP=7.70D-07 DE=-1.39D-10 OVMax= 1.92D-06

 Cycle  14  Pass 1  IDiag  1:
 RMSU=  1.73D-08    CP:  1.00D+00  1.01D+00  5.01D-01  4.80D-01  7.53D-01
                    CP:  8.36D-01
 E= -807.305161764581     Delta-E=       -0.000000000004 Rises=F Damp=F
 DIIS: error= 1.25D-07 at cycle   7 NSaved=   7.
 NSaved= 7 IEnMin= 7 EnMin= -807.305161764581     IErMin= 7 ErrMin= 1.25D-07
 ErrMax= 1.25D-07  0.00D+00 EMaxC= 1.00D-01 BMatC= 3.34D-12 BMatP= 1.81D-11
 IDIUse=1 WtCom= 1.00D+00 WtEn= 0.00D+00
 Coeff-Com: -0.278D-03 0.147D-01 0.138D-01 0.261D-01 0.110D+00 0.325D+00
 Coeff-Com:  0.510D+00
 Coeff:     -0.278D-03 0.147D-01 0.138D-01 0.261D-01 0.110D+00 0.325D+00
 Coeff:      0.510D+00
 Gap=     0.206 Goal=   None    Shift=    0.000
 RMSDP=9.14D-09 MaxDP=5.16D-07 DE=-3.64D-12 OVMax= 1.01D-06

 SCF Done:  E(RB3LYP) =  -807.305161765     A.U. after   14 cycles
            NFock= 14  Conv=0.91D-08     -V/T= 2.0091
 KE= 8.000192433123D+02 PE=-4.726103071286D+03 EE= 1.693266064723D+03
 Leave Link  502 at Mon Aug 15 05:14:38 2022, MaxMem=  7516192768 cpu:             896.5 elap:              59.3
 (Enter /public/apps/g16-C01//g16/l601.exe)
 Copying SCF densities to generalized density rwf, IOpCl= 0 IROHF=0.

 **********************************************************************

            Population analysis using the SCF Density.

 **********************************************************************

 Alpha  occ. eigenvalues --  -19.16979 -19.16973 -14.31016 -14.31013 -10.28075
 Alpha  occ. eigenvalues --  -10.28060 -10.23709 -10.23707 -10.21562 -10.21562
 Alpha  occ. eigenvalues --  -10.19627 -10.19626 -10.17049 -10.17048 -10.16409
 Alpha  occ. eigenvalues --  -10.16408 -10.15766 -10.15764  -1.09814  -1.08592
 Alpha  occ. eigenvalues --   -0.91320  -0.90796  -0.82895  -0.81703  -0.77187
 Alpha  occ. eigenvalues --   -0.73335  -0.68680  -0.68554  -0.68120  -0.68104
 Alpha  occ. eigenvalues --   -0.65164  -0.63584  -0.63058  -0.55240  -0.54208
 Alpha  occ. eigenvalues --   -0.54078  -0.52230  -0.50617  -0.50290  -0.47788
 Alpha  occ. eigenvalues --   -0.47061  -0.45982  -0.44645  -0.44423  -0.44185
 Alpha  occ. eigenvalues --   -0.43660  -0.43280  -0.41601  -0.40709  -0.40200
 Alpha  occ. eigenvalues --   -0.39278  -0.39254  -0.38940  -0.38068  -0.36938
 Alpha  occ. eigenvalues --   -0.36781  -0.36598  -0.36439  -0.35230  -0.33814
 Alpha  occ. eigenvalues --   -0.33679  -0.33312  -0.33213  -0.32296  -0.32097
 Alpha  occ. eigenvalues --   -0.27970  -0.27160  -0.25793  -0.24855
 Alpha virt. eigenvalues --   -0.04272   0.04727   0.04891   0.07624   0.07965
 Alpha virt. eigenvalues --    0.08468   0.08502   0.09297   0.09344   0.10469
 Alpha virt. eigenvalues --    0.10879   0.11156   0.11824   0.12761   0.13432
 Alpha virt. eigenvalues --    0.13559   0.13674   0.14268   0.15120   0.15603
 Alpha virt. eigenvalues --    0.15957   0.16293   0.17070   0.17574   0.18224
 Alpha virt. eigenvalues --    0.18498   0.18622   0.19101   0.19750   0.20502
 Alpha virt. eigenvalues --    0.20614   0.21133   0.22221   0.23506   0.23735
 Alpha virt. eigenvalues --    0.24120   0.24764   0.24940   0.25797   0.26052
 Alpha virt. eigenvalues --    0.29759   0.32885   0.36346   0.37300   0.37535
 Alpha virt. eigenvalues --    0.39511   0.40121   0.40534   0.41343   0.41894
 Alpha virt. eigenvalues --    0.41928   0.42217   0.43239   0.49101   0.50658
 Alpha virt. eigenvalues --    0.50710   0.52248   0.52325   0.52554   0.52836
 Alpha virt. eigenvalues --    0.54222   0.55198   0.56421   0.57365   0.57418
 Alpha virt. eigenvalues --    0.59081   0.59133   0.60240   0.60711   0.61745
 Alpha virt. eigenvalues --    0.63624   0.63863   0.64746   0.64894   0.66022
 Alpha virt. eigenvalues --    0.66844   0.67082   0.68011   0.68124   0.68582
 Alpha virt. eigenvalues --    0.68730   0.68750   0.69222   0.69442   0.70189
 Alpha virt. eigenvalues --    0.70446   0.70917   0.71023   0.71824   0.71858
 Alpha virt. eigenvalues --    0.72404   0.73091   0.73378   0.73391   0.73729
 Alpha virt. eigenvalues --    0.73892   0.74334   0.74963   0.75505   0.76159
 Alpha virt. eigenvalues --    0.76235   0.76755   0.77179   0.78504   0.79432
 Alpha virt. eigenvalues --    0.79965   0.81226   0.81263   0.81717   0.83841
 Alpha virt. eigenvalues --    0.85160   0.85648   0.87743   0.89075   0.90218
 Alpha virt. eigenvalues --    0.92950   0.93097   0.95048   0.98653   1.02737
 Alpha virt. eigenvalues --    1.03212   1.03910   1.05470   1.07937   1.09177
 Alpha virt. eigenvalues --    1.11924   1.12081   1.16182   1.17127   1.17544
 Alpha virt. eigenvalues --    1.18651   1.20215   1.20471   1.22969   1.32969
 Alpha virt. eigenvalues --    1.35102   1.35597   1.40987   1.41510   1.43272
 Alpha virt. eigenvalues --    1.46242   1.48722   1.51390   1.52935   1.58278
 Alpha virt. eigenvalues --    1.58760   1.58829   1.61028   1.67095   1.69095
 Alpha virt. eigenvalues --    1.72676   1.72728   1.75535   1.76036   1.76717
 Alpha virt. eigenvalues --    1.80213   1.81584   1.82727   1.83429   1.84389
 Alpha virt. eigenvalues --    1.84734   1.87481   1.87780   1.90194   1.90779
 Alpha virt. eigenvalues --    1.92771   1.92956   1.94661   1.96125   1.99277
 Alpha virt. eigenvalues --    2.01472   2.02497   2.03425   2.03697   2.04579
 Alpha virt. eigenvalues --    2.04656   2.05483   2.05514   2.08271   2.08643
 Alpha virt. eigenvalues --    2.09780   2.10921   2.13400   2.14290   2.15549
 Alpha virt. eigenvalues --    2.16977   2.17546   2.17577   2.18339   2.18726
 Alpha virt. eigenvalues --    2.18820   2.19406   2.21185   2.25213   2.27115
 Alpha virt. eigenvalues --    2.29761   2.30128   2.37114   2.40247   2.40558
 Alpha virt. eigenvalues --    2.44635   2.47173   2.50781   2.56779   2.57383
 Alpha virt. eigenvalues --    2.61562   2.61717   2.65810   2.67604   2.68882
 Alpha virt. eigenvalues --    2.71107   2.73026   2.73183   2.73619   2.75087
 Alpha virt. eigenvalues --    2.83425   2.85654   2.87441   2.90566   2.95197
 Alpha virt. eigenvalues --    2.96846   2.98052   3.03392   3.09320   3.17853
 Alpha virt. eigenvalues --    3.23014   3.26505   3.29257   3.40672   3.58513
 Alpha virt. eigenvalues --    3.69910
          Condensed to atoms (all electrons):
               1          2          3          4          5          6
     1  C    4.885182   0.413210  -0.060823  -0.073343  -0.067124  -0.003789
     2  C    0.413210   4.954419   0.422491   0.398517   0.308853  -0.033715
     3  C   -0.060823   0.422491   4.875524  -0.073923  -0.066787   0.010817
     4  C   -0.073343   0.398517  -0.073923   4.928263  -0.057623  -0.016721
     5  C   -0.067124   0.308853  -0.066787  -0.057623   5.019495   0.323567
     6  C   -0.003789  -0.033715   0.010817  -0.016721   0.323567   4.769467
     7  O    0.000110   0.001106  -0.000206   0.000789  -0.063310   0.331911
     8  C    0.000053  -0.002116  -0.000789   0.009021  -0.061723  -0.116890
     9  C    0.000017  -0.000075   0.000196  -0.000895   0.018457   0.004101
    10  N   -0.000000   0.000003   0.000000  -0.000014  -0.000256  -0.000049
    11  C    0.000000  -0.000001   0.000000  -0.000000   0.000054   0.000000
    12  C    0.000000  -0.000000  -0.000000   0.000000  -0.000001  -0.000001
    13  C   -0.000000   0.000000   0.000000  -0.000000   0.000000   0.000000
    14  C    0.000000  -0.000000  -0.000000   0.000000   0.000000  -0.000000
    15  C   -0.000000   0.000000   0.000000  -0.000004  -0.000000  -0.000000
    16  C    0.000000  -0.000001  -0.000000  -0.000000   0.000000   0.000025
    17  O   -0.000000   0.000027  -0.000013  -0.000062  -0.000135  -0.000085
    18  N    0.006391  -0.077271  -0.012647  -0.010711   0.391902  -0.059039
    19  H    0.367530  -0.015632  -0.007141  -0.005272   0.009337  -0.000055
    20  H    0.365030  -0.017065   0.010091  -0.006529  -0.010356   0.006360
    21  H    0.364736  -0.021372  -0.006311   0.010890  -0.004273  -0.001783
    22  H   -0.005984  -0.023940   0.364661   0.010242  -0.003408   0.000067
    23  H   -0.006787  -0.020118   0.366273  -0.006326   0.009490  -0.000361
    24  H    0.009367  -0.015024   0.369520  -0.007205  -0.015654   0.001714
    25  H   -0.004801  -0.016453   0.009272   0.363236  -0.010869   0.008925
    26  H    0.009412  -0.017963  -0.003711   0.365450  -0.011855   0.000996
    27  H   -0.005884  -0.018157  -0.006560   0.367545   0.010355  -0.000029
    28  H   -0.007893  -0.030230  -0.008374   0.012293   0.335943  -0.025746
    29  H    0.000893   0.004717  -0.000447   0.000366   0.003660   0.342228
    30  H   -0.003090  -0.011987   0.000698   0.003903  -0.013282   0.354464
    31  H   -0.000000   0.000000   0.000000  -0.000000  -0.000001   0.000001
    32  H    0.000000  -0.000000  -0.000000   0.000000   0.000000  -0.000000
    33  H    0.000000  -0.000000  -0.000000  -0.000000  -0.000000  -0.000000
    34  H   -0.000000   0.000000   0.000000   0.000000   0.000000  -0.000000
    35  H    0.000000  -0.000000   0.000000   0.000000  -0.000000   0.000000
    36  H   -0.000000   0.000000   0.000000  -0.000000  -0.000001   0.000002
    37  H   -0.000000   0.000000   0.000000   0.000000  -0.000000  -0.000000
    38  H   -0.000000   0.000002   0.000000   0.000009  -0.000001  -0.000001
    39  H    0.000000  -0.000000  -0.000000   0.000000   0.000000   0.000000
    40  H    0.000000  -0.000000  -0.000000  -0.000000  -0.000000   0.000000
    41  H   -0.000000   0.000000  -0.000000  -0.000000  -0.000001  -0.000001
    42  H    0.000000  -0.000000   0.000000   0.000001   0.000001  -0.000001
               7          8          9         10         11         12
     1  C    0.000110   0.000053   0.000017  -0.000000   0.000000   0.000000
     2  C    0.001106  -0.002116  -0.000075   0.000003  -0.000001  -0.000000
     3  C   -0.000206  -0.000789   0.000196   0.000000   0.000000  -0.000000
     4  C    0.000789   0.009021  -0.000895  -0.000014  -0.000000   0.000000
     5  C   -0.063310  -0.061723   0.018457  -0.000256   0.000054  -0.000001
     6  C    0.331911  -0.116890   0.004101  -0.000049   0.000000  -0.000001
     7  O    7.832125   0.442692  -0.111833   0.005503  -0.000134   0.000027
     8  C    0.442692   5.287912  -0.048221  -0.117321   0.018426  -0.000076
     9  C   -0.111833  -0.048221   5.287626   0.586920  -0.061739  -0.002089
    10  N    0.005503  -0.117321   0.586920   6.498879   0.391966  -0.077175
    11  C   -0.000134   0.018426  -0.061739   0.391966   5.019303   0.309006
    12  C    0.000027  -0.000076  -0.002089  -0.077175   0.309006   4.954061
    13  C   -0.000000   0.000017   0.000051   0.006385  -0.067103   0.413208
    14  C   -0.000013   0.000195  -0.000782  -0.012659  -0.066703   0.422488
    15  C   -0.000061  -0.000891   0.008975  -0.010676  -0.057685   0.398590
    16  C   -0.000085   0.004134  -0.116879  -0.059069   0.323680  -0.033780
    17  O    0.000516  -0.111965   0.442882  -0.095850  -0.063347   0.001123
    18  N   -0.095847   0.587011  -0.117324   0.002433  -0.000257   0.000003
    19  H    0.000002  -0.000007  -0.000001   0.000000  -0.000000  -0.000000
    20  H   -0.000134   0.000033   0.000003   0.000000   0.000000  -0.000000
    21  H   -0.000001  -0.000004  -0.000000   0.000000   0.000000   0.000000
    22  H    0.000004  -0.000064  -0.000003  -0.000000  -0.000000   0.000000
    23  H    0.000006   0.000047  -0.000009  -0.000000  -0.000000  -0.000000
    24  H    0.000104   0.000338  -0.000358   0.000000  -0.000001   0.000000
    25  H    0.000170   0.000250  -0.000054   0.000000  -0.000000  -0.000000
    26  H   -0.000764   0.003380  -0.000366  -0.000009  -0.000001   0.000002
    27  H    0.000011  -0.000122   0.000025   0.000000   0.000000  -0.000000
    28  H    0.003401   0.001752  -0.001000   0.000010  -0.000001   0.000000
    29  H   -0.028883   0.007763   0.000290  -0.000012  -0.000001   0.000000
    30  H   -0.029165   0.007327  -0.000019   0.000006   0.000001  -0.000000
    31  H    0.000003  -0.000998   0.001750  -0.024948   0.335860  -0.030207
    32  H    0.000000   0.000003   0.000034   0.000089  -0.010373  -0.017028
    33  H    0.000000  -0.000001  -0.000007  -0.000191   0.009335  -0.015634
    34  H   -0.000000  -0.000000  -0.000004   0.000077  -0.004269  -0.021379
    35  H    0.000000  -0.000008   0.000047   0.000119   0.009486  -0.020094
    36  H    0.000046  -0.000356   0.000338   0.025103  -0.015629  -0.015052
    37  H    0.000000  -0.000003  -0.000064  -0.000712  -0.003431  -0.023916
    38  H    0.000423  -0.000372   0.003365   0.013192  -0.011862  -0.017993
    39  H    0.000000   0.000025  -0.000121   0.000236   0.010354  -0.018161
    40  H    0.000002  -0.000053   0.000250  -0.000885  -0.010831  -0.016502
    41  H    0.000002   0.000286   0.007740   0.001591   0.003707   0.004692
    42  H    0.000000  -0.000018   0.007346   0.002998  -0.013326  -0.011966
              13         14         15         16         17         18
     1  C   -0.000000   0.000000  -0.000000   0.000000  -0.000000   0.006391
     2  C    0.000000  -0.000000   0.000000  -0.000001   0.000027  -0.077271
     3  C    0.000000  -0.000000   0.000000  -0.000000  -0.000013  -0.012647
     4  C   -0.000000   0.000000  -0.000004  -0.000000  -0.000062  -0.010711
     5  C    0.000000   0.000000  -0.000000   0.000000  -0.000135   0.391902
     6  C    0.000000  -0.000000  -0.000000   0.000025  -0.000085  -0.059039
     7  O   -0.000000  -0.000013  -0.000061  -0.000085   0.000516  -0.095847
     8  C    0.000017   0.000195  -0.000891   0.004134  -0.111965   0.587011
     9  C    0.000051  -0.000782   0.008975  -0.116879   0.442882  -0.117324
    10  N    0.006385  -0.012659  -0.010676  -0.059069  -0.095850   0.002433
    11  C   -0.067103  -0.066703  -0.057685   0.323680  -0.063347  -0.000257
    12  C    0.413208   0.422488   0.398590  -0.033780   0.001123   0.000003
    13  C    4.885280  -0.060845  -0.073341  -0.003784   0.000111  -0.000000
    14  C   -0.060845   4.875508  -0.073901   0.010805  -0.000205   0.000000
    15  C   -0.073341  -0.073901   4.928179  -0.016709   0.000779  -0.000013
    16  C   -0.003784   0.010805  -0.016709   4.769338   0.331916  -0.000046
    17  O    0.000111  -0.000205   0.000779   0.331916   7.832036   0.005527
    18  N   -0.000000   0.000000  -0.000013  -0.000046   0.005527   6.498911
    19  H    0.000000  -0.000000  -0.000000  -0.000000   0.000000  -0.000191
    20  H    0.000000  -0.000000   0.000000  -0.000000   0.000000   0.000090
    21  H   -0.000000   0.000000   0.000000  -0.000000  -0.000000   0.000077
    22  H   -0.000000   0.000000   0.000000  -0.000000   0.000000  -0.000716
    23  H    0.000000   0.000000   0.000000   0.000000   0.000000   0.000121
    24  H   -0.000000   0.000000  -0.000000   0.000002   0.000048   0.025144
    25  H    0.000000  -0.000000  -0.000000   0.000000   0.000002  -0.000886
    26  H   -0.000000   0.000000   0.000009  -0.000001   0.000427   0.013157
    27  H    0.000000  -0.000000   0.000000   0.000000   0.000000   0.000234
    28  H   -0.000000   0.000000  -0.000000   0.000001   0.000003  -0.024914
    29  H   -0.000000  -0.000000  -0.000000  -0.000001   0.000002   0.001573
    30  H    0.000000   0.000000   0.000001  -0.000001   0.000000   0.003013
    31  H   -0.007896  -0.008375   0.012291  -0.025717   0.003402   0.000010
    32  H    0.365007   0.010086  -0.006529   0.006371  -0.000134   0.000000
    33  H    0.367534  -0.007138  -0.005270  -0.000054   0.000002   0.000000
    34  H    0.364742  -0.006310   0.010888  -0.001787  -0.000001   0.000000
    35  H   -0.006785   0.366270  -0.006327  -0.000362   0.000006  -0.000000
    36  H    0.009369   0.369517  -0.007198   0.001715   0.000103   0.000000
    37  H   -0.005994   0.364658   0.010241   0.000067   0.000004  -0.000000
    38  H    0.009409  -0.003704   0.365489   0.000999  -0.000754  -0.000008
    39  H   -0.005875  -0.006567   0.367542  -0.000028   0.000011   0.000000
    40  H   -0.004809   0.009275   0.363254   0.008897   0.000164   0.000000
    41  H    0.000904  -0.000447   0.000365   0.342220  -0.028850  -0.000012
    42  H   -0.003111   0.000698   0.003911   0.354478  -0.029198   0.000006
              19         20         21         22         23         24
     1  C    0.367530   0.365030   0.364736  -0.005984  -0.006787   0.009367
     2  C   -0.015632  -0.017065  -0.021372  -0.023940  -0.020118  -0.015024
     3  C   -0.007141   0.010091  -0.006311   0.364661   0.366273   0.369520
     4  C   -0.005272  -0.006529   0.010890   0.010242  -0.006326  -0.007205
     5  C    0.009337  -0.010356  -0.004273  -0.003408   0.009490  -0.015654
     6  C   -0.000055   0.006360  -0.001783   0.000067  -0.000361   0.001714
     7  O    0.000002  -0.000134  -0.000001   0.000004   0.000006   0.000104
     8  C   -0.000007   0.000033  -0.000004  -0.000064   0.000047   0.000338
     9  C   -0.000001   0.000003  -0.000000  -0.000003  -0.000009  -0.000358
    10  N    0.000000   0.000000   0.000000  -0.000000  -0.000000   0.000000
    11  C   -0.000000   0.000000   0.000000  -0.000000  -0.000000  -0.000001
    12  C   -0.000000  -0.000000   0.000000   0.000000  -0.000000   0.000000
    13  C    0.000000   0.000000  -0.000000  -0.000000   0.000000  -0.000000
    14  C   -0.000000  -0.000000   0.000000   0.000000   0.000000   0.000000
    15  C   -0.000000   0.000000   0.000000   0.000000   0.000000  -0.000000
    16  C   -0.000000  -0.000000  -0.000000  -0.000000   0.000000   0.000002
    17  O    0.000000   0.000000  -0.000000   0.000000   0.000000   0.000048
    18  N   -0.000191   0.000090   0.000077  -0.000716   0.000121   0.025144
    19  H    0.597032  -0.022019  -0.021536  -0.000617   0.006120  -0.000081
    20  H   -0.022019   0.608412  -0.024001  -0.000045  -0.000148  -0.000454
    21  H   -0.021536  -0.024001   0.609311   0.006088  -0.000645  -0.000141
    22  H   -0.000617  -0.000045   0.006088   0.617974  -0.024739  -0.019114
    23  H    0.006120  -0.000148  -0.000645  -0.024739   0.614423  -0.020890
    24  H   -0.000081  -0.000454  -0.000141  -0.019114  -0.020890   0.559056
    25  H   -0.000499   0.004507  -0.000140  -0.000536   0.000014  -0.000003
    26  H   -0.000165   0.000040  -0.000472  -0.000012  -0.000980   0.005999
    27  H    0.005498  -0.000350  -0.000093  -0.000040   0.005992  -0.000649
    28  H   -0.000177  -0.000380   0.008128   0.007327  -0.000059  -0.000912
    29  H    0.000009  -0.001293  -0.000013  -0.000038   0.000015  -0.000036
    30  H   -0.000279   0.007559   0.000457   0.000019  -0.000033  -0.000090
    31  H    0.000000   0.000000  -0.000000  -0.000000   0.000000  -0.000000
[...]
 00109731,0.02301297,0.01664732,0.00118297,0.00199885,-0.00140479,-0.00
 502713,-0.00021902,0.00102721,0.00091757,-0.00500923,-0.00342972,-0.04
 710052,0.00046127,0.00014812,-0.00019497,-0.00024640,-0.00106268,-0.00
 005486,0.00020577,0.00000767,-0.00003432,0.00002099,0.00000121,-0.0000
 0673,-0.00000455,0.00000164,0.00000738,-0.00000865,-0.00000099,0.00000
 017,-0.00000465,0.00000640,-0.00000051,0.00001674,-0.00000830,-0.00001
 026,-0.00000766,0.00001553,0.00001454,0.00000478,0.00001628,0.00002135
 ,0.00000229,-0.00001149,0.00003879,0.00001859,-0.00000274,-0.00001525,
 0.00003689,0.00001827,0.00000051,0.00002839,0.00000789,0.00000501,0.00
 002546,0.00002440,-0.00001118,0.00003628,-0.00016099,0.00030435,-0.000
 25319,-0.00004249,-0.00007486,0.00017103,-0.00017744,0.00015062,0.0017
 1268,0.00079777,-0.00001572,-0.00011569,-0.00010571,-0.00005936,0.0000
 7497,-0.00065576,0.00003451,-0.00026752,0.00017534,0.00001001,0.000937
 56,0.00300590,0.04969995,-0.00000371,0.00001333,0.00000936,0.00000285,
 -0.00002816,-0.00001740,0.00000523,-0.00000080,0.00000662,0.00001408,0
 .00002942,0.00001422,0.00004113,0.00002299,0.00001109,0.00008406,0.000
 02629,0.00000319,-0.00012717,-0.00003175,-0.00003254,0.00019634,0.0000
 2581,0.00012657,0.00052721,-0.00013089,-0.00007626,-0.00012298,0.00020
 810,-0.00085243,-0.00228552,0.00042747,0.00322034,0.00904959,-0.004834
 33,0.01464332,0.00108089,-0.00019169,0.00070603,0.00048446,-0.00044482
 ,0.00024054,-0.12876005,0.03784106,-0.11767322,-0.00027434,0.00011471,
 0.00013404,0.00009693,-0.00005636,0.00007697,-0.00008528,-0.00002538,-
 0.00002732,-0.00001040,0.00000083,0.00000534,0.00000411,-0.00000167,-0
 .00000329,-0.00000151,-0.00000176,-0.00000306,-0.00000149,-0.00000114,
 -0.00000327,-0.00000906,0.00000353,0.00000750,0.00000549,-0.00001137,-
 0.00000483,0.00000851,0.00000285,-0.00001334,0.00001222,-0.00002655,-0
 .00001856,-0.00002648,0.00000270,0.00000825,-0.00001913,-0.00000859,-0
 .00000466,-0.00001527,-0.00000432,-0.00000800,-0.00000891,-0.00000699,
 0.00000710,0.00065525,-0.00017727,0.00088077,-0.00007613,-0.00005858,-
 0.00004934,-0.00013187,0.00010197,0.00001313,0.00025198,0.00008935,-0.
 00018428,0.00011528,0.00003414,-0.00001883,-0.00008706,0.00009802,-0.0
 0010275,0.00012399,-0.00027413,-0.00005295,-0.01210802,0.00856667,-0.0
 1897921,0.13591263,-0.00000072,0.00000073,0.00000018,0.00000100,0.0000
 0013,0.00000071,-0.00000462,-0.00000259,0.00000047,-0.00000939,-0.0000
 0384,0.00000106,-0.00001332,0.00000263,0.00000583,0.00000780,0.0000085
 5,-0.00000282,0.00001598,0.00003218,-0.00001539,0.00004917,-0.00003773
 ,0.00001950,0.00009820,-0.00096195,-0.00026855,-0.00001865,0.00039267,
 -0.00044856,0.00030839,-0.00050204,-0.00085315,-0.00265032,-0.00017341
 ,-0.00344168,0.00027497,-0.00010106,0.00040422,-0.00059541,0.00041921,
 -0.00101504,0.03767927,-0.06463164,0.05444996,-0.00031710,-0.00002499,
 0.00010189,0.00010352,0.00045222,0.00031474,0.00000823,0.00002152,0.00
 000356,0.00000088,-0.00000045,-0.00000108,0.,0.00000024,0.00000023,0.0
 0000028,0.00000005,0.00000062,0.00000092,0.00000096,0.00000065,0.00000
 203,0.00000046,-0.00000178,-0.00000162,0.00000202,0.00000029,0.0000041
 5,0.00000446,-0.00000063,-0.00000152,-0.00000584,0.00000273,0.00000269
 ,0.00000161,-0.00000141,0.00000146,0.00000065,0.00000049,-0.00000181,0
 .00000070,-0.00000058,0.00000067,0.00000251,0.00000097,-0.00014946,0.0
 0023406,-0.00016169,0.00009044,-0.00009757,0.00012531,-0.00031968,0.00
 021330,0.00013677,-0.00009287,-0.00008997,-0.00018274,0.00034816,0.000
 00983,-0.00018400,-0.00008509,-0.00004778,-0.00007359,-0.00012392,-0.0
 0001987,0.00017556,-0.00903682,0.00592352,-0.01559870,-0.04212636,0.06
 435667,-0.00000433,0.00001318,0.00002142,0.00000599,-0.00003021,-0.000
 03603,0.00000318,-0.00000118,0.00001262,-0.00000605,0.00000979,0.00000
 840,0.00003966,0.00003764,0.00000097,0.00006406,0.00002097,-0.00000216
 ,-0.00014961,-0.00009084,0.00001490,0.00027351,0.00016405,-0.00005262,
 0.00016584,-0.00045465,0.00020464,0.00039058,0.00022737,0.00043874,0.0
 0440185,-0.00146976,-0.00352640,-0.01568815,0.00717193,-0.02256044,-0.
 00156829,-0.00009962,0.00091029,-0.00127341,0.00122862,0.00075243,-0.1
 1507868,0.05329838,-0.20948565,0.00025007,-0.00062655,0.00014914,-0.00
 013323,0.00038351,-0.00002599,-0.00016640,-0.00002975,0.00002032,-0.00
 001207,-0.00000100,0.00000530,0.00000355,-0.00000139,-0.00000319,0.000
 00251,-0.00000007,-0.00000241,0.00000151,-0.00000208,-0.00000222,-0.00
 000950,0.00000412,0.00000757,0.00000482,-0.00001071,-0.00000853,0.0000
 0079,-0.00000271,-0.00000669,-0.00000295,-0.00000242,-0.00001524,-0.00
 000824,0.00000142,0.00000982,-0.00002309,-0.00001525,-0.00000369,-0.00
 001398,-0.00000289,-0.00000584,-0.00001380,-0.00001183,0.00000712,-0.0
 0090009,0.00033529,-0.00156034,0.00007324,0.00002107,-0.00005142,0.000
 95450,0.00014746,0.00033317,0.00008257,-0.00026444,0.00039942,0.000645
 81,-0.00080417,0.00035966,0.00000567,-0.00000545,-0.00004815,0.0002033
 8,0.00006024,0.00046743,0.00088375,-0.00097195,0.00098721,0.12335056,-
 0.05772547,0.22775662,0.00000236,-0.00000679,0.00001192,0.00000352,0.0
 0001586,-0.00001755,-0.00000488,-0.00000144,0.00000517,-0.00002612,-0.
 00003989,0.00000938,-0.00001026,-0.00000675,-0.00000156,-0.00000044,-0
 .00000290,0.00000031,0.00001160,0.00005761,-0.00002120,0.00001187,-0.0
 0011617,-0.00002945,-0.00007448,-0.00027035,-0.00005869,-0.00008273,-0
 .00002596,-0.00001885,0.00031702,-0.00020085,-0.00049876,-0.00538030,0
 .01587378,-0.00019461,0.00071421,0.00132252,-0.00056990,-0.00173804,-0
 .00038892,0.00325767,-0.06816654,0.06687122,0.00841168,0.00063304,0.00
 054928,-0.00016805,-0.00013481,0.00021484,0.00001444,-0.00000380,0.000
 04434,0.00002928,-0.00000038,-0.00000056,-0.00000183,-0.00000075,0.000
 00217,-0.00000055,0.00000588,0.00000270,0.00000324,0.00000525,0.000000
 74,0.00000446,-0.00000043,0.00000093,-0.00000209,-0.00000182,0.0000050
 5,-0.00000480,0.00000306,0.00000494,0.00000104,-0.00000747,0.00001817,
 -0.00000479,0.00000852,0.00000415,-0.00000080,0.00000338,0.00000390,0.
 00000449,0.00000037,0.00000167,0.00000276,0.00000464,-0.00000130,-0.00
 000175,-0.00009613,-0.00000960,-0.00008537,-0.00025154,-0.00058502,0.0
 0027617,-0.00008060,0.00006564,0.00003266,0.00020948,-0.00022235,-0.00
 013245,0.00014655,-0.00040020,0.00005700,0.00014382,0.00020451,0.00005
 184,0.00011221,0.00116725,0.00041878,0.01025109,-0.02449709,-0.0024563
 4,-0.00447598,0.01634934,0.00324736,0.06779345,0.00000180,-0.00000751,
 0.00002050,0.00000862,0.00001461,-0.00003217,-0.00000885,-0.00000419,0
 .00001028,-0.00003711,-0.00005171,0.00001887,-0.00000661,-0.00000580,-
 0.00001078,0.00001847,0.00000454,-0.00000419,0.00000354,0.00012725,-0.
 00001868,0.00010414,-0.00017554,-0.00004130,-0.00002691,-0.00137015,-0
 .00029190,-0.00046298,0.00053059,-0.00028574,0.00100995,-0.00064130,0.
 00052344,0.00018013,-0.00361879,-0.00102395,-0.00060144,0.00049935,0.0
 0033001,0.00089565,0.00119252,-0.00159989,0.06761652,-0.28436200,-0.02
 839150,-0.00023664,-0.00052779,0.00104933,-0.00026454,0.00081270,0.000
 39443,-0.00005348,0.00010011,0.00004851,-0.00000402,-0.00000103,-0.000
 00053,-0.00000005,0.00000655,-0.00000243,0.00000928,0.00000300,0.00000
 422,0.00000687,0.00000114,0.00000615,-0.00000555,0.00000298,-0.0000002
 3,0.00000051,0.00000413,-0.00000980,0.00000494,0.00001013,-0.00000116,
 -0.00000677,0.00001756,-0.00001627,0.00000287,0.00000447,0.00000270,-0
 .00000372,0.00000107,0.00000557,0.00000113,0.00000314,0.00000646,0.000
 00732,-0.00000501,-0.00000371,-0.00014218,0.00002693,-0.00015582,0.000
 30227,0.00049506,-0.00000371,-0.00002561,-0.00006325,-0.00004678,0.000
 05557,0.00024193,-0.00010915,-0.00022439,0.00019367,0.00013469,-0.0000
 2405,0.00025902,0.00024476,0.00023465,-0.00032211,-0.00001700,0.005867
 27,-0.01419589,-0.00101663,0.00099770,-0.00599358,-0.00067206,-0.07554
 564,0.30627198,0.00000131,-0.00000606,-0.00001348,-0.00000210,0.000014
 00,0.00002313,-0.00000557,-0.00000152,-0.00000696,-0.00000312,-0.00000
 705,-0.00001278,-0.00003944,-0.00001420,-0.00000259,-0.00003759,-0.000
 00430,-0.00000565,0.00010880,0.00007137,0.00000101,-0.00009524,-0.0000
 5178,0.00000399,-0.00023595,-0.00104908,-0.00012119,-0.00030113,0.0004
 4821,-0.00012032,0.00006925,-0.00087701,0.00127555,0.00631205,-0.02713
 121,-0.00169949,-0.00113591,-0.00053031,0.00086534,0.00273722,0.000561
 04,-0.00490685,0.00789061,-0.02643279,-0.05102782,-0.00074503,-0.00004
 150,-0.00168936,0.00035040,0.00082996,0.00023987,0.00007800,0.00004257
 ,-0.00000177,0.00000781,0.00000031,-0.00000344,-0.00000192,0.00000082,
 0.00000196,-0.00000191,-0.00000038,0.00000104,-0.00000108,0.00000121,0
 .00000039,0.00000861,-0.00000165,-0.00000556,-0.00000422,0.00000709,0.
 00000723,-0.00000105,0.00000115,0.00000435,-0.00000564,0.00000343,0.00
 002137,0.00001334,0.00000062,-0.00000670,0.00001275,0.00000655,0.00000
 159,0.00000942,0.00000264,0.00000423,0.00000856,0.00000843,-0.00000332
 ,0.00010306,0.00014613,0.00028169,0.00030958,0.00052284,0.00021048,0.0
 0000550,0.00013643,-0.00003561,-0.00030296,0.00007827,-0.00003163,0.00
 024380,0.00000399,0.00025337,-0.00009110,0.00024246,-0.00000690,0.0007
 5571,-0.00170923,-0.00009957,0.00010076,-0.00047476,-0.00098087,-0.005
 14722,0.02420835,0.00426821,-0.01129524,0.02964401,0.05399155,-0.00000
 928,0.00002373,0.00003373,0.00001338,-0.00005526,-0.00005692,0.0000031
 2,-0.00000378,0.00001957,0.00000088,0.00002466,0.00001237,0.00005464,0
 .00002381,0.00002943,0.00005989,-0.00004659,0.00004756,-0.00047862,-0.
 00018498,-0.00008613,-0.00001950,-0.00054759,-0.00059178,-0.00330691,0
 .00854899,0.00349160,0.00190115,-0.00016947,-0.00116860,0.00407631,0.0
 0411236,-0.00863453,0.00038686,0.00187095,-0.00020322,0.00013423,-0.00
 014082,0.00022623,-0.00027617,-0.00001383,-0.00024314,-0.00006783,-0.0
 0012068,0.00000036,-0.05558685,-0.02476629,0.04241728,-0.02707905,-0.0
 2533087,0.02871276,-0.00006528,-0.00015888,-0.00002764,-0.00001800,-0.
 00000325,0.00000703,0.00000591,0.00000308,-0.00000405,0.00000031,-0.00
 000098,-0.00000611,-0.00000643,-0.00000331,-0.00000674,-0.00001318,0.0
 0000797,0.00000811,0.00001275,-0.00001939,-0.00000583,0.00000037,0.000
 00111,-0.00000942,0.00000526,-0.00000939,-0.00002838,-0.00001526,-0.00
 000180,0.00001398,-0.00004125,-0.00002683,-0.00000840,-0.00002665,-0.0
 0001772,-0.00001056,-0.00002882,-0.00001844,-0.00000148,0.00073449,0.0
 0033213,-0.00057306,0.00012072,-0.00006948,-0.00008832,-0.00000712,-0.
 00000436,0.00000732,-0.00009677,0.00008810,0.00002384,-0.00005586,0.00
 013735,0.00001524,0.00000322,0.00002275,-0.00002906,-0.00001766,0.0000
 2996,0.00002467,-0.00000330,0.00008378,-0.00006634,-0.00001610,0.00010
 611,0.00001449,-0.00010803,0.00016261,0.00013140,0.07471117,-0.0000005
 6,0.00000303,0.00000723,0.00000340,-0.00000739,-0.00001058,0.00000272,
 -0.00000028,0.00000493,0.00000049,0.00000128,0.00000365,0.00000747,-0.
 00000181,-0.00001291,0.00004567,0.00000744,0.00001597,-0.00019031,-0.0
 0005676,-0.00003626,0.00019423,-0.00013533,0.00029482,0.00020830,-0.00
 131871,-0.00069423,-0.00126583,-0.00207151,0.00020718,-0.00289857,-0.0
 0991943,0.02391876,-0.00028374,-0.00388005,-0.00165657,-0.00027256,-0.
 00011431,0.00011105,0.00058024,0.00008526,0.00100017,0.00016250,-0.000
 20632,-0.00067510,-0.02829779,-0.10823887,0.10322606,-0.00396535,0.002
 63158,0.00115728,-0.00009392,0.00003880,-0.00005725,-0.00000366,-0.000
 00006,0.00000182,0.00000173,0.00000128,-0.00000082,-0.00000062,0.00000
 032,-0.00000237,-0.00000244,-0.00000038,-0.00000240,-0.00000356,0.0000
 0155,0.00000207,0.00000297,-0.00000415,-0.00000198,0.00000166,0.000003
 13,-0.00000264,0.00000023,-0.00000423,-0.00000787,-0.00000431,0.000000
 70,0.00000288,-0.00002096,-0.00000111,-0.00000138,-0.00001770,-0.00000
 923,-0.00000607,-0.00000881,-0.00000552,-0.00000065,-0.00016535,0.0014
 3035,-0.00003368,0.00019873,0.00008867,0.00004924,0.00010983,0.0000435
 9,-0.00001244,0.00008344,0.00003276,-0.00003578,0.00016281,-0.00040945
 ,-0.00001468,-0.00007396,0.00005710,-0.00003078,0.00004329,0.00000216,
 -0.00005167,-0.00002252,0.00007560,-0.00001531,-0.00002591,0.00013693,
 0.00010128,-0.00014948,0.00028013,0.00012232,0.03161609,0.11160706,0.0
 0000421,-0.00001262,-0.00000746,-0.00000952,0.00002715,0.00001062,0.00
 000068,0.00000209,-0.00000470,-0.00000494,-0.00001491,-0.00000059,-0.0
 0002726,-0.00001104,-0.00001068,-0.00005356,-0.00001268,-0.00000142,0.
 00009055,0.00002659,0.00001886,0.00001106,-0.00005933,-0.00019490,-0.0
 0092815,-0.00229793,-0.00058193,-0.00039748,-0.00012016,-0.00078950,-0
 .00017775,-0.00257839,0.00298545,-0.00005847,-0.00013509,0.00041337,0.
 00013068,0.00020811,0.00003948,-0.00012218,-0.00004084,-0.00004167,0.0
 0003754,-0.00036184,-0.00012276,0.04973453,0.10562938,-0.25106246,0.00
 450391,-0.00053219,0.00968000,0.00006608,0.00001939,0.00003705,0.00000
 633,0.00000170,-0.00000449,-0.00000352,-0.00000236,0.00000100,0.000003
 35,0.00000150,0.00000576,0.00000711,0.00000123,0.00000699,0.00000428,-
 0.00000335,-0.00000450,-0.00000746,0.00001149,-0.00000175,-0.00000276,
 -0.00000646,0.00000424,-0.00000205,0.00001284,0.00000501,0.00000801,0.
 00000058,-0.00000584,0.00002132,0.00001061,0.00000762,0.00001059,0.000
 00609,0.00000555,0.00000170,0.00000577,-0.00000271,-0.00048420,-0.0001
 3480,0.00177250,0.00025321,-0.00006001,-0.00012146,-0.00002816,-0.0000
 8036,0.00004174,-0.00013829,0.00014776,0.00008998,0.00001767,0.0000532
 7,0.00002369,0.00002237,-0.00003761,0.00000959,-0.00002689,0.00003884,
 0.00003062,-0.00002510,0.00009529,0.00002845,-0.00008726,0.00018248,0.
 00004938,-0.00015155,0.00030602,0.00028346,-0.05690755,-0.11194206,0.2
 5671527,-0.00000538,0.00001576,0.00003352,0.00002058,-0.00003491,-0.00
 005672,-0.00000704,-0.00000587,0.00002378,-0.00002467,0.00000257,0.000
 01803,0.00007709,0.00000040,-0.00001833,0.00007060,-0.00007197,0.00002
 001,-0.00058956,-0.00018358,0.00007771,0.00028539,-0.00089924,0.000520
 36,-0.00462111,0.00661418,-0.00302991,0.00126019,0.00077214,0.00048186
 ,0.00558458,0.00337804,0.00887208,0.00018681,-0.00012492,-0.00041247,-
 0.00062082,0.00106987,-0.00007551,-0.00010008,-0.00006745,0.00026199,-
 0.00003606,-0.00024847,-0.00054968,-0.05959481,-0.03406174,-0.04793422
 ,-0.02611416,-0.02713318,-0.02449219,-0.00008720,-0.00005136,-0.000014
 60,-0.00001570,-0.00000240,0.00000687,0.00000535,0.00000522,-0.0000051
 9,0.00000608,0.00000061,-0.00000209,0.00000434,-0.00000022,-0.00000089
 ,-0.00001455,0.00000718,0.00000848,0.00000760,-0.00001422,-0.00001638,
 0.00000464,0.00000731,-0.00000857,0.00000520,-0.00000911,-0.00002544,-
 0.00000891,0.00000069,0.00001380,-0.00003586,-0.00001525,-0.00000244,-
 0.00002882,-0.00000882,-0.00000168,-0.00003966,-0.00002623,0.00000245,
 -0.00026087,0.00158126,0.00009677,-0.00141581,0.00038397,-0.00049132,0
 .00022899,-0.00018850,-0.00004544,0.00002993,-0.00006844,0.00008252,0.
 00003246,-0.00002969,-0.00000214,0.00000537,-0.00004014,-0.00002131,0.
 00002578,0.00001869,-0.00002034,-0.00004659,0.00001664,0.00001921,-0.0
 0002579,0.00009503,-0.00001738,0.00026423,0.00018873,0.00019548,0.0051
 1928,0.00434209,0.00470894,0.08046897,-0.00000331,0.00001086,0.0000322
 7,0.00000394,-0.00002437,-0.00005675,0.00000449,-0.00000002,0.00002086
 ,-0.00001254,0.00000206,0.00001566,0.00003941,0.00002817,0.00000940,0.
 00009262,0.00002258,0.00000950,-0.00029903,-0.00011606,0.00004730,0.00
 036081,-0.00002162,-0.00029957,0.00052697,-0.00217824,0.00019865,-0.00
 210904,-0.00315624,-0.00035340,-0.00512000,-0.01038678,-0.02027154,-0.
 00108885,0.00103523,-0.00148552,0.00010158,-0.00039675,-0.00007352,-0.
 00014592,0.00017475,0.00000011,0.00023129,-0.00088365,-0.00003358,-0.0
 3924997,-0.13279127,-0.11591632,-0.00297437,0.00235837,0.00016058,-0.0
 0021162,0.00001367,0.00005260,-0.00001498,-0.00000089,0.00000582,0.000
 00370,-0.00000002,-0.00000486,0.00000599,0.00000117,-0.00000131,0.0000
 0330,-0.00000328,-0.00000056,-0.00001268,0.00000590,0.00000817,0.00000
 556,-0.00001061,-0.00001265,-0.00000130,-0.00000502,-0.00000843,-0.000
 00177,0.00000527,-0.00002442,-0.00000700,0.00000252,0.00001184,-0.0000
 2502,-0.00001321,-0.00000272,-0.00001844,-0.00000552,-0.00000576,-0.00
 002623,-0.00001883,0.00000605,0.00076768,-0.00352337,0.00006054,0.0006
 0805,0.00069301,0.00022488,-0.00001359,0.00033108,0.00005578,-0.000209
 07,0.00012366,0.00007717,0.00005527,0.00004298,0.00012348,0.00001653,0
 .00012920,-0.00007758,-0.00014430,0.00012186,0.00008435,0.00000548,0.0
 0024063,-0.00010498,-0.00013810,0.00047651,0.00007016,-0.00030935,0.00
 024112,0.00122863,0.00451844,0.00985616,0.01165583,0.04478535,0.137618
 96,-0.00000433,0.00000976,0.00001072,0.00000933,-0.00001995,-0.0000172
 9,-0.00000414,-0.00000195,0.00000681,-0.00000271,0.00000909,0.00000512
 ,0.00002513,0.00001196,-0.00000536,0.00003918,0.00001453,0.00001313,-0
 .00001018,-0.00001309,0.00001866,-0.00002256,0.00018892,-0.00023583,0.
 00135971,0.00212683,-0.00046020,0.00040204,0.00111947,-0.00049498,0.00
 347596,0.00076228,0.00492837,-0.00106233,-0.00033782,-0.00078024,-0.00
 073165,-0.00017726,-0.00052235,0.00034100,0.00013926,0.00022859,-0.000
 06313,0.00102964,-0.00041853,-0.05626656,-0.11878352,-0.22375487,-0.00
 175000,0.00244054,0.01000332,-0.00006005,-0.00001595,0.00003221,-0.000
 00713,-0.00000113,0.00000408,0.00000285,0.00000222,-0.00000185,0.00000
 114,-0.00000079,-0.00000211,0.00000117,0.00000003,-0.00000193,-0.00000
 693,0.00000229,0.00000578,0.00000498,-0.00000936,-0.00000650,0.0000017
 5,0.00000371,-0.00000332,0.00000472,-0.00000630,-0.00001114,-0.0000070
 9,-0.00000096,0.00000710,-0.00000799,-0.00000792,-0.00000414,0.0000015
 1,0.00000066,-0.00000270,-0.00000241,-0.00000602,0.00000368,-0.0005642
 2,0.00001033,0.00054271,-0.00040363,0.00076329,0.00033358,0.00008322,0
 .00027913,-0.00000282,0.00003467,0.00001788,0.00006393,0.00005343,-0.0
 0010987,0.00007440,0.00000033,0.00005477,-0.00002973,-0.00000254,-0.00
 005510,0.00000248,0.00004515,0.00006209,0.00000450,-0.00010491,-0.0001
 5975,0.00021221,-0.00012345,0.00100543,-0.00095795,-0.00647971,-0.0149
 2123,-0.01930685,0.06180037,0.12457386,0.23051930\\0.00000024,0.,0.000
 00142,0.00000284,-0.00000550,-0.00000359,-0.00000224,0.00000220,0.0000
 0126,0.00000010,-0.00000278,0.00000024,0.00001517,0.00001451,0.0000054
 7,0.00000105,-0.00000718,-0.00000035,-0.00000105,0.00001820,-0.0000042
 4,0.00001411,-0.00003865,0.00000982,-0.00001335,0.00003729,0.00000930,
 0.00002021,-0.00000937,-0.00000715,-0.00001577,-0.00001464,0.00000543,
 -0.00000271,0.00000572,-0.00000361,0.00000020,-0.00000011,0.00000146,0
 .00000210,-0.00000173,0.00000094,-0.00000032,0.00000272,0.00000014,-0.
 00000117,0.00000705,0.00000034,0.00000075,-0.00001733,-0.00000434,-0.0
 0001987,0.00000947,-0.00000715,-0.00000030,0.00000076,0.00000252,0.000
 00093,-0.00000238,0.00000060,0.00000022,0.00000143,-0.00000276,-0.0000
 0076,-0.00000126,-0.00000287,-0.00000214,-0.00000054,0.00000217,0.0000
 0313,0.00000032,0.00000071,-0.00000179,-0.00000121,0.00000039,0.000001
 85,0.00000315,-0.00000123,-0.00000198,0.00000219,0.00000204,-0.0000021
 9,-0.00000128,-0.00000190,-0.00000004,-0.00000011,-0.00000190,0.000001
 89,-0.00000054,-0.00000055,0.00000210,0.00000145,-0.00000179,-0.000000
 40,0.00000181,0.00000087,0.00000036,-0.00000081,0.00000242,-0.00000006
 ,-0.00000140,-0.00000283,0.00000187,0.00000034,0.00000210,-0.00000351,
 -0.00000046,0.00000075,0.00000081,0.00000131,-0.00000276,-0.00000156,-
 0.00000291,-0.00000134,0.00000217,-0.00000210,0.00000205,0.00000159,0.
 00000169,-0.00000003,0.00000002,0.00000019,-0.00000183,-0.00000248,0.0
 0000050,-0.00000024\\\@
 The archive entry for this job was punched.


 THOSE WHO ARE UNABLE TO LEARN FROM PAST MEETINGS
 ARE CONDEMNED TO REPEAT THEM.
 Job cpu time:       0 days  1 hours 55 minutes 41.6 seconds.
 Elapsed time:       0 days  0 hours  6 minutes 20.3 seconds.
 File lengths (MBytes):  RWF=    452 Int=      0 D2E=      0 Chk=     10 Scr=      1
 Normal termination of Gaussian 16 at Mon Aug 15 05:33:52 2022.
