 Entering Gaussian System, Link 0=g16
 Initial command:
 /public/apps/g16-C01//g16/l1.exe "/public/home/ljq/tmp/Gau-6385.inp" -scrdir="/public/home/ljq/tmp/"
 Entering Link 1 = /public/apps/g16-C01//g16/l1.exe PID=      6386.
  
 Copyright (c) 1988-2019, Gaussian, Inc.  All Rights Reserved.
  
 This is part of the Gaussian(R) 16 program.  It is based on
 the Gaussian(R) 09 system (copyright 2009, Gaussian, Inc.),
 the Gaussian(R) 03 system (copyright 2003, Gaussian, Inc.),
 the Gaussian(R) 98 system (copyright 1998, Gaussian, Inc.),
 the Gaussian(R) 94 system (copyright 1995, Gaussian, Inc.),
 the Gaussian 92(TM) system (copyright 1992, Gaussian, Inc.),
 the Gaussian 90(TM) system (copyright 1990, Gaussian, Inc.),
 the Gaussian 88(TM) system (copyright 1988, Gaussian, Inc.),
 the Gaussian 86(TM) system (copyright 1986, Carnegie Mellon
 University), and the Gaussian 82(TM) system (copyright 1983,
 Carnegie Mellon University). Gaussian is a federally registered
 trademark of Gaussian, Inc.
  
 This software contains proprietary and confidential information,
 including trade secrets, belonging to Gaussian, Inc.
  
 This software is provided under written license and may be
 used, copied, transmitted, or stored only in accord with that
 written license.
  
 The following legend is applicable only to US Government
 contracts under FAR:
  
                    RESTRICTED RIGHTS LEGEND
  
 Use, reproduction and disclosure by the US Government is
 subject to restrictions as set forth in subparagraphs (a)
 and (c) of the Commercial Computer Software - Restricted
 Rights clause in FAR 52.227-19.
  
 Gaussian, Inc.
 340 Quinnipiac St., Bldg. 40, Wallingford CT 06492
  
  
 ---------------------------------------------------------------
 Warning -- This program may not be used in any manner that
 competes with the business of Gaussian, Inc. or will provide
 assistance to any competitor of Gaussian, Inc.  The licensee
 of this program is prohibited from giving any competitor of
 Gaussian, Inc. access to this program.  By using this program,
 the user acknowledges that Gaussian, Inc. is engaged in the
 business of creating and licensing software in the field of
 computational chemistry and represents and warrants to the
 licensee that it is not a competitor of Gaussian, Inc. and that
 it will not use this program in any manner prohibited above.
 ---------------------------------------------------------------
  

 Cite this work as:
 Gaussian 16, Revision C.01,
 M. J. Frisch, G. W. Trucks, H. B. Schlegel, G. E. Scuseria, 
 M. A. Robb, J. R. Cheeseman, G. Scalmani, V. Barone, 
 G. A. Petersson, H. Nakatsuji, X. Li, M. Caricato, A. V. Marenich, 
 J. Bloino, B. G. Janesko, R. Gomperts, B. Mennucci, H. P. Hratchian, 
 J. V. Ortiz, A. F. Izmaylov, J. L. Sonnenberg, D. Williams-Young, 
 F. Ding, F. Lipparini, F. Egidi, J. Goings, B. Peng, A. Petrone, 
 T. Henderson, D. Ranasinghe, V. G. Zakrzewski, J. Gao, N. Rega, 
 G. Zheng, W. Liang, M. Hada, M. Ehara, K. Toyota, R. Fukuda, 
 J. Hasegawa, M. Ishida, T. Nakajima, Y. Honda, O. Kitao, H. Nakai, 
 T. Vreven, K. Throssell, J. A. Montgomery, Jr., J. E. Peralta, 
 F. Ogliaro, M. J. Bearpark, J. J. Heyd, E. N. Brothers, K. N. Kudin, 
 V. N. Staroverov, T. A. Keith, R. Kobayashi, J. Normand, 
 K. Raghavachari, A. P. Rendell, J. C. Burant, S. S. Iyengar, 
 J. Tomasi, M. Cossi, J. M. Millam, M. Klene, C. Adamo, R. Cammi, 
 J. W. Ochterski, R. L. Martin, K. Morokuma, O. Farkas, 
 J. B. Foresman, and D. J. Fox, Gaussian, Inc., Wallingford CT, 2019.
 
 ******************************************
 Gaussian 16:  ES64L-G16RevC.01  3-Jul-2019
                26-Feb-2024 
 ******************************************
 %nproc=40
 Will use up to   40 processors via shared memory.
 %mem=56GB
 ------------------------------------------
 #p opt freq b3lyp/def2svpp em=gd3bj nosymm
 ------------------------------------------
 1/18=20,19=15,26=3,38=1/1,3;
 2/9=110,12=2,15=1,17=6,18=5,40=1/2;
 3/5=43,7=202,11=2,25=1,30=1,71=1,74=-5,124=41/1,2,3;
 4//1;
 5/5=2,38=5/2;
 6/7=2,8=2,9=2,10=2,28=1/1;
 7/30=1/1,2,3,16;
 1/18=20,19=15,26=3/3(2);
 2/9=110,15=1/2;
 99//99;
 2/9=110,15=1/2;
 3/5=43,7=202,11=2,25=1,30=1,71=1,74=-5,124=41/1,2,3;
 4/5=5,16=3,69=1/1;
 5/5=2,38=5/2;
 7/30=1/1,2,3,16;
 1/18=20,19=15,26=3/3(-5);
 2/9=110,15=1/2;
 6/7=2,8=2,9=2,10=2,19=2,28=1/1;
 99/9=1/99;
 Leave Link    1 at Mon Feb 26 09:06:59 2024, MaxMem=  7516192768 cpu:               1.0 elap:               0.0
 (Enter /public/apps/g16-C01//g16/l101.exe)
 ----------------------
 $$$$Singlemol####0????
 ----------------------
 Symbolic Z-matrix:
 Charge =  0 Multiplicity = 1
 C                    -4.47998  -2.15413   0.58318 
 C                    -3.65077  -1.13214  -0.19706 
 C                    -4.56488  -0.35998  -1.15194 
 C                    -2.56362  -1.83985  -1.0084 
 C                    -3.03056  -0.1098    0.78373 
 C                    -1.99066  -0.68083   1.78766 
 O                    -0.77836  -0.01255   1.45923 
 C                    -1.08354   0.85985   0.46704 
 C                     0.03942   1.69316  -0.04677 
 C                     1.10466   0.76263  -0.51338 
 N                     2.31657   0.79314  -0.16731 
 C                     3.00155  -0.3076   -0.81138 
 C                     3.63616  -1.24497   0.24235 
 C                     2.56826  -1.82169   1.17399 
 C                     4.3907   -2.37388  -0.46262 
 C                     4.6223   -0.41267   1.06607 
 C                     1.89656  -0.94063  -1.70222 
 O                     0.72444  -0.19509  -1.39465 
 C                     0.515     2.7998    0.91841 
 C                     0.00407   3.86816  -0.0588 
 C                    -0.38412   2.77466  -1.06442 
 N                    -2.27719   0.89457   0.06331 
 H                    -4.95083  -2.85092  -0.10649 
 H                    -3.8632   -2.72436   1.27402 
 H                    -5.26136  -1.65713   1.15432 
 H                    -5.36156   0.13561  -0.60187 
 H                    -3.99012   0.39558  -1.67914 
 H                    -5.01329  -1.03614  -1.87606 
 H                    -1.94465  -2.47532  -0.37859 
 H                    -1.92129  -1.11021  -1.49659 
 H                    -3.02018  -2.46647  -1.77121 
 H                    -3.85101   0.38946   1.31214 
 H                    -1.83133  -1.75567   1.68653 
 H                    -2.245    -0.45306   2.82686 
 H                     3.81078   0.10392  -1.42576 
 H                     1.97845  -1.02035   1.61362 
 H                     1.89548  -2.49282   0.64435 
 H                     3.04131  -2.38462   1.97544 
 H                     5.15886  -1.96946  -1.11843 
 H                     3.72157  -2.98868  -1.06017 
 H                     4.8717   -3.01271   0.27453 
 H                     5.08065  -1.02489   1.83918 
 H                     4.10099   0.41794   1.53246 
 H                     5.40874  -0.01193   0.43059 
 H                     1.70579  -1.99186  -1.47955 
 H                     2.10862  -0.83377  -2.76991 
 H                     1.59348   2.78115   1.04857 
 H                     0.02957   2.7834    1.89126 
 H                    -0.84538   4.43485   0.31507 
 H                     0.76553   4.56057  -0.40977 
 H                    -1.4395    2.72118  -1.3159 
 H                     0.21181   2.76634  -1.97394 
 
 ITRead=  0  0  0  0  0  0  0  0  0  0  0  0  0  0  0  0  0  0  0  0
 ITRead=  0  0  0  0  0  0  0  0  0  0  0  0  0  0  0  0  0  0  0  0
 ITRead=  0  0  0  0  0  0  0  0  0  0  0  0
 MicOpt= -1 -1 -1 -1 -1 -1 -1 -1 -1 -1 -1 -1 -1 -1 -1 -1 -1 -1 -1 -1
 MicOpt= -1 -1 -1 -1 -1 -1 -1 -1 -1 -1 -1 -1 -1 -1 -1 -1 -1 -1 -1 -1
 MicOpt= -1 -1 -1 -1 -1 -1 -1 -1 -1 -1 -1 -1
 NAtoms=     52 NQM=       52 NQMF=       0 NMMI=      0 NMMIF=      0
                NMic=       0 NMicF=      0.
                    Isotopes and Nuclear Properties:
 (Nuclear quadrupole moments (NQMom) in fm**2, nuclear magnetic moments (NMagM)
  in nuclear magnetons)

  Atom         1           2           3           4           5           6           7           8           9          10
 IAtWgt=          12          12          12          12          12          12          16          12          12          12
 AtmWgt=  12.0000000  12.0000000  12.0000000  12.0000000  12.0000000  12.0000000  15.9949146  12.0000000  12.0000000  12.0000000
 NucSpn=           0           0           0           0           0           0           0           0           0           0
 AtZEff=  -0.0000000  -0.0000000  -0.0000000  -0.0000000  -0.0000000  -0.0000000  -0.0000000  -0.0000000  -0.0000000  -0.0000000
 NQMom=    0.0000000   0.0000000   0.0000000   0.0000000   0.0000000   0.0000000   0.0000000   0.0000000   0.0000000   0.0000000
 NMagM=    0.0000000   0.0000000   0.0000000   0.0000000   0.0000000   0.0000000   0.0000000   0.0000000   0.0000000   0.0000000
 AtZNuc=   6.0000000   6.0000000   6.0000000   6.0000000   6.0000000   6.0000000   8.0000000   6.0000000   6.0000000   6.0000000

  Atom        11          12          13          14          15          16          17          18          19          20
 IAtWgt=          14          12          12          12          12          12          12          16          12          12
 AtmWgt=  14.0030740  12.0000000  12.0000000  12.0000000  12.0000000  12.0000000  12.0000000  15.9949146  12.0000000  12.0000000
 NucSpn=           2           0           0           0           0           0           0           0           0           0
 AtZEff=  -0.0000000  -0.0000000  -0.0000000  -0.0000000  -0.0000000  -0.0000000  -0.0000000  -0.0000000  -0.0000000  -0.0000000
 NQMom=    2.0440000   0.0000000   0.0000000   0.0000000   0.0000000   0.0000000   0.0000000   0.0000000   0.0000000   0.0000000
 NMagM=    0.4037610   0.0000000   0.0000000   0.0000000   0.0000000   0.0000000   0.0000000   0.0000000   0.0000000   0.0000000
 AtZNuc=   7.0000000   6.0000000   6.0000000   6.0000000   6.0000000   6.0000000   6.0000000   8.0000000   6.0000000   6.0000000

  Atom        21          22          23          24          25          26          27          28          29          30
 IAtWgt=          12          14           1           1           1           1           1           1           1           1
 AtmWgt=  12.0000000  14.0030740   1.0078250   1.0078250   1.0078250   1.0078250   1.0078250   1.0078250   1.0078250   1.0078250
 NucSpn=           0           2           1           1           1           1           1           1           1           1
 AtZEff=  -0.0000000  -0.0000000  -0.0000000  -0.0000000  -0.0000000  -0.0000000  -0.0000000  -0.0000000  -0.0000000  -0.0000000
 NQMom=    0.0000000   2.0440000   0.0000000   0.0000000   0.0000000   0.0000000   0.0000000   0.0000000   0.0000000   0.0000000
 NMagM=    0.0000000   0.4037610   2.7928460   2.7928460   2.7928460   2.7928460   2.7928460   2.7928460   2.7928460   2.7928460
 AtZNuc=   6.0000000   7.0000000   1.0000000   1.0000000   1.0000000   1.0000000   1.0000000   1.0000000   1.0000000   1.0000000

  Atom        31          32          33          34          35          36          37          38          39          40
 IAtWgt=           1           1           1           1           1           1           1           1           1           1
 AtmWgt=   1.0078250   1.0078250   1.0078250   1.0078250   1.0078250   1.0078250   1.0078250   1.0078250   1.0078250   1.0078250
 NucSpn=           1           1           1           1           1           1           1           1           1           1
 AtZEff=  -0.0000000  -0.0000000  -0.0000000  -0.0000000  -0.0000000  -0.0000000  -0.0000000  -0.0000000  -0.0000000  -0.0000000
 NQMom=    0.0000000   0.0000000   0.0000000   0.0000000   0.0000000   0.0000000   0.0000000   0.0000000   0.0000000   0.0000000
 NMagM=    2.7928460   2.7928460   2.7928460   2.7928460   2.7928460   2.7928460   2.7928460   2.7928460   2.7928460   2.7928460
 AtZNuc=   1.0000000   1.0000000   1.0000000   1.0000000   1.0000000   1.0000000   1.0000000   1.0000000   1.0000000   1.0000000

  Atom        41          42          43          44          45          46          47          48          49          50
 IAtWgt=           1           1           1           1           1           1           1           1           1           1
 AtmWgt=   1.0078250   1.0078250   1.0078250   1.0078250   1.0078250   1.0078250   1.0078250   1.0078250   1.0078250   1.0078250
 NucSpn=           1           1           1           1           1           1           1           1           1           1
 AtZEff=  -0.0000000  -0.0000000  -0.0000000  -0.0000000  -0.0000000  -0.0000000  -0.0000000  -0.0000000  -0.0000000  -0.0000000
 NQMom=    0.0000000   0.0000000   0.0000000   0.0000000   0.0000000   0.0000000   0.0000000   0.0000000   0.0000000   0.0000000
 NMagM=    2.7928460   2.7928460   2.7928460   2.7928460   2.7928460   2.7928460   2.7928460   2.7928460   2.7928460   2.7928460
 AtZNuc=   1.0000000   1.0000000   1.0000000   1.0000000   1.0000000   1.0000000   1.0000000   1.0000000   1.0000000   1.0000000

  Atom        51          52
 IAtWgt=           1           1
 AtmWgt=   1.0078250   1.0078250
 NucSpn=           1           1
 AtZEff=  -0.0000000  -0.0000000
 NQMom=    0.0000000   0.0000000
 NMagM=    2.7928460   2.7928460
 AtZNuc=   1.0000000   1.0000000
 Leave Link  101 at Mon Feb 26 09:06:59 2024, MaxMem=  7516192768 cpu:               7.2 elap:               0.2
 (Enter /public/apps/g16-C01//g16/l103.exe)

 GradGradGradGradGradGradGradGradGradGradGradGradGradGradGradGradGradGrad
 Berny optimization.
 Initialization pass.
                           ----------------------------
                           !    Initial Parameters    !
                           ! (Angstroms and Degrees)  !
 --------------------------                            --------------------------
 ! Name  Definition              Value          Derivative Info.                !
 --------------------------------------------------------------------------------
 ! R1    R(1,2)                  1.53           estimate D2E/DX2                !
 ! R2    R(1,23)                 1.0876         estimate D2E/DX2                !
 ! R3    R(1,24)                 1.0876         estimate D2E/DX2                !
 ! R4    R(1,25)                 1.088          estimate D2E/DX2                !
 ! R5    R(2,3)                  1.5309         estimate D2E/DX2                !
 ! R6    R(2,4)                  1.53           estimate D2E/DX2                !
 ! R7    R(2,5)                  1.5465         estimate D2E/DX2                !
 ! R8    R(3,26)                 1.0876         estimate D2E/DX2                !
 ! R9    R(3,27)                 1.0859         estimate D2E/DX2                !
 ! R10   R(3,28)                 1.0875         estimate D2E/DX2                !
 ! R11   R(4,29)                 1.0879         estimate D2E/DX2                !
 ! R12   R(4,30)                 1.0878         estimate D2E/DX2                !
 ! R13   R(4,31)                 1.0877         estimate D2E/DX2                !
 ! R14   R(5,6)                  1.5541         estimate D2E/DX2                !
 ! R15   R(5,22)                 1.4475         estimate D2E/DX2                !
 ! R16   R(5,32)                 1.0962         estimate D2E/DX2                !
 ! R17   R(6,7)                  1.4227         estimate D2E/DX2                !
 ! R18   R(6,33)                 1.0913         estimate D2E/DX2                !
 ! R19   R(6,34)                 1.0938         estimate D2E/DX2                !
 ! R20   R(7,8)                  1.356          estimate D2E/DX2                !
 ! R21   R(8,9)                  1.4898         estimate D2E/DX2                !
 ! R22   R(8,22)                 1.2606         estimate D2E/DX2                !
 ! R23   R(9,10)                 1.4894         estimate D2E/DX2                !
 ! R24   R(9,19)                 1.5435         estimate D2E/DX2                !
 ! R25   R(9,21)                 1.5442         estimate D2E/DX2                !
 ! R26   R(10,11)                1.2607         estimate D2E/DX2                !
 ! R27   R(10,18)                1.3559         estimate D2E/DX2                !
 ! R28   R(11,12)                1.4476         estimate D2E/DX2                !
 ! R29   R(12,13)                1.5465         estimate D2E/DX2                !
 ! R30   R(12,17)                1.5541         estimate D2E/DX2                !
 ! R31   R(12,35)                1.0962         estimate D2E/DX2                !
 ! R32   R(13,14)                1.53           estimate D2E/DX2                !
 ! R33   R(13,15)                1.53           estimate D2E/DX2                !
 ! R34   R(13,16)                1.5309         estimate D2E/DX2                !
 ! R35   R(14,36)                1.0878         estimate D2E/DX2                !
 ! R36   R(14,37)                1.0879         estimate D2E/DX2                !
 ! R37   R(14,38)                1.0877         estimate D2E/DX2                !
 ! R38   R(15,39)                1.088          estimate D2E/DX2                !
 ! R39   R(15,40)                1.0876         estimate D2E/DX2                !
 ! R40   R(15,41)                1.0876         estimate D2E/DX2                !
 ! R41   R(16,42)                1.0875         estimate D2E/DX2                !
 ! R42   R(16,43)                1.0859         estimate D2E/DX2                !
 ! R43   R(16,44)                1.0876         estimate D2E/DX2                !
 ! R44   R(17,18)                1.4228         estimate D2E/DX2                !
 ! R45   R(17,45)                1.0914         estimate D2E/DX2                !
 ! R46   R(17,46)                1.0938         estimate D2E/DX2                !
 ! R47   R(19,20)                1.5354         estimate D2E/DX2                !
 ! R48   R(19,47)                1.0865         estimate D2E/DX2                !
 ! R49   R(19,48)                1.0874         estimate D2E/DX2                !
 ! R50   R(20,21)                1.5355         estimate D2E/DX2                !
 ! R51   R(20,49)                1.0874         estimate D2E/DX2                !
 ! R52   R(20,50)                1.0874         estimate D2E/DX2                !
 ! R53   R(21,51)                1.0862         estimate D2E/DX2                !
 ! R54   R(21,52)                1.0874         estimate D2E/DX2                !
 ! A1    A(2,1,23)             109.828          estimate D2E/DX2                !
 ! A2    A(2,1,24)             111.5184         estimate D2E/DX2                !
 ! A3    A(2,1,25)             110.5976         estimate D2E/DX2                !
 ! A4    A(23,1,24)            108.2044         estimate D2E/DX2                !
 ! A5    A(23,1,25)            108.3385         estimate D2E/DX2                !
 ! A6    A(24,1,25)            108.2609         estimate D2E/DX2                !
 ! A7    A(1,2,3)              109.3532         estimate D2E/DX2                !
 ! A8    A(1,2,4)              110.2764         estimate D2E/DX2                !
 ! A9    A(1,2,5)              109.6029         estimate D2E/DX2                !
 ! A10   A(3,2,4)              109.0758         estimate D2E/DX2                !
 ! A11   A(3,2,5)              107.5535         estimate D2E/DX2                !
 ! A12   A(4,2,5)              110.9227         estimate D2E/DX2                !
 ! A13   A(2,3,26)             110.5951         estimate D2E/DX2                !
 ! A14   A(2,3,27)             109.7385         estimate D2E/DX2                !
 ! A15   A(2,3,28)             110.3608         estimate D2E/DX2                !
 ! A16   A(26,3,27)            108.4336         estimate D2E/DX2                !
 ! A17   A(26,3,28)            108.5451         estimate D2E/DX2                !
 ! A18   A(27,3,28)            109.1228         estimate D2E/DX2                !
 ! A19   A(2,4,29)             111.5584         estimate D2E/DX2                !
 ! A20   A(2,4,30)             110.3219         estimate D2E/DX2                !
 ! A21   A(2,4,31)             109.8843         estimate D2E/DX2                !
 ! A22   A(29,4,30)            108.3994         estimate D2E/DX2                !
 ! A23   A(29,4,31)            107.9578         estimate D2E/DX2                !
 ! A24   A(30,4,31)            108.636          estimate D2E/DX2                !
 ! A25   A(2,5,6)              115.7925         estimate D2E/DX2                !
 ! A26   A(2,5,22)             110.595          estimate D2E/DX2                !
 ! A27   A(2,5,32)             107.8561         estimate D2E/DX2                !
 ! A28   A(6,5,22)             103.1904         estimate D2E/DX2                !
 ! A29   A(6,5,32)             110.9016         estimate D2E/DX2                !
 ! A30   A(22,5,32)            108.2665         estimate D2E/DX2                !
 ! A31   A(5,6,7)              104.3854         estimate D2E/DX2                !
 ! A32   A(5,6,33)             113.5606         estimate D2E/DX2                !
 ! A33   A(5,6,34)             112.4335         estimate D2E/DX2                !
 ! A34   A(7,6,33)             108.4721         estimate D2E/DX2                !
 ! A35   A(7,6,34)             108.6413         estimate D2E/DX2                !
 ! A36   A(33,6,34)            109.0913         estimate D2E/DX2                !
 ! A37   A(6,7,8)              106.2214         estimate D2E/DX2                !
 ! A38   A(7,8,9)              116.2693         estimate D2E/DX2                !
 ! A39   A(7,8,22)             117.7227         estimate D2E/DX2                !
 ! A40   A(9,8,22)             126.008          estimate D2E/DX2                !
 ! A41   A(8,9,10)             107.3187         estimate D2E/DX2                !
 ! A42   A(8,9,19)             114.6846         estimate D2E/DX2                !
 ! A43   A(8,9,21)             114.3485         estimate D2E/DX2                !
 ! A44   A(10,9,19)            115.0539         estimate D2E/DX2                !
 ! A45   A(10,9,21)            115.2938         estimate D2E/DX2                !
 ! A46   A(19,9,21)             89.6831         estimate D2E/DX2                !
 ! A47   A(9,10,11)            125.902          estimate D2E/DX2                !
 ! A48   A(9,10,18)            116.3825         estimate D2E/DX2                !
 ! A49   A(11,10,18)           117.7146         estimate D2E/DX2                !
 ! A50   A(10,11,12)           108.3202         estimate D2E/DX2                !
 ! A51   A(11,12,13)           110.6035         estimate D2E/DX2                !
 ! A52   A(11,12,17)           103.1976         estimate D2E/DX2                !
 ! A53   A(11,12,35)           108.2528         estimate D2E/DX2                !
 ! A54   A(13,12,17)           115.8126         estimate D2E/DX2                !
 ! A55   A(13,12,35)           107.8477         estimate D2E/DX2                !
 ! A56   A(17,12,35)           110.8865         estimate D2E/DX2                !
 ! A57   A(12,13,14)           110.9124         estimate D2E/DX2                !
 ! A58   A(12,13,15)           109.6129         estimate D2E/DX2                !
 ! A59   A(12,13,16)           107.5424         estimate D2E/DX2                !
 ! A60   A(14,13,15)           110.2828         estimate D2E/DX2                !
 ! A61   A(14,13,16)           109.0801         estimate D2E/DX2                !
 ! A62   A(15,13,16)           109.3535         estimate D2E/DX2                !
 ! A63   A(13,14,36)           110.2944         estimate D2E/DX2                !
 ! A64   A(13,14,37)           111.5749         estimate D2E/DX2                !
 ! A65   A(13,14,38)           109.8892         estimate D2E/DX2                !
 ! A66   A(36,14,37)           108.415          estimate D2E/DX2                !
 ! A67   A(36,14,38)           108.62           estimate D2E/DX2                !
 ! A68   A(37,14,38)           107.9643         estimate D2E/DX2                !
 ! A69   A(13,15,39)           110.5894         estimate D2E/DX2                !
 ! A70   A(13,15,40)           111.5221         estimate D2E/DX2                !
 ! A71   A(13,15,41)           109.8296         estimate D2E/DX2                !
 ! A72   A(39,15,40)           108.2603         estimate D2E/DX2                !
 ! A73   A(39,15,41)           108.3384         estimate D2E/DX2                !
 ! A74   A(40,15,41)           108.2081         estimate D2E/DX2                !
 ! A75   A(13,16,42)           110.3621         estimate D2E/DX2                !
 ! A76   A(13,16,43)           109.7369         estimate D2E/DX2                !
 ! A77   A(13,16,44)           110.5919         estimate D2E/DX2                !
 ! A78   A(42,16,43)           109.1244         estimate D2E/DX2                !
 ! A79   A(42,16,44)           108.545          estimate D2E/DX2                !
 ! A80   A(43,16,44)           108.4356         estimate D2E/DX2                !
 ! A81   A(12,17,18)           104.3823         estimate D2E/DX2                !
 ! A82   A(12,17,45)           113.5579         estimate D2E/DX2                !
 ! A83   A(12,17,46)           112.4509         estimate D2E/DX2                !
 ! A84   A(18,17,45)           108.4591         estimate D2E/DX2                !
 ! A85   A(18,17,46)           108.6356         estimate D2E/DX2                !
 ! A86   A(45,17,46)           109.0964         estimate D2E/DX2                !
 ! A87   A(10,18,17)           106.2372         estimate D2E/DX2                !
 ! A88   A(9,19,20)             89.9063         estimate D2E/DX2                !
 ! A89   A(9,19,47)            111.6208         estimate D2E/DX2                !
 ! A90   A(9,19,48)            114.274          estimate D2E/DX2                !
 ! A91   A(20,19,47)           114.7413         estimate D2E/DX2                !
 ! A92   A(20,19,48)           115.555          estimate D2E/DX2                !
 ! A93   A(47,19,48)           109.6147         estimate D2E/DX2                !
 ! A94   A(19,20,21)            90.3108         estimate D2E/DX2                !
 ! A95   A(19,20,49)           113.8128         estimate D2E/DX2                !
 ! A96   A(19,20,50)           114.5498         estimate D2E/DX2                !
 ! A97   A(21,20,49)           113.5035         estimate D2E/DX2                !
 ! A98   A(21,20,50)           114.7788         estimate D2E/DX2                !
 ! A99   A(49,20,50)           109.0349         estimate D2E/DX2                !
 ! A100  A(9,21,20)             89.8749         estimate D2E/DX2                !
 ! A101  A(9,21,51)            112.617          estimate D2E/DX2                !
 ! A102  A(9,21,52)            113.2998         estimate D2E/DX2                !
 ! A103  A(20,21,51)           115.614          estimate D2E/DX2                !
 ! A104  A(20,21,52)           114.4997         estimate D2E/DX2                !
 ! A105  A(51,21,52)           109.7822         estimate D2E/DX2                !
 ! A106  A(5,22,8)             108.3197         estimate D2E/DX2                !
 ! D1    D(23,1,2,3)            60.0362         estimate D2E/DX2                !
 ! D2    D(23,1,2,4)           -59.9002         estimate D2E/DX2                !
 ! D3    D(23,1,2,5)           177.7087         estimate D2E/DX2                !
 ! D4    D(24,1,2,3)           179.9797         estimate D2E/DX2                !
 ! D5    D(24,1,2,4)            60.0433         estimate D2E/DX2                !
 ! D6    D(24,1,2,5)           -62.3478         estimate D2E/DX2                !
 ! D7    D(25,1,2,3)           -59.4894         estimate D2E/DX2                !
 ! D8    D(25,1,2,4)          -179.4257         estimate D2E/DX2                !
 ! D9    D(25,1,2,5)            58.1831         estimate D2E/DX2                !
 ! D10   D(1,2,3,26)            58.0693         estimate D2E/DX2                !
 ! D11   D(1,2,3,27)           177.6543         estimate D2E/DX2                !
 ! D12   D(1,2,3,28)           -62.0543         estimate D2E/DX2                !
 ! D13   D(4,2,3,26)           178.7403         estimate D2E/DX2                !
 ! D14   D(4,2,3,27)           -61.6747         estimate D2E/DX2                !
 ! D15   D(4,2,3,28)            58.6167         estimate D2E/DX2                !
 ! D16   D(5,2,3,26)           -60.8819         estimate D2E/DX2                !
 ! D17   D(5,2,3,27)            58.703          estimate D2E/DX2                !
 ! D18   D(5,2,3,28)           178.9945         estimate D2E/DX2                !
 ! D19   D(1,2,4,29)           -54.6799         estimate D2E/DX2                !
 ! D20   D(1,2,4,30)          -175.2257         estimate D2E/DX2                !
 ! D21   D(1,2,4,31)            65.0176         estimate D2E/DX2                !
 ! D22   D(3,2,4,29)          -174.7836         estimate D2E/DX2                !
 ! D23   D(3,2,4,30)            64.6706         estimate D2E/DX2                !
 ! D24   D(3,2,4,31)           -55.0861         estimate D2E/DX2                !
 ! D25   D(5,2,4,29)            66.9315         estimate D2E/DX2                !
 ! D26   D(5,2,4,30)           -53.6142         estimate D2E/DX2                !
 ! D27   D(5,2,4,31)          -173.3709         estimate D2E/DX2                !
 ! D28   D(1,2,5,6)             65.0199         estimate D2E/DX2                !
 ! D29   D(1,2,5,22)          -178.0865         estimate D2E/DX2                !
 ! D30   D(1,2,5,32)           -59.8679         estimate D2E/DX2                !
 ! D31   D(3,2,5,6)           -176.189          estimate D2E/DX2                !
 ! D32   D(3,2,5,22)           -59.2954         estimate D2E/DX2                !
 ! D33   D(3,2,5,32)            58.9232         estimate D2E/DX2                !
 ! D34   D(4,2,5,6)            -56.9855         estimate D2E/DX2                !
 ! D35   D(4,2,5,22)            59.9082         estimate D2E/DX2                !
 ! D36   D(4,2,5,32)           178.1267         estimate D2E/DX2                !
 ! D37   D(2,5,6,7)            117.131          estimate D2E/DX2                !
 ! D38   D(2,5,6,33)            -0.8183         estimate D2E/DX2                !
 ! D39   D(2,5,6,34)          -125.2947         estimate D2E/DX2                !
 ! D40   D(22,5,6,7)            -3.8349         estimate D2E/DX2                !
 ! D41   D(22,5,6,33)         -121.7843         estimate D2E/DX2                !
 ! D42   D(22,5,6,34)          113.7393         estimate D2E/DX2                !
 ! D43   D(32,5,6,7)          -119.5639         estimate D2E/DX2                !
 ! D44   D(32,5,6,33)          122.4868         estimate D2E/DX2                !
 ! D45   D(32,5,6,34)           -1.9896         estimate D2E/DX2                !
 ! D46   D(2,5,22,8)          -120.7295         estimate D2E/DX2                !
 ! D47   D(6,5,22,8)             3.7066         estimate D2E/DX2                !
 ! D48   D(32,5,22,8)          121.3027         estimate D2E/DX2                !
 ! D49   D(5,6,7,8)              2.6897         estimate D2E/DX2                !
 ! D50   D(33,6,7,8)           124.0725         estimate D2E/DX2                !
 ! D51   D(34,6,7,8)          -117.4624         estimate D2E/DX2                !
 ! D52   D(6,7,8,9)            179.6566         estimate D2E/DX2                !
 ! D53   D(6,7,8,22)            -0.4055         estimate D2E/DX2                !
 ! D54   D(7,8,9,10)            57.0644         estimate D2E/DX2                !
 ! D55   D(7,8,9,19)           -72.0976         estimate D2E/DX2                !
 ! D56   D(7,8,9,21)          -173.7115         estimate D2E/DX2                !
 ! D57   D(22,8,9,10)         -122.8677         estimate D2E/DX2                !
 ! D58   D(22,8,9,19)          107.9704         estimate D2E/DX2                !
 ! D59   D(22,8,9,21)            6.3565         estimate D2E/DX2                !
 ! D60   D(7,8,22,5)            -2.3096         estimate D2E/DX2                !
 ! D61   D(9,8,22,5)           177.6216         estimate D2E/DX2                !
 ! D62   D(8,9,10,11)         -127.326          estimate D2E/DX2                !
 ! D63   D(8,9,10,18)           53.009          estimate D2E/DX2                !
 ! D64   D(19,9,10,11)           1.6249         estimate D2E/DX2                !
 ! D65   D(19,9,10,18)        -178.0401         estimate D2E/DX2                !
 ! D66   D(21,9,10,11)         103.9906         estimate D2E/DX2                !
 ! D67   D(21,9,10,18)         -75.6744         estimate D2E/DX2                !
 ! D68   D(8,9,19,20)         -113.2432         estimate D2E/DX2                !
 ! D69   D(8,9,19,47)          130.042          estimate D2E/DX2                !
 ! D70   D(8,9,19,48)            4.9521         estimate D2E/DX2                !
 ! D71   D(10,9,19,20)         121.5516         estimate D2E/DX2                !
 ! D72   D(10,9,19,47)           4.8368         estimate D2E/DX2                !
 ! D73   D(10,9,19,48)        -120.2531         estimate D2E/DX2                !
 ! D74   D(21,9,19,20)           3.5784         estimate D2E/DX2                !
 ! D75   D(21,9,19,47)        -113.1364         estimate D2E/DX2                !
 ! D76   D(21,9,19,48)         121.7737         estimate D2E/DX2                !
 ! D77   D(8,9,21,20)          113.5447         estimate D2E/DX2                !
 ! D78   D(8,9,21,51)           -4.3218         estimate D2E/DX2                !
 ! D79   D(8,9,21,52)         -129.675          estimate D2E/DX2                !
 ! D80   D(10,9,21,20)        -121.3381         estimate D2E/DX2                !
 ! D81   D(10,9,21,51)         120.7954         estimate D2E/DX2                !
 ! D82   D(10,9,21,52)          -4.5578         estimate D2E/DX2                !
 ! D83   D(19,9,21,20)          -3.5781         estimate D2E/DX2                !
 ! D84   D(19,9,21,51)        -121.4446         estimate D2E/DX2                !
 ! D85   D(19,9,21,52)         113.2022         estimate D2E/DX2                !
 ! D86   D(9,10,11,12)         178.077          estimate D2E/DX2                !
 ! D87   D(18,10,11,12)         -2.262          estimate D2E/DX2                !
 ! D88   D(9,10,18,17)         179.3543         estimate D2E/DX2                !
 ! D89   D(11,10,18,17)         -0.3391         estimate D2E/DX2                !
 ! D90   D(10,11,12,13)       -120.8911         estimate D2E/DX2                !
 ! D91   D(10,11,12,17)          3.5781         estimate D2E/DX2                !
 ! D92   D(10,11,12,35)        121.1546         estimate D2E/DX2                !
 ! D93   D(11,12,13,14)         59.7749         estimate D2E/DX2                !
 ! D94   D(11,12,13,15)       -178.2117         estimate D2E/DX2                !
 ! D95   D(11,12,13,16)        -59.4212         estimate D2E/DX2                !
 ! D96   D(17,12,13,14)        -57.1478         estimate D2E/DX2                !
 ! D97   D(17,12,13,15)         64.8656         estimate D2E/DX2                !
 ! D98   D(17,12,13,16)       -176.3438         estimate D2E/DX2                !
 ! D99   D(35,12,13,14)        177.9767         estimate D2E/DX2                !
 ! D100  D(35,12,13,15)        -60.0099         estimate D2E/DX2                !
 ! D101  D(35,12,13,16)         58.7806         estimate D2E/DX2                !
 ! D102  D(11,12,17,18)         -3.6733         estimate D2E/DX2                !
 ! D103  D(11,12,17,45)       -121.6036         estimate D2E/DX2                !
 ! D104  D(11,12,17,46)        113.9011         estimate D2E/DX2                !
 ! D105  D(13,12,17,18)        117.3197         estimate D2E/DX2                !
 ! D106  D(13,12,17,45)         -0.6105         estimate D2E/DX2                !
 ! D107  D(13,12,17,46)       -125.1059         estimate D2E/DX2                !
 ! D108  D(35,12,17,18)       -119.3835         estimate D2E/DX2                !
 ! D109  D(35,12,17,45)        122.6862         estimate D2E/DX2                !
 ! D110  D(35,12,17,46)         -1.8091         estimate D2E/DX2                !
 ! D111  D(12,13,14,36)        -53.8014         estimate D2E/DX2                !
 ! D112  D(12,13,14,37)         66.7564         estimate D2E/DX2                !
 ! D113  D(12,13,14,38)       -173.5241         estimate D2E/DX2                !
 ! D114  D(15,13,14,36)       -175.4229         estimate D2E/DX2                !
 ! D115  D(15,13,14,37)        -54.8652         estimate D2E/DX2                !
 ! D116  D(15,13,14,38)         64.8543         estimate D2E/DX2                !
 ! D117  D(16,13,14,36)         64.4663         estimate D2E/DX2                !
 ! D118  D(16,13,14,37)       -174.9759         estimate D2E/DX2                !
 ! D119  D(16,13,14,38)        -55.2564         estimate D2E/DX2                !
 ! D120  D(12,13,15,39)         58.2269         estimate D2E/DX2                !
 ! D121  D(12,13,15,40)        -62.3002         estimate D2E/DX2                !
 ! D122  D(12,13,15,41)        177.7482         estimate D2E/DX2                !
 ! D123  D(14,13,15,39)       -179.384          estimate D2E/DX2                !
 ! D124  D(14,13,15,40)         60.0889         estimate D2E/DX2                !
 ! D125  D(14,13,15,41)        -59.8626         estimate D2E/DX2                !
 ! D126  D(16,13,15,39)        -59.4381         estimate D2E/DX2                !
 ! D127  D(16,13,15,40)       -179.9653         estimate D2E/DX2                !
 ! D128  D(16,13,15,41)         60.0832         estimate D2E/DX2                !
 ! D129  D(12,13,16,42)        178.7311         estimate D2E/DX2                !
 ! D130  D(12,13,16,43)         58.4378         estimate D2E/DX2                !
 ! D131  D(12,13,16,44)        -61.1467         estimate D2E/DX2                !
 ! D132  D(14,13,16,42)         58.3697         estimate D2E/DX2                !
 ! D133  D(14,13,16,43)        -61.9236         estimate D2E/DX2                !
 ! D134  D(14,13,16,44)        178.492          estimate D2E/DX2                !
 ! D135  D(15,13,16,42)        -62.3119         estimate D2E/DX2                !
 ! D136  D(15,13,16,43)        177.3948         estimate D2E/DX2                !
 ! D137  D(15,13,16,44)         57.8103         estimate D2E/DX2                !
 ! D138  D(12,17,18,10)          2.5512         estimate D2E/DX2                !
 ! D139  D(45,17,18,10)        123.9226         estimate D2E/DX2                !
 ! D140  D(46,17,18,10)       -117.6167         estimate D2E/DX2                !
 ! D141  D(9,19,20,21)          -3.5988         estimate D2E/DX2                !
 ! D142  D(9,19,20,49)         112.3976         estimate D2E/DX2                !
 ! D143  D(9,19,20,50)        -121.1961         estimate D2E/DX2                !
 ! D144  D(47,19,20,21)        110.2892         estimate D2E/DX2                !
 ! D145  D(47,19,20,49)       -133.7143         estimate D2E/DX2                !
 ! D146  D(47,19,20,50)         -7.3081         estimate D2E/DX2                !
 ! D147  D(48,19,20,21)       -120.6571         estimate D2E/DX2                !
 ! D148  D(48,19,20,49)         -4.6607         estimate D2E/DX2                !
 ! D149  D(48,19,20,50)        121.7456         estimate D2E/DX2                !
 ! D150  D(19,20,21,9)           3.5971         estimate D2E/DX2                !
 ! D151  D(19,20,21,51)        118.7753         estimate D2E/DX2                !
 ! D152  D(19,20,21,52)       -112.1045         estimate D2E/DX2                !
 ! D153  D(49,20,21,9)        -112.6756         estimate D2E/DX2                !
 ! D154  D(49,20,21,51)          2.5026         estimate D2E/DX2                !
 ! D155  D(49,20,21,52)        131.6228         estimate D2E/DX2                !
 ! D156  D(50,20,21,9)         120.9923         estimate D2E/DX2                !
 ! D157  D(50,20,21,51)       -123.8295         estimate D2E/DX2                !
 ! D158  D(50,20,21,52)          5.2907         estimate D2E/DX2                !
 --------------------------------------------------------------------------------
 Trust Radius=3.00D-01 FncErr=1.00D-07 GrdErr=1.00D-06 EigMax=2.50D+02 EigMin=1.00D-04
 Number of steps in this run=    312 maximum allowed number of steps=    312.
 GradGradGradGradGradGradGradGradGradGradGradGradGradGradGradGradGradGrad

 Leave Link  103 at Mon Feb 26 09:06:59 2024, MaxMem=  7516192768 cpu:               0.6 elap:               0.0
 (Enter /public/apps/g16-C01//g16/l202.exe)
 Symmetry turned off by external request.
 Stoichiometry    C18H30N2O2
 Framework group  C1[X(C18H30N2O2)]
 Deg. of freedom   150
 Full point group                 C1      NOp   1
                          Input orientation:                          
 ---------------------------------------------------------------------
 Center     Atomic      Atomic             Coordinates (Angstroms)
 Number     Number       Type             X           Y           Z
 ---------------------------------------------------------------------
      1          6           0       -4.479982   -2.154134    0.583182
      2          6           0       -3.650770   -1.132144   -0.197063
      3          6           0       -4.564877   -0.359981   -1.151940
      4          6           0       -2.563623   -1.839851   -1.008397
      5          6           0       -3.030559   -0.109796    0.783731
      6          6           0       -1.990659   -0.680825    1.787661
      7          8           0       -0.778363   -0.012546    1.459225
      8          6           0       -1.083539    0.859847    0.467037
      9          6           0        0.039421    1.693163   -0.046773
     10          6           0        1.104657    0.762631   -0.513380
     11          7           0        2.316569    0.793138   -0.167310
     12          6           0        3.001553   -0.307598   -0.811375
     13          6           0        3.636160   -1.244968    0.242345
     14          6           0        2.568257   -1.821694    1.173989
     15          6           0        4.390698   -2.373883   -0.462617
     16          6           0        4.622299   -0.412673    1.066069
     17          6           0        1.896558   -0.940630   -1.702220
     18          8           0        0.724440   -0.195090   -1.394652
     19          6           0        0.514998    2.799801    0.918405
     20          6           0        0.004073    3.868157   -0.058796
     21          6           0       -0.384118    2.774656   -1.064424
     22          7           0       -2.277187    0.894568    0.063308
     23          1           0       -4.950825   -2.850924   -0.106494
     24          1           0       -3.863199   -2.724363    1.274020
     25          1           0       -5.261355   -1.657130    1.154321
     26          1           0       -5.361558    0.135614   -0.601873
     27          1           0       -3.990116    0.395576   -1.679138
     28          1           0       -5.013289   -1.036140   -1.876063
     29          1           0       -1.944653   -2.475316   -0.378585
     30          1           0       -1.921286   -1.110206   -1.496588
     31          1           0       -3.020184   -2.466474   -1.771208
     32          1           0       -3.851013    0.389464    1.312144
     33          1           0       -1.831329   -1.755674    1.686530
     34          1           0       -2.245001   -0.453063    2.826857
     35          1           0        3.810783    0.103923   -1.425755
     36          1           0        1.978452   -1.020345    1.613619
     37          1           0        1.895480   -2.492816    0.644350
     38          1           0        3.041311   -2.384618    1.975438
     39          1           0        5.158863   -1.969462   -1.118431
     40          1           0        3.721567   -2.988680   -1.060173
     41          1           0        4.871701   -3.012707    0.274530
     42          1           0        5.080652   -1.024893    1.839182
     43          1           0        4.100988    0.417941    1.532463
     44          1           0        5.408741   -0.011925    0.430586
     45          1           0        1.705789   -1.991858   -1.479552
     46          1           0        2.108620   -0.833771   -2.769905
     47          1           0        1.593479    2.781151    1.048573
     48          1           0        0.029571    2.783396    1.891261
     49          1           0       -0.845379    4.434847    0.315065
     50          1           0        0.765525    4.560568   -0.409771
     51          1           0       -1.439498    2.721184   -1.315898
     52          1           0        0.211808    2.766343   -1.973944
 ---------------------------------------------------------------------
 Rotational constants (GHZ):           0.4357519           0.1914019           0.1594615
 Leave Link  202 at Mon Feb 26 09:06:59 2024, MaxMem=  7516192768 cpu:               0.4 elap:               0.0
 (Enter /public/apps/g16-C01//g16/l301.exe)
 Standard basis: def2SVPP (5D, 7F)
 Ernie: Thresh=  0.10000D-02 Tol=  0.10000D-05 Strict=F.
   368 basis functions,   670 primitive gaussians,   390 cartesian basis functions
    84 alpha electrons       84 beta electrons
       nuclear repulsion energy      2029.3168081542 Hartrees.
 IExCor=  402 DFT=T Ex+Corr=B3LYP ExCW=0 ScaHFX=  0.200000
 ScaDFX=  0.800000  0.720000  1.000000  0.810000 ScalE2=  1.000000  1.000000
 IRadAn=      5 IRanWt=     -1 IRanGd=            0 ICorTp=0 IEmpDi=141
 NAtoms=   52 NActive=   52 NUniq=   52 SFac= 1.00D+00 NAtFMM=   60 NAOKFM=F Big=F
 Integral buffers will be    131072 words long.
 Raffenetti 2 integral format.
 Two-electron integral symmetry is turned off.
 R6Disp:  Grimme-D3(BJ) Dispersion energy=       -0.1052004346 Hartrees.
 Nuclear repulsion after empirical dispersion term =     2029.2116077195 Hartrees.
 Leave Link  301 at Mon Feb 26 09:06:59 2024, MaxMem=  7516192768 cpu:               1.1 elap:               0.0
 (Enter /public/apps/g16-C01//g16/l302.exe)
 NPDir=0 NMtPBC=     1 NCelOv=     1 NCel=       1 NClECP=     1 NCelD=      1
         NCelK=      1 NCelE2=     1 NClLst=     1 CellRange=     0.0.
 One-electron integrals computed using PRISM.
   1 Symmetry operations used in ECPInt.
 ECPInt:  NShTT=   18528 NPrTT=   74296 LenC2=   17358 LenP2D=   47183.
 LDataN:  DoStor=T MaxTD1= 4 Len=   56
 NBasis=   368 RedAO= T EigKep=  4.29D-04  NBF=   368
 NBsUse=   368 1.00D-06 EigRej= -1.00D+00 NBFU=   368
 Precomputing XC quadrature grid using
 IXCGrd= 4 IRadAn=           5 IRanWt=          -1 IRanGd=           0 AccXCQ= 0.00D+00.
 Generated NRdTot=       0 NPtTot=           0 NUsed=           0 NTot=          32
 NSgBfM=   387   387   387   387   387 MxSgAt=    52 MxSgA2=    52.
 Leave Link  302 at Mon Feb 26 09:06:59 2024, MaxMem=  7516192768 cpu:              14.6 elap:               0.4
 (Enter /public/apps/g16-C01//g16/l303.exe)
 DipDrv:  MaxL=1.
 Leave Link  303 at Mon Feb 26 09:07:00 2024, MaxMem=  7516192768 cpu:               1.5 elap:               0.1
 (Enter /public/apps/g16-C01//g16/l401.exe)
 ExpMin= 1.22D-01 ExpMax= 2.27D+03 ExpMxC= 3.41D+02 IAcc=3 IRadAn=         5 AccDes= 0.00D+00
 Harris functional with IExCor=  402 and IRadAn=       5 diagonalized for initial guess.
 HarFok:  IExCor=  402 AccDes= 0.00D+00 IRadAn=         5 IDoV= 1 UseB2=F ITyADJ=14
 ICtDFT=  3500011 ScaDFX=  1.000000  1.000000  1.000000  1.000000
 FoFCou: FMM=F IPFlag=           0 FMFlag=      100000 FMFlg1=           0
         NFxFlg=           0 DoJE=T BraDBF=F KetDBF=T FulRan=T
         wScrn=  0.000000 ICntrl=       500 IOpCl=  0 I1Cent=   200000004 NGrid=           0
         NMat0=    1 NMatS0=      1 NMatT0=    0 NMatD0=    1 NMtDS0=    0 NMtDT0=    0
 Symmetry not used in FoFCou.
 Harris En= -963.239424106045    
 JPrj=0 DoOrth=F DoCkMO=F.
 Leave Link  401 at Mon Feb 26 09:07:00 2024, MaxMem=  7516192768 cpu:              32.7 elap:               0.8
 (Enter /public/apps/g16-C01//g16/l502.exe)
 Two-electron integral symmetry not used.
 Closed shell SCF:
 Using DIIS extrapolation, IDIIS=  1040.
 NGot=  7516192768 LenX=  7515868044 LenY=  7515715503
 Requested convergence on RMS density matrix=1.00D-08 within 128 cycles.
 Requested convergence on MAX density matrix=1.00D-06.
 Requested convergence on             energy=1.00D-06.
 No special actions if energy rises.
 Fock matrices will be formed incrementally for  20 cycles.
 Integral accuracy reduced to 1.0D-05 until final iterations.

 Cycle   1  Pass 0  IDiag  1:
 FoFJK:  IHMeth= 1 ICntrl=       0 DoSepK=F KAlg= 0 I1Cent=           0 FoldK=F
 IRaf= 880000000 NMat=       1 IRICut=       1 DoRegI=T DoRafI=F ISym2E= 0 IDoP0=0 IntGTp=1.
 FoFCou: FMM=F IPFlag=           0 FMFlag=      100000 FMFlg1=           0
         NFxFlg=           0 DoJE=F BraDBF=F KetDBF=F FulRan=T
         wScrn=  0.000000 ICntrl=         0 IOpCl=  0 I1Cent=           0 NGrid=           0
         NMat0=    1 NMatS0=      1 NMatT0=    0 NMatD0=    1 NMtDS0=    0 NMtDT0=    0
 Symmetry not used in FoFCou.
 E= -962.605269222942    
 DIIS: error= 4.27D-02 at cycle   1 NSaved=   1.
 NSaved= 1 IEnMin= 1 EnMin= -962.605269222942     IErMin= 1 ErrMin= 4.27D-02
 ErrMax= 4.27D-02  0.00D+00 EMaxC= 1.00D-01 BMatC= 5.83D-01 BMatP= 5.83D-01
 IDIUse=3 WtCom= 5.73D-01 WtEn= 4.27D-01
 Coeff-Com:  0.100D+01
 Coeff-En:   0.100D+01
 Coeff:      0.100D+01
 Gap=     0.228 Goal=   None    Shift=    0.000
 GapD=    0.228 DampG=1.000 DampE=0.500 DampFc=0.5000 IDamp=-1.
 Damping current iteration by 5.00D-01
 RMSDP=5.95D-03 MaxDP=2.99D-01              OVMax= 2.16D-01

 Cycle   2  Pass 0  IDiag  1:
 RMSU=  2.93D-03    CP:  9.75D-01
 E= -962.847852115657     Delta-E=       -0.242582892716 Rises=F Damp=T
 DIIS: error= 6.90D-03 at cycle   2 NSaved=   2.
 NSaved= 2 IEnMin= 2 EnMin= -962.847852115657     IErMin= 2 ErrMin= 6.90D-03
 ErrMax= 6.90D-03  0.00D+00 EMaxC= 1.00D-01 BMatC= 4.56D-02 BMatP= 5.83D-01
 IDIUse=3 WtCom= 9.31D-01 WtEn= 6.90D-02
 Coeff-Com:  0.132D+00 0.868D+00
 Coeff-En:   0.217D+00 0.783D+00
 Coeff:      0.138D+00 0.862D+00
 Gap=     0.298 Goal=   None    Shift=    0.000
 RMSDP=2.07D-03 MaxDP=1.48D-01 DE=-2.43D-01 OVMax= 2.08D-01

 Cycle   3  Pass 0  IDiag  1:
 RMSU=  1.95D-03    CP:  9.57D-01  7.98D-01
 E= -963.180568069727     Delta-E=       -0.332715954069 Rises=F Damp=F
 DIIS: error= 9.46D-03 at cycle   3 NSaved=   3.
 NSaved= 3 IEnMin= 3 EnMin= -963.180568069727     IErMin= 2 ErrMin= 6.90D-03
 ErrMax= 9.46D-03  0.00D+00 EMaxC= 1.00D-01 BMatC= 5.54D-02 BMatP= 4.56D-02
 IDIUse=3 WtCom= 9.32D-02 WtEn= 9.07D-01
 Coeff-Com:  0.395D-01 0.524D+00 0.436D+00
 Coeff-En:   0.000D+00 0.000D+00 0.100D+01
 Coeff:      0.368D-02 0.489D-01 0.947D+00
 Gap=     0.248 Goal=   None    Shift=    0.000
 RMSDP=2.28D-03 MaxDP=1.69D-01 DE=-3.33D-01 OVMax= 2.12D-01

 Cycle   4  Pass 0  IDiag  1:
 RMSU=  1.62D-03    CP:  9.65D-01  1.08D+00  2.92D-01
 E= -963.008401863340     Delta-E=        0.172166206386 Rises=F Damp=F
 DIIS: error= 2.32D-02 at cycle   4 NSaved=   4.
 NSaved= 4 IEnMin= 3 EnMin= -963.180568069727     IErMin= 2 ErrMin= 6.90D-03
 ErrMax= 2.32D-02  0.00D+00 EMaxC= 1.00D-01 BMatC= 2.51D-01 BMatP= 4.56D-02
 IDIUse=2 WtCom= 0.00D+00 WtEn= 1.00D+00
 Coeff-En:   0.000D+00 0.000D+00 0.759D+00 0.241D+00
 Coeff:      0.000D+00 0.000D+00 0.759D+00 0.241D+00
 Gap=     0.262 Goal=   None    Shift=    0.000
 RMSDP=1.19D-03 MaxDP=9.59D-02 DE= 1.72D-01 OVMax= 1.10D-01

 Cycle   5  Pass 0  IDiag  1:
 RMSU=  2.00D-04    CP:  9.62D-01  9.08D-01  6.15D-01  4.73D-01
 E= -963.217215315899     Delta-E=       -0.208813452558 Rises=F Damp=F
 DIIS: error= 5.38D-03 at cycle   5 NSaved=   5.
 NSaved= 5 IEnMin= 5 EnMin= -963.217215315899     IErMin= 5 ErrMin= 5.38D-03
 ErrMax= 5.38D-03  0.00D+00 EMaxC= 1.00D-01 BMatC= 1.52D-02 BMatP= 4.56D-02
 IDIUse=3 WtCom= 9.46D-01 WtEn= 5.38D-02
 Coeff-Com:  0.873D-03 0.115D-01 0.297D+00-0.462D-01 0.737D+00
 Coeff-En:   0.000D+00 0.000D+00 0.266D+00 0.000D+00 0.734D+00
 Coeff:      0.826D-03 0.109D-01 0.295D+00-0.437D-01 0.737D+00
 Gap=     0.258 Goal=   None    Shift=    0.000
 RMSDP=3.97D-04 MaxDP=2.77D-02 DE=-2.09D-01 OVMax= 3.59D-02

 Cycle   6  Pass 0  IDiag  1:
 RMSU=  5.63D-05    CP:  9.61D-01  8.63D-01  7.35D-01  2.98D-01  8.12D-01
 E= -963.230808771995     Delta-E=       -0.013593456096 Rises=F Damp=F
 DIIS: error= 3.96D-04 at cycle   6 NSaved=   6.
 NSaved= 6 IEnMin= 6 EnMin= -963.230808771995     IErMin= 6 ErrMin= 3.96D-04
 ErrMax= 3.96D-04  0.00D+00 EMaxC= 1.00D-01 BMatC= 5.91D-05 BMatP= 1.52D-02
 IDIUse=3 WtCom= 9.96D-01 WtEn= 3.96D-03
 Coeff-Com: -0.141D-02 0.956D-03 0.998D-01-0.457D-01 0.382D+00 0.564D+00
 Coeff-En:   0.000D+00 0.000D+00 0.000D+00 0.000D+00 0.000D+00 0.100D+01
 Coeff:     -0.140D-02 0.953D-03 0.994D-01-0.455D-01 0.381D+00 0.566D+00
 Gap=     0.258 Goal=   None    Shift=    0.000
 RMSDP=2.45D-05 MaxDP=1.63D-03 DE=-1.36D-02 OVMax= 1.03D-03

 Cycle   7  Pass 0  IDiag  1:
 RMSU=  1.09D-05    CP:  9.61D-01  8.66D-01  7.34D-01  3.02D-01  8.46D-01
                    CP:  6.91D-01
 E= -963.230864976229     Delta-E=       -0.000056204234 Rises=F Damp=F
 DIIS: error= 4.59D-05 at cycle   7 NSaved=   7.
 NSaved= 7 IEnMin= 7 EnMin= -963.230864976229     IErMin= 7 ErrMin= 4.59D-05
 ErrMax= 4.59D-05  0.00D+00 EMaxC= 1.00D-01 BMatC= 8.06D-07 BMatP= 5.91D-05
 IDIUse=1 WtCom= 1.00D+00 WtEn= 0.00D+00
 Coeff-Com: -0.419D-03 0.210D-03 0.250D-01-0.144D-01 0.105D+00 0.175D+00
 Coeff-Com:  0.710D+00
 Coeff:     -0.419D-03 0.210D-03 0.250D-01-0.144D-01 0.105D+00 0.175D+00
 Coeff:      0.710D+00
 Gap=     0.258 Goal=   None    Shift=    0.000
 RMSDP=4.62D-06 MaxDP=1.08D-04 DE=-5.62D-05 OVMax= 2.29D-04

 Initial convergence to 1.0D-05 achieved.  Increase integral accuracy.
 Cycle   8  Pass 1  IDiag  1:
 E= -963.230814082899     Delta-E=        0.000050893330 Rises=F Damp=F
 DIIS: error= 1.36D-04 at cycle   1 NSaved=   1.
 NSaved= 1 IEnMin= 1 EnMin= -963.230814082899     IErMin= 1 ErrMin= 1.36D-04
 ErrMax= 1.36D-04  0.00D+00 EMaxC= 1.00D-01 BMatC= 2.73D-06 BMatP= 2.73D-06
 IDIUse=3 WtCom= 9.99D-01 WtEn= 1.36D-03
 Coeff-Com:  0.100D+01
 Coeff-En:   0.100D+01
 Coeff:      0.100D+01
 Gap=     0.258 Goal=   None    Shift=    0.000
 RMSDP=4.62D-06 MaxDP=1.08D-04 DE= 5.09D-05 OVMax= 3.51D-04

 Cycle   9  Pass 1  IDiag  1:
 RMSU=  7.30D-05    CP:  1.00D+00
 E= -963.230816794445     Delta-E=       -0.000002711545 Rises=F Damp=F
 DIIS: error= 2.86D-05 at cycle   2 NSaved=   2.
 NSaved= 2 IEnMin= 2 EnMin= -963.230816794445     IErMin= 2 ErrMin= 2.86D-05
 ErrMax= 2.86D-05  0.00D+00 EMaxC= 1.00D-01 BMatC= 5.72D-07 BMatP= 2.73D-06
 IDIUse=1 WtCom= 1.00D+00 WtEn= 0.00D+00
 Coeff-Com:  0.223D+00 0.777D+00
 Coeff:      0.223D+00 0.777D+00
 Gap=     0.258 Goal=   None    Shift=    0.000
 RMSDP=5.36D-06 MaxDP=3.53D-04 DE=-2.71D-06 OVMax= 3.82D-04

 Cycle  10  Pass 1  IDiag  1:
 RMSU=  5.29D-06    CP:  1.00D+00  1.01D+00
 E= -963.230816543151     Delta-E=        0.000000251293 Rises=F Damp=F
 DIIS: error= 4.42D-05 at cycle   3 NSaved=   3.
 NSaved= 3 IEnMin= 2 EnMin= -963.230816794445     IErMin= 2 ErrMin= 2.86D-05
 ErrMax= 4.42D-05  0.00D+00 EMaxC= 1.00D-01 BMatC= 8.75D-07 BMatP= 5.72D-07
 IDIUse=1 WtCom= 1.00D+00 WtEn= 0.00D+00
 Coeff-Com:  0.304D-02 0.553D+00 0.444D+00
 Coeff:      0.304D-02 0.553D+00 0.444D+00
 Gap=     0.258 Goal=   None    Shift=    0.000
 RMSDP=3.13D-06 MaxDP=1.75D-04 DE= 2.51D-07 OVMax= 2.80D-04

 Cycle  11  Pass 1  IDiag  1:
 RMSU=  9.78D-07    CP:  1.00D+00  1.02D+00  4.45D-01
 E= -963.230817254150     Delta-E=       -0.000000710999 Rises=F Damp=F
 DIIS: error= 8.71D-06 at cycle   4 NSaved=   4.
 NSaved= 4 IEnMin= 4 EnMin= -963.230817254150     IErMin= 4 ErrMin= 8.71D-06
 ErrMax= 8.71D-06  0.00D+00 EMaxC= 1.00D-01 BMatC= 3.43D-08 BMatP= 5.72D-07
 IDIUse=1 WtCom= 1.00D+00 WtEn= 0.00D+00
 Coeff-Com: -0.465D-02 0.341D+00 0.293D+00 0.371D+00
 Coeff:     -0.465D-02 0.341D+00 0.293D+00 0.371D+00
 Gap=     0.258 Goal=   None    Shift=    0.000
 RMSDP=5.80D-07 MaxDP=2.32D-05 DE=-7.11D-07 OVMax= 4.68D-05

 Cycle  12  Pass 1  IDiag  1:
 RMSU=  1.73D-07    CP:  1.00D+00  1.02D+00  4.68D-01  4.49D-01
 E= -963.230817284056     Delta-E=       -0.000000029905 Rises=F Damp=F
 DIIS: error= 1.05D-06 at cycle   5 NSaved=   5.
 NSaved= 5 IEnMin= 5 EnMin= -963.230817284056     IErMin= 5 ErrMin= 1.05D-06
 ErrMax= 1.05D-06  0.00D+00 EMaxC= 1.00D-01 BMatC= 2.30D-10 BMatP= 3.43D-08
 IDIUse=1 WtCom= 1.00D+00 WtEn= 0.00D+00
 Coeff-Com: -0.253D-02 0.174D+00 0.150D+00 0.199D+00 0.480D+00
 Coeff:     -0.253D-02 0.174D+00 0.150D+00 0.199D+00 0.480D+00
 Gap=     0.258 Goal=   None    Shift=    0.000
 RMSDP=5.96D-08 MaxDP=2.35D-06 DE=-2.99D-08 OVMax= 2.51D-06

 Cycle  13  Pass 1  IDiag  1:
 RMSU=  5.34D-08    CP:  1.00D+00  1.02D+00  4.65D-01  4.39D-01  8.92D-01
 E= -963.230817284233     Delta-E=       -0.000000000178 Rises=F Damp=F
 DIIS: error= 2.16D-07 at cycle   6 NSaved=   6.
 NSaved= 6 IEnMin= 6 EnMin= -963.230817284233     IErMin= 6 ErrMin= 2.16D-07
 ErrMax= 2.16D-07  0.00D+00 EMaxC= 1.00D-01 BMatC= 1.10D-11 BMatP= 2.30D-10
 IDIUse=1 WtCom= 1.00D+00 WtEn= 0.00D+00
 Coeff-Com: -0.496D-03 0.316D-01 0.272D-01 0.384D-01 0.200D+00 0.704D+00
 Coeff:     -0.496D-03 0.316D-01 0.272D-01 0.384D-01 0.200D+00 0.704D+00
 Gap=     0.258 Goal=   None    Shift=    0.000
 RMSDP=1.62D-08 MaxDP=5.43D-07 DE=-1.78D-10 OVMax= 9.55D-07

 Cycle  14  Pass 1  IDiag  1:
 RMSU=  1.40D-08    CP:  1.00D+00  1.02D+00  4.65D-01  4.42D-01  9.25D-01
                    CP:  9.43D-01
 E= -963.230817284251     Delta-E=       -0.000000000018 Rises=F Damp=F
 DIIS: error= 8.06D-08 at cycle   7 NSaved=   7.
 NSaved= 7 IEnMin= 7 EnMin= -963.230817284251     IErMin= 7 ErrMin= 8.06D-08
 ErrMax= 8.06D-08  0.00D+00 EMaxC= 1.00D-01 BMatC= 3.77D-12 BMatP= 1.10D-11
 IDIUse=1 WtCom= 1.00D+00 WtEn= 0.00D+00
 Coeff-Com: -0.431D-04 0.151D-02 0.134D-02 0.307D-02 0.732D-01 0.439D+00
 Coeff-Com:  0.482D+00
 Coeff:     -0.431D-04 0.151D-02 0.134D-02 0.307D-02 0.732D-01 0.439D+00
 Coeff:      0.482D+00
 Gap=     0.258 Goal=   None    Shift=    0.000
 RMSDP=7.36D-09 MaxDP=4.02D-07 DE=-1.77D-11 OVMax= 6.54D-07

 SCF Done:  E(RB3LYP) =  -963.230817284     A.U. after   14 cycles
            NFock= 14  Conv=0.74D-08     -V/T= 2.0093
 KE= 9.543840577213D+02 PE=-6.294176887227D+03 EE= 2.347350404502D+03
 Leave Link  502 at Mon Feb 26 09:07:19 2024, MaxMem=  7516192768 cpu:             756.4 elap:              19.0
 (Enter /public/apps/g16-C01//g16/l601.exe)
 Copying SCF densities to generalized density rwf, IOpCl= 0 IROHF=0.

 **********************************************************************

            Population analysis using the SCF Density.

 **********************************************************************

 Alpha  occ. eigenvalues --  -19.16912 -19.16876 -14.29916 -14.29905 -10.26984
 Alpha  occ. eigenvalues --  -10.26970 -10.23451 -10.23427 -10.21116 -10.21089
 Alpha  occ. eigenvalues --  -10.20871 -10.19181 -10.19149 -10.17443 -10.17414
 Alpha  occ. eigenvalues --  -10.17131 -10.16751 -10.16724 -10.15874 -10.15803
 Alpha  occ. eigenvalues --  -10.15515 -10.15492  -1.09129  -1.08477  -0.90580
 Alpha  occ. eigenvalues --   -0.90400  -0.86203  -0.81543  -0.81240  -0.76220
 Alpha  occ. eigenvalues --   -0.74163  -0.68613  -0.68188  -0.67846  -0.67741
 Alpha  occ. eigenvalues --   -0.67399  -0.66478  -0.63806  -0.63447  -0.58175
 Alpha  occ. eigenvalues --   -0.57749  -0.54301  -0.54049  -0.52279  -0.52035
 Alpha  occ. eigenvalues --   -0.50520  -0.49781  -0.49197  -0.46911  -0.46432
 Alpha  occ. eigenvalues --   -0.46386  -0.45306  -0.44211  -0.44051  -0.43476
 Alpha  occ. eigenvalues --   -0.43359  -0.42171  -0.41255  -0.40342  -0.39677
 Alpha  occ. eigenvalues --   -0.39228  -0.39111  -0.38753  -0.38446  -0.37831
 Alpha  occ. eigenvalues --   -0.37006  -0.36453  -0.36390  -0.36221  -0.35927
 Alpha  occ. eigenvalues --   -0.34549  -0.33511  -0.33408  -0.33062  -0.32747
 Alpha  occ. eigenvalues --   -0.32441  -0.32012  -0.31641  -0.31459  -0.31025
 Alpha  occ. eigenvalues --   -0.27073  -0.26853  -0.24948  -0.24891
 Alpha virt. eigenvalues --    0.00931   0.02879   0.04382   0.05573   0.07067
 Alpha virt. eigenvalues --    0.07107   0.07424   0.08638   0.08787   0.08963
 Alpha virt. eigenvalues --    0.09208   0.10407   0.10961   0.10966   0.11323
 Alpha virt. eigenvalues --    0.11867   0.12885   0.13420   0.13778   0.14206
 Alpha virt. eigenvalues --    0.14973   0.14993   0.15806   0.15896   0.16163
 Alpha virt. eigenvalues --    0.16350   0.16826   0.17061   0.17742   0.18319
 Alpha virt. eigenvalues --    0.18461   0.18569   0.19230   0.20070   0.20266
 Alpha virt. eigenvalues --    0.20900   0.21194   0.21223   0.21518   0.21584
 Alpha virt. eigenvalues --    0.23741   0.23934   0.24052   0.24234   0.24521
 Alpha virt. eigenvalues --    0.25063   0.25930   0.26179   0.27833   0.28566
 Alpha virt. eigenvalues --    0.30298   0.32256   0.35063   0.36067   0.37608
 Alpha virt. eigenvalues --    0.38950   0.39829   0.40120   0.41379   0.41619
 Alpha virt. eigenvalues --    0.42418   0.42615   0.43035   0.43389   0.44199
 Alpha virt. eigenvalues --    0.45048   0.47789   0.48024   0.49200   0.51931
 Alpha virt. eigenvalues --    0.52187   0.52977   0.53366   0.53805   0.54313
 Alpha virt. eigenvalues --    0.55411   0.55819   0.56499   0.57854   0.58054
 Alpha virt. eigenvalues --    0.58487   0.59236   0.59816   0.60382   0.61135
 Alpha virt. eigenvalues --    0.61410   0.62094   0.62628   0.63591   0.64222
 Alpha virt. eigenvalues --    0.64750   0.65309   0.65594   0.66697   0.67352
 Alpha virt. eigenvalues --    0.67471   0.67601   0.68242   0.68371   0.68553
 Alpha virt. eigenvalues --    0.68782   0.69269   0.69900   0.70001   0.70255
 Alpha virt. eigenvalues --    0.70260   0.70537   0.70692   0.71632   0.72017
 Alpha virt. eigenvalues --    0.72099   0.72158   0.72696   0.73238   0.73301
 Alpha virt. eigenvalues --    0.73600   0.73828   0.74450   0.74453   0.75205
 Alpha virt. eigenvalues --    0.75333   0.76021   0.76071   0.76324   0.76746
 Alpha virt. eigenvalues --    0.77424   0.77900   0.78875   0.79456   0.79698
 Alpha virt. eigenvalues --    0.80282   0.81266   0.82326   0.82450   0.82802
 Alpha virt. eigenvalues --    0.83170   0.83867   0.85973   0.87004   0.88346
 Alpha virt. eigenvalues --    0.89558   0.90025   0.91912   0.92725   0.94694
 Alpha virt. eigenvalues --    0.95257   0.96961   1.01241   1.02987   1.03940
 Alpha virt. eigenvalues --    1.04111   1.06046   1.09160   1.11683   1.14364
 Alpha virt. eigenvalues --    1.15310   1.16851   1.18282   1.18350   1.19279
 Alpha virt. eigenvalues --    1.20349   1.22195   1.22369   1.24355   1.30645
 Alpha virt. eigenvalues --    1.31069   1.32366   1.35579   1.37666   1.38192
 Alpha virt. eigenvalues --    1.40621   1.43843   1.49361   1.50540   1.51791
 Alpha virt. eigenvalues --    1.52452   1.54535   1.58464   1.59778   1.61334
 Alpha virt. eigenvalues --    1.62711   1.65999   1.68179   1.70416   1.71180
 Alpha virt. eigenvalues --    1.72599   1.73382   1.74391   1.74857   1.76325
 Alpha virt. eigenvalues --    1.76709   1.77756   1.79161   1.82395   1.83307
 Alpha virt. eigenvalues --    1.83447   1.84334   1.84957   1.85254   1.87205
 Alpha virt. eigenvalues --    1.87766   1.90381   1.91336   1.91858   1.92096
 Alpha virt. eigenvalues --    1.95373   1.96248   1.96844   1.98115   1.98781
 Alpha virt. eigenvalues --    1.99806   2.01938   2.02571   2.04292   2.04434
 Alpha virt. eigenvalues --    2.05181   2.05418   2.05744   2.06041   2.06723
 Alpha virt. eigenvalues --    2.07648   2.09797   2.10192   2.13131   2.13767
 Alpha virt. eigenvalues --    2.14189   2.14502   2.15622   2.17199   2.17736
 Alpha virt. eigenvalues --    2.17932   2.18019   2.18987   2.19101   2.19574
 Alpha virt. eigenvalues --    2.20130   2.20669   2.22223   2.25081   2.26313
 Alpha virt. eigenvalues --    2.27354   2.30102   2.31038   2.36477   2.39493
 Alpha virt. eigenvalues --    2.40865   2.41250   2.44864   2.46088   2.49698
 Alpha virt. eigenvalues --    2.50590   2.54405   2.55992   2.57700   2.60138
 Alpha virt. eigenvalues --    2.61071   2.62189   2.64740   2.65771   2.69009
 Alpha virt. eigenvalues --    2.71110   2.71873   2.72257   2.74050   2.74415
 Alpha virt. eigenvalues --    2.75142   2.79035   2.82859   2.88311   2.89903
 Alpha virt. eigenvalues --    2.91268   2.94450   2.98282   2.98371   2.98813
 Alpha virt. eigenvalues --    3.00599   3.14603   3.15717   3.24826   3.28726
 Alpha virt. eigenvalues --    3.38860   3.39062   3.57620   3.62886
          Condensed to atoms (all electrons):
 Mulliken charges:
               1
     1  C   -0.180916
     2  C   -0.184552
     3  C   -0.179355
     4  C   -0.218809
     5  C   -0.037100
     6  C    0.103101
     7  O   -0.314173
     8  C    0.097298
     9  C   -0.213604
    10  C    0.099843
    11  N   -0.152731
    12  C   -0.037962
    13  C   -0.184441
    14  C   -0.215815
    15  C   -0.181078
    16  C   -0.179449
    17  C    0.103825
    18  O   -0.312794
    19  C   -0.004020
    20  C   -0.143819
    21  C    0.001365
    22  N   -0.151446
    23  H    0.086123
    24  H    0.077387
    25  H    0.079370
    26  H    0.071257
    27  H    0.105257
    28  H    0.076650
    29  H    0.075754
    30  H    0.118881
    31  H    0.080144
    32  H    0.057274
    33  H    0.093335
    34  H    0.083550
    35  H    0.057342
    36  H    0.115799
    37  H    0.076459
    38  H    0.080875
    39  H    0.079526
    40  H    0.077530
    41  H    0.086279
    42  H    0.076805
    43  H    0.105244
    44  H    0.071347
    45  H    0.093615
    46  H    0.083832
    47  H    0.091444
    48  H    0.074389
    49  H    0.074290
    50  H    0.071984
    51  H    0.097072
    52  H    0.067820
 Sum of Mulliken charges =  -0.00000
 Mulliken charges with hydrogens summed into heavy atoms:
               1
     1  C    0.061963
     2  C   -0.184552
     3  C    0.073808
     4  C    0.055969
     5  C    0.020174
     6  C    0.279987
     7  O   -0.314173
     8  C    0.097298
     9  C   -0.213604
    10  C    0.099843
    11  N   -0.152731
    12  C    0.019380
    13  C   -0.184441
    14  C    0.057318
    15  C    0.062257
    16  C    0.073946
    17  C    0.281272
    18  O   -0.312794
    19  C    0.161813
    20  C    0.002455
    21  C    0.166257
    22  N   -0.151446
 Electronic spatial extent (au):  <R**2>=           7534.3688
 Charge=             -0.0000 electrons
 Dipole moment (field-independent basis, Debye):
    X=             -0.0299    Y=             -1.3979    Z=              0.0550  Tot=              1.3993
 Quadrupole moment (field-independent basis, Debye-Ang):
   XX=           -135.6125   YY=           -134.4495   ZZ=           -134.2331
   XY=             -0.3721   XZ=             -8.1491   YZ=              0.2501
 Traceless Quadrupole moment (field-independent basis, Debye-Ang):
   XX=             -0.8475   YY=              0.3155   ZZ=              0.5319
   XY=             -0.3721   XZ=             -8.1491   YZ=              0.2501
 Octapole moment (field-independent basis, Debye-Ang**2):
  XXX=             -2.2287  YYY=             19.4575  ZZZ=             -0.5096  XYY=              0.8945
  XXY=            -12.3983  XXZ=              1.2294  XZZ=              0.5191  YZZ=              4.0368
  YYZ=             -0.2570  XYZ=             -5.0312
 Hexadecapole moment (field-independent basis, Debye-Ang**3):
 XXXX=          -6833.4855 YYYY=          -2614.0015 ZZZZ=          -1017.3372 XXXY=             38.3677
 XXXZ=            -66.6411 YYYX=             50.9609 YYYZ=             10.8576 ZZZX=            -36.4814
 ZZZY=             12.5881 XXYY=          -1589.6899 XXZZ=          -1276.5174 YYZZ=           -599.8468
 XXYZ=              7.5770 YYXZ=              3.4934 ZZXY=             13.3089
 N-N= 2.029211607720D+03 E-N=-6.294176899677D+03  KE= 9.543840577213D+02
 No NMR shielding tensors so no spin-rotation constants.
 Leave Link  601 at Mon Feb 26 09:07:20 2024, MaxMem=  7516192768 cpu:               5.5 elap:               0.2
 (Enter /public/apps/g16-C01//g16/l701.exe)
 ... and contract with generalized density number  0.
 Compute integral first derivatives.
 R6Disp: Adding Grimme-D3(BJ) dispersion energy 1st derivatives to the gradient.
   1 Symmetry operations used in ECPInt.
 ECPInt:  NShTT=   18528 NPrTT=   74296 LenC2=   17358 LenP2D=   47183.
 LDataN:  DoStor=T MaxTD1= 5 Len=  102
 Leave Link  701 at Mon Feb 26 09:07:20 2024, MaxMem=  7516192768 cpu:              10.2 elap:               0.3
 (Enter /public/apps/g16-C01//g16/l702.exe)
 L702 exits ... SP integral derivatives will be done elsewhere.
 Leave Link  702 at Mon Feb 26 09:07:20 2024, MaxMem=  7516192768 cpu:               0.4 elap:               0.0
 (Enter /public/apps/g16-C01//g16/l703.exe)
 Integral derivatives from FoFJK, PRISM(SPDF).
 Compute integral first derivatives, UseDBF=F ICtDFT=           0.
 Calling FoFJK, ICntrl=      2127 FMM=F ISym2X=0 I1Cent= 0 IOpClX= 0 NMat=1 NMatS=1 NMatT=0.
 FoFJK:  IHMeth= 1 ICntrl=    2127 DoSepK=F KAlg= 0 I1Cent=           0 FoldK=F
 IRaf=         0 NMat=       1 IRICut=       1 DoRegI=T DoRafI=F ISym2E= 0 IDoP0=0 IntGTp=1.
 FoFCou: FMM=F IPFlag=           0 FMFlag=      100000 FMFlg1=         800
         NFxFlg=           0 DoJE=F BraDBF=F KetDBF=F FulRan=T
         wScrn=  0.000000 ICntrl=      2127 IOpCl=  0 I1Cent=           0 NGrid=           0
         NMat0=    1 NMatS0=      1 NMatT0=    0 NMatD0=    1 NMtDS0=    0 NMtDT0=    0
 Symmetry not used in FoFCou.
 Leave Link  703 at Mon Feb 26 09:07:25 2024, MaxMem=  7516192768 cpu:             185.0 elap:               4.7
 (Enter /public/apps/g16-C01//g16/l716.exe)
 Dipole        =-1.17502755D-02-5.49979124D-01 2.16290010D-02
 -------------------------------------------------------------------
 Center     Atomic                   Forces (Hartrees/Bohr)
 Number     Number              X              Y              Z
 -------------------------------------------------------------------
      1        6           0.005939944    0.007565528   -0.004488457
      2        6          -0.002539385    0.000066775    0.000083225
      3        6           0.006423493   -0.004347379    0.004518119
      4        6          -0.004983960    0.006084996    0.005069859
      5        6           0.002276447   -0.005626472    0.000569193
      6        6          -0.007564247   -0.001898442    0.001759041
      7        8           0.010301825    0.002279094   -0.000085171
      8        6           0.000406119    0.003827700    0.000577460
      9        6           0.000162072   -0.011926407    0.000207562
     10        6          -0.000230703    0.003343614   -0.000296035
     11        7           0.007484831    0.010148887    0.006625945
     12        6          -0.002479868   -0.005452602    0.000084902
     13        6           0.002505883    0.000044391   -0.000179971
     14        6           0.005001919    0.005238139   -0.006034176
     15        6          -0.005485484    0.008200120    0.003948066
     16        6          -0.006785227   -0.004544049   -0.003718722
     17        6           0.007436689   -0.002349647   -0.001893994
     18        8          -0.009838925    0.002626303    0.000042438
     19        6           0.001017992    0.001348138    0.000898266
     20        6           0.000386328    0.000524232   -0.000178686
     21        6          -0.002079758    0.001256016   -0.000914172
     22        7          -0.006992811    0.009938736   -0.007848886
     23        1          -0.005329971   -0.008121370   -0.005915229
     24        1           0.005714101   -0.007203805    0.007441081
     25        1          -0.008952707    0.004242745    0.006373872
     26        1          -0.009107144    0.005873116    0.004971596
     27        1           0.004003393    0.007701125   -0.005968478
     28        1          -0.005662305   -0.006713386   -0.007731478
     29        1           0.007252485   -0.006837280    0.005304122
     30        1           0.006953400    0.005224206   -0.005238915
     31        1          -0.003951553   -0.007097094   -0.007704665
     32        1          -0.005072623    0.000938154    0.003282853
     33        1           0.001370314   -0.006355320    0.000468781
     34        1          -0.000686168    0.000385371    0.005830763
     35        1           0.004935714    0.000403062   -0.003598708
     36        1          -0.006567945    0.006077870    0.005044754
     37        1          -0.007752677   -0.007055676   -0.004227823
     38        1           0.004035926   -0.006386093    0.008229417
     39        1           0.008755952    0.003199346   -0.007196876
     40        1          -0.006335612   -0.007739331   -0.006360616
     41        1           0.005351122   -0.007658936    0.006492032
     42        1           0.005807992   -0.006063066    0.008155880
     43        1          -0.003444280    0.008430905    0.005270399
     44        1           0.009039506    0.004921317   -0.005975392
     45        1          -0.001614411   -0.006293698    0.000254128
     46        1           0.000431926   -0.000246663   -0.005861942
     47        1           0.007816650   -0.000513348    0.001713670
     48        1          -0.003345088   -0.000892729    0.008500375
     49        1          -0.007085504    0.005891081    0.002873832
     50        1           0.006054064    0.007075139   -0.002619364
     51        1          -0.007662070   -0.000830757   -0.002929994
     52        1           0.004684337   -0.000702559   -0.007623883
 -------------------------------------------------------------------
 Cartesian Forces:  Max     0.011926407 RMS     0.005434276
 Leave Link  716 at Mon Feb 26 09:07:25 2024, MaxMem=  7516192768 cpu:               1.0 elap:               0.0
 (Enter /public/apps/g16-C01//g16/l103.exe)

 GradGradGradGradGradGradGradGradGradGradGradGradGradGradGradGradGradGrad
 Berny optimization.
 FormGI is forming the generalized inverse of G from B-inverse, IUseBI=4.
 Internal  Forces:  Max     0.013835862 RMS     0.004016344
 Search for a local minimum.
 Step number   1 out of a maximum of  312
 All quantities printed in internal units (Hartrees-Bohrs-Radians)
 RMS Force = .40163D-02 SwitMx=.10000D-02 MixMth= 1
 Mixed Optimization -- RFO/linear search
 Second derivative matrix not updated -- first step.
 ITU=  0
     Eigenvalues ---    0.00230   0.00230   0.00267   0.00357   0.00357
     Eigenvalues ---    0.00369   0.00369   0.00369   0.00370   0.00603
     Eigenvalues ---    0.00603   0.00901   0.00906   0.01615   0.01616
     Eigenvalues ---    0.02387   0.02461   0.02461   0.02529   0.03695
     Eigenvalues ---    0.03986   0.03986   0.04418   0.04514   0.04515
     Eigenvalues ---    0.04645   0.04649   0.04819   0.04849   0.04866
     Eigenvalues ---    0.04866   0.04966   0.05011   0.05013   0.05083
     Eigenvalues ---    0.05084   0.05469   0.05508   0.05508   0.05521
     Eigenvalues ---    0.05522   0.05619   0.05621   0.05622   0.05622
     Eigenvalues ---    0.05670   0.05671   0.05677   0.05679   0.05694
     Eigenvalues ---    0.05694   0.05893   0.06310   0.06361   0.06614
     Eigenvalues ---    0.07837   0.07863   0.07865   0.08191   0.08424
     Eigenvalues ---    0.10802   0.10802   0.10851   0.11245   0.11246
     Eigenvalues ---    0.14284   0.14285   0.14559   0.14560   0.15622
     Eigenvalues ---    0.15626   0.16000   0.16000   0.16000   0.16000
     Eigenvalues ---    0.16000   0.16000   0.16000   0.16000   0.16000
     Eigenvalues ---    0.16000   0.16000   0.16000   0.16000   0.16000
     Eigenvalues ---    0.16000   0.16000   0.16000   0.16000   0.19495
     Eigenvalues ---    0.20215   0.20221   0.24636   0.24638   0.25000
     Eigenvalues ---    0.25000   0.25446   0.26506   0.26741   0.26742
     Eigenvalues ---    0.27947   0.27949   0.28568   0.28587   0.29339
     Eigenvalues ---    0.29342   0.29420   0.29421   0.29425   0.29428
     Eigenvalues ---    0.33473   0.33514   0.34105   0.34107   0.34372
     Eigenvalues ---    0.34380   0.34657   0.34664   0.35044   0.35046
     Eigenvalues ---    0.35052   0.35055   0.35068   0.35068   0.35086
     Eigenvalues ---    0.35086   0.35089   0.35091   0.35092   0.35093
     Eigenvalues ---    0.35093   0.35096   0.35105   0.35106   0.35113
     Eigenvalues ---    0.35116   0.35116   0.35119   0.35224   0.35250
     Eigenvalues ---    0.35289   0.35292   0.36959   0.36970   0.40988
     Eigenvalues ---    0.40995   0.50617   0.50633   0.74922   0.74974
 RFO step:  Lambda=-1.52102078D-02 EMin= 2.30000000D-03
 Linear search not attempted -- first point.
 Iteration  1 RMS(Cart)=  0.07629907 RMS(Int)=  0.00095416
 Iteration  2 RMS(Cart)=  0.00420497 RMS(Int)=  0.00004415
 Iteration  3 RMS(Cart)=  0.00000726 RMS(Int)=  0.00004401
 Iteration  4 RMS(Cart)=  0.00000000 RMS(Int)=  0.00004401
 ITry= 1 IFail=0 DXMaxC= 3.41D-01 DCOld= 1.00D+10 DXMaxT= 3.00D-01 DXLimC= 3.00D+00 Rises=F
 Variable       Old X    -DE/DX   Delta X   Delta X   Delta X     New X
                                 (Linear)    (Quad)   (Total)
    R1        2.89124   0.00552   0.00000   0.01782   0.01782   2.90906
    R2        2.05526   0.01126   0.00000   0.03076   0.03076   2.08601
    R3        2.05524   0.01174   0.00000   0.03208   0.03208   2.08731
    R4        2.05603   0.01171   0.00000   0.03204   0.03204   2.08807
    R5        2.89296   0.00649   0.00000   0.02101   0.02101   2.91397
    R6        2.89134   0.00632   0.00000   0.02042   0.02042   2.91177
    R7        2.92255   0.00613   0.00000   0.02081   0.02081   2.94336
    R8        2.05528   0.01186   0.00000   0.03240   0.03240   2.08768
    R9        2.05203   0.01037   0.00000   0.02818   0.02818   2.08021
   R10        2.05504   0.01166   0.00000   0.03183   0.03183   2.08687
   R11        2.05590   0.01119   0.00000   0.03060   0.03060   2.08650
   R12        2.05564   0.00996   0.00000   0.02722   0.02722   2.08287
   R13        2.05536   0.01115   0.00000   0.03046   0.03046   2.08582
   R14        2.93689   0.00527   0.00000   0.01445   0.01443   2.95132
   R15        2.73542   0.01384   0.00000   0.03389   0.03388   2.76931
   R16        2.07149   0.00581   0.00000   0.01630   0.01630   2.08779
   R17        2.68855   0.00971   0.00000   0.02170   0.02170   2.71025
   R18        2.06224   0.00642   0.00000   0.01773   0.01773   2.07997
   R19        2.06706   0.00578   0.00000   0.01610   0.01610   2.08317
   R20        2.56240   0.00413   0.00000   0.00918   0.00920   2.57160
   R21        2.81528   0.00817   0.00000   0.02335   0.02335   2.83863
   R22        2.38210   0.01284   0.00000   0.01699   0.01701   2.39911
   R23        2.81458   0.00843   0.00000   0.02406   0.02406   2.83864
   R24        2.91679   0.00853   0.00000   0.02965   0.02965   2.94644
   R25        2.91816   0.00869   0.00000   0.03029   0.03030   2.94846
   R26        2.38242   0.01266   0.00000   0.01676   0.01678   2.39920
   R27        2.56226   0.00429   0.00000   0.00942   0.00945   2.57171
   R28        2.73563   0.01370   0.00000   0.03356   0.03355   2.76918
   R29        2.92249   0.00606   0.00000   0.02058   0.02058   2.94307
   R30        2.93690   0.00515   0.00000   0.01413   0.01411   2.95100
   R31        2.07153   0.00581   0.00000   0.01631   0.01631   2.08784
   R32        2.89134   0.00632   0.00000   0.02043   0.02043   2.91177
   R33        2.89119   0.00551   0.00000   0.01782   0.01782   2.90901
   R34        2.89301   0.00647   0.00000   0.02098   0.02098   2.91400
   R35        2.05564   0.01008   0.00000   0.02754   0.02754   2.08318
   R36        2.05585   0.01120   0.00000   0.03063   0.03063   2.08649
   R37        2.05536   0.01112   0.00000   0.03039   0.03039   2.08575
   R38        2.05601   0.01171   0.00000   0.03202   0.03202   2.08803
[...]
 -0.00009598,0.00066079,0.00009108,0.00042184,-0.00025080,-0.00008034,-
 0.00090231,-0.00036059,-0.00013115,-0.00019476,-0.00009859,0.00022886,
 0.00016146,0.00012987,0.00005024,0.00000073,-0.00001480,0.00001114,-0.
 00002147,0.00000629,-0.00000823,0.00000769,0.00000339,-0.00000464,0.00
 000975,0.00000276,-0.00001682,-0.00000683,-0.00005222,0.00010543,0.000
 04734,0.00010876,0.00004711,0.00029595,-0.02228352,0.00298043,0.009286
 64,0.09914993,-0.01896978,-0.08944285,0.02365028,-0.00349822,-0.012826
 52,-0.00023174,0.00032814,-0.00002052,0.00000263,0.00000281,-0.0000011
 4,-0.00000166,0.00000330,-0.00000413,-0.00000335,-0.00000135,0.0000035
 1,-0.00001428,-0.00000527,0.00000747,0.00001327,-0.00000645,-0.0000123
 2,0.00000151,0.00000970,-0.00000100,-0.00000468,0.00000345,-0.00000182
 ,0.00000829,-0.00000206,-0.00000329,-0.00000125,0.00000238,0.00000112,
 0.00000351,-0.00000006,0.00000302,-0.00001141,-0.00000297,-0.00000733,
 -0.00000122,0.00000118,-0.00000849,0.00000796,-0.00002064,-0.00001723,
 0.00000190,-0.00000051,-0.00000439,0.00000279,0.00000499,-0.00000124,0
 .00000005,-0.00000416,0.00000464,-0.00000196,0.00000093,-0.00000123,0.
 00000030,0.00000600,0.00000196,0.00000339,-0.00000454,0.00000134,0.000
 00214,0.00000308,0.00000689,-0.00000243,-0.00000379,0.00000127,0.00000
 053,0.00000003,-0.00000124,0.00000987,-0.00000932,0.00001179,-0.000000
 96,0.00001343,0.00001774,-0.00212607,0.00351106,-0.00161031,0.00056932
 ,-0.00134146,0.00120613,-0.10404853,0.02130701,0.09702132,0.00000080,-
 0.00000797,-0.00001508,0.00000054,0.00000993,0.00002143,0.00000480,-0.
 00000126,-0.00001106,-0.00000691,-0.00000459,-0.00000665,0.00009725,0.
 00005425,-0.00003812,-0.00003396,-0.00002775,0.00003631,0.00016060,-0.
 00002031,0.00019576,-0.00088158,0.00044383,-0.00011903,-0.00080999,0.0
 0287281,-0.00039473,0.00049583,0.00050817,0.00008425,0.00001863,-0.000
 20360,0.00002378,-0.00000657,0.00001503,-0.00001476,-0.00000166,0.0000
 0527,-0.00000567,0.00000712,-0.00000291,-0.00000199,0.00000057,-0.0000
 0209,0.00000573,0.00000109,-0.00000372,0.00000039,-0.00000547,0.000022
 34,0.00005986,-0.00014354,0.00011294,0.00018223,0.00996712,0.01499595,
 -0.00384668,-0.10651637,-0.10772640,0.02894298,-0.00235995,0.00091961,
 0.00156764,0.00032116,-0.00035471,-0.00001788,-0.00000448,-0.00000858,
 -0.00000062,0.00000218,0.00000042,0.00000306,0.00000059,0.00000347,0.0
 0000106,0.00000401,0.00000324,0.00000283,0.00000331,0.00000611,0.00001
 598,-0.00000491,-0.00001192,-0.00000303,0.00000068,-0.00000128,0.00000
 399,-0.00000733,0.00000635,0.00000464,-0.00000054,-0.00000852,-0.00000
 352,0.00001679,0.00001934,0.00000046,0.00001427,-0.00000764,0.00000627
 ,0.00000405,0.00000533,-0.00001470,-0.00000445,0.00000400,-0.00000046,
 -0.00000368,-0.00000536,-0.00000309,-0.00000162,0.00000361,0.00000268,
 -0.00000034,-0.00000233,0.00000278,-0.00000008,0.00000152,-0.00000047,
 -0.00000110,0.00000094,-0.00000015,0.00000141,-0.00000364,0.00000099,0
 .00000088,-0.00000404,0.00000276,0.00000162,0.00000312,-0.00000630,-0.
 00000285,0.00000327,0.00000094,-0.00001050,-0.00000079,0.00000234,-0.0
 0001486,0.00001699,0.00000933,0.00152860,-0.00085893,0.00024855,-0.000
 48047,0.00129954,-0.00060286,-0.01054869,-0.02413703,0.00569338,0.1077
 2851,-0.00000154,-0.00001303,-0.00002589,0.00000776,0.00001489,0.00004
 732,0.00001365,-0.00000786,-0.00001075,-0.00000112,0.00000523,-0.00001
 706,0.00007362,0.00004027,-0.00002867,0.00013922,0.00007517,-0.0000572
 0,-0.00029348,-0.00025832,0.00023327,0.00097494,0.00030600,-0.00036142
 ,0.00243864,-0.00386991,-0.00099192,-0.00149996,-0.00030764,0.00058283
 ,0.00051206,-0.00007044,-0.00006799,-0.00002344,0.00009158,0.00000386,
 -0.00001238,0.00001132,-0.00005698,0.00000240,0.00000670,0.00001969,0.
 00000108,-0.00001220,0.00003221,-0.00001628,-0.00001044,0.00001113,-0.
 00013015,0.00007820,0.00000985,0.00043167,-0.00035009,-0.00027244,-0.0
 0603329,-0.01027615,0.00225017,-0.10565411,-0.24299818,0.05395726,-0.0
 0603362,-0.01081090,0.00415566,-0.00040245,0.00000220,0.00010378,-0.00
 000942,-0.00001448,-0.00000238,0.00000342,0.00000695,-0.00000089,-0.00
 000565,0.00000512,0.00000573,-0.00000931,0.00000256,0.00000901,0.00001
 556,0.00000316,0.00001877,-0.00001048,-0.00001301,-0.00000831,-0.00000
 237,0.00001119,0.00000078,0.00000789,0.00001521,0.00002441,-0.00000975
 ,-0.00001699,-0.00000717,-0.00004341,-0.00002232,0.00002137,-0.0000140
 2,-0.00002260,0.00001387,-0.00003462,-0.00000719,0.00003225,0.00005924
 ,-0.00005018,-0.00003588,-0.00000512,0.00001378,-0.00002791,0.00000416
 ,0.00001172,-0.00000188,0.00000810,-0.00001789,0.00000956,0.00000689,0
 .00000450,-0.00000718,-0.00000294,0.00000854,0.00000084,0.00000926,-0.
 00001644,0.00000334,0.00001089,-0.00001087,0.00001087,-0.00001809,-0.0
 0000074,-0.00001885,0.00001349,-0.00000015,-0.00001144,0.00001511,-0.0
 0002700,-0.00001805,0.00004903,-0.00002696,-0.00003241,-0.00016734,0.0
 0140878,-0.00018935,0.00043608,-0.00125123,-0.00009599,0.00251156,0.00
 761734,-0.00138995,0.11212070,0.26065628,0.00000254,0.00000724,0.00001
 020,-0.00000743,-0.00000997,-0.00001886,0.00000582,0.00001769,-0.00000
 770,0.00001149,0.00001241,-0.00000028,0.00006433,-0.00002598,0.0000212
 4,-0.00006477,-0.00005423,0.00010154,0.00004241,-0.00000417,0.00026716
 ,-0.00001209,-0.00020439,-0.00021143,-0.00031897,-0.00130220,-0.001251
 58,-0.00000632,-0.00019285,0.00073293,0.00022137,-0.00005880,0.0000056
 6,0.00009816,0.00007607,-0.00007096,-0.00000852,0.00001478,-0.00000196
 ,0.00000477,-0.00000779,-0.00000144,-0.00000097,-0.00000122,0.00000236
 ,0.00000088,-0.00000945,-0.00000358,0.00000830,0.00006065,0.00004742,-
 0.00010357,0.00018098,0.00015072,0.01187160,0.01169954,-0.00426488,0.0
 2895867,0.05503568,-0.06536079,-0.01349151,-0.01827795,0.00844696,-0.0
 0003213,0.00002399,0.00015952,0.00000343,0.00000483,0.00000037,-0.0000
 0057,-0.00000483,0.00000232,-0.00000205,-0.00000174,-0.00000002,-0.000
 00381,-0.00000272,0.00000168,0.00000480,0.00000148,-0.00000119,0.00000
 152,-0.00000023,0.00000650,0.00000024,-0.00000673,0.00000277,0.,0.0000
 0464,-0.00000491,-0.00000104,0.00000332,0.00000475,-0.00000121,0.00000
 125,-0.00000470,0.00000700,0.00001227,0.00000176,-0.00000940,-0.000015
 25,0.00001770,0.00001560,-0.00003240,-0.00001584,0.00000329,-0.0000041
 5,-0.00000324,-0.00000085,0.00000228,0.00000123,-0.00000219,0.00000031
 ,0.00000127,-0.00000259,0.00000044,0.00000157,0.00000008,0.00000056,-0
 .00000004,0.00000038,-0.00000063,-0.00000068,0.00000109,0.00000168,0.0
 0000125,0.00000399,0.00000086,-0.00000073,-0.00000283,0.00000104,0.000
 00254,-0.00001058,0.00000366,0.00000086,0.00000059,0.00000194,0.000002
 27,0.00034816,-0.00134995,0.00152683,-0.00105253,0.00187765,-0.0008133
 4,0.00493002,0.01095513,-0.00234760,-0.03151134,-0.05771227,0.06242456
 ,-0.00000588,0.00001764,0.00001232,0.00001444,-0.00001225,-0.00001194,
 0.00000715,0.00003834,0.00003849,0.00002715,0.00002938,-0.00001203,0.0
 0020574,-0.00008054,-0.00001249,-0.00008191,-0.00012381,0.00010044,0.0
 0006571,0.00019594,-0.00033654,-0.00150220,-0.00112724,0.00036622,-0.0
 0453430,-0.00054563,-0.00127863,-0.00036997,-0.00044035,-0.00167059,0.
 00001994,0.00043857,0.00014326,-0.00003478,-0.00018360,0.00002364,0.00
 002111,-0.00000363,0.00004082,-0.00001129,-0.00000663,-0.00001924,-0.0
 0000377,0.00000560,-0.00002422,0.00000932,-0.00000040,-0.00000437,-0.0
 0005180,0.00009263,0.00006187,0.00017295,0.00003615,0.00037324,0.00051
 562,0.00058453,-0.00054066,0.00549900,0.00068327,0.00176729,-0.2772421
 0,-0.04047066,-0.09963865,-0.00020576,-0.00137940,0.00205211,0.0000055
 0,0.00000814,0.00000146,0.00000162,-0.00000546,0.00000195,-0.00000594,
 -0.00000371,0.00000243,-0.00001343,-0.00000786,0.00000978,0.00001141,-
 0.00004869,-0.00008028,0.00001118,0.00002040,-0.00000069,-0.00000745,-
 0.00001642,0.00001515,-0.00000968,0.00001586,-0.00002785,-0.00000086,0
 .00000560,0.00000771,0.00000607,0.00001712,-0.00000146,0.00000714,-0.0
 0000449,0.00002306,0.00002308,-0.00000598,0.00001564,-0.00002167,0.000
 04761,0.00004936,-0.00000637,-0.00000338,0.00001303,0.00000349,0.00000
 426,0.00000606,-0.00000035,0.00001114,-0.00000244,-0.00000103,-0.00000
 290,0.00000190,0.00000445,0.00000308,0.00000486,-0.00000514,0.00001095
 ,0.00000138,-0.00000427,0.00000934,-0.00000362,0.00000583,-0.00000064,
 0.00001745,-0.00000036,-0.00000203,0.00000417,0.00000665,0.00000617,0.
 00000652,-0.00002446,0.00000040,0.00000710,-0.00002562,-0.00006814,0.0
 0012451,-0.00003470,-0.00031227,0.00015127,0.00093457,-0.00006558,-0.0
 0021471,0.00016810,0.00048812,0.00014548,0.29111502,-0.00001754,0.0000
 1279,0.00002070,-0.00000821,-0.00007219,0.00000291,-0.00004940,-0.0000
 3273,0.00011805,-0.00002521,-0.00000128,0.00003104,-0.00053777,-0.0002
 5097,-0.00031787,-0.00006182,0.00010779,-0.00008313,-0.00021903,0.0008
 3149,-0.00084009,0.00059726,0.00130384,-0.00020267,0.02250814,0.003491
 16,0.00539918,-0.00041653,0.00044626,0.00370552,0.00087836,-0.00070111
 ,-0.00029445,0.00015182,0.00041897,-0.00020814,-0.00002321,0.00006697,
 -0.00008146,0.00001342,-0.00001294,0.00003557,-0.00000075,-0.00002040,
 0.00005322,-0.00002104,-0.00002086,0.00001886,0.00015534,-0.00007894,-
 0.00006586,-0.00034507,-0.00025006,-0.00037362,-0.00004932,-0.00122437
 ,-0.00020942,-0.02019880,-0.00166949,-0.00348956,-0.04336509,-0.057482
 69,-0.02089102,0.00024670,-0.00089557,0.00057555,0.00001126,0.00001847
 ,0.00000625,-0.00000183,-0.00000047,-0.00001153,0.00000144,-0.00000581
 ,-0.00000368,0.00002024,0.00001168,-0.00002600,-0.00009757,-0.00006260
 ,-0.00013186,0.00002995,0.00003560,-0.00000081,0.00000935,0.00002004,-
 0.00003180,0.00005334,-0.00006836,0.00000437,0.00000733,0.00002598,0.0
 0000651,0.00003641,0.00001521,-0.00003447,-0.00000920,0.00002317,-0.00
 003161,-0.00000682,-0.00000117,-0.00003544,0.00007633,-0.00015962,-0.0
 0013248,0.00003856,0.00002863,-0.00002281,0.00000185,-0.00001359,-0.00
 002058,-0.00000557,-0.00002302,0.00001091,-0.00000883,0.00000592,-0.00
 000002,-0.00000411,0.00000246,-0.00000888,0.00001369,-0.00002429,0.000
 00012,0.00001647,-0.00001653,0.00001324,-0.00001582,0.00000588,-0.0000
 3730,-0.00000342,-0.00000073,-0.00000915,-0.00001537,-0.00001749,-0.00
 002271,0.00001539,-0.00000340,-0.00000661,-0.00009201,0.00005286,-0.00
 004223,-0.00024294,0.00101259,0.00018521,0.00032383,0.00162905,0.00141
 692,-0.00054027,-0.00137809,-0.00221330,0.04452913,0.05513672,0.000000
 65,-0.00003544,-0.00005889,-0.00000335,0.00006887,0.00006765,0.0000052
 9,-0.00003309,-0.00005530,-0.00002525,-0.00002529,-0.00002138,0.000868
 37,0.00013707,0.00016943,0.00003930,-0.00017472,0.00015034,0.00040517,
 -0.00059028,0.00110936,-0.00269480,0.00039367,0.00017345,-0.01327855,-
 0.00169870,-0.00691696,0.00045349,-0.00055460,-0.00190498,-0.00051296,
 0.00031914,0.00026115,-0.00007429,-0.00015122,0.00010138,-0.00000061,-
 0.00003588,0.00001873,0.00000823,0.00001023,-0.00001330,0.00000875,0.0
 0001026,-0.00001152,0.00001381,-0.00000104,-0.00001555,0.00001600,0.00
 005460,0.00000267,-0.00000726,0.00024392,0.00011297,0.00013267,-0.0002
 7452,-0.00475142,-0.01495287,-0.00130091,-0.00606271,-0.09553026,-0.01
 872894,-0.08835306,-0.00009952,-0.00085405,-0.00026841,-0.00001901,-0.
 00003081,-0.00000149,0.00000653,0.00000938,0.00000433,0.00000688,0.000
 00988,-0.00000091,0.00002131,0.00001263,-0.00000312,0.00003136,0.00006
 175,0.00010571,-0.00002515,-0.00003892,-0.00001148,0.00000013,0.000004
 10,0.00000824,-0.00002142,0.00002086,0.00002894,-0.00000273,-0.0000326
 5,-0.00001262,-0.00000949,0.00004680,-0.00001088,0.00005827,-0.0000360
 5,0.00007209,-0.00001353,-0.00000938,0.00003552,-0.00003931,0.00007140
 ,0.00003052,-0.00002842,-0.00002071,0.00000225,-0.00000360,0.00001054,
 0.00001505,0.00000178,0.00000488,-0.00000406,0.00000506,-0.00000264,-0
 .00000262,0.00000004,-0.00000050,0.00000417,-0.00000529,0.00000615,-0.
 00000195,-0.00000661,0.00000707,-0.00000286,0.00000355,-0.00000486,0.0
 0001147,0.00000357,0.00000236,0.00000357,-0.00000929,0.00001221,0.0000
 2107,-0.00000052,0.00001537,0.00001812,-0.00028547,0.00006784,-0.00015
 116,-0.00073881,0.00000457,-0.00082021,0.00000947,0.00004501,0.0014665
 0,-0.00051811,-0.00033592,-0.00139477,0.10599668,0.02000989,0.09504525
 ,0.00000617,-0.00001669,-0.00002883,-0.00000499,0.00004375,0.00003762,
 0.00001323,-0.00000739,-0.00003370,-0.00001618,-0.00001473,-0.00000465
 ,0.00039600,0.00014061,0.00002503,-0.00003080,-0.00000052,0.00001485,0
 .00060433,0.00030015,-0.00002806,-0.00205385,0.00039891,-0.00183762,0.
 00715148,0.00222436,-0.00873759,0.00111981,0.00118030,0.00062940,0.000
 26935,-0.00040323,-0.00017037,-0.00001283,0.00003876,0.00009489,-0.000
 00335,-0.00003046,-0.00004116,0.00000860,0.00000730,0.00000125,0.00000
 614,-0.00000573,0.00002117,-0.00000421,0.00000519,-0.00000221,0.000064
 87,-0.00010428,0.00004529,-0.00009153,0.00001150,-0.00056350,-0.000802
 36,-0.00000192,0.00024920,0.00059119,0.00077948,-0.00192605,-0.1773041
 6,-0.02858820,0.13193263,-0.00009844,-0.00094859,0.00061778,-0.0000089
 6,-0.00001664,-0.00000013,0.00000364,0.00000103,0.00000595,0.00000543,
 0.00000581,-0.00000209,0.00001471,0.00000740,-0.00000202,0.00000637,0.
 00003102,0.00004623,-0.00001682,-0.00003084,-0.00000117,0.00000432,0.0
 0000313,0.00000017,-0.00001259,0.00001869,0.00002146,-0.00000256,-0.00
 001896,-0.00000641,-0.00001158,0.00000457,0.00000275,0.00006369,-0.000
 00872,0.00003436,0.00001537,0.00000578,0.00000694,0.00001969,-0.000018
 68,-0.00002327,-0.00000508,0.00000471,-0.00000588,-0.00000483,-0.00000
 271,0.00000033,-0.00000164,-0.00000305,-0.00000014,0.00000392,0.000001
 10,-0.00000139,-0.00000429,-0.00000429,-0.00000243,0.00000291,-0.00000
 669,-0.00000412,-0.00000010,-0.00000353,-0.00000015,-0.00000279,-0.000
 00041,-0.00000680,0.00000256,0.00000178,-0.00000150,-0.00000775,0.0000
 0561,-0.00000944,0.00003451,-0.00003050,-0.00001743,-0.00000362,-0.000
 06106,-0.00027335,-0.00007480,-0.00009167,0.00015288,0.00078107,0.0003
 2112,-0.00011001,0.00130141,0.00007976,-0.00010876,-0.01465719,-0.0033
 5306,0.02081011,0.18274653,0.00000947,-0.00004265,-0.00004825,-0.00001
 120,0.00006531,0.00009210,0.00001748,-0.00003983,-0.00002134,-0.000014
 81,-0.00003437,-0.00001086,0.00021856,0.00010181,-0.00001115,0.0003054
 1,-0.00020568,0.00016476,-0.00152704,-0.00140534,0.00101128,0.00335961
 ,-0.00118966,0.00277554,-0.01844633,-0.00620027,0.01754995,-0.00148268
 ,0.00156230,0.00053878,0.00014664,0.00014606,-0.00020226,-0.00001530,-
 0.00020819,0.00014685,0.00000130,-0.00007268,0.00002979,-0.00000825,0.
 00003772,-0.00000991,0.00001141,0.00001843,-0.00002313,0.00000974,0.00
 002600,-0.00001972,0.00013571,-0.00020323,-0.00009434,-0.00007195,0.00
 004741,-0.00053315,0.00006872,-0.00101742,-0.00035809,0.01984459,0.003
 53047,-0.01856538,-0.02705757,-0.05012748,0.02792504,-0.00046634,-0.00
 022549,0.00010441,-0.00002010,-0.00002305,-0.00000210,0.00000124,0.000
 01666,-0.00000276,0.00000570,0.00000862,-0.00000132,0.00000526,0.00000
 317,0.00000302,0.00000719,0.00001617,0.00003101,-0.00002135,-0.0000167
 9,-0.00001516,-0.00000521,0.00001393,0.00000824,-0.00002944,0.00002288
 ,0.00002370,-0.00000338,-0.00002145,-0.00001492,-0.00006261,-0.0000369
 7,0.00002322,-0.00010961,-0.00009008,0.00009069,-0.00007939,-0.0000491
 3,0.00006260,-0.00003034,0.00003962,0.00003320,-0.00004126,-0.00000754
 ,0.00000263,-0.00000717,0.00000125,0.00001403,0.00000333,0.00000888,-0
 .00001360,0.00000800,-0.00000594,-0.00000145,-0.00000054,-0.00001011,0
 .00000206,-0.00001016,0.00001248,-0.00000434,-0.00001250,0.00000920,-0
 .00001309,0.00000462,-0.00000662,0.00001852,0.00000572,0.00000069,0.00
 000485,-0.00000893,0.00003834,0.00000323,0.00001238,-0.00003285,-0.000
 01470,-0.00007746,0.00047690,-0.00003098,-0.00008376,0.00018743,0.0000
 6386,-0.00073803,-0.00247923,-0.00453374,0.00048756,0.00146460,0.00149
 082,-0.00237769,-0.00021477,0.00331071,0.02815075,0.05611048,-0.000000
 76,0.00002127,0.00002368,-0.00000312,-0.00002526,-0.00004896,-0.000002
 14,0.00002366,-0.00000203,0.00000836,0.00001972,0.00000998,0.00008664,
 -0.00005889,0.00003003,-0.00021088,0.00004085,-0.00000636,0.00087039,0
 .00064626,-0.00034357,-0.00301248,-0.00049969,-0.00143143,0.01031126,0
 .00269888,-0.01040758,0.00202835,-0.00062663,0.00050942,-0.00064590,-0
 .00030330,0.00025051,-0.00001101,0.00022188,-0.00001039,-0.00001356,0.
 00003948,-0.00003858,0.00001650,-0.00003103,0.00001302,-0.00000101,-0.
 00001223,0.00002371,-0.00000109,-0.00001812,0.00001006,-0.00002695,0.0
 0017216,0.00001086,-0.00030312,0.00029967,0.00038306,-0.00056661,-0.00
 034315,-0.00003289,0.01278670,0.00253340,-0.01178959,0.12931186,0.0289
 4369,-0.18392807,0.00004524,-0.00025677,0.00024322,0.00001045,0.000011
 79,0.00000198,0.00000012,-0.00001064,0.00000309,-0.00000393,-0.0000039
 6,-0.00000003,-0.00000152,-0.00000018,-0.00000279,-0.00000316,0.000000
 95,-0.00000526,0.00000779,0.00000282,0.00001168,0.00000559,-0.00000617
 ,-0.00000741,0.00001418,-0.00001186,-0.00000940,0.00000093,0.00001044,
 0.00000904,0.00002107,0.00002239,-0.00001790,0.00007312,0.00004256,-0.
 00002954,0.00003643,0.00001335,-0.00001073,-0.00000190,-0.00000214,-0.
 00002958,0.00002953,0.00000332,-0.00000622,-0.00000027,-0.00000401,-0.
 00000878,-0.00000339,-0.00001033,0.00000809,-0.00000703,0.00000427,0.0
 0000188,-0.00000235,0.00000261,-0.00000446,0.00000654,-0.00001168,0.00
 000030,0.00000740,-0.00001089,0.00000885,-0.00000051,0.00000617,-0.000
 02007,-0.00001049,0.00000310,-0.00000031,-0.00003151,-0.00001018,0.000
 00648,-0.00000467,0.00003322,0.00003666,-0.00039045,0.00002554,-0.0006
 9051,-0.00045478,-0.00000445,-0.00013060,-0.00147149,-0.00109761,-0.00
 251173,0.00001392,0.00022829,0.00183457,-0.00770621,-0.00173345,0.0118
 1163,-0.14080009,-0.03097915,0.19628297\\0.00000027,0.00000117,-0.0000
 0280,-0.00000039,-0.00000239,-0.00000402,0.00000166,-0.00000328,0.0000
 0142,0.00000112,-0.00000121,-0.00000207,-0.00000069,-0.00000248,0.0000
 1310,0.00000111,0.00000232,-0.00000716,0.00000570,-0.00001727,0.000014
 34,-0.00001486,0.00002086,-0.00001500,0.00000715,-0.00001192,-0.000000
 77,0.00000249,0.00000535,0.00000811,-0.00000043,-0.00000257,-0.0000012
 3,-0.00000344,0.00000456,-0.00000226,0.00000112,-0.00000317,0.00000374
 ,0.00000153,0.00000167,0.00000126,0.00000023,0.00000299,0.00000226,-0.
 00000178,-0.00000046,-0.00000129,0.00000119,0.00000086,-0.00000013,0.0
 0000083,-0.00000254,-0.00000771,-0.00000588,0.00000670,0.00000218,0.00
 000164,-0.00000672,-0.00000233,-0.00000396,0.00000542,0.00000071,0.000
 00784,0.00000288,-0.00000059,0.00000074,-0.00000041,0.00000074,-0.0000
 0082,0.00000005,-0.00000065,0.00000053,-0.00000145,-0.00000064,0.00000
 068,-0.00000044,-0.00000158,-0.00000106,-0.00000170,-0.00000010,0.0000
 0060,-0.00000042,0.00000014,-0.00000065,-0.00000047,-0.00000169,-0.000
 00105,-0.00000445,0.00000015,0.00000127,-0.00000003,0.00000046,0.00000
 108,-0.00000083,-0.00000234,-0.00000083,0.00000115,0.00000132,-0.00000
 028,0.00000245,-0.00000098,-0.00000048,0.00000111,0.00000129,0.0000001
 2,-0.00000062,-0.00000030,0.00000054,0.00000006,0.00000167,-0.00000055
 ,0.00000094,-0.00000003,-0.00000007,-0.00000012,0.00000121,0.00000163,
 0.00000060,0.00000117,0.00000040,0.00000088,0.,0.,0.00000185,0.0000005
 2,0.00000049,0.00000045,0.00000012,-0.00000059,0.00000139,0.00000169,0
 .00000010,0.00000074,0.00000157,-0.00000095,-0.00000054,0.00000076,-0.
 00000187,-0.00000055,-0.00000102,0.00000010,-0.00000061,-0.00000073,0.
 00000070,0.00000067,-0.00000189,-0.00000095,0.00000063,-0.00000039,0.0
 0000011,-0.00000051,-0.00000073,-0.00000141,-0.00000059,0.00000051\\\@
 The archive entry for this job was punched.


  THE LARGE PRINT GIVETH,
  AND THE SMALL PRINT TAKETH AWAY.

                     -- TOM WAITS
 Job cpu time:       0 days  2 hours 34 minutes 28.7 seconds.
 Elapsed time:       0 days  0 hours  3 minutes 52.9 seconds.
 File lengths (MBytes):  RWF=    844 Int=      0 D2E=      0 Chk=     14 Scr=      1
 Normal termination of Gaussian 16 at Mon Feb 26 09:17:45 2024.
