 Entering Gaussian System, Link 0=g16
 Initial command:
 /public/apps/g16-C01//g16/l1.exe "/public/home/ljq/tmp/Gau-120592.inp" -scrdir="/public/home/ljq/tmp/"
 Entering Link 1 = /public/apps/g16-C01//g16/l1.exe PID=    120593.
  
 Copyright (c) 1988-2019, Gaussian, Inc.  All Rights Reserved.
  
 This is part of the Gaussian(R) 16 program.  It is based on
 the Gaussian(R) 09 system (copyright 2009, Gaussian, Inc.),
 the Gaussian(R) 03 system (copyright 2003, Gaussian, Inc.),
 the Gaussian(R) 98 system (copyright 1998, Gaussian, Inc.),
 the Gaussian(R) 94 system (copyright 1995, Gaussian, Inc.),
 the Gaussian 92(TM) system (copyright 1992, Gaussian, Inc.),
 the Gaussian 90(TM) system (copyright 1990, Gaussian, Inc.),
 the Gaussian 88(TM) system (copyright 1988, Gaussian, Inc.),
 the Gaussian 86(TM) system (copyright 1986, Carnegie Mellon
 University), and the Gaussian 82(TM) system (copyright 1983,
 Carnegie Mellon University). Gaussian is a federally registered
 trademark of Gaussian, Inc.
  
 This software contains proprietary and confidential information,
 including trade secrets, belonging to Gaussian, Inc.
  
 This software is provided under written license and may be
 used, copied, transmitted, or stored only in accord with that
 written license.
  
 The following legend is applicable only to US Government
 contracts under FAR:
  
                    RESTRICTED RIGHTS LEGEND
  
 Use, reproduction and disclosure by the US Government is
 subject to restrictions as set forth in subparagraphs (a)
 and (c) of the Commercial Computer Software - Restricted
 Rights clause in FAR 52.227-19.
  
 Gaussian, Inc.
 340 Quinnipiac St., Bldg. 40, Wallingford CT 06492
  
  
 ---------------------------------------------------------------
 Warning -- This program may not be used in any manner that
 competes with the business of Gaussian, Inc. or will provide
 assistance to any competitor of Gaussian, Inc.  The licensee
 of this program is prohibited from giving any competitor of
 Gaussian, Inc. access to this program.  By using this program,
 the user acknowledges that Gaussian, Inc. is engaged in the
 business of creating and licensing software in the field of
 computational chemistry and represents and warrants to the
 licensee that it is not a competitor of Gaussian, Inc. and that
 it will not use this program in any manner prohibited above.
 ---------------------------------------------------------------
  

 Cite this work as:
 Gaussian 16, Revision C.01,
 M. J. Frisch, G. W. Trucks, H. B. Schlegel, G. E. Scuseria, 
 M. A. Robb, J. R. Cheeseman, G. Scalmani, V. Barone, 
 G. A. Petersson, H. Nakatsuji, X. Li, M. Caricato, A. V. Marenich, 
 J. Bloino, B. G. Janesko, R. Gomperts, B. Mennucci, H. P. Hratchian, 
 J. V. Ortiz, A. F. Izmaylov, J. L. Sonnenberg, D. Williams-Young, 
 F. Ding, F. Lipparini, F. Egidi, J. Goings, B. Peng, A. Petrone, 
 T. Henderson, D. Ranasinghe, V. G. Zakrzewski, J. Gao, N. Rega, 
 G. Zheng, W. Liang, M. Hada, M. Ehara, K. Toyota, R. Fukuda, 
 J. Hasegawa, M. Ishida, T. Nakajima, Y. Honda, O. Kitao, H. Nakai, 
 T. Vreven, K. Throssell, J. A. Montgomery, Jr., J. E. Peralta, 
 F. Ogliaro, M. J. Bearpark, J. J. Heyd, E. N. Brothers, K. N. Kudin, 
 V. N. Staroverov, T. A. Keith, R. Kobayashi, J. Normand, 
 K. Raghavachari, A. P. Rendell, J. C. Burant, S. S. Iyengar, 
 J. Tomasi, M. Cossi, J. M. Millam, M. Klene, C. Adamo, R. Cammi, 
 J. W. Ochterski, R. L. Martin, K. Morokuma, O. Farkas, 
 J. B. Foresman, and D. J. Fox, Gaussian, Inc., Wallingford CT, 2019.
 
 ******************************************
 Gaussian 16:  ES64L-G16RevC.01  3-Jul-2019
                26-Feb-2024 
 ******************************************
 %nproc=40
 Will use up to   40 processors via shared memory.
 %mem=56GB
 ------------------------------------------
 #p opt freq b3lyp/def2svpp em=gd3bj nosymm
 ------------------------------------------
 1/18=20,19=15,26=3,38=1/1,3;
 2/9=110,12=2,15=1,17=6,18=5,40=1/2;
 3/5=43,7=202,11=2,25=1,30=1,71=1,74=-5,124=41/1,2,3;
 4//1;
 5/5=2,38=5/2;
 6/7=2,8=2,9=2,10=2,28=1/1;
 7/30=1/1,2,3,16;
 1/18=20,19=15,26=3/3(2);
 2/9=110,15=1/2;
 99//99;
 2/9=110,15=1/2;
 3/5=43,7=202,11=2,25=1,30=1,71=1,74=-5,124=41/1,2,3;
 4/5=5,16=3,69=1/1;
 5/5=2,38=5/2;
 7/30=1/1,2,3,16;
 1/18=20,19=15,26=3/3(-5);
 2/9=110,15=1/2;
 6/7=2,8=2,9=2,10=2,19=2,28=1/1;
 99/9=1/99;
 Leave Link    1 at Mon Feb 26 12:24:26 2024, MaxMem=  7516192768 cpu:               2.4 elap:               0.1
 (Enter /public/apps/g16-C01//g16/l101.exe)
 ----------------------
 $$$$Singlemol####0????
 ----------------------
 Symbolic Z-matrix:
 Charge =  0 Multiplicity = 1
 C                    -8.0075    1.19248  -0.40173 
 C                    -6.481     1.25735  -0.32796 
 C                    -6.05949   2.51056   0.44346 
 C                    -5.88204   1.31378  -1.73417 
 C                    -5.94227   0.03327   0.44941 
 C                    -6.23986  -1.35988  -0.17311 
 O                    -4.95656  -1.9261   -0.40524 
 C                    -4.04895  -1.00967   0.032 
 C                    -2.63353  -1.35195  -0.09722 
 C                    -2.25019  -2.59574  -0.60142 
 C                    -0.89627  -2.87287  -0.70454 
 C                     0.01742  -1.91417  -0.30674 
 C                    -0.46621  -0.69756   0.18415 
 C                     0.46406   0.35362   0.622 
 C                    -0.02102   1.55932   1.13787 
 C                     0.89141   2.51773   1.53906 
 C                     2.24558   2.24968   1.4175 
 C                     2.63046   1.01552   0.89118 
 C                     4.04672   0.68497   0.74193 
 N                     4.50253  -0.41761   0.32222 
 C                     5.94368  -0.34081   0.29922 
 C                     6.48651  -0.64875  -1.11619 
 C                     5.88506   0.30706  -2.14773 
 C                     6.07222  -2.08095  -1.46319 
 C                     8.01257  -0.54375  -1.11936 
 C                     6.23645   1.08281   0.851 
 O                     4.95127   1.64296   1.08693 
 N                     1.75921   0.09498   0.50319 
 N                    -1.76107  -0.42928   0.28276 
 N                    -4.50105   0.06614   0.51971 
 H                    -8.43685   1.12993   0.59596 
 H                    -8.34397   0.33031  -0.97267 
 H                    -8.39126   2.08872  -0.88373 
 H                    -6.524     2.5293    1.42671 
 H                    -6.35808   3.40584  -0.09684 
 H                    -4.98113   2.5137    0.57168 
 H                    -6.16079   0.44377  -2.32484 
 H                    -4.79703   1.35754  -1.67272 
 H                    -6.23725   2.20089  -2.25338 
 H                    -6.33354   0.09307   1.4721 
 H                    -6.79356  -2.01241   0.50732 
 H                    -6.77048  -1.30528  -1.12631 
 H                    -3.00214  -3.30952  -0.89715 
 H                    -0.56194  -3.82556  -1.0898 
 H                     1.08296  -2.06728  -0.35918 
 H                    -1.08677   1.70384   1.20749 
 H                     0.55595   3.46243   1.94259 
 H                     2.99673   2.96286   1.71667 
 H                     6.33548  -1.10823   0.97753 
 H                     4.80047   0.22634  -2.1387 
 H                     6.1572    1.34056  -1.94447 
 H                     6.24468   0.05368  -3.14232 
 H                     6.5401   -2.79009  -0.78412 
 H                     4.9943   -2.17959  -1.37553 
 H                     6.37236  -2.32608  -2.47927 
 H                     8.34411   0.47052  -0.90993 
 H                     8.39941  -0.83207  -2.09407 
 H                     8.44357  -1.2052   -0.37078 
 H                     6.78822   1.06038   1.79463 
 H                     6.76692   1.72272   0.1423 
 
 ITRead=  0  0  0  0  0  0  0  0  0  0  0  0  0  0  0  0  0  0  0  0
 ITRead=  0  0  0  0  0  0  0  0  0  0  0  0  0  0  0  0  0  0  0  0
 ITRead=  0  0  0  0  0  0  0  0  0  0  0  0  0  0  0  0  0  0  0  0
 MicOpt= -1 -1 -1 -1 -1 -1 -1 -1 -1 -1 -1 -1 -1 -1 -1 -1 -1 -1 -1 -1
 MicOpt= -1 -1 -1 -1 -1 -1 -1 -1 -1 -1 -1 -1 -1 -1 -1 -1 -1 -1 -1 -1
 MicOpt= -1 -1 -1 -1 -1 -1 -1 -1 -1 -1 -1 -1 -1 -1 -1 -1 -1 -1 -1 -1
 NAtoms=     60 NQM=       60 NQMF=       0 NMMI=      0 NMMIF=      0
                NMic=       0 NMicF=      0.
                    Isotopes and Nuclear Properties:
 (Nuclear quadrupole moments (NQMom) in fm**2, nuclear magnetic moments (NMagM)
  in nuclear magnetons)

  Atom         1           2           3           4           5           6           7           8           9          10
 IAtWgt=          12          12          12          12          12          12          16          12          12          12
 AtmWgt=  12.0000000  12.0000000  12.0000000  12.0000000  12.0000000  12.0000000  15.9949146  12.0000000  12.0000000  12.0000000
 NucSpn=           0           0           0           0           0           0           0           0           0           0
 AtZEff=  -0.0000000  -0.0000000  -0.0000000  -0.0000000  -0.0000000  -0.0000000  -0.0000000  -0.0000000  -0.0000000  -0.0000000
 NQMom=    0.0000000   0.0000000   0.0000000   0.0000000   0.0000000   0.0000000   0.0000000   0.0000000   0.0000000   0.0000000
 NMagM=    0.0000000   0.0000000   0.0000000   0.0000000   0.0000000   0.0000000   0.0000000   0.0000000   0.0000000   0.0000000
 AtZNuc=   6.0000000   6.0000000   6.0000000   6.0000000   6.0000000   6.0000000   8.0000000   6.0000000   6.0000000   6.0000000

  Atom        11          12          13          14          15          16          17          18          19          20
 IAtWgt=          12          12          12          12          12          12          12          12          12          14
 AtmWgt=  12.0000000  12.0000000  12.0000000  12.0000000  12.0000000  12.0000000  12.0000000  12.0000000  12.0000000  14.0030740
 NucSpn=           0           0           0           0           0           0           0           0           0           2
 AtZEff=  -0.0000000  -0.0000000  -0.0000000  -0.0000000  -0.0000000  -0.0000000  -0.0000000  -0.0000000  -0.0000000  -0.0000000
 NQMom=    0.0000000   0.0000000   0.0000000   0.0000000   0.0000000   0.0000000   0.0000000   0.0000000   0.0000000   2.0440000
 NMagM=    0.0000000   0.0000000   0.0000000   0.0000000   0.0000000   0.0000000   0.0000000   0.0000000   0.0000000   0.4037610
 AtZNuc=   6.0000000   6.0000000   6.0000000   6.0000000   6.0000000   6.0000000   6.0000000   6.0000000   6.0000000   7.0000000

  Atom        21          22          23          24          25          26          27          28          29          30
 IAtWgt=          12          12          12          12          12          12          16          14          14          14
 AtmWgt=  12.0000000  12.0000000  12.0000000  12.0000000  12.0000000  12.0000000  15.9949146  14.0030740  14.0030740  14.0030740
 NucSpn=           0           0           0           0           0           0           0           2           2           2
 AtZEff=  -0.0000000  -0.0000000  -0.0000000  -0.0000000  -0.0000000  -0.0000000  -0.0000000  -0.0000000  -0.0000000  -0.0000000
 NQMom=    0.0000000   0.0000000   0.0000000   0.0000000   0.0000000   0.0000000   0.0000000   2.0440000   2.0440000   2.0440000
 NMagM=    0.0000000   0.0000000   0.0000000   0.0000000   0.0000000   0.0000000   0.0000000   0.4037610   0.4037610   0.4037610
 AtZNuc=   6.0000000   6.0000000   6.0000000   6.0000000   6.0000000   6.0000000   8.0000000   7.0000000   7.0000000   7.0000000

  Atom        31          32          33          34          35          36          37          38          39          40
 IAtWgt=           1           1           1           1           1           1           1           1           1           1
 AtmWgt=   1.0078250   1.0078250   1.0078250   1.0078250   1.0078250   1.0078250   1.0078250   1.0078250   1.0078250   1.0078250
 NucSpn=           1           1           1           1           1           1           1           1           1           1
 AtZEff=  -0.0000000  -0.0000000  -0.0000000  -0.0000000  -0.0000000  -0.0000000  -0.0000000  -0.0000000  -0.0000000  -0.0000000
 NQMom=    0.0000000   0.0000000   0.0000000   0.0000000   0.0000000   0.0000000   0.0000000   0.0000000   0.0000000   0.0000000
 NMagM=    2.7928460   2.7928460   2.7928460   2.7928460   2.7928460   2.7928460   2.7928460   2.7928460   2.7928460   2.7928460
 AtZNuc=   1.0000000   1.0000000   1.0000000   1.0000000   1.0000000   1.0000000   1.0000000   1.0000000   1.0000000   1.0000000

  Atom        41          42          43          44          45          46          47          48          49          50
 IAtWgt=           1           1           1           1           1           1           1           1           1           1
 AtmWgt=   1.0078250   1.0078250   1.0078250   1.0078250   1.0078250   1.0078250   1.0078250   1.0078250   1.0078250   1.0078250
 NucSpn=           1           1           1           1           1           1           1           1           1           1
 AtZEff=  -0.0000000  -0.0000000  -0.0000000  -0.0000000  -0.0000000  -0.0000000  -0.0000000  -0.0000000  -0.0000000  -0.0000000
 NQMom=    0.0000000   0.0000000   0.0000000   0.0000000   0.0000000   0.0000000   0.0000000   0.0000000   0.0000000   0.0000000
 NMagM=    2.7928460   2.7928460   2.7928460   2.7928460   2.7928460   2.7928460   2.7928460   2.7928460   2.7928460   2.7928460
 AtZNuc=   1.0000000   1.0000000   1.0000000   1.0000000   1.0000000   1.0000000   1.0000000   1.0000000   1.0000000   1.0000000

  Atom        51          52          53          54          55          56          57          58          59          60
 IAtWgt=           1           1           1           1           1           1           1           1           1           1
 AtmWgt=   1.0078250   1.0078250   1.0078250   1.0078250   1.0078250   1.0078250   1.0078250   1.0078250   1.0078250   1.0078250
 NucSpn=           1           1           1           1           1           1           1           1           1           1
 AtZEff=  -0.0000000  -0.0000000  -0.0000000  -0.0000000  -0.0000000  -0.0000000  -0.0000000  -0.0000000  -0.0000000  -0.0000000
 NQMom=    0.0000000   0.0000000   0.0000000   0.0000000   0.0000000   0.0000000   0.0000000   0.0000000   0.0000000   0.0000000
 NMagM=    2.7928460   2.7928460   2.7928460   2.7928460   2.7928460   2.7928460   2.7928460   2.7928460   2.7928460   2.7928460
 AtZNuc=   1.0000000   1.0000000   1.0000000   1.0000000   1.0000000   1.0000000   1.0000000   1.0000000   1.0000000   1.0000000
 Leave Link  101 at Mon Feb 26 12:24:26 2024, MaxMem=  7516192768 cpu:              11.0 elap:               0.3
 (Enter /public/apps/g16-C01//g16/l103.exe)

 GradGradGradGradGradGradGradGradGradGradGradGradGradGradGradGradGradGrad
 Berny optimization.
 Initialization pass.
                           ----------------------------
                           !    Initial Parameters    !
                           ! (Angstroms and Degrees)  !
 --------------------------                            --------------------------
 ! Name  Definition              Value          Derivative Info.                !
 --------------------------------------------------------------------------------
 ! R1    R(1,2)                  1.5297         estimate D2E/DX2                !
 ! R2    R(1,31)                 1.0879         estimate D2E/DX2                !
 ! R3    R(1,32)                 1.0874         estimate D2E/DX2                !
 ! R4    R(1,33)                 1.0876         estimate D2E/DX2                !
 ! R5    R(2,3)                  1.5308         estimate D2E/DX2                !
 ! R6    R(2,4)                  1.5295         estimate D2E/DX2                !
 ! R7    R(2,5)                  1.5469         estimate D2E/DX2                !
 ! R8    R(3,34)                 1.0876         estimate D2E/DX2                !
 ! R9    R(3,35)                 1.0875         estimate D2E/DX2                !
 ! R10   R(3,36)                 1.086          estimate D2E/DX2                !
 ! R11   R(4,37)                 1.0879         estimate D2E/DX2                !
 ! R12   R(4,38)                 1.0876         estimate D2E/DX2                !
 ! R13   R(4,39)                 1.0875         estimate D2E/DX2                !
 ! R14   R(5,6)                  1.5547         estimate D2E/DX2                !
 ! R15   R(5,30)                 1.4433         estimate D2E/DX2                !
 ! R16   R(5,40)                 1.0966         estimate D2E/DX2                !
 ! R17   R(6,7)                  1.4217         estimate D2E/DX2                !
 ! R18   R(6,41)                 1.0933         estimate D2E/DX2                !
 ! R19   R(6,42)                 1.0923         estimate D2E/DX2                !
 ! R20   R(7,8)                  1.3619         estimate D2E/DX2                !
 ! R21   R(8,9)                  1.4619         estimate D2E/DX2                !
 ! R22   R(8,30)                 1.2648         estimate D2E/DX2                !
 ! R23   R(9,10)                 1.3958         estimate D2E/DX2                !
 ! R24   R(9,29)                 1.3255         estimate D2E/DX2                !
 ! R25   R(10,11)                1.3858         estimate D2E/DX2                !
 ! R26   R(10,43)                1.0781         estimate D2E/DX2                !
 ! R27   R(11,12)                1.3828         estimate D2E/DX2                !
 ! R28   R(11,44)                1.0807         estimate D2E/DX2                !
 ! R29   R(12,13)                1.3982         estimate D2E/DX2                !
 ! R30   R(12,45)                1.0778         estimate D2E/DX2                !
 ! R31   R(13,14)                1.4704         estimate D2E/DX2                !
 ! R32   R(13,29)                1.326          estimate D2E/DX2                !
 ! R33   R(14,15)                1.3983         estimate D2E/DX2                !
 ! R34   R(14,28)                1.3261         estimate D2E/DX2                !
 ! R35   R(15,16)                1.3828         estimate D2E/DX2                !
 ! R36   R(15,46)                1.0778         estimate D2E/DX2                !
 ! R37   R(16,17)                1.3858         estimate D2E/DX2                !
 ! R38   R(16,47)                1.0807         estimate D2E/DX2                !
 ! R39   R(17,18)                1.3958         estimate D2E/DX2                !
 ! R40   R(17,48)                1.0781         estimate D2E/DX2                !
 ! R41   R(18,19)                1.462          estimate D2E/DX2                !
 ! R42   R(18,28)                1.3255         estimate D2E/DX2                !
 ! R43   R(19,20)                1.2648         estimate D2E/DX2                !
 ! R44   R(19,27)                1.362          estimate D2E/DX2                !
 ! R45   R(20,21)                1.4434         estimate D2E/DX2                !
 ! R46   R(21,22)                1.5469         estimate D2E/DX2                !
 ! R47   R(21,26)                1.5546         estimate D2E/DX2                !
 ! R48   R(21,49)                1.0966         estimate D2E/DX2                !
 ! R49   R(22,23)                1.5295         estimate D2E/DX2                !
 ! R50   R(22,24)                1.5308         estimate D2E/DX2                !
 ! R51   R(22,25)                1.5297         estimate D2E/DX2                !
 ! R52   R(23,50)                1.0876         estimate D2E/DX2                !
 ! R53   R(23,51)                1.0879         estimate D2E/DX2                !
 ! R54   R(23,52)                1.0875         estimate D2E/DX2                !
 ! R55   R(24,53)                1.0876         estimate D2E/DX2                !
 ! R56   R(24,54)                1.086          estimate D2E/DX2                !
 ! R57   R(24,55)                1.0875         estimate D2E/DX2                !
 ! R58   R(25,56)                1.0874         estimate D2E/DX2                !
 ! R59   R(25,57)                1.0876         estimate D2E/DX2                !
 ! R60   R(25,58)                1.088          estimate D2E/DX2                !
 ! R61   R(26,27)                1.4217         estimate D2E/DX2                !
 ! R62   R(26,59)                1.0933         estimate D2E/DX2                !
 ! R63   R(26,60)                1.0923         estimate D2E/DX2                !
 ! A1    A(2,1,31)             110.6125         estimate D2E/DX2                !
 ! A2    A(2,1,32)             111.5754         estimate D2E/DX2                !
 ! A3    A(2,1,33)             109.7891         estimate D2E/DX2                !
 ! A4    A(31,1,32)            108.2869         estimate D2E/DX2                !
 ! A5    A(31,1,33)            108.3331         estimate D2E/DX2                !
 ! A6    A(32,1,33)            108.1483         estimate D2E/DX2                !
 ! A7    A(1,2,3)              109.5001         estimate D2E/DX2                !
 ! A8    A(1,2,4)              110.3665         estimate D2E/DX2                !
 ! A9    A(1,2,5)              109.7686         estimate D2E/DX2                !
 ! A10   A(3,2,4)              108.9825         estimate D2E/DX2                !
 ! A11   A(3,2,5)              107.3785         estimate D2E/DX2                !
 ! A12   A(4,2,5)              110.7836         estimate D2E/DX2                !
 ! A13   A(2,3,34)             110.6149         estimate D2E/DX2                !
 ! A14   A(2,3,35)             110.3657         estimate D2E/DX2                !
 ! A15   A(2,3,36)             109.5912         estimate D2E/DX2                !
 ! A16   A(34,3,35)            108.5243         estimate D2E/DX2                !
 ! A17   A(34,3,36)            108.4997         estimate D2E/DX2                !
 ! A18   A(35,3,36)            109.2037         estimate D2E/DX2                !
 ! A19   A(2,4,37)             111.6751         estimate D2E/DX2                !
 ! A20   A(2,4,38)             109.8893         estimate D2E/DX2                !
 ! A21   A(2,4,39)             109.9454         estimate D2E/DX2                !
 ! A22   A(37,4,38)            108.5702         estimate D2E/DX2                !
 ! A23   A(37,4,39)            108.0251         estimate D2E/DX2                !
 ! A24   A(38,4,39)            108.6621         estimate D2E/DX2                !
 ! A25   A(2,5,6)              116.1813         estimate D2E/DX2                !
 ! A26   A(2,5,30)             110.7453         estimate D2E/DX2                !
 ! A27   A(2,5,40)             107.5324         estimate D2E/DX2                !
 ! A28   A(6,5,30)             103.359          estimate D2E/DX2                !
 ! A29   A(6,5,40)             110.7322         estimate D2E/DX2                !
 ! A30   A(30,5,40)            108.0363         estimate D2E/DX2                !
 ! A31   A(5,6,7)              104.4471         estimate D2E/DX2                !
 ! A32   A(5,6,41)             112.4928         estimate D2E/DX2                !
 ! A33   A(5,6,42)             113.4299         estimate D2E/DX2                !
 ! A34   A(7,6,41)             108.7255         estimate D2E/DX2                !
 ! A35   A(7,6,42)             108.4155         estimate D2E/DX2                !
 ! A36   A(41,6,42)            109.0813         estimate D2E/DX2                !
 ! A37   A(6,7,8)              106.327          estimate D2E/DX2                !
 ! A38   A(7,8,9)              117.3418         estimate D2E/DX2                !
 ! A39   A(7,8,30)             117.2557         estimate D2E/DX2                !
 ! A40   A(9,8,30)             125.4022         estimate D2E/DX2                !
 ! A41   A(8,9,10)             120.4284         estimate D2E/DX2                !
 ! A42   A(8,9,29)             116.6775         estimate D2E/DX2                !
 ! A43   A(10,9,29)            122.894          estimate D2E/DX2                !
 ! A44   A(9,10,11)            118.2549         estimate D2E/DX2                !
 ! A45   A(9,10,43)            119.8351         estimate D2E/DX2                !
 ! A46   A(11,10,43)           121.91           estimate D2E/DX2                !
 ! A47   A(10,11,12)           119.0445         estimate D2E/DX2                !
 ! A48   A(10,11,44)           120.3365         estimate D2E/DX2                !
 ! A49   A(12,11,44)           120.6189         estimate D2E/DX2                !
 ! A50   A(11,12,13)           118.4046         estimate D2E/DX2                !
 ! A51   A(11,12,45)           122.7363         estimate D2E/DX2                !
 ! A52   A(13,12,45)           118.8591         estimate D2E/DX2                !
 ! A53   A(12,13,14)           120.5144         estimate D2E/DX2                !
 ! A54   A(12,13,29)           122.6771         estimate D2E/DX2                !
 ! A55   A(14,13,29)           116.8084         estimate D2E/DX2                !
 ! A56   A(13,14,15)           120.4525         estimate D2E/DX2                !
 ! A57   A(13,14,28)           116.8589         estimate D2E/DX2                !
 ! A58   A(15,14,28)           122.6886         estimate D2E/DX2                !
 ! A59   A(14,15,16)           118.4108         estimate D2E/DX2                !
 ! A60   A(14,15,46)           118.8495         estimate D2E/DX2                !
 ! A61   A(16,15,46)           122.7398         estimate D2E/DX2                !
 ! A62   A(15,16,17)           119.0313         estimate D2E/DX2                !
 ! A63   A(15,16,47)           120.6249         estimate D2E/DX2                !
 ! A64   A(17,16,47)           120.3437         estimate D2E/DX2                !
 ! A65   A(16,17,18)           118.2649         estimate D2E/DX2                !
 ! A66   A(16,17,48)           121.9064         estimate D2E/DX2                !
 ! A67   A(18,17,48)           119.8287         estimate D2E/DX2                !
 ! A68   A(17,18,19)           120.3667         estimate D2E/DX2                !
 ! A69   A(17,18,28)           122.9001         estimate D2E/DX2                !
 ! A70   A(19,18,28)           116.7332         estimate D2E/DX2                !
 ! A71   A(18,19,20)           125.459          estimate D2E/DX2                !
 ! A72   A(18,19,27)           117.2894         estimate D2E/DX2                !
 ! A73   A(20,19,27)           117.2514         estimate D2E/DX2                !
 ! A74   A(19,20,21)           108.5868         estimate D2E/DX2                !
 ! A75   A(20,21,22)           110.7542         estimate D2E/DX2                !
 ! A76   A(20,21,26)           103.3619         estimate D2E/DX2                !
 ! A77   A(20,21,49)           108.0372         estimate D2E/DX2                !
 ! A78   A(22,21,26)           116.1658         estimate D2E/DX2                !
 ! A79   A(22,21,49)           107.5357         estimate D2E/DX2                !
 ! A80   A(26,21,49)           110.7328         estimate D2E/DX2                !
 ! A81   A(21,22,23)           110.7761         estimate D2E/DX2                !
 ! A82   A(21,22,24)           107.3792         estimate D2E/DX2                !
 ! A83   A(21,22,25)           109.774          estimate D2E/DX2                !
 ! A84   A(23,22,24)           108.9879         estimate D2E/DX2                !
 ! A85   A(23,22,25)           110.366          estimate D2E/DX2                !
 ! A86   A(24,22,25)           109.4967         estimate D2E/DX2                !
 ! A87   A(22,23,50)           109.8865         estimate D2E/DX2                !
 ! A88   A(22,23,51)           111.6717         estimate D2E/DX2                !
 ! A89   A(22,23,52)           109.9477         estimate D2E/DX2                !
 ! A90   A(50,23,51)           108.5668         estimate D2E/DX2                !
 ! A91   A(50,23,52)           108.6659         estimate D2E/DX2                !
 ! A92   A(51,23,52)           108.0286         estimate D2E/DX2                !
 ! A93   A(22,24,53)           110.6138         estimate D2E/DX2                !
 ! A94   A(22,24,54)           109.5918         estimate D2E/DX2                !
 ! A95   A(22,24,55)           110.365          estimate D2E/DX2                !
 ! A96   A(53,24,54)           108.5042         estimate D2E/DX2                !
 ! A97   A(53,24,55)           108.5225         estimate D2E/DX2                !
 ! A98   A(54,24,55)           109.2023         estimate D2E/DX2                !
 ! A99   A(22,25,56)           111.5795         estimate D2E/DX2                !
 ! A100  A(22,25,57)           109.7861         estimate D2E/DX2                !
 ! A101  A(22,25,58)           110.6142         estimate D2E/DX2                !
 ! A102  A(56,25,57)           108.1443         estimate D2E/DX2                !
 ! A103  A(56,25,58)           108.2866         estimate D2E/DX2                !
 ! A104  A(57,25,58)           108.3346         estimate D2E/DX2                !
 ! A105  A(21,26,27)           104.4457         estimate D2E/DX2                !
 ! A106  A(21,26,59)           112.4937         estimate D2E/DX2                !
 ! A107  A(21,26,60)           113.4304         estimate D2E/DX2                !
 ! A108  A(27,26,59)           108.7277         estimate D2E/DX2                !
 ! A109  A(27,26,60)           108.4135         estimate D2E/DX2                !
 ! A110  A(59,26,60)           109.081          estimate D2E/DX2                !
 ! A111  A(19,27,26)           106.3326         estimate D2E/DX2                !
 ! A112  A(14,28,18)           118.7041         estimate D2E/DX2                !
 ! A113  A(9,29,13)            118.7246         estimate D2E/DX2                !
 ! A114  A(5,30,8)             108.5896         estimate D2E/DX2                !
 ! D1    D(31,1,2,3)           -61.2849         estimate D2E/DX2                !
 ! D2    D(31,1,2,4)           178.7453         estimate D2E/DX2                !
 ! D3    D(31,1,2,5)            56.3589         estimate D2E/DX2                !
 ! D4    D(32,1,2,3)           178.1028         estimate D2E/DX2                !
 ! D5    D(32,1,2,4)            58.133          estimate D2E/DX2                !
 ! D6    D(32,1,2,5)           -64.2534         estimate D2E/DX2                !
 ! D7    D(33,1,2,3)            58.2187         estimate D2E/DX2                !
 ! D8    D(33,1,2,4)           -61.7511         estimate D2E/DX2                !
 ! D9    D(33,1,2,5)           175.8625         estimate D2E/DX2                !
 ! D10   D(1,2,3,34)            55.5253         estimate D2E/DX2                !
 ! D11   D(1,2,3,35)           -64.5882         estimate D2E/DX2                !
 ! D12   D(1,2,3,36)           175.1109         estimate D2E/DX2                !
 ! D13   D(4,2,3,34)           176.3389         estimate D2E/DX2                !
 ! D14   D(4,2,3,35)            56.2253         estimate D2E/DX2                !
 ! D15   D(4,2,3,36)           -64.0755         estimate D2E/DX2                !
 ! D16   D(5,2,3,34)           -63.6048         estimate D2E/DX2                !
 ! D17   D(5,2,3,35)           176.2817         estimate D2E/DX2                !
 ! D18   D(5,2,3,36)            55.9808         estimate D2E/DX2                !
 ! D19   D(1,2,4,37)           -59.3342         estimate D2E/DX2                !
 ! D20   D(1,2,4,38)          -179.8797         estimate D2E/DX2                !
 ! D21   D(1,2,4,39)            60.5635         estimate D2E/DX2                !
 ! D22   D(3,2,4,37)          -179.6154         estimate D2E/DX2                !
 ! D23   D(3,2,4,38)            59.8391         estimate D2E/DX2                !
 ! D24   D(3,2,4,39)           -59.7176         estimate D2E/DX2                !
 ! D25   D(5,2,4,37)            62.4541         estimate D2E/DX2                !
 ! D26   D(5,2,4,38)           -58.0914         estimate D2E/DX2                !
 ! D27   D(5,2,4,39)          -177.6482         estimate D2E/DX2                !
 ! D28   D(1,2,5,6)             61.9164         estimate D2E/DX2                !
 ! D29   D(1,2,5,30)           179.4032         estimate D2E/DX2                !
 ! D30   D(1,2,5,40)           -62.765          estimate D2E/DX2                !
 ! D31   D(3,2,5,6)           -179.126          estimate D2E/DX2                !
 ! D32   D(3,2,5,30)           -61.6392         estimate D2E/DX2                !
 ! D33   D(3,2,5,40)            56.1926         estimate D2E/DX2                !
 ! D34   D(4,2,5,6)            -60.2219         estimate D2E/DX2                !
 ! D35   D(4,2,5,30)            57.2649         estimate D2E/DX2                !
 ! D36   D(4,2,5,40)           175.0966         estimate D2E/DX2                !
 ! D37   D(2,5,6,7)            120.2179         estimate D2E/DX2                !
 ! D38   D(2,5,6,41)          -122.0401         estimate D2E/DX2                !
 ! D39   D(2,5,6,42)             2.3663         estimate D2E/DX2                !
 ! D40   D(30,5,6,7)            -1.2785         estimate D2E/DX2                !
 ! D41   D(30,5,6,41)          116.4635         estimate D2E/DX2                !
 ! D42   D(30,5,6,42)         -119.1301         estimate D2E/DX2                !
 ! D43   D(40,5,6,7)          -116.7557         estimate D2E/DX2                !
 ! D44   D(40,5,6,41)            0.9863         estimate D2E/DX2                !
 ! D45   D(40,5,6,42)          125.3927         estimate D2E/DX2                !
 ! D46   D(2,5,30,8)          -123.6286         estimate D2E/DX2                !
 ! D47   D(6,5,30,8)             1.4622         estimate D2E/DX2                !
 ! D48   D(40,5,30,8)          118.8477         estimate D2E/DX2                !
 ! D49   D(5,6,7,8)              0.6874         estimate D2E/DX2                !
 ! D50   D(41,6,7,8)          -119.6089         estimate D2E/DX2                !
 ! D51   D(42,6,7,8)           121.9226         estimate D2E/DX2                !
 ! D52   D(6,7,8,9)           -179.9163         estimate D2E/DX2                !
 ! D53   D(6,7,8,30)             0.2646         estimate D2E/DX2                !
 ! D54   D(7,8,9,10)            -2.5042         estimate D2E/DX2                !
 ! D55   D(7,8,9,29)           177.385          estimate D2E/DX2                !
 ! D56   D(30,8,9,10)          177.2986         estimate D2E/DX2                !
 ! D57   D(30,8,9,29)           -2.8123         estimate D2E/DX2                !
 ! D58   D(7,8,30,5)            -1.1742         estimate D2E/DX2                !
 ! D59   D(9,8,30,5)           179.0229         estimate D2E/DX2                !
 ! D60   D(8,9,10,11)          179.9998         estimate D2E/DX2                !
 ! D61   D(8,9,10,43)           -0.0395         estimate D2E/DX2                !
 ! D62   D(29,9,10,11)           0.1177         estimate D2E/DX2                !
 ! D63   D(29,9,10,43)        -179.9216         estimate D2E/DX2                !
 ! D64   D(8,9,29,13)          179.935          estimate D2E/DX2                !
 ! D65   D(10,9,29,13)          -0.1789         estimate D2E/DX2                !
 ! D66   D(9,10,11,12)           0.016          estimate D2E/DX2                !
 ! D67   D(9,10,11,44)         179.9638         estimate D2E/DX2                !
 ! D68   D(43,10,11,12)       -179.9438         estimate D2E/DX2                !
 ! D69   D(43,10,11,44)          0.004          estimate D2E/DX2                !
 ! D70   D(10,11,12,13)         -0.0803         estimate D2E/DX2                !
 ! D71   D(10,11,12,45)        179.8712         estimate D2E/DX2                !
 ! D72   D(44,11,12,13)        179.9721         estimate D2E/DX2                !
 ! D73   D(44,11,12,45)         -0.0764         estimate D2E/DX2                !
 ! D74   D(11,12,13,14)        179.9043         estimate D2E/DX2                !
 ! D75   D(11,12,13,29)          0.0202         estimate D2E/DX2                !
 ! D76   D(45,12,13,14)         -0.0492         estimate D2E/DX2                !
 ! D77   D(45,12,13,29)       -179.9333         estimate D2E/DX2                !
 ! D78   D(12,13,14,15)       -178.7041         estimate D2E/DX2                !
 ! D79   D(12,13,14,28)          1.1917         estimate D2E/DX2                !
 ! D80   D(29,13,14,15)          1.1865         estimate D2E/DX2                !
 ! D81   D(29,13,14,28)       -178.9176         estimate D2E/DX2                !
 ! D82   D(12,13,29,9)           0.1083         estimate D2E/DX2                !
 ! D83   D(14,13,29,9)        -179.7799         estimate D2E/DX2                !
 ! D84   D(13,14,15,16)        179.8893         estimate D2E/DX2                !
 ! D85   D(13,14,15,46)         -0.0601         estimate D2E/DX2                !
 ! D86   D(28,14,15,16)         -0.0003         estimate D2E/DX2                !
 ! D87   D(28,14,15,46)       -179.9497         estimate D2E/DX2                !
 ! D88   D(13,14,28,18)       -179.7748         estimate D2E/DX2                !
 ! D89   D(15,14,28,18)          0.1185         estimate D2E/DX2                !
 ! D90   D(14,15,16,17)         -0.0711         estimate D2E/DX2                !
 ! D91   D(14,15,16,47)        179.9791         estimate D2E/DX2                !
 ! D92   D(46,15,16,17)        179.8762         estimate D2E/DX2                !
 ! D93   D(46,15,16,47)         -0.0737         estimate D2E/DX2                !
 ! D94   D(15,16,17,18)          0.0265         estimate D2E/DX2                !
 ! D95   D(15,16,17,48)       -179.9395         estimate D2E/DX2                !
 ! D96   D(47,16,17,18)        179.9765         estimate D2E/DX2                !
 ! D97   D(47,16,17,48)          0.0105         estimate D2E/DX2                !
 ! D98   D(16,17,18,19)        179.9675         estimate D2E/DX2                !
 ! D99   D(16,17,18,28)          0.0962         estimate D2E/DX2                !
 ! D100  D(48,17,18,19)         -0.0658         estimate D2E/DX2                !
 ! D101  D(48,17,18,28)       -179.9371         estimate D2E/DX2                !
 ! D102  D(17,18,19,20)        177.3781         estimate D2E/DX2                !
 ! D103  D(17,18,19,27)         -2.4388         estimate D2E/DX2                !
 ! D104  D(28,18,19,20)         -2.7429         estimate D2E/DX2                !
 ! D105  D(28,18,19,27)        177.4402         estimate D2E/DX2                !
 ! D106  D(17,18,28,14)         -0.1676         estimate D2E/DX2                !
 ! D107  D(19,18,28,14)        179.9567         estimate D2E/DX2                !
 ! D108  D(18,19,20,21)        179.0079         estimate D2E/DX2                !
 ! D109  D(27,19,20,21)         -1.1751         estimate D2E/DX2                !
 ! D110  D(18,19,27,26)       -179.9015         estimate D2E/DX2                !
 ! D111  D(20,19,27,26)          0.2663         estimate D2E/DX2                !
 ! D112  D(19,20,21,22)       -123.6168         estimate D2E/DX2                !
 ! D113  D(19,20,21,26)          1.4621         estimate D2E/DX2                !
 ! D114  D(19,20,21,49)        118.8501         estimate D2E/DX2                !
 ! D115  D(20,21,22,23)         57.1451         estimate D2E/DX2                !
 ! D116  D(20,21,22,24)        -61.7617         estimate D2E/DX2                !
 ! D117  D(20,21,22,25)        179.2814         estimate D2E/DX2                !
 ! D118  D(26,21,22,23)        -60.3415         estimate D2E/DX2                !
 ! D119  D(26,21,22,24)       -179.2482         estimate D2E/DX2                !
 ! D120  D(26,21,22,25)         61.7949         estimate D2E/DX2                !
 ! D121  D(49,21,22,23)        174.9848         estimate D2E/DX2                !
 ! D122  D(49,21,22,24)         56.0781         estimate D2E/DX2                !
 ! D123  D(49,21,22,25)        -62.8788         estimate D2E/DX2                !
 ! D124  D(20,21,26,27)         -1.2774         estimate D2E/DX2                !
 ! D125  D(20,21,26,59)        116.4668         estimate D2E/DX2                !
 ! D126  D(20,21,26,60)       -119.126          estimate D2E/DX2                !
 ! D127  D(22,21,26,27)        120.2232         estimate D2E/DX2                !
 ! D128  D(22,21,26,59)       -122.0325         estimate D2E/DX2                !
 ! D129  D(22,21,26,60)          2.3746         estimate D2E/DX2                !
 ! D130  D(49,21,26,27)       -116.7574         estimate D2E/DX2                !
 ! D131  D(49,21,26,59)          0.9868         estimate D2E/DX2                !
 ! D132  D(49,21,26,60)        125.394          estimate D2E/DX2                !
 ! D133  D(21,22,23,50)        -58.192          estimate D2E/DX2                !
 ! D134  D(21,22,23,51)         62.3453         estimate D2E/DX2                !
 ! D135  D(21,22,23,52)       -177.7532         estimate D2E/DX2                !
 ! D136  D(24,22,23,50)         59.7382         estimate D2E/DX2                !
 ! D137  D(24,22,23,51)       -179.7245         estimate D2E/DX2                !
 ! D138  D(24,22,23,52)        -59.823          estimate D2E/DX2                !
 ! D139  D(25,22,23,50)       -179.9817         estimate D2E/DX2                !
 ! D140  D(25,22,23,51)        -59.4444         estimate D2E/DX2                !
 ! D141  D(25,22,23,52)         60.4571         estimate D2E/DX2                !
 ! D142  D(21,22,24,53)        -63.7047         estimate D2E/DX2                !
 ! D143  D(21,22,24,54)         55.8861         estimate D2E/DX2                !
 ! D144  D(21,22,24,55)        176.185          estimate D2E/DX2                !
 ! D145  D(23,22,24,53)        176.2445         estimate D2E/DX2                !
 ! D146  D(23,22,24,54)        -64.1647         estimate D2E/DX2                !
 ! D147  D(23,22,24,55)         56.1342         estimate D2E/DX2                !
 ! D148  D(25,22,24,53)         55.4303         estimate D2E/DX2                !
 ! D149  D(25,22,24,54)        175.0211         estimate D2E/DX2                !
 ! D150  D(25,22,24,55)        -64.68           estimate D2E/DX2                !
 ! D151  D(21,22,25,56)        -64.3113         estimate D2E/DX2                !
 ! D152  D(21,22,25,57)        175.8091         estimate D2E/DX2                !
 ! D153  D(21,22,25,58)         56.3045         estimate D2E/DX2                !
 ! D154  D(23,22,25,56)         58.0689         estimate D2E/DX2                !
 ! D155  D(23,22,25,57)        -61.8107         estimate D2E/DX2                !
 ! D156  D(23,22,25,58)        178.6847         estimate D2E/DX2                !
 ! D157  D(24,22,25,56)        178.0429         estimate D2E/DX2                !
 ! D158  D(24,22,25,57)         58.1633         estimate D2E/DX2                !
 ! D159  D(24,22,25,58)        -61.3412         estimate D2E/DX2                !
 ! D160  D(21,26,27,19)          0.6858         estimate D2E/DX2                !
 ! D161  D(59,26,27,19)       -119.6119         estimate D2E/DX2                !
 ! D162  D(60,26,27,19)        121.9199         estimate D2E/DX2                !
 --------------------------------------------------------------------------------
 Trust Radius=3.00D-01 FncErr=1.00D-07 GrdErr=1.00D-06 EigMax=2.50D+02 EigMin=1.00D-04
 Number of steps in this run=    349 maximum allowed number of steps=    360.
 GradGradGradGradGradGradGradGradGradGradGradGradGradGradGradGradGradGrad

 Leave Link  103 at Mon Feb 26 12:24:27 2024, MaxMem=  7516192768 cpu:               1.6 elap:               0.1
 (Enter /public/apps/g16-C01//g16/l202.exe)
 Symmetry turned off by external request.
 Stoichiometry    C24H30N4O2
 Framework group  C1[X(C24H30N4O2)]
 Deg. of freedom   174
 Full point group                 C1      NOp   1
                          Input orientation:                          
 ---------------------------------------------------------------------
 Center     Atomic      Atomic             Coordinates (Angstroms)
 Number     Number       Type             X           Y           Z
 ---------------------------------------------------------------------
      1          6           0       -8.007495    1.192479   -0.401726
      2          6           0       -6.480999    1.257347   -0.327958
      3          6           0       -6.059488    2.510556    0.443455
      4          6           0       -5.882039    1.313775   -1.734170
      5          6           0       -5.942271    0.033272    0.449411
      6          6           0       -6.239860   -1.359878   -0.173110
      7          8           0       -4.956555   -1.926104   -0.405242
      8          6           0       -4.048951   -1.009670    0.032002
      9          6           0       -2.633528   -1.351945   -0.097215
     10          6           0       -2.250192   -2.595735   -0.601420
     11          6           0       -0.896272   -2.872868   -0.704536
     12          6           0        0.017424   -1.914174   -0.306741
     13          6           0       -0.466205   -0.697556    0.184154
     14          6           0        0.464057    0.353623    0.622003
     15          6           0       -0.021019    1.559320    1.137870
     16          6           0        0.891406    2.517727    1.539064
     17          6           0        2.245581    2.249682    1.417497
     18          6           0        2.630461    1.015523    0.891181
     19          6           0        4.046720    0.684967    0.741934
     20          7           0        4.502533   -0.417612    0.322222
     21          6           0        5.943684   -0.340809    0.299219
     22          6           0        6.486505   -0.648745   -1.116193
     23          6           0        5.885059    0.307056   -2.147731
     24          6           0        6.072216   -2.080950   -1.463191
     25          6           0        8.012565   -0.543750   -1.119355
     26          6           0        6.236454    1.082811    0.851002
     27          8           0        4.951268    1.642955    1.086935
     28          7           0        1.759206    0.094976    0.503194
     29          7           0       -1.761065   -0.429276    0.282760
     30          7           0       -4.501049    0.066143    0.519707
     31          1           0       -8.436851    1.129928    0.595958
     32          1           0       -8.343974    0.330308   -0.972669
     33          1           0       -8.391262    2.088715   -0.883731
     34          1           0       -6.523996    2.529298    1.426708
     35          1           0       -6.358076    3.405835   -0.096836
     36          1           0       -4.981133    2.513704    0.571684
     37          1           0       -6.160787    0.443772   -2.324841
     38          1           0       -4.797034    1.357538   -1.672722
     39          1           0       -6.237252    2.200890   -2.253381
     40          1           0       -6.333541    0.093073    1.472097
     41          1           0       -6.793556   -2.012413    0.507323
     42          1           0       -6.770482   -1.305282   -1.126309
     43          1           0       -3.002136   -3.309518   -0.897149
     44          1           0       -0.561935   -3.825559   -1.089804
     45          1           0        1.082962   -2.067281   -0.359178
     46          1           0       -1.086771    1.703839    1.207494
     47          1           0        0.555945    3.462426    1.942587
     48          1           0        2.996728    2.962856    1.716665
     49          1           0        6.335481   -1.108227    0.977534
     50          1           0        4.800472    0.226342   -2.138702
     51          1           0        6.157204    1.340561   -1.944467
     52          1           0        6.244676    0.053675   -3.142321
     53          1           0        6.540096   -2.790089   -0.784117
     54          1           0        4.994304   -2.179586   -1.375528
     55          1           0        6.372356   -2.326076   -2.479274
     56          1           0        8.344114    0.470522   -0.909929
     57          1           0        8.399411   -0.832065   -2.094071
     58          1           0        8.443570   -1.205197   -0.370783
     59          1           0        6.788223    1.060381    1.794626
     60          1           0        6.766924    1.722719    0.142295
 ---------------------------------------------------------------------
 Rotational constants (GHZ):           0.3950149           0.0527886           0.0488336
 Leave Link  202 at Mon Feb 26 12:24:27 2024, MaxMem=  7516192768 cpu:               2.2 elap:               0.1
 (Enter /public/apps/g16-C01//g16/l301.exe)
 Standard basis: def2SVPP (5D, 7F)
 Ernie: Thresh=  0.10000D-02 Tol=  0.10000D-05 Strict=F.
   480 basis functions,   870 primitive gaussians,   510 cartesian basis functions
   109 alpha electrons      109 beta electrons
       nuclear repulsion energy      2777.8503456884 Hartrees.
 IExCor=  402 DFT=T Ex+Corr=B3LYP ExCW=0 ScaHFX=  0.200000
 ScaDFX=  0.800000  0.720000  1.000000  0.810000 ScalE2=  1.000000  1.000000
 IRadAn=      5 IRanWt=     -1 IRanGd=            0 ICorTp=0 IEmpDi=141
 NAtoms=   60 NActive=   60 NUniq=   60 SFac= 1.00D+00 NAtFMM=   60 NAOKFM=T Big=T
 Integral buffers will be    131072 words long.
 Raffenetti 2 integral format.
 Two-electron integral symmetry is turned off.
 R6Disp:  Grimme-D3(BJ) Dispersion energy=       -0.1273972755 Hartrees.
 Nuclear repulsion after empirical dispersion term =     2777.7229484130 Hartrees.
 Leave Link  301 at Mon Feb 26 12:24:27 2024, MaxMem=  7516192768 cpu:               2.0 elap:               0.1
 (Enter /public/apps/g16-C01//g16/l302.exe)
 NPDir=0 NMtPBC=     1 NCelOv=     1 NCel=       1 NClECP=     1 NCelD=      1
         NCelK=      1 NCelE2=     1 NClLst=     1 CellRange=     0.0.
 One-electron integrals computed using PRISM.
   1 Symmetry operations used in ECPInt.
 ECPInt:  NShTT=   28920 NPrTT=  115920 LenC2=   22024 LenP2D=   56030.
 LDataN:  DoStor=T MaxTD1= 4 Len=   56
 NBasis=   480 RedAO= T EigKep=  3.97D-04  NBF=   480
 NBsUse=   480 1.00D-06 EigRej= -1.00D+00 NBFU=   480
 Precomputing XC quadrature grid using
 IXCGrd= 4 IRadAn=           5 IRanWt=          -1 IRanGd=           0 AccXCQ= 0.00D+00.
 Generated NRdTot=       0 NPtTot=           0 NUsed=           0 NTot=          32
 NSgBfM=   488   488   488   488   488 MxSgAt=    60 MxSgA2=    60.
 Leave Link  302 at Mon Feb 26 12:24:28 2024, MaxMem=  7516192768 cpu:              28.3 elap:               0.8
 (Enter /public/apps/g16-C01//g16/l303.exe)
 DipDrv:  MaxL=1.
 Leave Link  303 at Mon Feb 26 12:24:28 2024, MaxMem=  7516192768 cpu:               4.5 elap:               0.2
 (Enter /public/apps/g16-C01//g16/l401.exe)
 ExpMin= 1.22D-01 ExpMax= 2.27D+03 ExpMxC= 3.41D+02 IAcc=3 IRadAn=         5 AccDes= 0.00D+00
 Harris functional with IExCor=  402 and IRadAn=       5 diagonalized for initial guess.
 HarFok:  IExCor=  402 AccDes= 0.00D+00 IRadAn=         5 IDoV= 1 UseB2=F ITyADJ=14
 ICtDFT=  3500011 ScaDFX=  1.000000  1.000000  1.000000  1.000000
 FoFCou: FMM=F IPFlag=           0 FMFlag=      100000 FMFlg1=        2001
         NFxFlg=           0 DoJE=T BraDBF=F KetDBF=T FulRan=T
         wScrn=  0.000000 ICntrl=       500 IOpCl=  0 I1Cent=   200000004 NGrid=           0
         NMat0=    1 NMatS0=      1 NMatT0=    0 NMatD0=    1 NMtDS0=    0 NMtDT0=    0
 Symmetry not used in FoFCou.
 Harris En= -1301.13452983778    
 JPrj=0 DoOrth=F DoCkMO=F.
 Leave Link  401 at Mon Feb 26 12:24:29 2024, MaxMem=  7516192768 cpu:              36.4 elap:               1.0
 (Enter /public/apps/g16-C01//g16/l502.exe)
 Two-electron integral symmetry not used.
 Closed shell SCF:
 Using DIIS extrapolation, IDIIS=  1040.
 NGot=  7516192768 LenX=  7515646212 LenY=  7515385602
 Requested convergence on RMS density matrix=1.00D-08 within 128 cycles.
 Requested convergence on MAX density matrix=1.00D-06.
 Requested convergence on             energy=1.00D-06.
 No special actions if energy rises.
 Fock matrices will be formed incrementally for  20 cycles.
 Integral accuracy reduced to 1.0D-05 until final iterations.

 Cycle   1  Pass 0  IDiag  1:
 FoFJK:  IHMeth= 1 ICntrl=       0 DoSepK=F KAlg= 0 I1Cent=           0 FoldK=F
 IRaf= 900000000 NMat=       1 IRICut=       1 DoRegI=T DoRafI=F ISym2E= 0 IDoP0=0 IntGTp=1.
 FoFCou: FMM=T IPFlag=           0 FMFlag=      100000 FMFlg1=        2001
         NFxFlg=           0 DoJE=F BraDBF=F KetDBF=F FulRan=T
         wScrn=  0.000000 ICntrl=         0 IOpCl=  0 I1Cent=           0 NGrid=           0
         NMat0=    1 NMatS0=      1 NMatT0=    0 NMatD0=    1 NMtDS0=    0 NMtDT0=    0
 Symmetry not used in FoFCou.
 FMM levels:  10  Number of levels for PrismC:   9
 E= -1300.49083477011    
 DIIS: error= 4.38D-02 at cycle   1 NSaved=   1.
 NSaved= 1 IEnMin= 1 EnMin= -1300.49083477011     IErMin= 1 ErrMin= 4.38D-02
 ErrMax= 4.38D-02  0.00D+00 EMaxC= 1.00D-01 BMatC= 6.41D-01 BMatP= 6.41D-01
 IDIUse=3 WtCom= 5.62D-01 WtEn= 4.38D-01
 Coeff-Com:  0.100D+01
 Coeff-En:   0.100D+01
 Coeff:      0.100D+01
 Gap=     0.165 Goal=   None    Shift=    0.000
 GapD=    0.165 DampG=1.000 DampE=0.500 DampFc=0.5000 IDamp=-1.
 Damping current iteration by 5.00D-01
 RMSDP=4.80D-03 MaxDP=1.79D-01              OVMax= 2.32D-01

 Cycle   2  Pass 0  IDiag  1:
 RMSU=  2.36D-03    CP:  9.74D-01
 E= -1300.76594876560     Delta-E=       -0.275113995495 Rises=F Damp=T
 DIIS: error= 6.50D-03 at cycle   2 NSaved=   2.
 NSaved= 2 IEnMin= 2 EnMin= -1300.76594876560     IErMin= 2 ErrMin= 6.50D-03
 ErrMax= 6.50D-03  0.00D+00 EMaxC= 1.00D-01 BMatC= 5.38D-02 BMatP= 6.41D-01
 IDIUse=3 WtCom= 9.35D-01 WtEn= 6.50D-02
 Coeff-Com:  0.120D+00 0.880D+00
 Coeff-En:   0.194D+00 0.806D+00
 Coeff:      0.125D+00 0.875D+00
 Gap=     0.236 Goal=   None    Shift=    0.000
 RMSDP=1.64D-03 MaxDP=6.27D-02 DE=-2.75D-01 OVMax= 2.20D-01

 Cycle   3  Pass 0  IDiag  1:
 RMSU=  1.59D-03    CP:  9.60D-01  8.67D-01
 E= -1301.11720514226     Delta-E=       -0.351256376656 Rises=F Damp=F
 DIIS: error= 1.04D-02 at cycle   3 NSaved=   3.
 NSaved= 3 IEnMin= 3 EnMin= -1301.11720514226     IErMin= 2 ErrMin= 6.50D-03
 ErrMax= 1.04D-02  0.00D+00 EMaxC= 1.00D-01 BMatC= 7.11D-02 BMatP= 5.38D-02
 IDIUse=2 WtCom= 0.00D+00 WtEn= 1.00D+00
 Coeff-En:   0.000D+00 0.000D+00 0.100D+01
 Coeff:      0.000D+00 0.000D+00 0.100D+01
 Gap=     0.185 Goal=   None    Shift=    0.000
 RMSDP=2.07D-03 MaxDP=1.21D-01 DE=-3.51D-01 OVMax= 2.53D-01

 Cycle   4  Pass 0  IDiag  1:
 RMSU=  1.32D-03    CP:  9.65D-01  1.17D+00  1.07D-01
 E= -1300.84088693993     Delta-E=        0.276318202327 Rises=F Damp=F
 DIIS: error= 2.74D-02 at cycle   4 NSaved=   4.
 NSaved= 4 IEnMin= 3 EnMin= -1301.11720514226     IErMin= 2 ErrMin= 6.50D-03
 ErrMax= 2.74D-02  0.00D+00 EMaxC= 1.00D-01 BMatC= 3.72D-01 BMatP= 5.38D-02
 IDIUse=2 WtCom= 0.00D+00 WtEn= 1.00D+00
 Coeff-En:   0.000D+00 0.000D+00 0.783D+00 0.217D+00
 Coeff:      0.000D+00 0.000D+00 0.783D+00 0.217D+00
 Gap=     0.187 Goal=   None    Shift=    0.000
 RMSDP=1.09D-03 MaxDP=6.16D-02 DE= 2.76D-01 OVMax= 1.34D-01

 Cycle   5  Pass 0  IDiag  1:
 RMSU=  2.09D-04    CP:  9.63D-01  9.76D-01  5.31D-01  4.76D-01
 E= -1301.15981445179     Delta-E=       -0.318927511857 Rises=F Damp=F
 DIIS: error= 6.82D-03 at cycle   5 NSaved=   5.
 NSaved= 5 IEnMin= 5 EnMin= -1301.15981445179     IErMin= 2 ErrMin= 6.50D-03
 ErrMax= 6.82D-03  0.00D+00 EMaxC= 1.00D-01 BMatC= 2.61D-02 BMatP= 5.38D-02
 IDIUse=3 WtCom= 9.32D-01 WtEn= 6.82D-02
 Coeff-Com:  0.364D-02 0.994D-02 0.322D+00-0.519D-01 0.716D+00
 Coeff-En:   0.000D+00 0.000D+00 0.315D+00 0.000D+00 0.685D+00
 Coeff:      0.339D-02 0.926D-02 0.322D+00-0.484D-01 0.714D+00
 Gap=     0.179 Goal=   None    Shift=    0.000
 RMSDP=4.00D-04 MaxDP=2.20D-02 DE=-3.19D-01 OVMax= 4.65D-02

 Cycle   6  Pass 0  IDiag  1:
 RMSU=  7.87D-05    CP:  9.62D-01  9.25D-01  7.02D-01  2.87D-01  7.38D-01
 E= -1301.18388606788     Delta-E=       -0.024071616093 Rises=F Damp=F
 DIIS: error= 6.21D-04 at cycle   6 NSaved=   6.
 NSaved= 6 IEnMin= 6 EnMin= -1301.18388606788     IErMin= 6 ErrMin= 6.21D-04
 ErrMax= 6.21D-04  0.00D+00 EMaxC= 1.00D-01 BMatC= 1.68D-04 BMatP= 2.61D-02
 IDIUse=3 WtCom= 9.94D-01 WtEn= 6.21D-03
 Coeff-Com:  0.399D-04 0.161D-02 0.139D+00-0.531D-01 0.432D+00 0.480D+00
 Coeff-En:   0.000D+00 0.000D+00 0.000D+00 0.000D+00 0.000D+00 0.100D+01
 Coeff:      0.397D-04 0.160D-02 0.139D+00-0.528D-01 0.430D+00 0.483D+00
 Gap=     0.178 Goal=   None    Shift=    0.000
 RMSDP=4.33D-05 MaxDP=1.50D-03 DE=-2.41D-02 OVMax= 4.42D-03

 Cycle   7  Pass 0  IDiag  1:
 RMSU=  2.25D-05    CP:  9.62D-01  9.26D-01  6.98D-01  2.93D-01  8.14D-01
                    CP:  5.95D-01
 E= -1301.18406230554     Delta-E=       -0.000176237658 Rises=F Damp=F
 DIIS: error= 1.91D-04 at cycle   7 NSaved=   7.
 NSaved= 7 IEnMin= 7 EnMin= -1301.18406230554     IErMin= 7 ErrMin= 1.91D-04
 ErrMax= 1.91D-04  0.00D+00 EMaxC= 1.00D-01 BMatC= 1.75D-05 BMatP= 1.68D-04
 IDIUse=3 WtCom= 9.98D-01 WtEn= 1.91D-03
 Coeff-Com: -0.174D-03 0.187D-03 0.645D-01-0.305D-01 0.221D+00 0.300D+00
 Coeff-Com:  0.445D+00
 Coeff-En:   0.000D+00 0.000D+00 0.000D+00 0.000D+00 0.000D+00 0.818D-02
 Coeff-En:   0.992D+00
 Coeff:     -0.173D-03 0.187D-03 0.644D-01-0.305D-01 0.220D+00 0.300D+00
 Coeff:      0.446D+00
 Gap=     0.178 Goal=   None    Shift=    0.000
 RMSDP=1.26D-05 MaxDP=5.77D-04 DE=-1.76D-04 OVMax= 1.30D-03

 Cycle   8  Pass 0  IDiag  1:
 RMSU=  6.37D-06    CP:  9.62D-01  9.27D-01  6.99D-01  2.92D-01  8.05D-01
                    CP:  6.20D-01  5.47D-01
 E= -1301.18408464439     Delta-E=       -0.000022338846 Rises=F Damp=F
 DIIS: error= 4.11D-05 at cycle   8 NSaved=   8.
 NSaved= 8 IEnMin= 8 EnMin= -1301.18408464439     IErMin= 8 ErrMin= 4.11D-05
 ErrMax= 4.11D-05  0.00D+00 EMaxC= 1.00D-01 BMatC= 1.06D-06 BMatP= 1.75D-05
 IDIUse=1 WtCom= 1.00D+00 WtEn= 0.00D+00
 Coeff-Com:  0.309D-04-0.271D-03 0.128D-01-0.737D-02 0.463D-01 0.747D-01
 Coeff-Com:  0.209D+00 0.665D+00
 Coeff:      0.309D-04-0.271D-03 0.128D-01-0.737D-02 0.463D-01 0.747D-01
 Coeff:      0.209D+00 0.665D+00
 Gap=     0.178 Goal=   None    Shift=    0.000
 RMSDP=4.91D-06 MaxDP=1.61D-04 DE=-2.23D-05 OVMax= 3.04D-04

 Initial convergence to 1.0D-05 achieved.  Increase integral accuracy.
 Cycle   9  Pass 1  IDiag  1:
 E= -1301.18396251442     Delta-E=        0.000122129970 Rises=F Damp=F
 DIIS: error= 2.69D-04 at cycle   1 NSaved=   1.
 NSaved= 1 IEnMin= 1 EnMin= -1301.18396251442     IErMin= 1 ErrMin= 2.69D-04
 ErrMax= 2.69D-04  0.00D+00 EMaxC= 1.00D-01 BMatC= 1.54D-05 BMatP= 1.54D-05
 IDIUse=3 WtCom= 9.97D-01 WtEn= 2.69D-03
 Coeff-Com:  0.100D+01
 Coeff-En:   0.100D+01
 Coeff:      0.100D+01
 Gap=     0.178 Goal=   None    Shift=    0.000
 RMSDP=4.91D-06 MaxDP=1.61D-04 DE= 1.22D-04 OVMax= 6.65D-04

 Cycle  10  Pass 1  IDiag  1:
 RMSU=  2.08D-04    CP:  1.00D+00
 E= -1301.18397972037     Delta-E=       -0.000017205950 Rises=F Damp=F
 DIIS: error= 2.31D-05 at cycle   2 NSaved=   2.
 NSaved= 2 IEnMin= 2 EnMin= -1301.18397972037     IErMin= 2 ErrMin= 2.31D-05
 ErrMax= 2.31D-05  0.00D+00 EMaxC= 1.00D-01 BMatC= 3.47D-07 BMatP= 1.54D-05
 IDIUse=1 WtCom= 1.00D+00 WtEn= 0.00D+00
 Coeff-Com:  0.241D-01 0.976D+00
 Coeff:      0.241D-01 0.976D+00
 Gap=     0.178 Goal=   None    Shift=    0.000
 RMSDP=5.11D-06 MaxDP=1.75D-04 DE=-1.72D-05 OVMax= 4.79D-04

 Cycle  11  Pass 1  IDiag  1:
 RMSU=  4.36D-06    CP:  1.00D+00  1.01D+00
 E= -1301.18397890102     Delta-E=        0.000000819341 Rises=F Damp=F
 DIIS: error= 4.47D-05 at cycle   3 NSaved=   3.
 NSaved= 3 IEnMin= 2 EnMin= -1301.18397972037     IErMin= 2 ErrMin= 2.31D-05
 ErrMax= 4.47D-05  0.00D+00 EMaxC= 1.00D-01 BMatC= 1.13D-06 BMatP= 3.47D-07
 IDIUse=1 WtCom= 1.00D+00 WtEn= 0.00D+00
 Coeff-Com: -0.578D-02 0.648D+00 0.357D+00
 Coeff:     -0.578D-02 0.648D+00 0.357D+00
 Gap=     0.178 Goal=   None    Shift=    0.000
 RMSDP=2.81D-06 MaxDP=1.24D-04 DE= 8.19D-07 OVMax= 3.27D-04

 Cycle  12  Pass 1  IDiag  1:
 RMSU=  8.71D-07    CP:  1.00D+00  1.01D+00  3.89D-01
 E= -1301.18398006936     Delta-E=       -0.000001168339 Rises=F Damp=F
 DIIS: error= 4.47D-06 at cycle   4 NSaved=   4.
 NSaved= 4 IEnMin= 4 EnMin= -1301.18398006936     IErMin= 4 ErrMin= 4.47D-06
 ErrMax= 4.47D-06  0.00D+00 EMaxC= 1.00D-01 BMatC= 1.55D-08 BMatP= 3.47D-07
 IDIUse=1 WtCom= 1.00D+00 WtEn= 0.00D+00
 Coeff-Com: -0.404D-02 0.380D+00 0.220D+00 0.404D+00
 Coeff:     -0.404D-02 0.380D+00 0.220D+00 0.404D+00
 Gap=     0.178 Goal=   None    Shift=    0.000
 RMSDP=3.13D-07 MaxDP=1.16D-05 DE=-1.17D-06 OVMax= 2.56D-05

 Cycle  13  Pass 1  IDiag  1:
 RMSU=  2.56D-07    CP:  1.00D+00  1.01D+00  4.06D-01  8.11D-01
 E= -1301.18398008443     Delta-E=       -0.000000015070 Rises=F Damp=F
 DIIS: error= 6.04D-07 at cycle   5 NSaved=   5.
 NSaved= 5 IEnMin= 5 EnMin= -1301.18398008443     IErMin= 5 ErrMin= 6.04D-07
 ErrMax= 6.04D-07  0.00D+00 EMaxC= 1.00D-01 BMatC= 2.23D-10 BMatP= 1.55D-08
 IDIUse=1 WtCom= 1.00D+00 WtEn= 0.00D+00
 Coeff-Com: -0.172D-02 0.157D+00 0.919D-01 0.192D+00 0.560D+00
 Coeff:     -0.172D-02 0.157D+00 0.919D-01 0.192D+00 0.560D+00
 Gap=     0.178 Goal=   None    Shift=    0.000
 RMSDP=6.40D-08 MaxDP=1.88D-06 DE=-1.51D-08 OVMax= 4.65D-06

 Cycle  14  Pass 1  IDiag  1:
 RMSU=  6.27D-08    CP:  1.00D+00  1.01D+00  4.05D-01  8.12D-01  9.62D-01
 E= -1301.18398008463     Delta-E=       -0.000000000200 Rises=F Damp=F
 DIIS: error= 2.34D-07 at cycle   6 NSaved=   6.
 NSaved= 6 IEnMin= 6 EnMin= -1301.18398008463     IErMin= 6 ErrMin= 2.34D-07
 ErrMax= 2.34D-07  0.00D+00 EMaxC= 1.00D-01 BMatC= 2.93D-11 BMatP= 2.23D-10
 IDIUse=1 WtCom= 1.00D+00 WtEn= 0.00D+00
 Coeff-Com: -0.239D-03 0.206D-01 0.126D-01 0.338D-01 0.282D+00 0.651D+00
 Coeff:     -0.239D-03 0.206D-01 0.126D-01 0.338D-01 0.282D+00 0.651D+00
 Gap=     0.178 Goal=   None    Shift=    0.000
 RMSDP=2.31D-08 MaxDP=7.38D-07 DE=-2.00D-10 OVMax= 2.14D-06

 Cycle  15  Pass 1  IDiag  1:
 RMSU=  1.59D-08    CP:  1.00D+00  1.01D+00  4.05D-01  8.19D-01  9.87D-01
                    CP:  7.89D-01
 E= -1301.18398008466     Delta-E=       -0.000000000023 Rises=F Damp=F
 DIIS: error= 1.96D-07 at cycle   7 NSaved=   7.
 NSaved= 7 IEnMin= 7 EnMin= -1301.18398008466     IErMin= 7 ErrMin= 1.96D-07
 ErrMax= 1.96D-07  0.00D+00 EMaxC= 1.00D-01 BMatC= 8.38D-12 BMatP= 2.93D-11
 IDIUse=1 WtCom= 1.00D+00 WtEn= 0.00D+00
 Coeff-Com:  0.442D-05-0.126D-02-0.296D-03 0.386D-02 0.130D+00 0.427D+00
 Coeff-Com:  0.441D+00
 Coeff:      0.442D-05-0.126D-02-0.296D-03 0.386D-02 0.130D+00 0.427D+00
 Coeff:      0.441D+00
 Gap=     0.178 Goal=   None    Shift=    0.000
 RMSDP=8.17D-09 MaxDP=3.83D-07 DE=-2.32D-11 OVMax= 7.78D-07

 SCF Done:  E(RB3LYP) =  -1301.18398008     A.U. after   15 cycles
            NFock= 15  Conv=0.82D-08     -V/T= 2.0092
 KE= 1.289276918014D+03 PE=-8.576494800038D+03 EE= 3.208310953526D+03
 Leave Link  502 at Mon Feb 26 12:24:49 2024, MaxMem=  7516192768 cpu:             781.7 elap:              20.0
 (Enter /public/apps/g16-C01//g16/l601.exe)
 Copying SCF densities to generalized density rwf, IOpCl= 0 IROHF=0.

 **********************************************************************

            Population analysis using the SCF Density.

 **********************************************************************

 Alpha  occ. eigenvalues --  -19.16693 -19.16688 -14.32320 -14.32314 -14.29929
 Alpha  occ. eigenvalues --  -14.29928 -10.26871 -10.26870 -10.23445 -10.23441
 Alpha  occ. eigenvalues --  -10.23321 -10.23319 -10.22670 -10.22653 -10.21066
 Alpha  occ. eigenvalues --  -10.21065 -10.20444 -10.20437 -10.19786 -10.19779
 Alpha  occ. eigenvalues --  -10.19251 -10.19250 -10.19171 -10.19161 -10.16790
 Alpha  occ. eigenvalues --  -10.16789 -10.16090 -10.16088 -10.15486 -10.15486
 Alpha  occ. eigenvalues --   -1.08563  -1.08561  -0.96194  -0.94543  -0.90198
 Alpha  occ. eigenvalues --   -0.90097  -0.82397  -0.81851  -0.80760  -0.80491
 Alpha  occ. eigenvalues --   -0.79589  -0.77298  -0.74097  -0.72447  -0.68345
 Alpha  occ. eigenvalues --   -0.68327  -0.67823  -0.67804  -0.66382  -0.66021
 Alpha  occ. eigenvalues --   -0.64135  -0.63867  -0.63144  -0.60356  -0.57214
 Alpha  occ. eigenvalues --   -0.57048  -0.54343  -0.53930  -0.52986  -0.51795
 Alpha  occ. eigenvalues --   -0.50467  -0.50374  -0.50106  -0.49023  -0.48592
 Alpha  occ. eigenvalues --   -0.48259  -0.46812  -0.45881  -0.45566  -0.44330
 Alpha  occ. eigenvalues --   -0.44310  -0.44010  -0.43977  -0.43621  -0.43080
 Alpha  occ. eigenvalues --   -0.42826  -0.42109  -0.41254  -0.41226  -0.40570
 Alpha  occ. eigenvalues --   -0.40135  -0.39360  -0.39070  -0.38724  -0.38387
 Alpha  occ. eigenvalues --   -0.38054  -0.37737  -0.37144  -0.36783  -0.36470
 Alpha  occ. eigenvalues --   -0.36372  -0.36059  -0.35856  -0.33388  -0.33385
 Alpha  occ. eigenvalues --   -0.32944  -0.32937  -0.31815  -0.31809  -0.30723
 Alpha  occ. eigenvalues --   -0.29974  -0.28919  -0.27686  -0.26943  -0.26242
 Alpha  occ. eigenvalues --   -0.25489  -0.25190  -0.24252  -0.23698
 Alpha virt. eigenvalues --   -0.05870  -0.05760  -0.04501   0.00568   0.04650
 Alpha virt. eigenvalues --    0.04988   0.05632   0.07365   0.07598   0.07672
 Alpha virt. eigenvalues --    0.08359   0.08659   0.08718   0.09023   0.09496
 Alpha virt. eigenvalues --    0.09756   0.11057   0.11078   0.11871   0.11997
 Alpha virt. eigenvalues --    0.12675   0.12731   0.13497   0.13709   0.14707
 Alpha virt. eigenvalues --    0.14898   0.15232   0.15582   0.15656   0.15925
 Alpha virt. eigenvalues --    0.16079   0.17170   0.17419   0.17529   0.17571
 Alpha virt. eigenvalues --    0.18708   0.18760   0.18921   0.18950   0.19229
 Alpha virt. eigenvalues --    0.20551   0.20697   0.20917   0.21068   0.22427
 Alpha virt. eigenvalues --    0.22761   0.23436   0.23481   0.24122   0.24210
 Alpha virt. eigenvalues --    0.24704   0.24933   0.25480   0.25583   0.26351
 Alpha virt. eigenvalues --    0.27249   0.27556   0.28717   0.28977   0.29702
 Alpha virt. eigenvalues --    0.31914   0.32263   0.33612   0.33898   0.35374
 Alpha virt. eigenvalues --    0.36231   0.36931   0.37894   0.39052   0.39210
 Alpha virt. eigenvalues --    0.39313   0.40150   0.40305   0.41434   0.41461
 Alpha virt. eigenvalues --    0.42197   0.42221   0.42463   0.42922   0.43824
 Alpha virt. eigenvalues --    0.44743   0.45484   0.45684   0.45740   0.46596
 Alpha virt. eigenvalues --    0.47174   0.47518   0.50219   0.50650   0.51507
 Alpha virt. eigenvalues --    0.51850   0.52210   0.52267   0.53131   0.53470
 Alpha virt. eigenvalues --    0.53834   0.54869   0.55645   0.56075   0.56536
 Alpha virt. eigenvalues --    0.56931   0.57072   0.57509   0.57708   0.58123
 Alpha virt. eigenvalues --    0.58870   0.58970   0.59114   0.60640   0.60878
 Alpha virt. eigenvalues --    0.61301   0.61728   0.62565   0.63394   0.64214
 Alpha virt. eigenvalues --    0.65014   0.65204   0.65980   0.65994   0.66165
 Alpha virt. eigenvalues --    0.66874   0.67055   0.67333   0.67833   0.68481
 Alpha virt. eigenvalues --    0.68600   0.68711   0.68747   0.69247   0.69271
 Alpha virt. eigenvalues --    0.69702   0.69896   0.70502   0.70606   0.70745
 Alpha virt. eigenvalues --    0.70981   0.71371   0.71587   0.71742   0.71882
 Alpha virt. eigenvalues --    0.72284   0.72591   0.73125   0.73317   0.73469
 Alpha virt. eigenvalues --    0.73503   0.74088   0.74452   0.74534   0.74644
 Alpha virt. eigenvalues --    0.74882   0.75461   0.75662   0.76187   0.76248
 Alpha virt. eigenvalues --    0.76737   0.77552   0.77828   0.79293   0.79676
 Alpha virt. eigenvalues --    0.79798   0.80049   0.80781   0.80953   0.81998
 Alpha virt. eigenvalues --    0.82317   0.82750   0.82977   0.83764   0.84271
 Alpha virt. eigenvalues --    0.85561   0.86165   0.86322   0.88676   0.89000
 Alpha virt. eigenvalues --    0.90704   0.90813   0.92077   0.92877   0.94823
 Alpha virt. eigenvalues --    0.95496   0.98108   0.98490   1.00378   1.01101
 Alpha virt. eigenvalues --    1.03468   1.04293   1.04815   1.06942   1.07788
 Alpha virt. eigenvalues --    1.08559   1.10197   1.12333   1.13302   1.13990
 Alpha virt. eigenvalues --    1.14428   1.15296   1.16694   1.16945   1.17973
 Alpha virt. eigenvalues --    1.18652   1.19221   1.19490   1.20308   1.20593
 Alpha virt. eigenvalues --    1.20820   1.23172   1.23840   1.25373   1.26336
 Alpha virt. eigenvalues --    1.26800   1.32057   1.34283   1.35054   1.35889
 Alpha virt. eigenvalues --    1.36307   1.37793   1.39413   1.41247   1.42031
 Alpha virt. eigenvalues --    1.43414   1.44072   1.44390   1.44974   1.46256
 Alpha virt. eigenvalues --    1.48251   1.48849   1.50189   1.50479   1.51859
 Alpha virt. eigenvalues --    1.53734   1.54551   1.55249   1.57802   1.58995
 Alpha virt. eigenvalues --    1.59364   1.63379   1.64813   1.65239   1.71473
 Alpha virt. eigenvalues --    1.72009   1.72098   1.73126   1.73142   1.75402
 Alpha virt. eigenvalues --    1.76534   1.76748   1.78411   1.79208   1.80970
 Alpha virt. eigenvalues --    1.82663   1.82911   1.83503   1.83855   1.84258
 Alpha virt. eigenvalues --    1.84706   1.84761   1.85886   1.86077   1.87455
 Alpha virt. eigenvalues --    1.88962   1.89049   1.90546   1.90743   1.92369
 Alpha virt. eigenvalues --    1.93506   1.94317   1.94524   1.95782   1.96360
 Alpha virt. eigenvalues --    1.98508   2.01120   2.01572   2.02454   2.03325
 Alpha virt. eigenvalues --    2.04077   2.04363   2.04939   2.05090   2.05358
 Alpha virt. eigenvalues --    2.06282   2.06427   2.09533   2.09562   2.10056
 Alpha virt. eigenvalues --    2.10472   2.12787   2.13288   2.14006   2.14425
 Alpha virt. eigenvalues --    2.14564   2.16792   2.16840   2.17823   2.17836
 Alpha virt. eigenvalues --    2.18802   2.18843   2.19154   2.19232   2.19317
 Alpha virt. eigenvalues --    2.20110   2.20579   2.20768   2.21672   2.25688
 Alpha virt. eigenvalues --    2.25751   2.26779   2.27503   2.29196   2.29910
 Alpha virt. eigenvalues --    2.29944   2.30371   2.31620   2.40151   2.40475
 Alpha virt. eigenvalues --    2.41246   2.41281   2.41587   2.41860   2.46138
 Alpha virt. eigenvalues --    2.46354   2.50640   2.52833   2.52895   2.54503
 Alpha virt. eigenvalues --    2.56962   2.58182   2.58678   2.60954   2.62453
 Alpha virt. eigenvalues --    2.63468   2.63707   2.65262   2.67974   2.69468
 Alpha virt. eigenvalues --    2.69733   2.70506   2.71019   2.72665   2.73940
 Alpha virt. eigenvalues --    2.75210   2.75897   2.75912   2.79958   2.82289
 Alpha virt. eigenvalues --    2.85053   2.86200   2.86987   2.87191   2.87720
 Alpha virt. eigenvalues --    2.87829   2.88612   2.92518   2.95214   2.95634
 Alpha virt. eigenvalues --    2.98686   2.99276   3.00905   3.05719   3.15274
 Alpha virt. eigenvalues --    3.15286   3.19051   3.26427   3.29503   3.32820
 Alpha virt. eigenvalues --    3.40522   3.41532   3.54496   3.55427   3.64274
 Alpha virt. eigenvalues --    3.66966
          Condensed to atoms (all electrons):
 Mulliken charges:
               1
     1  C   -0.181954
     2  C   -0.181007
     3  C   -0.181952
     4  C   -0.212498
     5  C   -0.042350
     6  C    0.107470
     7  O   -0.318212
     8  C    0.094329
     9  C    0.003612
    10  C   -0.104590
    11  C    0.037912
    12  C   -0.123989
    13  C    0.036013
    14  C    0.035623
    15  C   -0.123957
    16  C    0.038122
    17  C   -0.104499
    18  C    0.003259
    19  C    0.094439
    20  N   -0.118939
    21  C   -0.042408
    22  C   -0.180996
    23  C   -0.212468
    24  C   -0.181945
    25  C   -0.182023
    26  C    0.107499
    27  O   -0.318302
    28  N   -0.030397
    29  N   -0.030452
    30  N   -0.119025
    31  H    0.080024
    32  H    0.078952
    33  H    0.086730
    34  H    0.071546
    35  H    0.076786
    36  H    0.108769
    37  H    0.078622
    38  H    0.109275
    39  H    0.083378
    40  H    0.060405
    41  H    0.084180
    42  H    0.091333
    43  H    0.065997
    44  H    0.059085
    45  H    0.081635
    46  H    0.081858
    47  H    0.059046
    48  H    0.066070
    49  H    0.060413
    50  H    0.109314
    51  H    0.078615
    52  H    0.083362
    53  H    0.071538
    54  H    0.108700
    55  H    0.076810
    56  H    0.078998
    57  H    0.086739
    58  H    0.080021
    59  H    0.084160
    60  H    0.091324
 Sum of Mulliken charges =  -0.00000
 Mulliken charges with hydrogens summed into heavy atoms:
               1
     1  C    0.063753
     2  C   -0.181007
     3  C    0.075150
     4  C    0.058777
     5  C    0.018055
     6  C    0.282982
     7  O   -0.318212
     8  C    0.094329
     9  C    0.003612
    10  C   -0.038594
    11  C    0.096996
    12  C   -0.042354
    13  C    0.036013
    14  C    0.035623
    15  C   -0.042099
    16  C    0.097168
    17  C   -0.038429
    18  C    0.003259
    19  C    0.094439
    20  N   -0.118939
    21  C    0.018006
    22  C   -0.180996
    23  C    0.058823
    24  C    0.075103
    25  C    0.063735
    26  C    0.282982
    27  O   -0.318302
    28  N   -0.030397
    29  N   -0.030452
    30  N   -0.119025
 Electronic spatial extent (au):  <R**2>=          21630.5133
 Charge=             -0.0000 electrons
 Dipole moment (field-independent basis, Debye):
    X=             -0.0058    Y=              0.0738    Z=             -0.1688  Tot=              0.1843
 Quadrupole moment (field-independent basis, Debye-Ang):
   XX=           -149.1270   YY=           -171.7870   ZZ=           -178.2860
   XY=              6.3703   XZ=              2.6627   YZ=              3.2684
 Traceless Quadrupole moment (field-independent basis, Debye-Ang):
   XX=             17.2730   YY=             -5.3870   ZZ=            -11.8860
   XY=              6.3703   XZ=              2.6627   YZ=              3.2684
 Octapole moment (field-independent basis, Debye-Ang**2):
  XXX=             -0.1671  YYY=            -12.0736  ZZZ=             22.9947  XYY=             -6.1718
  XXY=             -6.6232  XXZ=             16.4272  XZZ=              6.0972  YZZ=             -1.3503
  YYZ=              8.6834  XYZ=              6.0424
 Hexadecapole moment (field-independent basis, Debye-Ang**3):
 XXXX=         -23896.5253 YYYY=          -2598.1675 ZZZZ=          -1256.2894 XXXY=            422.6023
 XXXZ=            171.6453 YYYX=            261.6724 YYYZ=           -313.0031 ZZZX=             84.0462
 ZZZY=           -360.3614 XXYY=          -4765.6538 XXZZ=          -4424.8020 YYZZ=           -642.3121
 XXYZ=           -170.9106 YYXZ=             50.7497 ZZXY=             77.8547
 N-N= 2.777722948413D+03 E-N=-8.576494832264D+03  KE= 1.289276918014D+03
 No NMR shielding tensors so no spin-rotation constants.
 Leave Link  601 at Mon Feb 26 12:24:51 2024, MaxMem=  7516192768 cpu:               7.5 elap:               0.2
 (Enter /public/apps/g16-C01//g16/l701.exe)
 ... and contract with generalized density number  0.
 Compute integral first derivatives.
 R6Disp: Adding Grimme-D3(BJ) dispersion energy 1st derivatives to the gradient.
   1 Symmetry operations used in ECPInt.
 ECPInt:  NShTT=   28920 NPrTT=  115920 LenC2=   22024 LenP2D=   56030.
 LDataN:  DoStor=T MaxTD1= 5 Len=  102
 Leave Link  701 at Mon Feb 26 12:24:52 2024, MaxMem=  7516192768 cpu:              19.4 elap:               0.6
 (Enter /public/apps/g16-C01//g16/l702.exe)
 L702 exits ... SP integral derivatives will be done elsewhere.
 Leave Link  702 at Mon Feb 26 12:24:52 2024, MaxMem=  7516192768 cpu:               0.3 elap:               0.0
 (Enter /public/apps/g16-C01//g16/l703.exe)
 Integral derivatives from FoFJK, PRISM(SPDF).
 Compute integral first derivatives, UseDBF=F ICtDFT=           0.
 Calling FoFJK, ICntrl=      2127 FMM=T ISym2X=0 I1Cent= 0 IOpClX= 0 NMat=1 NMatS=1 NMatT=0.
 FoFJK:  IHMeth= 1 ICntrl=    2127 DoSepK=F KAlg= 0 I1Cent=           0 FoldK=F
 IRaf=         0 NMat=       1 IRICut=       1 DoRegI=T DoRafI=F ISym2E= 0 IDoP0=0 IntGTp=1.
 FoFCou: FMM=T IPFlag=           0 FMFlag=      100000 FMFlg1=        2001
         NFxFlg=           0 DoJE=F BraDBF=F KetDBF=F FulRan=T
         wScrn=  0.000000 ICntrl=      2127 IOpCl=  0 I1Cent=           0 NGrid=           0
         NMat0=    1 NMatS0=      1 NMatT0=    0 NMatD0=    1 NMtDS0=    0 NMtDT0=    0
 Symmetry not used in FoFCou.
 FMM levels:  10  Number of levels for PrismC:   9
 Leave Link  703 at Mon Feb 26 12:24:56 2024, MaxMem=  7516192768 cpu:             178.5 elap:               4.6
 (Enter /public/apps/g16-C01//g16/l716.exe)
 Dipole        =-2.27073973D-03 2.90452698D-02-6.64043393D-02
 -------------------------------------------------------------------
 Center     Atomic                   Forces (Hartrees/Bohr)
 Number     Number              X              Y              Z
 -------------------------------------------------------------------
      1        6           0.010512812   -0.000508641    0.000880609
      2        6          -0.001137476    0.001197468    0.001469374
      3        6          -0.001393113   -0.006994747   -0.005200526
      4        6          -0.002387359   -0.001503645    0.009240779
      5        6          -0.002268998   -0.002481411   -0.005807357
      6        6          -0.005426090    0.003785219    0.002657120
      7        8           0.008316405   -0.006470615   -0.003185140
      8        6          -0.007339974    0.000583987    0.001109139
      9        6          -0.000768617   -0.005060903   -0.002785348
     10        6          -0.002257890    0.000667510    0.000130655
     11        6           0.001084507   -0.000482407   -0.000122957
     12        6           0.000319630   -0.000608891   -0.000296979
     13        6          -0.001199407   -0.000635165   -0.000238349
     14        6           0.001192520    0.000627645    0.000272310
     15        6          -0.000306758    0.000668636    0.000243278
     16        6          -0.001075243    0.000410531    0.000239758
     17        6           0.002243118   -0.000546003   -0.000371153
     18        6           0.000774794    0.005560976    0.001649159
     19        6           0.007323060   -0.001170050    0.000401570
     20        7          -0.008455498   -0.012079190   -0.001990276
     21        6           0.002279715    0.005892114   -0.002318194
     22        6           0.001120980   -0.001890429    0.000159074
     23        6           0.002393094   -0.005491072    0.007574167
     24        6           0.001349452    0.008618056    0.001307729
     25        6          -0.010517836   -0.000319615    0.000969807
     26        6           0.005433196   -0.004538778   -0.000802615
     27        8          -0.008291340    0.006790455    0.002337552
     28        7           0.001463497   -0.005476930   -0.002201783
     29        7          -0.001441128    0.005368452    0.002297470
     30        7           0.008438901    0.009870452    0.007179657
     31        1          -0.005744056   -0.000382772    0.010325588
     32        1          -0.004856527   -0.008737896   -0.006386104
     33        1          -0.005428750    0.008658771   -0.005013814
     34        1          -0.004488592    0.001151419    0.010924188
     35        1          -0.003390891    0.010164232   -0.004845083
     36        1           0.010319242    0.001584460    0.002040766
     37        1          -0.002347503   -0.008538770   -0.007278003
     38        1           0.010391193    0.000708796   -0.001138129
     39        1          -0.003355363    0.008694842   -0.006253525
     40        1          -0.003786655    0.000482096    0.004990271
     41        1          -0.003460847   -0.004145428    0.002838070
     42        1          -0.003574750   -0.000722682   -0.005323645
     43        1          -0.006491689   -0.006110187   -0.002558778
     44        1           0.003191358   -0.008339691   -0.003348648
     45        1           0.009468896   -0.001308251   -0.000520444
     46        1          -0.009454466    0.001288305    0.000552415
     47        1          -0.003200010    0.008255276    0.003551654
[...]
 00017,-0.00000013,0.00000055,-0.00000082,-0.00000057,0.00000062,-0.000
 00208,-0.00000205,0.00000443,-0.00000655,0.00000017,0.00000070,-0.0000
 0221,0.00000282,-0.00000054,-0.00000247,-0.00000446,0.00000675,-0.0000
 0550,-0.00013914,-0.00052545,0.00100672,-0.00082641,0.00144488,-0.0014
 5460,0.00014795,0.00001789,0.00025270,0.00017036,-0.00024166,-0.000040
 01,0.00001071,-0.00092605,0.00021138,0.00020956,-0.00000280,0.00036223
 ,-0.00005172,-0.00009244,0.00005475,0.00348623,-0.00535114,0.00736989,
 0.00476174,-0.00900285,0.00698313,0.09506577,-0.00000021,-0.00000059,0
 .00000021,0.00000018,0.00000113,0.00000028,-0.00000038,0.00000009,0.00
 000037,-0.00000055,-0.00000030,-0.00000044,-0.00000282,-0.00000042,0.0
 0000089,-0.00000412,0.00000041,0.00000167,0.00000836,-0.00000008,-0.00
 000086,-0.00001076,0.00000009,0.00000071,-0.00000185,0.00000256,0.0000
 0220,0.00000239,-0.00000149,-0.00000103,-0.00000090,-0.00000019,-0.000
 00178,-0.00000194,0.00000314,-0.00000083,-0.00000096,-0.00000279,-0.00
 000031,-0.00000553,-0.00000278,-0.00000215,0.00000205,0.00000076,0.000
 00170,-0.00000366,0.00000595,-0.00000548,-0.00000057,-0.00000247,-0.00
 000330,-0.00000766,0.00000087,0.00006133,-0.00010466,0.00004717,-0.000
 02534,-0.00004070,0.00017680,-0.00035287,-0.00029914,-0.00011134,0.000
 68156,-0.00058534,0.00045042,-0.00227947,0.00015257,0.00074156,-0.0004
 9849,-0.00069860,0.00076556,-0.00072267,0.06595918,-0.15759889,0.10949
 028,-0.00000887,-0.00050158,0.00023881,0.00003453,0.00003432,-0.000143
 66,0.00000551,0.00000083,-0.00001208,0.00000448,0.00000025,-0.00000254
 ,0.00000651,-0.00000156,-0.00000224,0.00000034,0.00000009,-0.00000074,
 -0.00000012,0.00000019,0.00000014,0.00000022,-0.00000024,0.00000027,0.
 00000050,0.00000018,-0.00000081,-0.00000016,-0.00000022,0.00000025,0.0
 0000019,0.00000038,0.00000044,-0.00000023,0.,-0.00000017,0.00000070,0.
 00000023,0.00000021,-0.00000016,-0.00000018,0.00000014,0.00000139,0.00
 000001,-0.00000086,0.00000080,0.00000042,-0.00000068,0.00000040,-0.000
 00007,0.00000024,-0.00000004,0.00000019,0.00000089,-0.00000119,-0.0000
 0115,0.00000123,-0.00000183,-0.00000143,0.00000412,-0.00000021,-0.0000
 0092,0.00000149,-0.00000014,-0.00000136,0.00000147,-0.00000075,-0.0000
 0128,0.00000744,0.00015723,0.00028039,-0.00043703,-0.00006060,0.000290
 12,0.00028248,-0.00021861,0.00032463,-0.00007393,-0.00014678,-0.000065
 65,0.00008133,-0.00021179,0.00021654,0.00007675,0.00012570,0.00011687,
 -0.00007118,-0.00000061,-0.00003495,-0.00005663,0.01127566,-0.01579767
 ,0.01913297,-0.00404213,0.00529752,-0.00495240,-0.07144451,0.16515625,
 0.00000037,0.00000097,-0.00000056,-0.00000032,-0.00000170,0.00000033,0
 .00000101,-0.00000018,-0.00000059,0.00000101,0.00000066,0.00000047,0.0
 0000549,0.00000044,-0.00000056,0.00000729,-0.00000111,-0.00000198,-0.0
 0001765,-0.00000285,-0.00000080,0.00002072,0.00000321,0.00000121,0.000
 00719,-0.00000760,-0.00000398,-0.00001171,-0.00000068,0.00000007,0.000
 00567,0.00000933,0.00000525,-0.00000644,-0.00001858,-0.00000609,0.0000
 1240,0.00002518,0.00001010,0.00000880,0.00003059,0.00001144,-0.0000200
 5,-0.00001790,-0.00000810,0.00001849,-0.00000555,0.00000321,-0.0000293
 3,0.00001337,0.00000612,0.00004712,-0.00001921,-0.00004803,0.00003913,
 -0.00016831,-0.00006678,-0.00025773,-0.00007951,0.00020871,0.00110947,
 -0.00072988,0.00059522,0.00031465,-0.00026949,-0.00122140,-0.00078673,
 -0.00071674,0.00065477,0.00033802,0.00049990,-0.00016774,-0.06660156,0
 .10920549,-0.15833683,0.00001893,-0.00000750,-0.00008954,0.00003347,0.
 00005169,0.00001654,-0.00003162,-0.00000898,0.00000641,-0.00001362,-0.
 00001061,-0.00000256,-0.00001216,0.00000105,0.00000087,-0.00000028,-0.
 00000008,0.00000090,0.,-0.00000069,-0.00000029,-0.00000050,0.00000064,
 -0.00000036,-0.00000032,-0.00000034,0.00000081,-0.00000005,0.00000054,
 -0.00000053,-0.00000047,-0.00000070,-0.00000017,0.00000007,-0.00000056
 ,0.00000015,-0.00000097,-0.00000036,0.00000030,-0.00000003,0.00000066,
 -0.00000028,-0.00000192,-0.00000004,0.00000096,-0.00000147,-0.00000051
 ,0.00000126,-0.00000117,0.00000018,-0.00000079,-0.00000048,-0.00000054
 ,-0.00000089,-0.00000049,-0.00000173,-0.00000211,0.00000278,0.00001043
 ,0.00000061,0.00000155,0.00000332,0.00000002,-0.00000224,0.00000285,-0
 .00000010,0.00000505,-0.00000628,-0.00000739,-0.00000057,0.00009935,0.
 00030565,-0.00002996,0.00037869,0.00017407,0.00009636,0.00017556,-0.00
 004589,0.00021124,-0.00012404,0.00045996,-0.00022831,-0.00050956,0.000
 27310,0.00008367,-0.00027804,0.00012359,-0.00007300,0.00009757,-0.0000
 5862,0.00476755,-0.00601718,0.00675847,-0.01152992,0.01858039,-0.01573
 406,0.07255417,-0.12022902,0.16609589,0.00000086,0.00000322,-0.0000024
 9,-0.00000158,-0.00000641,0.00000276,0.00000266,0.,-0.00000225,0.00000
 209,0.00000208,0.00000011,0.00001540,-0.00000048,-0.00000135,0.0000182
 4,-0.00000399,-0.00000415,-0.00004456,0.00000013,-0.00000037,0.0000558
 1,-0.00000293,-0.00000063,0.00002123,-0.00002584,-0.00000745,-0.000037
 16,-0.00000180,-0.00000099,0.00001609,0.00001810,0.00000983,-0.0000191
 4,-0.00005201,-0.00001920,0.00003626,0.00009917,0.00002090,-0.00016329
 ,0.00016005,-0.00002958,-0.00007116,-0.00012154,-0.00006316,0.00009977
 ,-0.00001549,0.00002261,-0.00011228,0.00000292,-0.00004001,-0.00033624
 ,-0.00096332,0.00005672,0.00077167,0.00782626,0.00031418,0.00028028,-0
 .00166950,0.00017084,0.00111908,-0.00036214,-0.00470817,0.00000621,-0.
 00071446,0.00072152,-0.00008549,-0.00030450,0.00024670,0.00005689,0.00
 010651,-0.00026205,-0.00010736,-0.00004044,-0.00028118,-0.09373824,0.0
 0219406,-0.09646056,-0.03275854,0.00463866,-0.02503095,-0.00028592,-0.
 00002811,0.00025024,-0.00005710,-0.00003126,-0.00001118,-0.00003434,0.
 00001064,0.00000381,-0.00000029,-0.00000048,0.00000159,0.00000044,-0.0
 0000102,0.00000006,-0.00000204,0.00000178,-0.00000101,-0.00000087,-0.0
 0000087,0.00000157,-0.00000142,0.00000227,-0.00000148,-0.00000026,-0.0
 0000309,0.00000016,0.00000035,-0.00000086,0.00000109,-0.00000146,-0.00
 000209,0.00000220,-0.00000155,0.00000226,-0.00000129,-0.00000613,-0.00
 000003,0.00000220,-0.00000361,-0.00000075,0.00000220,-0.00000345,-0.00
 000027,-0.00000183,-0.00000036,-0.00000282,-0.00000229,-0.00000045,-0.
 00000549,-0.00000337,0.00000979,0.00002313,0.00000572,-0.00000066,0.00
 000483,0.00001082,-0.00002106,0.00001569,0.00000446,0.00006572,-0.0000
 7542,-0.00009254,0.00097459,0.00032639,0.00070829,0.00003796,0.0000669
 2,0.00009709,-0.00000029,0.00037012,-0.00003372,0.00005597,0.00016602,
 0.00000369,0.00001837,0.00001675,0.00001130,-0.00000503,0.00003778,0.0
 0005807,-0.00001295,-0.00008147,-0.00003700,0.00016230,-0.00012608,0.0
 0000518,0.00004561,-0.00000869,-0.00000147,0.00001106,0.00008975,0.000
 03431,0.11392100,-0.00000030,-0.00000127,0.00000093,0.00000039,0.00000
 261,-0.00000112,-0.00000094,-0.00000008,0.00000079,-0.00000071,-0.0000
 0092,0.00000002,-0.00000595,0.00000054,-0.00000004,-0.00000682,0.00000
 187,0.00000093,0.00001636,-0.00000043,0.00000065,-0.00001970,0.0000010
 2,-0.00000054,-0.00001047,0.00000813,0.00000128,0.00001317,0.00000140,
 0.00000073,-0.00000734,-0.00000683,-0.00000216,0.00001470,0.00001713,0
 .00000864,-0.00001893,-0.00004273,-0.00000564,0.00013301,-0.00006511,-
 0.00001078,0.00001541,0.00009347,0.00003247,-0.00007960,0.00000476,-0.
 00000298,0.00005595,0.00002214,0.00002540,0.00027582,0.00042556,-0.000
 21116,-0.00175806,-0.00618380,-0.00021860,-0.00253598,-0.00037193,-0.0
 0055048,-0.00949505,0.00255643,-0.02490959,-0.00228558,-0.00334908,-0.
 00026264,0.00002111,-0.00051693,0.00043281,0.00049199,0.00014347,-0.00
 087332,-0.00016275,0.00015544,0.00003757,0.00169073,-0.05049232,0.0142
 2565,0.01613112,0.00253862,0.00989845,-0.00009521,-0.00003515,-0.00005
 696,0.00002139,0.00001335,0.00000615,0.00001263,-0.00000431,-0.0000001
 2,0.00000002,0.00000026,-0.00000052,-0.00000021,0.00000041,-0.00000010
 ,0.00000083,-0.00000081,0.00000047,0.00000017,0.00000043,-0.00000052,0
 .00000066,-0.00000101,0.00000075,0.00000011,0.00000133,-0.00000019,-0.
 00000012,0.00000038,-0.00000048,0.00000052,0.00000083,-0.00000093,0.00
 000064,-0.00000099,0.00000061,0.00000200,0.00000016,-0.00000070,0.0000
 0108,0.00000011,-0.00000076,0.00000132,0.00000012,0.00000090,-0.000000
 28,0.00000121,0.00000043,0.00000086,0.00000268,0.,0.00000498,-0.000002
 87,-0.00000648,-0.00000156,-0.00000021,0.00000176,0.00000627,-0.000003
 86,-0.00000302,-0.00001182,0.00003500,0.00004471,-0.00010804,0.0013653
 9,-0.00042236,0.00000928,0.00006680,0.00000542,0.00002437,0.00034335,-
 0.00001725,0.00002869,0.00016772,-0.00003284,0.00002946,-0.00002836,0.
 00003306,-0.00003486,0.00004061,0.00002849,-0.00003539,-0.00036756,-0.
 00014264,0.00021493,-0.00001710,-0.00004438,0.00007792,-0.00003189,-0.
 00001442,0.00006957,0.00000208,0.00001186,-0.01060273,0.05289978,0.000
 00053,0.00000197,-0.00000113,-0.00000076,-0.00000398,0.00000061,0.0000
 0129,-0.00000007,-0.00000123,0.00000135,0.00000116,0.00000056,0.000009
 00,0.00000020,-0.00000140,0.00001138,-0.00000207,-0.00000325,-0.000024
 96,0.00000136,0.00000127,0.00003261,-0.00000229,-0.00000138,0.00000753
 ,-0.00001116,-0.00000771,-0.00001308,0.00000275,0.00000169,0.00000470,
 0.00000573,0.00000454,0.00000296,-0.00001678,-0.00000452,0.00000892,0.
 00001419,0.00001464,0.00003794,0.00002995,0.00003815,-0.00003089,-0.00
 000462,-0.00000695,0.00001665,-0.00001796,-0.00000048,-0.00004200,0.00
 002534,0.00001906,0.00008427,0.00024657,-0.00028566,0.00136942,-0.0009
 0623,-0.00002507,-0.00057870,0.00014591,-0.00098216,-0.00237587,0.0021
 1217,-0.00653257,-0.00085696,-0.00149565,0.00029662,0.00017800,0.00019
 039,0.00017800,0.00035253,0.00004698,-0.00041589,-0.00031185,-0.000075
 18,0.00001918,-0.10485542,0.01568389,-0.26986308,0.00330275,-0.0003072
 0,0.01543821,-0.00003483,0.00000275,0.00000557,-0.00001706,-0.00000400
 ,0.00000111,-0.00002010,0.00000678,0.00000410,-0.00000049,-0.00000035,
 0.00000143,0.00000040,-0.00000048,-0.00000004,-0.00000109,0.00000099,-
 0.00000076,-0.00000091,-0.00000055,0.00000156,-0.00000045,0.00000122,-
 0.00000094,-0.00000023,-0.00000176,-0.00000046,0.00000051,-0.00000015,
 0.00000071,-0.00000133,-0.00000119,0.00000053,-0.00000048,0.00000110,-
 0.00000074,-0.00000391,-0.00000010,0.00000182,-0.00000210,-0.00000067,
 0.00000149,-0.00000165,-0.00000010,-0.00000097,-0.00000010,-0.00000129
 ,-0.00000137,0.00000200,0.00000047,-0.00000199,0.00000997,0.00000961,-
 0.00000341,0.00000026,0.00000308,-0.00000106,-0.00000744,0.00000742,-0
 .00000281,0.00001544,-0.00004220,-0.00000907,0.00050247,-0.00029742,0.
 00156093,-0.00002182,-0.00007942,-0.00001113,-0.00002034,-0.00033897,0
 .00013616,-0.00000676,-0.00016336,-0.00005101,0.00001641,-0.00007435,0
 .00002540,-0.00001531,0.00005763,0.00003815,-0.00006073,-0.00020252,-0
 .00005297,-0.00011482,0.00023630,-0.00007059,0.00010397,0.00002960,0.0
 0006317,0.00008199,-0.00024079,0.00001646,0.11108419,-0.01506215,0.275
 68470,0.00000083,0.00000358,-0.00000307,-0.00000143,-0.00000719,0.0000
 0413,0.00000262,0.00000007,-0.00000239,0.00000157,0.00000239,-0.000000
 50,0.00001693,-0.00000125,0.00000025,0.00001925,-0.00000505,-0.0000027
 4,-0.00004773,0.00000035,-0.00000173,0.00005964,-0.00000315,0.00000074
 ,0.00002137,-0.00002686,-0.00001341,-0.00004021,-0.00000131,-0.0000005
 7,0.00001790,0.00002244,0.00000696,-0.00002127,-0.00005480,-0.00002476
 ,0.00003481,0.00009184,0.00005431,-0.00010780,0.00007212,0.00010174,-0
 .00007688,-0.00010133,-0.00003284,0.00008328,0.00000904,-0.00002517,-0
 .00010454,-0.00001585,0.00003923,-0.00017865,-0.00083219,-0.00072714,-
 0.00076646,0.00458829,0.00473293,-0.00035443,-0.00061481,-0.00056946,0
 .00085122,-0.00376146,0.00113818,-0.00010697,0.00009081,0.00119131,-0.
 00025627,-0.00076201,0.00021763,-0.00012412,0.00017793,-0.00016666,-0.
 00008010,0.00079051,0.00042589,-0.10592517,-0.08005398,0.07164906,-0.0
 3226992,-0.01508020,0.01726609,-0.00046614,0.00011433,-0.00017691,-0.0
 0005801,-0.00003162,-0.00001561,-0.00003690,0.00001265,0.00000025,0.00
 000022,-0.00000055,0.00000110,0.00000049,-0.00000122,0.00000027,-0.000
 00251,0.00000224,-0.00000108,0.00000002,-0.00000090,0.00000084,-0.0000
 0225,0.00000294,-0.00000185,-0.00000025,-0.00000378,0.00000119,0.00000
 038,-0.00000114,0.00000122,-0.00000105,-0.00000268,0.00000327,-0.00000
 233,0.00000294,-0.00000170,-0.00000593,-0.00000015,0.00000162,-0.00000
 348,-0.00000027,0.00000207,-0.00000401,-0.00000050,-0.00000241,-0.0000
 0054,-0.00000378,-0.00000036,-0.00000080,-0.00000702,-0.00000165,0.000
 01027,0.00002395,0.00001390,-0.00000070,0.00001154,0.00000080,-0.00002
 290,0.00001516,0.00000755,0.00006595,-0.00011495,0.00000354,-0.0000313
 6,-0.00034895,-0.00024994,0.00002697,0.00010679,0.00008142,0.00022886,
 0.00047975,-0.00060462,0.00007577,0.00030775,0.00010847,-0.00000548,0.
 00009389,0.00001152,0.00002526,-0.00000470,0.00005995,0.00004558,-0.00
 000467,-0.00006526,-0.00048048,0.00082941,0.00068091,0.00016353,-0.000
 09336,-0.00002408,-0.00006596,0.00008044,-0.00008493,0.01010857,0.0079
 1091,-0.00781700,0.12979171,0.00000040,0.00000160,-0.00000157,-0.00000
 049,-0.00000316,0.00000242,0.00000130,-0.00000005,-0.00000114,0.000000
 67,0.00000116,-0.00000039,0.00000822,-0.00000056,0.00000081,0.00000947
 ,-0.00000260,-0.00000057,-0.00002335,-0.00000124,-0.00000223,0.0000289
 2,0.00000118,0.00000224,0.00000786,-0.00001393,-0.00000192,-0.00001625
 ,0.00000071,-0.00000032,0.00000569,0.00001245,0.00000313,0.00000120,-0
 .00002242,-0.00001179,0.00001388,0.00002637,-0.00000469,0.00010637,0.0
 0006837,-0.00000120,-0.00004490,0.00001487,0.00001440,-0.00001049,-0.0
 0000772,-0.00000707,-0.00005737,0.00005411,0.00002524,0.00030779,0.000
 19959,0.00059525,0.00058681,-0.00408209,-0.00313705,-0.00295895,-0.001
 15412,0.00020975,-0.00900706,-0.01255956,0.01513168,-0.00086036,0.0006
 1806,0.00169669,0.00004414,-0.00025150,-0.00016433,0.00016396,0.000143
 26,0.00008028,-0.00033810,-0.00082764,-0.00011247,-0.08789799,-0.15825
 789,0.10524331,0.01486307,0.01410499,-0.01066628,-0.00006374,-0.000042
 56,0.00000577,-0.00001517,-0.00000695,-0.00000506,-0.00001761,0.000005
 05,-0.00000177,0.00000027,-0.00000022,0.00000039,0.00000010,-0.0000009
 0,0.00000006,-0.00000120,0.00000127,-0.00000047,0.00000037,-0.00000048
 ,0.00000012,-0.00000100,0.00000146,-0.00000090,-0.00000039,-0.00000161
 ,0.00000083,0.,-0.00000099,0.00000048,-0.00000051,-0.00000109,0.000001
 83,-0.00000108,0.00000164,-0.00000077,-0.00000246,-0.00000013,0.000000
 49,-0.00000150,-0.00000005,0.00000104,-0.00000207,-0.00000017,-0.00000
 145,-0.00000078,-0.00000147,0.00000006,0.00000027,-0.00000331,0.000000
 92,0.00001487,0.00001181,0.00001436,0.00000113,0.00000581,0.00000284,-
 0.00000500,0.00000274,0.00000529,0.00000961,0.00000101,-0.00002916,-0.
 00133351,-0.00308369,-0.00151994,0.00013743,0.00011655,0.00015019,-0.0
 0013900,0.00084184,-0.00018823,0.00001768,0.00035862,-0.00001455,-0.00
 007913,0.00014974,-0.00002818,0.00008111,0.00008768,0.00010716,0.00004
 740,0.00002585,-0.00013126,0.00117920,0.00034486,-0.00039138,0.0001545
 0,0.00042974,0.00010361,-0.00008279,0.00021167,0.00003210,-0.00092911,
 0.00061100,0.00048949,0.08609765,0.16187305,-0.00000030,-0.00000151,0.
 00000094,0.00000031,0.00000319,-0.00000099,-0.00000072,-0.00000003,0.0
 0000075,-0.00000058,-0.00000095,-0.00000006,-0.00000656,0.00000057,-0.
 00000026,-0.00000769,0.00000208,0.00000113,0.00001681,-0.00000197,-0.0
 0000027,-0.00002150,0.00000257,0.00000037,-0.00000713,0.00000768,0.000
 00303,0.00000919,-0.00000184,-0.00000069,-0.00000521,-0.00000331,-0.00
 000117,0.00000610,0.00001077,0.00000412,-0.00000988,-0.00001825,-0.000
 01159,0.00004328,-0.00003137,0.00001159,0.00000925,0.00003634,0.000018
 70,-0.00004289,0.00001004,0.00001215,0.00002337,-0.00000302,-0.0000072
 7,0.00008813,0.00009601,-0.00000860,-0.00211126,-0.00263485,-0.0022909
 6,-0.00209076,-0.00101722,-0.00070206,-0.00736984,-0.00594782,0.011550
 88,0.00083567,0.00031726,-0.00018609,-0.00046609,-0.00085683,-0.000914
 10,-0.00033740,0.00001103,0.00028280,0.00066388,-0.00030741,-0.0006356
 1,0.07751417,0.10360024,-0.15055296,0.00726843,-0.00141894,0.00415557,
 -0.00005969,-0.00002751,-0.00000022,0.00001407,0.00000433,0.00000297,0
 .00001392,-0.00000619,-0.00000043,0.00000003,0.00000033,-0.00000062,-0
 .00000038,0.00000031,-0.00000018,0.00000100,-0.00000095,0.00000063,0.0
 0000007,0.00000041,-0.00000062,0.00000089,-0.00000127,0.00000097,0.000
 00006,0.00000170,-0.00000029,-0.00000044,0.00000011,-0.00000062,0.0000
 0060,0.00000122,-0.00000087,0.00000083,-0.00000114,0.00000082,0.000002
 30,0.00000021,-0.00000083,0.00000107,0.00000006,-0.00000079,0.00000131
 ,0.00000025,0.00000099,-0.00000039,0.00000126,0.00000030,-0.00000087,0
 .00000028,0.00000013,0.00000135,-0.00000175,0.00000022,-0.00000070,0.0
 0000313,-0.00000406,0.00000561,-0.00000247,-0.00000301,-0.00001031,0.0
 0005362,0.00001522,-0.00000822,-0.00178397,-0.00016595,-0.00002854,0.0
 0001250,0.00004874,-0.00044402,-0.00017985,-0.00149059,0.00019169,0.00
 013311,0.00024275,0.00000025,0.00010421,0.00001219,0.00000301,-0.00000
 201,-0.00000831,0.00002714,0.00010457,0.00007348,0.00046853,-0.0008413
 3,-0.00017511,-0.00016356,-0.00003232,-0.00004336,-0.00007414,0.000047
 92,0.00007410,0.01324727,0.01805492,-0.01521402,-0.08719052,-0.1074961
 0,0.15590705\\0.00000252,-0.00000002,0.00000013,0.00000109,0.00000432,
 -0.00000011,-0.00000111,-0.00000356,-0.00000299,-0.00000129,0.00000103
 ,0.00000289,-0.00000763,-0.00000145,0.00000024,0.00000871,-0.00000068,
 0.00000031,-0.00001486,-0.00001126,-0.00000531,0.00000960,0.00002326,0
 .00001202,-0.00000280,-0.00000530,-0.00000268,-0.00000057,0.00000010,0
 .00000038,-0.00000225,-0.00000236,-0.00000073,0.00000077,0.00000339,0.
 00000091,0.00000763,-0.00000211,-0.00000053,-0.00000741,0.00000199,0.0
 0000104,-0.00000064,-0.00000245,-0.00000187,0.00000206,0.00000246,0.00
 000076,0.00000031,-0.00000007,-0.00000074,0.00000309,0.00000662,0.0000
 0124,-0.00001097,-0.00002700,-0.00000664,-0.00000337,0.00001310,0.0000
 0262,0.00000881,0.00000081,0.00000150,-0.00000122,-0.00000306,-0.00000
 326,0.00000130,-0.00000354,0.00000077,0.00000078,0.00000440,0.00000126
 ,-0.00000191,-0.00000012,0.00000005,-0.00001036,0.00000121,0.00000037,
 0.00001662,0.00001206,0.00000373,0.00000424,-0.00000070,0.00000054,-0.
 00000459,-0.00000013,0.00000054,0.00000312,-0.00001113,-0.00000579,-0.
 00000007,-0.00000008,-0.00000161,0.,0.00000064,0.00000064,-0.00000044,
 -0.00000120,0.00000058,0.00000103,0.00000099,-0.00000074,0.00000063,-0
 .00000045,0.00000084,-0.00000178,0.00000068,0.00000065,0.00000090,0.00
 000041,-0.00000013,-0.00000142,-0.00000091,-0.00000099,0.00000056,-0.0
 0000168,-0.00000009,0.00000159,-0.00000021,-0.00000056,-0.00000020,0.0
 0000084,0.00000031,-0.00000031,0.00000016,0.00000037,0.00000012,0.0000
 0055,0.00000057,-0.00000007,0.00000073,0.00000056,-0.00000157,-0.00000
 030,0.00000031,0.00000171,0.00000038,0.00000022,0.00000007,-0.00000052
 ,-0.00000070,-0.00000010,-0.00000041,-0.00000035,-0.00000163,0.0000006
 8,-0.00000026,0.00000144,0.00000125,-0.00000003,-0.00000138,-0.0000002
 7,-0.00000024,-0.00000029,0.00000095,0.00000116,-0.00000062,-0.0000000
 1,-0.00000108,0.00000151,-0.00000096,0.00000017,-0.00000089,-0.0000006
 3,0.00000107,0.00000009,-0.00000117,-0.00000061,0.00000042,-0.00000001
 ,0.00000131,0.00000018,0.00000128,-0.00000092,0.00000034,-0.00000033,-
 0.00000066,0.00000053,-0.00000020,-0.00000044\\\@
 The archive entry for this job was punched.


 "WOULD YOU TELL ME PLEASE, WHICH WAY I OUGHT TO WALK FROM HERE?"
 "THAT DEPENDS A GREAT DEAL ON WHERE YOU WANT TO GO," SAID THE CAT.
 "I DON'T MUCH CARE WHERE -- ", SAID ALICE.
 "THEN IT DOESN'T MATTER WHICH WAY YOU WALK," SAID THE CAT.

                                      -- LEWIS CARROLL
 Job cpu time:       0 days  3 hours  4 minutes 47.9 seconds.
 Elapsed time:       0 days  0 hours  4 minutes 39.8 seconds.
 File lengths (MBytes):  RWF=   1552 Int=      0 D2E=      0 Chk=     22 Scr=      1
 Normal termination of Gaussian 16 at Mon Feb 26 12:36:10 2024.
