 Entering Gaussian System, Link 0=g16
 Initial command:
 /public/apps/g16-C01//g16/l1.exe "/public/home/ljq/tmp/Gau-55556.inp" -scrdir="/public/home/ljq/tmp/"
 Entering Link 1 = /public/apps/g16-C01//g16/l1.exe PID=     55557.
  
 Copyright (c) 1988-2019, Gaussian, Inc.  All Rights Reserved.
  
 This is part of the Gaussian(R) 16 program.  It is based on
 the Gaussian(R) 09 system (copyright 2009, Gaussian, Inc.),
 the Gaussian(R) 03 system (copyright 2003, Gaussian, Inc.),
 the Gaussian(R) 98 system (copyright 1998, Gaussian, Inc.),
 the Gaussian(R) 94 system (copyright 1995, Gaussian, Inc.),
 the Gaussian 92(TM) system (copyright 1992, Gaussian, Inc.),
 the Gaussian 90(TM) system (copyright 1990, Gaussian, Inc.),
 the Gaussian 88(TM) system (copyright 1988, Gaussian, Inc.),
 the Gaussian 86(TM) system (copyright 1986, Carnegie Mellon
 University), and the Gaussian 82(TM) system (copyright 1983,
 Carnegie Mellon University). Gaussian is a federally registered
 trademark of Gaussian, Inc.
  
 This software contains proprietary and confidential information,
 including trade secrets, belonging to Gaussian, Inc.
  
 This software is provided under written license and may be
 used, copied, transmitted, or stored only in accord with that
 written license.
  
 The following legend is applicable only to US Government
 contracts under FAR:
  
                    RESTRICTED RIGHTS LEGEND
  
 Use, reproduction and disclosure by the US Government is
 subject to restrictions as set forth in subparagraphs (a)
 and (c) of the Commercial Computer Software - Restricted
 Rights clause in FAR 52.227-19.
  
 Gaussian, Inc.
 340 Quinnipiac St., Bldg. 40, Wallingford CT 06492
  
  
 ---------------------------------------------------------------
 Warning -- This program may not be used in any manner that
 competes with the business of Gaussian, Inc. or will provide
 assistance to any competitor of Gaussian, Inc.  The licensee
 of this program is prohibited from giving any competitor of
 Gaussian, Inc. access to this program.  By using this program,
 the user acknowledges that Gaussian, Inc. is engaged in the
 business of creating and licensing software in the field of
 computational chemistry and represents and warrants to the
 licensee that it is not a competitor of Gaussian, Inc. and that
 it will not use this program in any manner prohibited above.
 ---------------------------------------------------------------
  

 Cite this work as:
 Gaussian 16, Revision C.01,
 M. J. Frisch, G. W. Trucks, H. B. Schlegel, G. E. Scuseria, 
 M. A. Robb, J. R. Cheeseman, G. Scalmani, V. Barone, 
 G. A. Petersson, H. Nakatsuji, X. Li, M. Caricato, A. V. Marenich, 
 J. Bloino, B. G. Janesko, R. Gomperts, B. Mennucci, H. P. Hratchian, 
 J. V. Ortiz, A. F. Izmaylov, J. L. Sonnenberg, D. Williams-Young, 
 F. Ding, F. Lipparini, F. Egidi, J. Goings, B. Peng, A. Petrone, 
 T. Henderson, D. Ranasinghe, V. G. Zakrzewski, J. Gao, N. Rega, 
 G. Zheng, W. Liang, M. Hada, M. Ehara, K. Toyota, R. Fukuda, 
 J. Hasegawa, M. Ishida, T. Nakajima, Y. Honda, O. Kitao, H. Nakai, 
 T. Vreven, K. Throssell, J. A. Montgomery, Jr., J. E. Peralta, 
 F. Ogliaro, M. J. Bearpark, J. J. Heyd, E. N. Brothers, K. N. Kudin, 
 V. N. Staroverov, T. A. Keith, R. Kobayashi, J. Normand, 
 K. Raghavachari, A. P. Rendell, J. C. Burant, S. S. Iyengar, 
 J. Tomasi, M. Cossi, J. M. Millam, M. Klene, C. Adamo, R. Cammi, 
 J. W. Ochterski, R. L. Martin, K. Morokuma, O. Farkas, 
 J. B. Foresman, and D. J. Fox, Gaussian, Inc., Wallingford CT, 2019.
 
 ******************************************
 Gaussian 16:  ES64L-G16RevC.01  3-Jul-2019
                26-Feb-2024 
 ******************************************
 %nproc=40
 Will use up to   40 processors via shared memory.
 %mem=56GB
 ------------------------------------------
 #p opt freq b3lyp/def2svpp em=gd3bj nosymm
 ------------------------------------------
 1/18=20,19=15,26=3,38=1/1,3;
 2/9=110,12=2,15=1,17=6,18=5,40=1/2;
 3/5=43,7=202,11=2,25=1,30=1,71=1,74=-5,124=41/1,2,3;
 4//1;
 5/5=2,38=5/2;
 6/7=2,8=2,9=2,10=2,28=1/1;
 7/30=1/1,2,3,16;
 1/18=20,19=15,26=3/3(2);
 2/9=110,15=1/2;
 99//99;
 2/9=110,15=1/2;
 3/5=43,7=202,11=2,25=1,30=1,71=1,74=-5,124=41/1,2,3;
 4/5=5,16=3,69=1/1;
 5/5=2,38=5/2;
 7/30=1/1,2,3,16;
 1/18=20,19=15,26=3/3(-5);
 2/9=110,15=1/2;
 6/7=2,8=2,9=2,10=2,19=2,28=1/1;
 99/9=1/99;
 Leave Link    1 at Mon Feb 26 09:31:43 2024, MaxMem=  7516192768 cpu:               1.2 elap:               0.0
 (Enter /public/apps/g16-C01//g16/l101.exe)
 ----------------------
 $$$$Singlemol####0????
 ----------------------
 Symbolic Z-matrix:
 Charge =  0 Multiplicity = 1
 C                    -1.3411   -1.6652    1.6791 
 C                    -1.17592  -1.32162   0.19441 
 C                    -1.63048  -2.51161  -0.6651 
 C                     0.28093  -1.06642  -0.05619 
 N                     0.78729   0.00712  -0.48233 
 C                     2.22631  -0.14374  -0.52006 
 C                     2.91063   0.95082   0.32974 
 C                     2.39825   0.91931   1.77057 
 C                     2.55588   2.30323  -0.29425 
 C                     4.42792   0.75835   0.29992 
 C                     2.44045  -1.60925  -0.05038 
 O                     1.13081  -2.08667   0.22506 
 C                    -1.9839   -0.09287  -0.17014 
 C                    -1.88273   0.48641  -1.43305 
 C                    -2.652     1.5992   -1.7192 
 C                    -3.5053    2.09552  -0.74483 
 C                    -3.53873   1.44386   0.47572 
 N                    -2.80152   0.38335   0.75625 
 H                    -1.02753  -0.82605   2.29408 
 H                    -2.38566  -1.87087   1.89161 
 H                    -0.73901  -2.53615   1.92496 
 H                    -1.04041  -3.39064  -0.41766 
 H                    -2.67968  -2.72179  -0.47089 
 H                    -1.50888  -2.29494  -1.72393 
 H                     2.55759  -0.01615  -1.55773 
 H                     1.32103   1.06948   1.78286 
 H                     2.86627   1.71281   2.34848 
 H                     2.6214   -0.02854   2.2554 
 H                     2.96482   2.38026  -1.29922 
 H                     2.95943   3.11503   0.30626 
 H                     1.47594   2.40629  -0.35276 
 H                     4.79301   0.75315  -0.72498 
 H                     4.91317   1.57337   0.832 
 H                     4.72144  -0.17648   0.77154 
 H                     2.88741  -2.23624  -0.82673 
 H                     3.03705  -1.68984   0.86083 
 H                    -1.20176   0.08394  -2.16434 
 H                    -2.5886    2.07449  -2.6878 
 H                    -4.12262   2.9614   -0.92797 
 H                    -4.18499   1.7818    1.27623 
 
 ITRead=  0  0  0  0  0  0  0  0  0  0  0  0  0  0  0  0  0  0  0  0
 ITRead=  0  0  0  0  0  0  0  0  0  0  0  0  0  0  0  0  0  0  0  0
 MicOpt= -1 -1 -1 -1 -1 -1 -1 -1 -1 -1 -1 -1 -1 -1 -1 -1 -1 -1 -1 -1
 MicOpt= -1 -1 -1 -1 -1 -1 -1 -1 -1 -1 -1 -1 -1 -1 -1 -1 -1 -1 -1 -1
 NAtoms=     40 NQM=       40 NQMF=       0 NMMI=      0 NMMIF=      0
                NMic=       0 NMicF=      0.
                    Isotopes and Nuclear Properties:
 (Nuclear quadrupole moments (NQMom) in fm**2, nuclear magnetic moments (NMagM)
  in nuclear magnetons)

  Atom         1           2           3           4           5           6           7           8           9          10
 IAtWgt=          12          12          12          12          14          12          12          12          12          12
 AtmWgt=  12.0000000  12.0000000  12.0000000  12.0000000  14.0030740  12.0000000  12.0000000  12.0000000  12.0000000  12.0000000
 NucSpn=           0           0           0           0           2           0           0           0           0           0
 AtZEff=  -0.0000000  -0.0000000  -0.0000000  -0.0000000  -0.0000000  -0.0000000  -0.0000000  -0.0000000  -0.0000000  -0.0000000
 NQMom=    0.0000000   0.0000000   0.0000000   0.0000000   2.0440000   0.0000000   0.0000000   0.0000000   0.0000000   0.0000000
 NMagM=    0.0000000   0.0000000   0.0000000   0.0000000   0.4037610   0.0000000   0.0000000   0.0000000   0.0000000   0.0000000
 AtZNuc=   6.0000000   6.0000000   6.0000000   6.0000000   7.0000000   6.0000000   6.0000000   6.0000000   6.0000000   6.0000000

  Atom        11          12          13          14          15          16          17          18          19          20
 IAtWgt=          12          16          12          12          12          12          12          14           1           1
 AtmWgt=  12.0000000  15.9949146  12.0000000  12.0000000  12.0000000  12.0000000  12.0000000  14.0030740   1.0078250   1.0078250
 NucSpn=           0           0           0           0           0           0           0           2           1           1
 AtZEff=  -0.0000000  -0.0000000  -0.0000000  -0.0000000  -0.0000000  -0.0000000  -0.0000000  -0.0000000  -0.0000000  -0.0000000
 NQMom=    0.0000000   0.0000000   0.0000000   0.0000000   0.0000000   0.0000000   0.0000000   2.0440000   0.0000000   0.0000000
 NMagM=    0.0000000   0.0000000   0.0000000   0.0000000   0.0000000   0.0000000   0.0000000   0.4037610   2.7928460   2.7928460
 AtZNuc=   6.0000000   8.0000000   6.0000000   6.0000000   6.0000000   6.0000000   6.0000000   7.0000000   1.0000000   1.0000000

  Atom        21          22          23          24          25          26          27          28          29          30
 IAtWgt=           1           1           1           1           1           1           1           1           1           1
 AtmWgt=   1.0078250   1.0078250   1.0078250   1.0078250   1.0078250   1.0078250   1.0078250   1.0078250   1.0078250   1.0078250
 NucSpn=           1           1           1           1           1           1           1           1           1           1
 AtZEff=  -0.0000000  -0.0000000  -0.0000000  -0.0000000  -0.0000000  -0.0000000  -0.0000000  -0.0000000  -0.0000000  -0.0000000
 NQMom=    0.0000000   0.0000000   0.0000000   0.0000000   0.0000000   0.0000000   0.0000000   0.0000000   0.0000000   0.0000000
 NMagM=    2.7928460   2.7928460   2.7928460   2.7928460   2.7928460   2.7928460   2.7928460   2.7928460   2.7928460   2.7928460
 AtZNuc=   1.0000000   1.0000000   1.0000000   1.0000000   1.0000000   1.0000000   1.0000000   1.0000000   1.0000000   1.0000000

  Atom        31          32          33          34          35          36          37          38          39          40
 IAtWgt=           1           1           1           1           1           1           1           1           1           1
 AtmWgt=   1.0078250   1.0078250   1.0078250   1.0078250   1.0078250   1.0078250   1.0078250   1.0078250   1.0078250   1.0078250
 NucSpn=           1           1           1           1           1           1           1           1           1           1
 AtZEff=  -0.0000000  -0.0000000  -0.0000000  -0.0000000  -0.0000000  -0.0000000  -0.0000000  -0.0000000  -0.0000000  -0.0000000
 NQMom=    0.0000000   0.0000000   0.0000000   0.0000000   0.0000000   0.0000000   0.0000000   0.0000000   0.0000000   0.0000000
 NMagM=    2.7928460   2.7928460   2.7928460   2.7928460   2.7928460   2.7928460   2.7928460   2.7928460   2.7928460   2.7928460
 AtZNuc=   1.0000000   1.0000000   1.0000000   1.0000000   1.0000000   1.0000000   1.0000000   1.0000000   1.0000000   1.0000000
 Leave Link  101 at Mon Feb 26 09:31:43 2024, MaxMem=  7516192768 cpu:               7.4 elap:               0.2
 (Enter /public/apps/g16-C01//g16/l103.exe)

 GradGradGradGradGradGradGradGradGradGradGradGradGradGradGradGradGradGrad
 Berny optimization.
 Initialization pass.
                           ----------------------------
                           !    Initial Parameters    !
                           ! (Angstroms and Degrees)  !
 --------------------------                            --------------------------
 ! Name  Definition              Value          Derivative Info.                !
 --------------------------------------------------------------------------------
 ! R1    R(1,2)                  1.5328         estimate D2E/DX2                !
 ! R2    R(1,19)                 1.0866         estimate D2E/DX2                !
 ! R3    R(1,20)                 1.0856         estimate D2E/DX2                !
 ! R4    R(1,21)                 1.087          estimate D2E/DX2                !
 ! R5    R(2,3)                  1.5367         estimate D2E/DX2                !
 ! R6    R(2,4)                  1.5001         estimate D2E/DX2                !
 ! R7    R(2,13)                 1.5151         estimate D2E/DX2                !
 ! R8    R(3,22)                 1.0872         estimate D2E/DX2                !
 ! R9    R(3,23)                 1.0875         estimate D2E/DX2                !
 ! R10   R(3,24)                 1.0876         estimate D2E/DX2                !
 ! R11   R(4,5)                  1.2611         estimate D2E/DX2                !
 ! R12   R(4,12)                 1.3573         estimate D2E/DX2                !
 ! R13   R(5,6)                  1.4474         estimate D2E/DX2                !
 ! R14   R(6,7)                  1.5455         estimate D2E/DX2                !
 ! R15   R(6,11)                 1.5538         estimate D2E/DX2                !
 ! R16   R(6,25)                 1.0967         estimate D2E/DX2                !
 ! R17   R(7,8)                  1.5296         estimate D2E/DX2                !
 ! R18   R(7,9)                  1.5311         estimate D2E/DX2                !
 ! R19   R(7,10)                 1.5297         estimate D2E/DX2                !
 ! R20   R(8,26)                 1.0877         estimate D2E/DX2                !
 ! R21   R(8,27)                 1.0875         estimate D2E/DX2                !
 ! R22   R(8,28)                 1.0878         estimate D2E/DX2                !
 ! R23   R(9,29)                 1.0877         estimate D2E/DX2                !
 ! R24   R(9,30)                 1.0874         estimate D2E/DX2                !
 ! R25   R(9,31)                 1.0864         estimate D2E/DX2                !
 ! R26   R(10,32)                1.088          estimate D2E/DX2                !
 ! R27   R(10,33)                1.0876         estimate D2E/DX2                !
 ! R28   R(10,34)                1.0874         estimate D2E/DX2                !
 ! R29   R(11,12)                1.4209         estimate D2E/DX2                !
 ! R30   R(11,35)                1.0934         estimate D2E/DX2                !
 ! R31   R(11,36)                1.0921         estimate D2E/DX2                !
 ! R32   R(13,14)                1.3931         estimate D2E/DX2                !
 ! R33   R(13,18)                1.3242         estimate D2E/DX2                !
 ! R34   R(14,15)                1.3827         estimate D2E/DX2                !
 ! R35   R(14,37)                1.0773         estimate D2E/DX2                !
 ! R36   R(15,16)                1.387          estimate D2E/DX2                !
 ! R37   R(15,38)                1.0808         estimate D2E/DX2                !
 ! R38   R(16,17)                1.384          estimate D2E/DX2                !
 ! R39   R(16,39)                1.0791         estimate D2E/DX2                !
 ! R40   R(17,18)                1.3217         estimate D2E/DX2                !
 ! R41   R(17,40)                1.0829         estimate D2E/DX2                !
 ! A1    A(2,1,19)             110.1201         estimate D2E/DX2                !
 ! A2    A(2,1,20)             109.618          estimate D2E/DX2                !
 ! A3    A(2,1,21)             109.8153         estimate D2E/DX2                !
 ! A4    A(19,1,20)            108.2513         estimate D2E/DX2                !
 ! A5    A(19,1,21)            109.325          estimate D2E/DX2                !
 ! A6    A(20,1,21)            109.6874         estimate D2E/DX2                !
 ! A7    A(1,2,3)              109.6514         estimate D2E/DX2                !
 ! A8    A(1,2,4)              107.7333         estimate D2E/DX2                !
 ! A9    A(1,2,13)             110.9386         estimate D2E/DX2                !
 ! A10   A(3,2,4)              109.0            estimate D2E/DX2                !
 ! A11   A(3,2,13)             109.6149         estimate D2E/DX2                !
 ! A12   A(4,2,13)             109.8611         estimate D2E/DX2                !
 ! A13   A(2,3,22)             109.7704         estimate D2E/DX2                !
 ! A14   A(2,3,23)             109.582          estimate D2E/DX2                !
 ! A15   A(2,3,24)             110.9273         estimate D2E/DX2                !
 ! A16   A(22,3,23)            109.0687         estimate D2E/DX2                !
 ! A17   A(22,3,24)            108.7808         estimate D2E/DX2                !
 ! A18   A(23,3,24)            108.6766         estimate D2E/DX2                !
 ! A19   A(2,4,5)              126.2412         estimate D2E/DX2                !
 ! A20   A(2,4,12)             116.4617         estimate D2E/DX2                !
 ! A21   A(5,4,12)             117.2883         estimate D2E/DX2                !
 ! A22   A(4,5,6)              108.6187         estimate D2E/DX2                !
 ! A23   A(5,6,7)              110.614          estimate D2E/DX2                !
 ! A24   A(5,6,11)             103.1472         estimate D2E/DX2                !
 ! A25   A(5,6,25)             108.2314         estimate D2E/DX2                !
 ! A26   A(7,6,11)             116.1528         estimate D2E/DX2                !
 ! A27   A(7,6,25)             107.7043         estimate D2E/DX2                !
 ! A28   A(11,6,25)            110.7393         estimate D2E/DX2                !
 ! A29   A(6,7,8)              110.7965         estimate D2E/DX2                !
 ! A30   A(6,7,9)              107.3913         estimate D2E/DX2                !
 ! A31   A(6,7,10)             109.8377         estimate D2E/DX2                !
 ! A32   A(8,7,9)              108.9344         estimate D2E/DX2                !
 ! A33   A(8,7,10)             110.3668         estimate D2E/DX2                !
 ! A34   A(9,7,10)             109.4515         estimate D2E/DX2                !
 ! A35   A(7,8,26)             109.85           estimate D2E/DX2                !
 ! A36   A(7,8,27)             109.9613         estimate D2E/DX2                !
 ! A37   A(7,8,28)             111.6587         estimate D2E/DX2                !
 ! A38   A(26,8,27)            108.6313         estimate D2E/DX2                !
 ! A39   A(26,8,28)            108.5676         estimate D2E/DX2                !
 ! A40   A(27,8,28)            108.0991         estimate D2E/DX2                !
 ! A41   A(7,9,29)             110.6088         estimate D2E/DX2                !
 ! A42   A(7,9,30)             110.3874         estimate D2E/DX2                !
 ! A43   A(7,9,31)             109.6367         estimate D2E/DX2                !
 ! A44   A(29,9,30)            108.5321         estimate D2E/DX2                !
 ! A45   A(29,9,31)            108.496          estimate D2E/DX2                !
 ! A46   A(30,9,31)            109.1367         estimate D2E/DX2                !
 ! A47   A(7,10,32)            110.5968         estimate D2E/DX2                !
 ! A48   A(7,10,33)            109.7987         estimate D2E/DX2                !
 ! A49   A(7,10,34)            111.5576         estimate D2E/DX2                !
 ! A50   A(32,10,33)           108.3437         estimate D2E/DX2                !
 ! A51   A(32,10,34)           108.2929         estimate D2E/DX2                !
 ! A52   A(33,10,34)           108.1571         estimate D2E/DX2                !
 ! A53   A(6,11,12)            104.3876         estimate D2E/DX2                !
 ! A54   A(6,11,35)            112.4918         estimate D2E/DX2                !
 ! A55   A(6,11,36)            113.3968         estimate D2E/DX2                !
 ! A56   A(12,11,35)           108.7675         estimate D2E/DX2                !
 ! A57   A(12,11,36)           108.4796         estimate D2E/DX2                !
 ! A58   A(35,11,36)           109.0742         estimate D2E/DX2                !
 ! A59   A(4,12,11)            106.5223         estimate D2E/DX2                !
 ! A60   A(2,13,14)            121.1063         estimate D2E/DX2                !
 ! A61   A(2,13,18)            116.9108         estimate D2E/DX2                !
 ! A62   A(14,13,18)           121.972          estimate D2E/DX2                !
 ! A63   A(13,14,15)           118.8059         estimate D2E/DX2                !
 ! A64   A(13,14,37)           120.3949         estimate D2E/DX2                !
 ! A65   A(15,14,37)           120.7878         estimate D2E/DX2                !
 ! A66   A(14,15,16)           119.0033         estimate D2E/DX2                !
 ! A67   A(14,15,38)           120.4472         estimate D2E/DX2                !
 ! A68   A(16,15,38)           120.5496         estimate D2E/DX2                !
 ! A69   A(15,16,17)           117.7678         estimate D2E/DX2                !
 ! A70   A(15,16,39)           121.3233         estimate D2E/DX2                !
 ! A71   A(17,16,39)           120.9088         estimate D2E/DX2                !
 ! A72   A(16,17,18)           123.4707         estimate D2E/DX2                !
 ! A73   A(16,17,40)           121.2917         estimate D2E/DX2                !
 ! A74   A(18,17,40)           115.2375         estimate D2E/DX2                !
 ! A75   A(13,18,17)           118.9779         estimate D2E/DX2                !
 ! D1    D(19,1,2,3)          -179.6453         estimate D2E/DX2                !
 ! D2    D(19,1,2,4)            61.8558         estimate D2E/DX2                !
 ! D3    D(19,1,2,13)          -58.427          estimate D2E/DX2                !
 ! D4    D(20,1,2,3)           -60.6541         estimate D2E/DX2                !
 ! D5    D(20,1,2,4)          -179.153          estimate D2E/DX2                !
 ! D6    D(20,1,2,13)           60.5641         estimate D2E/DX2                !
 ! D7    D(21,1,2,3)            59.916          estimate D2E/DX2                !
 ! D8    D(21,1,2,4)           -58.583          estimate D2E/DX2                !
 ! D9    D(21,1,2,13)         -178.8658         estimate D2E/DX2                !
 ! D10   D(1,2,3,22)           -58.9647         estimate D2E/DX2                !
 ! D11   D(1,2,3,23)            60.7935         estimate D2E/DX2                !
 ! D12   D(1,2,3,24)          -179.2117         estimate D2E/DX2                !
 ! D13   D(4,2,3,22)            58.7467         estimate D2E/DX2                !
 ! D14   D(4,2,3,23)           178.5049         estimate D2E/DX2                !
 ! D15   D(4,2,3,24)           -61.5002         estimate D2E/DX2                !
 ! D16   D(13,2,3,22)          179.0226         estimate D2E/DX2                !
 ! D17   D(13,2,3,23)          -61.2192         estimate D2E/DX2                !
 ! D18   D(13,2,3,24)           58.7756         estimate D2E/DX2                !
 ! D19   D(1,2,4,5)           -119.7574         estimate D2E/DX2                !
 ! D20   D(1,2,4,12)            59.1363         estimate D2E/DX2                !
 ! D21   D(3,2,4,5)            121.3266         estimate D2E/DX2                !
 ! D22   D(3,2,4,12)           -59.7798         estimate D2E/DX2                !
 ! D23   D(13,2,4,5)             1.2025         estimate D2E/DX2                !
 ! D24   D(13,2,4,12)         -179.9039         estimate D2E/DX2                !
 ! D25   D(1,2,13,14)          173.4585         estimate D2E/DX2                !
 ! D26   D(1,2,13,18)           -7.7199         estimate D2E/DX2                !
 ! D27   D(3,2,13,14)          -65.3018         estimate D2E/DX2                !
 ! D28   D(3,2,13,18)          113.5199         estimate D2E/DX2                !
 ! D29   D(4,2,13,14)           54.4482         estimate D2E/DX2                !
 ! D30   D(4,2,13,18)         -126.7301         estimate D2E/DX2                !
 ! D31   D(2,4,5,6)            177.2069         estimate D2E/DX2                !
 ! D32   D(12,4,5,6)            -1.6786         estimate D2E/DX2                !
 ! D33   D(2,4,12,11)         -178.4078         estimate D2E/DX2                !
 ! D34   D(5,4,12,11)            0.5881         estimate D2E/DX2                !
 ! D35   D(4,5,6,7)           -122.9514         estimate D2E/DX2                !
 ! D36   D(4,5,6,11)             1.9003         estimate D2E/DX2                !
 ! D37   D(4,5,6,25)           119.2749         estimate D2E/DX2                !
 ! D38   D(5,6,7,8)             56.6944         estimate D2E/DX2                !
 ! D39   D(5,6,7,9)            -62.1665         estimate D2E/DX2                !
 ! D40   D(5,6,7,10)           178.8883         estimate D2E/DX2                !
 ! D41   D(11,6,7,8)           -60.3986         estimate D2E/DX2                !
 ! D42   D(11,6,7,9)          -179.2595         estimate D2E/DX2                !
 ! D43   D(11,6,7,10)           61.7954         estimate D2E/DX2                !
 ! D44   D(25,6,7,8)           174.7905         estimate D2E/DX2                !
 ! D45   D(25,6,7,9)            55.9296         estimate D2E/DX2                !
 ! D46   D(25,6,7,10)          -63.0155         estimate D2E/DX2                !
 ! D47   D(5,6,11,12)           -1.5253         estimate D2E/DX2                !
 ! D48   D(5,6,11,35)          116.2305         estimate D2E/DX2                !
 ! D49   D(5,6,11,36)         -119.3998         estimate D2E/DX2                !
 ! D50   D(7,6,11,12)          119.6379         estimate D2E/DX2                !
 ! D51   D(7,6,11,35)         -122.6062         estimate D2E/DX2                !
 ! D52   D(7,6,11,36)            1.7634         estimate D2E/DX2                !
 ! D53   D(25,6,11,12)        -117.1187         estimate D2E/DX2                !
 ! D54   D(25,6,11,35)           0.6371         estimate D2E/DX2                !
 ! D55   D(25,6,11,36)         125.0068         estimate D2E/DX2                !
 ! D56   D(6,7,8,26)           -58.8315         estimate D2E/DX2                !
 ! D57   D(6,7,8,27)          -178.3357         estimate D2E/DX2                !
 ! D58   D(6,7,8,28)            61.6736         estimate D2E/DX2                !
 ! D59   D(9,7,8,26)            59.0928         estimate D2E/DX2                !
 ! D60   D(9,7,8,27)           -60.4114         estimate D2E/DX2                !
 ! D61   D(9,7,8,28)           179.5979         estimate D2E/DX2                !
 ! D62   D(10,7,8,26)          179.284          estimate D2E/DX2                !
 ! D63   D(10,7,8,27)           59.7798         estimate D2E/DX2                !
 ! D64   D(10,7,8,28)          -60.2109         estimate D2E/DX2                !
 ! D65   D(6,7,9,29)           -63.6389         estimate D2E/DX2                !
 ! D66   D(6,7,9,30)           176.2275         estimate D2E/DX2                !
 ! D67   D(6,7,9,31)            55.9671         estimate D2E/DX2                !
 ! D68   D(8,7,9,29)           176.3089         estimate D2E/DX2                !
 ! D69   D(8,7,9,30)            56.1753         estimate D2E/DX2                !
 ! D70   D(8,7,9,31)           -64.0851         estimate D2E/DX2                !
 ! D71   D(10,7,9,29)           55.5542         estimate D2E/DX2                !
 ! D72   D(10,7,9,30)          -64.5793         estimate D2E/DX2                !
 ! D73   D(10,7,9,31)          175.1602         estimate D2E/DX2                !
 ! D74   D(6,7,10,32)           56.0183         estimate D2E/DX2                !
 ! D75   D(6,7,10,33)          175.5311         estimate D2E/DX2                !
 ! D76   D(6,7,10,34)          -64.5789         estimate D2E/DX2                !
 ! D77   D(8,7,10,32)          178.4672         estimate D2E/DX2                !
 ! D78   D(8,7,10,33)          -62.0199         estimate D2E/DX2                !
 ! D79   D(8,7,10,34)           57.8701         estimate D2E/DX2                !
 ! D80   D(9,7,10,32)          -61.6528         estimate D2E/DX2                !
 ! D81   D(9,7,10,33)           57.86           estimate D2E/DX2                !
 ! D82   D(9,7,10,34)          177.75           estimate D2E/DX2                !
 ! D83   D(6,11,12,4)            0.6855         estimate D2E/DX2                !
 ! D84   D(35,11,12,4)        -119.5981         estimate D2E/DX2                !
 ! D85   D(36,11,12,4)         121.8818         estimate D2E/DX2                !
 ! D86   D(2,13,14,15)         179.3652         estimate D2E/DX2                !
 ! D87   D(2,13,14,37)          -1.8505         estimate D2E/DX2                !
 ! D88   D(18,13,14,15)          0.6038         estimate D2E/DX2                !
 ! D89   D(18,13,14,37)        179.3881         estimate D2E/DX2                !
 ! D90   D(2,13,18,17)        -179.137          estimate D2E/DX2                !
 ! D91   D(14,13,18,17)         -0.3263         estimate D2E/DX2                !
 ! D92   D(13,14,15,16)         -0.4845         estimate D2E/DX2                !
 ! D93   D(13,14,15,38)        179.5108         estimate D2E/DX2                !
 ! D94   D(37,14,15,16)       -179.2638         estimate D2E/DX2                !
 ! D95   D(37,14,15,38)          0.7315         estimate D2E/DX2                !
 ! D96   D(14,15,16,17)          0.1224         estimate D2E/DX2                !
 ! D97   D(14,15,16,39)       -179.9797         estimate D2E/DX2                !
 ! D98   D(38,15,16,17)       -179.8729         estimate D2E/DX2                !
 ! D99   D(38,15,16,39)          0.025          estimate D2E/DX2                !
 ! D100  D(15,16,17,18)          0.1644         estimate D2E/DX2                !
 ! D101  D(15,16,17,40)       -179.9101         estimate D2E/DX2                !
 ! D102  D(39,16,17,18)       -179.7339         estimate D2E/DX2                !
 ! D103  D(39,16,17,40)          0.1916         estimate D2E/DX2                !
 ! D104  D(16,17,18,13)         -0.065          estimate D2E/DX2                !
 ! D105  D(40,17,18,13)       -179.9946         estimate D2E/DX2                !
 --------------------------------------------------------------------------------
 Trust Radius=3.00D-01 FncErr=1.00D-07 GrdErr=1.00D-06 EigMax=2.50D+02 EigMin=1.00D-04
 Number of steps in this run=    231 maximum allowed number of steps=    240.
 GradGradGradGradGradGradGradGradGradGradGradGradGradGradGradGradGradGrad

 Leave Link  103 at Mon Feb 26 09:31:43 2024, MaxMem=  7516192768 cpu:               0.4 elap:               0.0
 (Enter /public/apps/g16-C01//g16/l202.exe)
                          Input orientation:                          
 ---------------------------------------------------------------------
 Center     Atomic      Atomic             Coordinates (Angstroms)
 Number     Number       Type             X           Y           Z
 ---------------------------------------------------------------------
      1          6           0       -1.341101   -1.665196    1.679098
      2          6           0       -1.175922   -1.321616    0.194414
      3          6           0       -1.630481   -2.511611   -0.665097
      4          6           0        0.280934   -1.066421   -0.056185
      5          7           0        0.787292    0.007117   -0.482327
      6          6           0        2.226308   -0.143744   -0.520061
      7          6           0        2.910630    0.950819    0.329739
      8          6           0        2.398249    0.919313    1.770573
      9          6           0        2.555878    2.303233   -0.294252
     10          6           0        4.427923    0.758345    0.299924
     11          6           0        2.440451   -1.609254   -0.050384
     12          8           0        1.130807   -2.086674    0.225060
     13          6           0       -1.983895   -0.092872   -0.170138
     14          6           0       -1.882731    0.486407   -1.433049
     15          6           0       -2.651995    1.599196   -1.719195
     16          6           0       -3.505295    2.095518   -0.744831
     17          6           0       -3.538732    1.443857    0.475718
     18          7           0       -2.801521    0.383347    0.756254
     19          1           0       -1.027531   -0.826052    2.294078
     20          1           0       -2.385655   -1.870867    1.891605
     21          1           0       -0.739005   -2.536155    1.924960
     22          1           0       -1.040411   -3.390635   -0.417664
     23          1           0       -2.679682   -2.721794   -0.470890
     24          1           0       -1.508878   -2.294939   -1.723934
     25          1           0        2.557585   -0.016145   -1.557725
     26          1           0        1.321026    1.069480    1.782864
     27          1           0        2.866272    1.712814    2.348477
     28          1           0        2.621396   -0.028544    2.255400
     29          1           0        2.964816    2.380260   -1.299222
     30          1           0        2.959433    3.115034    0.306264
     31          1           0        1.475944    2.406289   -0.352764
     32          1           0        4.793013    0.753150   -0.724984
     33          1           0        4.913170    1.573367    0.831996
     34          1           0        4.721437   -0.176475    0.771539
     35          1           0        2.887405   -2.236236   -0.826733
     36          1           0        3.037047   -1.689839    0.860828
     37          1           0       -1.201760    0.083943   -2.164342
     38          1           0       -2.588604    2.074492   -2.687795
     39          1           0       -4.122618    2.961400   -0.927965
     40          1           0       -4.184989    1.781798    1.276226
 ---------------------------------------------------------------------
                    Distance matrix (angstroms):
                    1          2          3          4          5
     1  C    0.000000
     2  C    1.532846   0.000000
     3  C    2.509065   1.536708   0.000000
     4  C    2.449640   1.500118   2.472419   0.000000
     5  N    3.463877   2.465303   3.496144   1.261142   0.000000
     6  C    4.458422   3.670562   4.527985   2.202497   1.447394
     7  C    5.171220   4.677839   5.796534   3.336689   2.461420
     8  C    4.546514   4.503414   5.825323   3.429753   2.915963
     9  C    5.901609   5.225386   6.391076   4.072667   2.904379
    10  C    6.407598   5.978332   6.951844   4.544678   3.798744
    11  C    4.158650   3.636044   4.214808   2.226705   2.352055
    12  O    2.898655   2.430484   2.932177   1.357313   2.236596
    13  C    2.510988   1.515101   2.494030   2.467840   2.790508
    14  C    3.822070   2.533212   3.105075   2.998079   2.874476
    15  C    4.891124   3.791020   4.365014   4.298045   3.986634
    16  C    4.970124   4.240868   4.974628   4.980725   4.780861
    17  C    3.992983   3.648266   4.537467   4.601550   4.657956
    18  N    2.679738   2.421804   3.431087   3.501916   3.815129
    19  H    1.086595   2.162451   3.458522   2.700665   3.419968
    20  H    1.085612   2.155363   2.741818   3.398782   4.385199
    21  H    1.086985   2.158886   2.739293   2.669331   3.820058
    22  H    2.732026   2.161907   1.087239   2.697886   3.858678
    23  H    2.744202   2.159727   1.087527   3.417234   4.412142
    24  H    3.464874   2.176758   1.087598   2.737530   3.480438
    25  H    5.328803   4.325890   4.956211   2.922472   2.071463
    26  H    3.817871   3.804637   5.246725   3.004324   2.558237
    27  H    5.437004   5.494277   6.866453   4.493386   3.904486
    28  H    4.325753   4.509914   5.724804   3.449402   3.295506
    29  H    6.616421   5.751569   6.741607   4.541803   3.322760
    30  H    6.574942   6.066097   7.325980   4.978985   3.872883
    31  H    5.351747   4.607502   5.825218   3.684525   2.499411
    32  H    7.018216   6.385776   7.205798   4.910905   4.081819
    33  H    7.093784   6.772332   7.857971   5.405086   4.604721
    34  H    6.308274   6.035169   6.918356   4.603824   4.133205
    35  H    4.948286   4.288344   4.529156   2.959037   3.092204
    36  H    4.454027   4.281215   4.978913   2.970812   3.121718
    37  H    4.225037   2.745905   3.027943   2.822418   2.606032
    38  H    5.883136   4.672938   5.103102   5.002495   4.531534
    39  H    5.994915   5.318550   6.019443   6.031137   5.747486
    40  H    4.486844   4.456005   5.359814   5.461881   5.564672
                    6          7          8          9         10
     6  C    0.000000
     7  C    1.545485   0.000000
     8  C    2.531138   1.529552   0.000000
     9  C    2.479375   1.531090   2.490699   0.000000
    10  C    2.516595   1.529743   2.511632   2.498855   0.000000
    11  C    1.553761   2.630501   3.116299   3.921779   3.110994
    12  O    2.351660   3.522086   3.609845   4.644545   4.355538
    13  C    4.225026   5.029467   4.898374   5.134809   6.485132
    14  C    4.256153   5.128295   5.364456   4.929398   6.549924
    15  C    5.317293   5.963331   6.176219   5.445004   7.410068
    16  C    6.157604   6.605235   6.523998   6.081446   8.112675
    17  C    6.061991   6.469827   6.099143   6.202874   7.998026
    18  N    5.214007   5.756093   5.324820   5.787162   7.253532
    19  H    4.355731   4.746052   3.880248   5.415967   6.020709
    20  H    5.483547   6.200965   5.539449   6.827872   7.474694
    21  H    4.527123   5.293728   4.669738   6.261057   6.339686
    22  H    4.606977   5.917564   5.931982   6.735626   6.901568
    23  H    5.542337   6.736518   6.638313   7.259007   7.951325
    24  H    4.475328   5.855303   6.148873   6.301541   6.975970
    25  H    1.096710   2.149926   3.460930   2.641189   2.747519
    26  H    2.755887   2.156964   1.087709   2.713193   3.456693
    27  H    3.476330   2.158219   1.087503   2.725611   2.747059
    28  H    2.805806   2.179674   1.087789   3.455749   2.776080
    29  H    2.742824   2.167891   3.446593   1.087717   2.707131
    30  H    3.440918   2.164892   2.698207   1.087427   2.776776
    31  H    2.663401   2.154652   2.751419   1.086417   3.443240
    32  H    2.726607   2.166767   3.462703   2.755551   1.088005
    33  H    3.463489   2.156385   2.762886   2.712557   1.087578
    34  H    2.809799   2.178302   2.756088   3.460420   1.087410
    35  H    2.215766   3.390470   4.116159   4.582600   3.551066
    36  H    2.225885   2.696500   2.836084   4.184538   2.871020
    37  H    3.808825   4.887092   5.398283   4.747876   6.182294
    38  H    5.727392   6.372576   6.788239   5.678650   7.738886
    39  H    7.079348   7.422320   7.346695   6.740704   8.914758
    40  H    6.931024   7.206537   6.657874   6.941007   8.728280
                   11         12         13         14         15
    11  C    0.000000
    12  O    1.420903   0.000000
    13  C    4.678525   3.719247   0.000000
    14  C    4.999346   4.295519   1.393105   0.000000
    15  C    6.245966   5.628086   2.389358   1.382731   0.000000
    16  C    7.039850   6.318612   2.726533   2.386545   1.387026
    17  C    6.734159   5.859358   2.279514   2.702303   2.372357
    18  N    5.665633   4.674011   1.324197   2.376519   2.761973
    19  H    4.258733   3.244754   2.743091   4.042943   4.962567
    20  H    5.208749   3.897364   2.751992   4.106458   5.014993
    21  H    3.856173   2.566689   3.450916   4.660495   5.834426
    22  H    3.927418   2.612967   3.438993   4.095359   5.402740
    23  H    5.256456   3.925245   2.736019   3.442882   4.497776
    24  H    4.343746   3.287840   2.736608   2.821394   4.058451
    25  H    2.196314   3.082387   4.749350   4.470404   5.456659
    26  H    3.433588   3.524804   4.010958   4.576694   5.322585
    27  H    4.119708   4.685813   5.755697   6.193306   6.856394
    28  H    2.801433   3.252697   5.205389   5.844398   6.801147
    29  H    4.213167   5.063647   5.646322   5.206083   5.686388
    30  H    4.766071   5.514366   5.912200   5.777668   6.155353
    31  H    4.140808   4.543095   4.271960   4.016673   4.422489
    32  H    3.401556   4.730638   6.852014   6.718487   7.558597
    33  H    4.125774   5.298164   7.165901   7.245425   7.983794
    34  H    2.816258   4.103672   6.771648   6.993901   7.982748
    35  H    1.093431   2.052870   5.362340   5.525812   6.796468
    36  H    1.092121   2.048275   5.368711   5.848259   7.059707
    37  H    4.538880   3.982674   2.149383   1.077260   2.144138
    38  H    6.768849   6.295558   3.376646   2.143515   1.080792
    39  H    8.045800   7.376381   3.804867   3.376062   2.155082
    40  H    7.560131   6.657906   3.232827   3.783993   3.369861
                   16         17         18         19         20
    16  C    0.000000
    17  C    1.384023   0.000000
    18  N    2.383293   1.321689   0.000000
    19  H    4.889770   3.842532   2.640945   0.000000
    20  H    4.892504   3.784405   2.558016   1.760149   0.000000
    21  H    6.019347   5.077329   3.760763   1.773118   1.776282
    22  H    6.023335   5.514712   4.326954   3.732398   3.074427
    23  H    4.895220   4.357371   3.341052   3.737444   2.528223
    24  H    4.921426   4.789298   3.872399   4.305084   3.744422
    25  H    6.471355   6.590264   5.850992   5.324039   6.306623
    26  H    5.543949   5.046388   4.303499   3.061062   4.732542
    27  H    7.093087   6.678596   6.035440   4.648710   6.374499
    28  H    7.144884   6.578937   5.641376   3.735262   5.347622
    29  H    6.500059   6.806130   6.439199   6.255484   7.541949
    30  H    6.628493   6.711758   6.391650   5.948062   7.479471
    31  H    5.006300   5.172971   4.859930   4.870440   6.184109
    32  H    8.406204   8.446108   7.746468   6.744431   8.078693
    33  H    8.580768   8.460399   7.806301   6.571668   8.139924
    34  H    8.668359   8.422789   7.543774   5.982534   7.391635
    35  H    7.722526   7.518956   6.460026   5.201423   5.943738
    36  H    7.727180   7.294466   6.196605   4.395580   5.522768
    37  H    3.371605   3.778984   3.343465   4.553675   4.655491
    38  H    2.148458   3.362775   3.842757   5.972367   6.047971
    39  H    1.079063   2.148066   3.350858   5.857125   5.858141
    40  H    2.155244   1.082897   2.034704   4.219768   4.118040
                   21         22         23         24         25
    21  H    0.000000
    22  H    2.511746   0.000000
    23  H    3.088816   1.771268   0.000000
    24  H    3.737020   1.768149   1.767231   0.000000
    25  H    5.417292   5.062855   5.994223   4.664402   0.000000
    26  H    4.155060   5.505573   5.954732   5.623638   3.723868
    27  H    5.588482   6.997064   7.640169   7.196426   4.282873
    28  H    4.205900   5.644268   6.541229   6.166912   3.813679
    29  H    6.948725   7.079705   7.653590   6.484736   2.444467
    30  H    6.945110   7.671151   8.153045   7.304472   3.666090
    31  H    5.875524   6.319856   6.601547   5.735051   2.913772
    32  H    6.960241   7.161999   8.245057   7.071250   2.506474
    33  H    7.073176   7.851630   8.820279   7.920812   3.712963
    34  H    6.059282   6.704023   7.924572   7.037905   3.183305
    35  H    4.562085   4.114330   5.599540   4.487284   2.360495
    36  H    4.013377   4.599230   5.959815   5.264273   2.980022
    37  H    4.878673   3.892250   3.595023   2.438721   3.809288
    38  H    6.779129   6.117026   5.284631   4.602908   5.668429
    39  H    7.057700   7.078754   5.881299   5.924044   7.340809
    40  H    5.562408   6.285833   5.059714   5.725584   7.531679
                   26         27         28         29         30
    26  H    0.000000
    27  H    1.766800   0.000000
    28  H    1.766326   1.760953   0.000000
    29  H    3.730877   3.709569   4.307622   0.000000
    30  H    3.008158   2.479019   3.714227   1.765646   0.000000
    31  H    2.524275   3.116187   3.747398   1.764426   1.771264
    32  H    4.294655   3.752259   3.769570   2.513870   3.162908
    33  H    3.749873   2.551265   3.137583   2.998208   2.543663
    34  H    3.760050   3.081847   2.575636   3.729700   3.762336
    35  H    4.493473   5.067287   3.800554   4.641258   5.470371
    36  H    3.377680   3.717568   2.208506   4.608334   4.837393
    37  H    4.787083   6.290281   5.844938   4.835479   5.710248
    38  H    6.023458   7.433069   7.483451   5.732548   6.389666
    39  H    6.368769   7.819119   8.034631   7.120904   7.190436
    40  H    5.574969   7.132655   7.110766   7.623044   7.332197
                   31         32         33         34         35
    31  H    0.000000
    32  H    3.724831   0.000000
    33  H    3.729871   1.763911   0.000000
    34  H    4.297436   1.763209   1.761353   0.000000
    35  H    4.875439   3.546565   4.622573   3.187595   0.000000
    36  H    4.548419   3.400943   3.764197   2.266145   1.780114
    37  H    3.980604   6.201362   6.970566   6.616002   4.888118
    38  H    4.699256   7.751570   8.301606   8.394674   7.213363
    39  H    5.655343   9.187276   9.309649   9.536870   8.727319
    40  H    5.923661   9.255673   9.111382   9.133125   8.401535
                   36         37         38         39         40
    36  H    0.000000
    37  H    5.501404   0.000000
    38  H    7.642700   2.481859   0.000000
    39  H    8.723222   4.282499   2.497360   0.000000
    40  H    8.023878   4.860028   4.283407   2.500762   0.000000
 Symmetry turned off by external request.
 Stoichiometry    C15H22N2O
 Framework group  C1[X(C15H22N2O)]
 Deg. of freedom   114
 Full point group                 C1      NOp   1
 Rotational constants (GHZ):           0.6811645           0.2973077           0.2468377
 Leave Link  202 at Mon Feb 26 09:31:43 2024, MaxMem=  7516192768 cpu:               0.4 elap:               0.0
 (Enter /public/apps/g16-C01//g16/l301.exe)
 Standard basis: def2SVPP (5D, 7F)
 Ernie: Thresh=  0.10000D-02 Tol=  0.10000D-05 Strict=F.
   296 basis functions,   538 primitive gaussians,   314 cartesian basis functions
    67 alpha electrons       67 beta electrons
       nuclear repulsion energy      1400.8943774598 Hartrees.
 IExCor=  402 DFT=T Ex+Corr=B3LYP ExCW=0 ScaHFX=  0.200000
 ScaDFX=  0.800000  0.720000  1.000000  0.810000 ScalE2=  1.000000  1.000000
 IRadAn=      5 IRanWt=     -1 IRanGd=            0 ICorTp=0 IEmpDi=141
 NAtoms=   40 NActive=   40 NUniq=   40 SFac= 1.00D+00 NAtFMM=   60 NAOKFM=F Big=F
 Integral buffers will be    131072 words long.
 Raffenetti 2 integral format.
 Two-electron integral symmetry is turned off.
 R6Disp:  Grimme-D3(BJ) Dispersion energy=       -0.0822435381 Hartrees.
 Nuclear repulsion after empirical dispersion term =     1400.8121339217 Hartrees.
 Leave Link  301 at Mon Feb 26 09:31:43 2024, MaxMem=  7516192768 cpu:               1.1 elap:               0.0
 (Enter /public/apps/g16-C01//g16/l302.exe)
 NPDir=0 NMtPBC=     1 NCelOv=     1 NCel=       1 NClECP=     1 NCelD=      1
         NCelK=      1 NCelE2=     1 NClLst=     1 CellRange=     0.0.
 One-electron integrals computed using PRISM.
   1 Symmetry operations used in ECPInt.
 ECPInt:  NShTT=   11628 NPrTT=   46660 LenC2=   11174 LenP2D=   31479.
 LDataN:  DoStor=T MaxTD1= 4 Len=   56
 NBasis=   296 RedAO= T EigKep=  5.43D-04  NBF=   296
 NBsUse=   296 1.00D-06 EigRej= -1.00D+00 NBFU=   296
 Precomputing XC quadrature grid using
 IXCGrd= 4 IRadAn=           5 IRanWt=          -1 IRanGd=           0 AccXCQ= 0.00D+00.
 Generated NRdTot=       0 NPtTot=           0 NUsed=           0 NTot=          32
 NSgBfM=   313   313   313   313   313 MxSgAt=    40 MxSgA2=    40.
 Leave Link  302 at Mon Feb 26 09:31:43 2024, MaxMem=  7516192768 cpu:               9.7 elap:               0.3
 (Enter /public/apps/g16-C01//g16/l303.exe)
 DipDrv:  MaxL=1.
 Leave Link  303 at Mon Feb 26 09:31:43 2024, MaxMem=  7516192768 cpu:               1.2 elap:               0.0
 (Enter /public/apps/g16-C01//g16/l401.exe)
 ExpMin= 1.22D-01 ExpMax= 2.27D+03 ExpMxC= 3.41D+02 IAcc=3 IRadAn=         5 AccDes= 0.00D+00
 Harris functional with IExCor=  402 and IRadAn=       5 diagonalized for initial guess.
 HarFok:  IExCor=  402 AccDes= 0.00D+00 IRadAn=         5 IDoV= 1 UseB2=F ITyADJ=14
 ICtDFT=  3500011 ScaDFX=  1.000000  1.000000  1.000000  1.000000
 FoFCou: FMM=F IPFlag=           0 FMFlag=      100000 FMFlg1=           0
         NFxFlg=           0 DoJE=T BraDBF=F KetDBF=T FulRan=T
         wScrn=  0.000000 ICntrl=       500 IOpCl=  0 I1Cent=   200000004 NGrid=           0
         NMat0=    1 NMatS0=      1 NMatT0=    0 NMatD0=    1 NMtDS0=    0 NMtDT0=    0
 Symmetry not used in FoFCou.
 Harris En= -769.039221797423    
 JPrj=0 DoOrth=F DoCkMO=F.
 Leave Link  401 at Mon Feb 26 09:31:44 2024, MaxMem=  7516192768 cpu:              19.8 elap:               0.5
 (Enter /public/apps/g16-C01//g16/l502.exe)
 Two-electron integral symmetry not used.
 Closed shell SCF:
 Using DIIS extrapolation, IDIIS=  1040.
 NGot=  7516192768 LenX=  7515979120 LenY=  7515880083
 Requested convergence on RMS density matrix=1.00D-08 within 128 cycles.
 Requested convergence on MAX density matrix=1.00D-06.
 Requested convergence on             energy=1.00D-06.
 No special actions if energy rises.
 Fock matrices will be formed incrementally for  20 cycles.
 Integral accuracy reduced to 1.0D-05 until final iterations.

 Cycle   1  Pass 0  IDiag  1:
 FoFJK:  IHMeth= 1 ICntrl=       0 DoSepK=F KAlg= 0 I1Cent=           0 FoldK=F
 IRaf= 910000000 NMat=       1 IRICut=       1 DoRegI=T DoRafI=F ISym2E= 0 IDoP0=0 IntGTp=1.
 FoFCou: FMM=F IPFlag=           0 FMFlag=      100000 FMFlg1=           0
         NFxFlg=           0 DoJE=F BraDBF=F KetDBF=F FulRan=T
         wScrn=  0.000000 ICntrl=         0 IOpCl=  0 I1Cent=           0 NGrid=           0
         NMat0=    1 NMatS0=      1 NMatT0=    0 NMatD0=    1 NMtDS0=    0 NMtDT0=    0
 Symmetry not used in FoFCou.
 E= -768.560554706238    
 DIIS: error= 4.18D-02 at cycle   1 NSaved=   1.
 NSaved= 1 IEnMin= 1 EnMin= -768.560554706238     IErMin= 1 ErrMin= 4.18D-02
 ErrMax= 4.18D-02  0.00D+00 EMaxC= 1.00D-01 BMatC= 4.34D-01 BMatP= 4.34D-01
 IDIUse=3 WtCom= 5.82D-01 WtEn= 4.18D-01
 Coeff-Com:  0.100D+01
 Coeff-En:   0.100D+01
 Coeff:      0.100D+01
 Gap=     0.249 Goal=   None    Shift=    0.000
 GapD=    0.249 DampG=1.000 DampE=0.500 DampFc=0.5000 IDamp=-1.
 Damping current iteration by 5.00D-01
 RMSDP=6.23D-03 MaxDP=2.07D-01              OVMax= 1.97D-01

 Cycle   2  Pass 0  IDiag  1:
 RMSU=  3.06D-03    CP:  9.74D-01
 E= -768.764807433247     Delta-E=       -0.204252727009 Rises=F Damp=T
 DIIS: error= 4.71D-03 at cycle   2 NSaved=   2.
 NSaved= 2 IEnMin= 2 EnMin= -768.764807433247     IErMin= 2 ErrMin= 4.71D-03
 ErrMax= 4.71D-03  0.00D+00 EMaxC= 1.00D-01 BMatC= 2.46D-02 BMatP= 4.34D-01
 IDIUse=3 WtCom= 9.53D-01 WtEn= 4.71D-02
 Coeff-Com:  0.883D-01 0.912D+00
 Coeff-En:   0.144D+00 0.856D+00
 Coeff:      0.909D-01 0.909D+00
 Gap=     0.272 Goal=   None    Shift=    0.000
 RMSDP=1.94D-03 MaxDP=7.45D-02 DE=-2.04D-01 OVMax= 1.79D-01

 Cycle   3  Pass 0  IDiag  1:
 RMSU=  1.83D-03    CP:  9.60D-01  8.10D-01
 E= -769.010608010545     Delta-E=       -0.245800577298 Rises=F Damp=F
 DIIS: error= 7.45D-03 at cycle   3 NSaved=   3.
 NSaved= 3 IEnMin= 3 EnMin= -769.010608010545     IErMin= 2 ErrMin= 4.71D-03
 ErrMax= 7.45D-03  0.00D+00 EMaxC= 1.00D-01 BMatC= 2.82D-02 BMatP= 2.46D-02
 IDIUse=3 WtCom= 1.04D-01 WtEn= 8.96D-01
 Coeff-Com:  0.158D-01 0.519D+00 0.466D+00
 Coeff-En:   0.000D+00 0.000D+00 0.100D+01
 Coeff:      0.164D-02 0.538D-01 0.945D+00
 Gap=     0.237 Goal=   None    Shift=    0.000
 RMSDP=2.12D-03 MaxDP=1.07D-01 DE=-2.46D-01 OVMax= 2.02D-01

 Cycle   4  Pass 0  IDiag  1:
 RMSU=  1.42D-03    CP:  9.68D-01  1.09D+00  2.82D-01
 E= -768.931339558356     Delta-E=        0.079268452188 Rises=F Damp=F
 DIIS: error= 1.88D-02 at cycle   4 NSaved=   4.
 NSaved= 4 IEnMin= 3 EnMin= -769.010608010545     IErMin= 2 ErrMin= 4.71D-03
 ErrMax= 1.88D-02  0.00D+00 EMaxC= 1.00D-01 BMatC= 1.17D-01 BMatP= 2.46D-02
 IDIUse=2 WtCom= 0.00D+00 WtEn= 1.00D+00
 Coeff-En:   0.000D+00 0.000D+00 0.748D+00 0.252D+00
 Coeff:      0.000D+00 0.000D+00 0.748D+00 0.252D+00
 Gap=     0.234 Goal=   None    Shift=    0.000
 RMSDP=1.14D-03 MaxDP=7.22D-02 DE= 7.93D-02 OVMax= 8.58D-02

 Cycle   5  Pass 0  IDiag  1:
 RMSU=  2.12D-04    CP:  9.64D-01  9.25D-01  6.24D-01  4.51D-01
 E= -769.030724814716     Delta-E=       -0.099385256360 Rises=F Damp=F
 DIIS: error= 3.65D-03 at cycle   5 NSaved=   5.
 NSaved= 5 IEnMin= 5 EnMin= -769.030724814716     IErMin= 5 ErrMin= 3.65D-03
 ErrMax= 3.65D-03  0.00D+00 EMaxC= 1.00D-01 BMatC= 6.43D-03 BMatP= 2.46D-02
 IDIUse=3 WtCom= 9.63D-01 WtEn= 3.65D-02
 Coeff-Com:  0.361D-02 0.635D-02 0.317D+00-0.349D-02 0.677D+00
 Coeff-En:   0.000D+00 0.000D+00 0.232D+00 0.000D+00 0.768D+00
 Coeff:      0.348D-02 0.612D-02 0.314D+00-0.336D-02 0.680D+00
 Gap=     0.230 Goal=   None    Shift=    0.000
 RMSDP=3.42D-04 MaxDP=1.78D-02 DE=-9.94D-02 OVMax= 2.24D-02

 Cycle   6  Pass 0  IDiag  1:
 RMSU=  7.32D-05    CP:  9.63D-01  8.82D-01  7.39D-01  2.99D-01  7.72D-01
 E= -769.036578891257     Delta-E=       -0.005854076541 Rises=F Damp=F
 DIIS: error= 3.22D-04 at cycle   6 NSaved=   6.
 NSaved= 6 IEnMin= 6 EnMin= -769.036578891257     IErMin= 6 ErrMin= 3.22D-04
 ErrMax= 3.22D-04  0.00D+00 EMaxC= 1.00D-01 BMatC= 4.39D-05 BMatP= 6.43D-03
 IDIUse=3 WtCom= 9.97D-01 WtEn= 3.22D-03
 Coeff-Com:  0.617D-03-0.409D-02 0.102D+00-0.316D-01 0.362D+00 0.571D+00
 Coeff-En:   0.000D+00 0.000D+00 0.000D+00 0.000D+00 0.000D+00 0.100D+01
 Coeff:      0.615D-03-0.408D-02 0.101D+00-0.315D-01 0.361D+00 0.573D+00
 Gap=     0.229 Goal=   None    Shift=    0.000
 RMSDP=2.99D-05 MaxDP=1.87D-03 DE=-5.85D-03 OVMax= 1.10D-03

 Cycle   7  Pass 0  IDiag  1:
 RMSU=  1.37D-05    CP:  9.63D-01  8.83D-01  7.39D-01  3.04D-01  7.97D-01
                    CP:  6.62D-01
 E= -769.036617884215     Delta-E=       -0.000038992957 Rises=F Damp=F
 DIIS: error= 7.81D-05 at cycle   7 NSaved=   7.
 NSaved= 7 IEnMin= 7 EnMin= -769.036617884215     IErMin= 7 ErrMin= 7.81D-05
 ErrMax= 7.81D-05  0.00D+00 EMaxC= 1.00D-01 BMatC= 1.90D-06 BMatP= 4.39D-05
 IDIUse=1 WtCom= 1.00D+00 WtEn= 0.00D+00
 Coeff-Com:  0.253D-03-0.214D-02 0.427D-01-0.173D-01 0.167D+00 0.295D+00
 Coeff-Com:  0.514D+00
 Coeff:      0.253D-03-0.214D-02 0.427D-01-0.173D-01 0.167D+00 0.295D+00
 Coeff:      0.514D+00
 Gap=     0.229 Goal=   None    Shift=    0.000
 RMSDP=7.03D-06 MaxDP=3.15D-04 DE=-3.90D-05 OVMax= 4.50D-04

 Initial convergence to 1.0D-05 achieved.  Increase integral accuracy.
 Cycle   8  Pass 1  IDiag  1:
 E= -769.036647189986     Delta-E=       -0.000029305771 Rises=F Damp=F
 DIIS: error= 7.17D-05 at cycle   1 NSaved=   1.
 NSaved= 1 IEnMin= 1 EnMin= -769.036647189986     IErMin= 1 ErrMin= 7.17D-05
 ErrMax= 7.17D-05  0.00D+00 EMaxC= 1.00D-01 BMatC= 1.20D-06 BMatP= 1.20D-06
 IDIUse=1 WtCom= 1.00D+00 WtEn= 0.00D+00
 Coeff-Com:  0.100D+01
 Coeff:      0.100D+01
 Gap=     0.229 Goal=   None    Shift=    0.000
 RMSDP=7.03D-06 MaxDP=3.15D-04 DE=-2.93D-05 OVMax= 4.98D-04

 Cycle   9  Pass 1  IDiag  1:
 RMSU=  5.85D-05    CP:  1.00D+00
 E= -769.036647530546     Delta-E=       -0.000000340560 Rises=F Damp=F
 DIIS: error= 6.90D-05 at cycle   2 NSaved=   2.
 NSaved= 2 IEnMin= 2 EnMin= -769.036647530546     IErMin= 2 ErrMin= 6.90D-05
 ErrMax= 6.90D-05  0.00D+00 EMaxC= 1.00D-01 BMatC= 1.02D-06 BMatP= 1.20D-06
 IDIUse=1 WtCom= 1.00D+00 WtEn= 0.00D+00
 Coeff-Com:  0.472D+00 0.528D+00
 Coeff:      0.472D+00 0.528D+00
 Gap=     0.229 Goal=   None    Shift=    0.000
 RMSDP=6.85D-06 MaxDP=2.32D-04 DE=-3.41D-07 OVMax= 5.40D-04

 Cycle  10  Pass 1  IDiag  1:
 RMSU=  6.84D-06    CP:  1.00D+00  9.99D-01
 E= -769.036648139805     Delta-E=       -0.000000609258 Rises=F Damp=F
 DIIS: error= 4.25D-05 at cycle   3 NSaved=   3.
 NSaved= 3 IEnMin= 3 EnMin= -769.036648139805     IErMin= 3 ErrMin= 4.25D-05
 ErrMax= 4.25D-05  0.00D+00 EMaxC= 1.00D-01 BMatC= 4.02D-07 BMatP= 1.02D-06
 IDIUse=1 WtCom= 1.00D+00 WtEn= 0.00D+00
 Coeff-Com:  0.920D-02 0.384D+00 0.607D+00
 Coeff:      0.920D-02 0.384D+00 0.607D+00
 Gap=     0.229 Goal=   None    Shift=    0.000
 RMSDP=2.79D-06 MaxDP=8.37D-05 DE=-6.09D-07 OVMax= 2.18D-04

 Cycle  11  Pass 1  IDiag  1:
 RMSU=  8.20D-07    CP:  1.00D+00  1.01D+00  6.25D-01
 E= -769.036648524855     Delta-E=       -0.000000385050 Rises=F Damp=F
 DIIS: error= 4.28D-06 at cycle   4 NSaved=   4.
 NSaved= 4 IEnMin= 4 EnMin= -769.036648524855     IErMin= 4 ErrMin= 4.28D-06
 ErrMax= 4.28D-06  0.00D+00 EMaxC= 1.00D-01 BMatC= 1.40D-08 BMatP= 4.02D-07
 IDIUse=1 WtCom= 1.00D+00 WtEn= 0.00D+00
 Coeff-Com: -0.396D-02 0.225D+00 0.372D+00 0.407D+00
 Coeff:     -0.396D-02 0.225D+00 0.372D+00 0.407D+00
 Gap=     0.229 Goal=   None    Shift=    0.000
 RMSDP=5.05D-07 MaxDP=2.15D-05 DE=-3.85D-07 OVMax= 2.82D-05

 Cycle  12  Pass 1  IDiag  1:
 RMSU=  2.79D-07    CP:  1.00D+00  1.01D+00  6.35D-01  4.97D-01
 E= -769.036648537303     Delta-E=       -0.000000012448 Rises=F Damp=F
 DIIS: error= 1.30D-06 at cycle   5 NSaved=   5.
 NSaved= 5 IEnMin= 5 EnMin= -769.036648537303     IErMin= 5 ErrMin= 1.30D-06
 ErrMax= 1.30D-06  0.00D+00 EMaxC= 1.00D-01 BMatC= 5.11D-10 BMatP= 1.40D-08
 IDIUse=1 WtCom= 1.00D+00 WtEn= 0.00D+00
 Coeff-Com: -0.272D-02 0.120D+00 0.199D+00 0.248D+00 0.436D+00
 Coeff:     -0.272D-02 0.120D+00 0.199D+00 0.248D+00 0.436D+00
 Gap=     0.229 Goal=   None    Shift=    0.000
 RMSDP=1.18D-07 MaxDP=8.76D-06 DE=-1.24D-08 OVMax= 6.73D-06

 Cycle  13  Pass 1  IDiag  1:
 RMSU=  8.79D-08    CP:  1.00D+00  1.01D+00  6.35D-01  5.20D-01  7.31D-01
 E= -769.036648537736     Delta-E=       -0.000000000433 Rises=F Damp=F
 DIIS: error= 2.10D-07 at cycle   6 NSaved=   6.
 NSaved= 6 IEnMin= 6 EnMin= -769.036648537736     IErMin= 6 ErrMin= 2.10D-07
 ErrMax= 2.10D-07  0.00D+00 EMaxC= 1.00D-01 BMatC= 3.12D-11 BMatP= 5.11D-10
 IDIUse=1 WtCom= 1.00D+00 WtEn= 0.00D+00
 Coeff-Com: -0.111D-02 0.430D-01 0.719D-01 0.964D-01 0.245D+00 0.545D+00
 Coeff:     -0.111D-02 0.430D-01 0.719D-01 0.964D-01 0.245D+00 0.545D+00
 Gap=     0.229 Goal=   None    Shift=    0.000
 RMSDP=2.94D-08 MaxDP=8.07D-07 DE=-4.33D-10 OVMax= 1.38D-06

 Cycle  14  Pass 1  IDiag  1:
 RMSU=  2.58D-08    CP:  1.00D+00  1.01D+00  6.34D-01  5.20D-01  7.58D-01
                    CP:  8.80D-01
 E= -769.036648537761     Delta-E=       -0.000000000025 Rises=F Damp=F
 DIIS: error= 4.26D-08 at cycle   7 NSaved=   7.
 NSaved= 7 IEnMin= 7 EnMin= -769.036648537761     IErMin= 7 ErrMin= 4.26D-08
 ErrMax= 4.26D-08  0.00D+00 EMaxC= 1.00D-01 BMatC= 1.36D-12 BMatP= 3.12D-11
 IDIUse=1 WtCom= 1.00D+00 WtEn= 0.00D+00
 Coeff-Com: -0.171D-03 0.523D-02 0.893D-02 0.141D-01 0.549D-01 0.216D+00
 Coeff-Com:  0.701D+00
 Coeff:     -0.171D-03 0.523D-02 0.893D-02 0.141D-01 0.549D-01 0.216D+00
 Coeff:      0.701D+00
 Gap=     0.229 Goal=   None    Shift=    0.000
 RMSDP=8.57D-09 MaxDP=2.31D-07 DE=-2.55D-11 OVMax= 5.46D-07

 SCF Done:  E(RB3LYP) =  -769.036648538     A.U. after   14 cycles
            NFock= 14  Conv=0.86D-08     -V/T= 2.0094
 KE= 7.618744155314D+02 PE=-4.585448817451D+03 EE= 1.653725619460D+03
 Leave Link  502 at Mon Feb 26 09:31:55 2024, MaxMem=  7516192768 cpu:             429.6 elap:              10.8
 (Enter /public/apps/g16-C01//g16/l601.exe)
 Copying SCF densities to generalized density rwf, IOpCl= 0 IROHF=0.

 **********************************************************************

            Population analysis using the SCF Density.

 **********************************************************************

 Alpha  occ. eigenvalues --  -19.16756 -14.31019 -14.29743 -10.26775 -10.23481
 Alpha  occ. eigenvalues --  -10.21813 -10.21127 -10.20899 -10.20552 -10.19520
 Alpha  occ. eigenvalues --  -10.19297 -10.18616 -10.18372 -10.17288 -10.16851
 Alpha  occ. eigenvalues --  -10.16151 -10.15916 -10.15617  -1.08735  -0.94015
 Alpha  occ. eigenvalues --   -0.90351  -0.83369  -0.80738  -0.79376  -0.74806
 Alpha  occ. eigenvalues --   -0.72958  -0.68410  -0.68360  -0.67874  -0.64611
 Alpha  occ. eigenvalues --   -0.62874  -0.62434  -0.60021  -0.54996  -0.53851
 Alpha  occ. eigenvalues --   -0.51766  -0.50448  -0.49373  -0.48554  -0.46822
 Alpha  occ. eigenvalues --   -0.45133  -0.44754  -0.44293  -0.43797  -0.43513
 Alpha  occ. eigenvalues --   -0.42201  -0.41209  -0.40666  -0.39994  -0.39194
 Alpha  occ. eigenvalues --   -0.38737  -0.38626  -0.37688  -0.36804  -0.36532
 Alpha  occ. eigenvalues --   -0.36033  -0.35218  -0.34197  -0.33602  -0.33312
 Alpha  occ. eigenvalues --   -0.32940  -0.31791  -0.28822  -0.27301  -0.25066
 Alpha  occ. eigenvalues --   -0.24906  -0.24635
 Alpha virt. eigenvalues --   -0.01728  -0.01038   0.01988   0.04772   0.06663
 Alpha virt. eigenvalues --    0.07612   0.08121   0.08787   0.10018   0.10280
 Alpha virt. eigenvalues --    0.10770   0.11388   0.12253   0.12753   0.13230
 Alpha virt. eigenvalues --    0.13669   0.14076   0.14472   0.15197   0.15451
 Alpha virt. eigenvalues --    0.15827   0.16992   0.17258   0.18234   0.18418
 Alpha virt. eigenvalues --    0.18784   0.19862   0.20515   0.21381   0.21482
 Alpha virt. eigenvalues --    0.21797   0.23632   0.24002   0.24483   0.25641
 Alpha virt. eigenvalues --    0.25847   0.27424   0.30136   0.30295   0.31640
 Alpha virt. eigenvalues --    0.33009   0.34829   0.36692   0.37810   0.40189
 Alpha virt. eigenvalues --    0.40195   0.40660   0.41390   0.42255   0.42661
 Alpha virt. eigenvalues --    0.43886   0.45252   0.46700   0.47440   0.47983
 Alpha virt. eigenvalues --    0.48352   0.49604   0.50361   0.52428   0.53388
 Alpha virt. eigenvalues --    0.53890   0.55229   0.56004   0.56418   0.56938
 Alpha virt. eigenvalues --    0.57391   0.59514   0.59954   0.61130   0.62140
 Alpha virt. eigenvalues --    0.62484   0.63211   0.64443   0.64843   0.65469
 Alpha virt. eigenvalues --    0.66331   0.67047   0.67707   0.67886   0.68102
 Alpha virt. eigenvalues --    0.68427   0.68692   0.68812   0.69433   0.70028
 Alpha virt. eigenvalues --    0.70258   0.70611   0.71224   0.71621   0.71883
 Alpha virt. eigenvalues --    0.72595   0.72870   0.73217   0.73682   0.74248
 Alpha virt. eigenvalues --    0.74846   0.75055   0.75923   0.76180   0.76490
 Alpha virt. eigenvalues --    0.76539   0.76943   0.77390   0.78457   0.79425
 Alpha virt. eigenvalues --    0.80436   0.81596   0.83014   0.83683   0.86022
 Alpha virt. eigenvalues --    0.86211   0.88599   0.89706   0.91418   0.94416
 Alpha virt. eigenvalues --    0.95715   0.97181   0.99718   1.01639   1.03202
 Alpha virt. eigenvalues --    1.05961   1.07760   1.08953   1.10812   1.11808
 Alpha virt. eigenvalues --    1.12304   1.16938   1.18149   1.19817   1.20535
 Alpha virt. eigenvalues --    1.24376   1.26436   1.28034   1.30932   1.32360
 Alpha virt. eigenvalues --    1.34816   1.38334   1.42393   1.42806   1.44872
 Alpha virt. eigenvalues --    1.45698   1.49400   1.51394   1.53033   1.55310
 Alpha virt. eigenvalues --    1.58709   1.61153   1.62803   1.64703   1.70936
 Alpha virt. eigenvalues --    1.71768   1.73542   1.73906   1.76252   1.77419
 Alpha virt. eigenvalues --    1.79720   1.81141   1.82960   1.83253   1.83769
 Alpha virt. eigenvalues --    1.85287   1.85727   1.87546   1.89008   1.91153
 Alpha virt. eigenvalues --    1.91490   1.95670   1.96322   1.98378   2.01684
 Alpha virt. eigenvalues --    2.03136   2.03791   2.04889   2.05051   2.05867
 Alpha virt. eigenvalues --    2.06216   2.06891   2.09091   2.12428   2.13101
 Alpha virt. eigenvalues --    2.13960   2.15573   2.16680   2.17311   2.17813
 Alpha virt. eigenvalues --    2.18580   2.18591   2.19222   2.19662   2.22096
 Alpha virt. eigenvalues --    2.23476   2.25554   2.25865   2.30225   2.30794
 Alpha virt. eigenvalues --    2.37237   2.38322   2.40457   2.42872   2.44687
 Alpha virt. eigenvalues --    2.46620   2.48379   2.49698   2.56622   2.58498
 Alpha virt. eigenvalues --    2.60577   2.61925   2.63374   2.66155   2.68590
 Alpha virt. eigenvalues --    2.70908   2.72167   2.74210   2.76840   2.81035
 Alpha virt. eigenvalues --    2.81875   2.85356   2.86516   2.88505   2.91002
 Alpha virt. eigenvalues --    2.94079   2.98329   2.99845   3.15394   3.25983
 Alpha virt. eigenvalues --    3.32016   3.39043   3.50564   3.61850
          Condensed to atoms (all electrons):
               1          2          3          4          5          6
     1  C    4.769322   0.357970  -0.063782  -0.034031  -0.001663  -0.001275
     2  C    0.357970   5.927793   0.384881   0.093354  -0.131029   0.026900
     3  C   -0.063782   0.384881   4.862185  -0.046829   0.001525  -0.001277
     4  C   -0.034031   0.093354  -0.046829   5.023962   0.644460  -0.063145
     5  N   -0.001663  -0.131029   0.001525   0.644460   6.446767   0.383807
     6  C   -0.001275   0.026900  -0.001277  -0.063145   0.383807   5.030471
     7  C    0.000414  -0.000571  -0.000079  -0.003514  -0.078988   0.301225
     8  C   -0.000374  -0.000255  -0.000001   0.008373  -0.009599  -0.056032
     9  C   -0.000006   0.000165  -0.000001  -0.000457  -0.011990  -0.067224
    10  C   -0.000005   0.000014   0.000000  -0.000061   0.006579  -0.066110
    11  C    0.000099   0.001632  -0.000328  -0.119921  -0.056500   0.317011
    12  O    0.002416  -0.111905   0.004287   0.377763  -0.088815  -0.065525
    13  C   -0.021256  -0.039840  -0.042639   0.021658   0.015305  -0.002350
    14  C    0.015758  -0.157762  -0.004909  -0.002632   0.002466   0.000072
    15  C   -0.000463   0.008328   0.000643  -0.000342  -0.001457   0.000047
    16  C    0.000159   0.001378  -0.000157  -0.000233  -0.000069   0.000004
    17  C   -0.000385   0.011033  -0.000208  -0.000146   0.000224  -0.000008
    18  N    0.013463  -0.128623  -0.002421   0.001147  -0.000575   0.000004
    19  H    0.363062  -0.005026   0.009100  -0.002806   0.001076  -0.000073
    20  H    0.363513  -0.004638  -0.007449   0.007890  -0.000140   0.000038
    21  H    0.364928  -0.025155  -0.006440  -0.009080   0.000317   0.000023
    22  H   -0.005679  -0.020404   0.370990  -0.008524   0.000322   0.000019
    23  H   -0.005599  -0.025469   0.369192   0.008754  -0.000170   0.000032
    24  H    0.008832  -0.015936   0.366145  -0.003247   0.000393   0.000034
    25  H   -0.000056  -0.001003   0.000242   0.002333  -0.026352   0.336668
    26  H   -0.000136  -0.000978   0.000082   0.003454   0.013325  -0.012186
    27  H    0.000007   0.000019  -0.000000  -0.000090   0.000229   0.010435
    28  H    0.000107  -0.000149  -0.000001   0.000225  -0.000779  -0.011230
    29  H   -0.000000   0.000002   0.000000  -0.000082  -0.000756  -0.003232
    30  H    0.000001  -0.000007  -0.000000   0.000036   0.000154   0.009449
    31  H    0.000004  -0.000608   0.000010   0.000531   0.024444  -0.015813
    32  H   -0.000000  -0.000000   0.000000   0.000007   0.000065  -0.004222
    33  H    0.000000  -0.000001  -0.000000  -0.000002  -0.000195   0.009243
    34  H   -0.000001   0.000002   0.000000   0.000029   0.000076  -0.010216
    35  H    0.000068   0.000332  -0.000200   0.007718   0.001900   0.004379
    36  H   -0.000298   0.000363   0.000087   0.008373   0.002618  -0.011537
    37  H    0.000940  -0.012160  -0.002763   0.006297   0.012326  -0.000466
    38  H    0.000011  -0.000628   0.000013   0.000030  -0.000036  -0.000001
    39  H   -0.000006   0.000175  -0.000001  -0.000002   0.000001  -0.000000
    40  H   -0.000056  -0.000018   0.000025   0.000022   0.000003  -0.000000
               7          8          9         10         11         12
     1  C    0.000414  -0.000374  -0.000006  -0.000005   0.000099   0.002416
     2  C   -0.000571  -0.000255   0.000165   0.000014   0.001632  -0.111905
     3  C   -0.000079  -0.000001  -0.000001   0.000000  -0.000328   0.004287
     4  C   -0.003514   0.008373  -0.000457  -0.000061  -0.119921   0.377763
     5  N   -0.078988  -0.009599  -0.011990   0.006579  -0.056500  -0.088815
     6  C    0.301225  -0.056032  -0.067224  -0.066110   0.317011  -0.065525
     7  C    4.975686   0.394663   0.422547   0.408944  -0.030046   0.000987
     8  C    0.394663   4.933487  -0.074046  -0.071961  -0.017616   0.000797
     9  C    0.422547  -0.074046   4.878562  -0.060648   0.011322  -0.000190
    10  C    0.408944  -0.071961  -0.060648   4.886954  -0.004119   0.000099
    11  C   -0.030046  -0.017616   0.011322  -0.004119   4.782609   0.334822
    12  O    0.000987   0.000797  -0.000190   0.000099   0.334822   7.895630
    13  C   -0.000165  -0.000128  -0.000043   0.000001   0.000482   0.004984
    14  C    0.000009  -0.000035  -0.000183   0.000001   0.000077   0.000232
    15  C    0.000003   0.000005  -0.000019  -0.000000  -0.000006  -0.000006
    16  C    0.000000   0.000000  -0.000003   0.000000  -0.000000   0.000000
    17  C    0.000001  -0.000003  -0.000000   0.000000   0.000000   0.000001
    18  N    0.000004  -0.000017   0.000002  -0.000000  -0.000004  -0.000022
    19  H   -0.000077   0.000093  -0.000002   0.000003  -0.000153  -0.001134
    20  H   -0.000004   0.000012   0.000000   0.000000   0.000023   0.000110
    21  H    0.000015   0.000027   0.000001   0.000000  -0.000047   0.010556
    22  H   -0.000005  -0.000001   0.000000   0.000000  -0.000072   0.009492
    23  H    0.000000   0.000000   0.000000  -0.000000   0.000032   0.000075
    24  H    0.000009   0.000000   0.000000  -0.000000  -0.000133  -0.000827
    25  H   -0.035321   0.012728  -0.009080  -0.007471  -0.028449   0.003401
    26  H   -0.017585   0.367401  -0.003803   0.009292   0.000935  -0.000698
    27  H   -0.018055   0.365957  -0.006702  -0.006002  -0.000029   0.000013
    28  H   -0.016393   0.362983   0.009339  -0.004890   0.009032   0.000140
    29  H   -0.024195   0.010303   0.363491  -0.005932   0.000055   0.000004
    30  H   -0.020001  -0.006446   0.366059  -0.006819  -0.000367   0.000006
    31  H   -0.015885  -0.006977   0.369324   0.009452   0.001707   0.000102
    32  H   -0.021599   0.010911  -0.006397   0.364340  -0.001812  -0.000001
    33  H   -0.015139  -0.005501  -0.007150   0.366900  -0.000038   0.000002
    34  H   -0.017331  -0.006553   0.010156   0.364976   0.006315  -0.000127
    35  H    0.004939   0.000387  -0.000453   0.000850   0.340008  -0.029477
    36  H   -0.013454   0.003890   0.000660  -0.002712   0.351105  -0.029812
    37  H    0.000126  -0.000010  -0.000030  -0.000000   0.000156  -0.000106
    38  H   -0.000000   0.000000   0.000000  -0.000000  -0.000000  -0.000000
    39  H    0.000000   0.000000  -0.000000  -0.000000   0.000000   0.000000
    40  H   -0.000000  -0.000000   0.000000   0.000000   0.000000  -0.000000
              13         14         15         16         17         18
     1  C   -0.021256   0.015758  -0.000463   0.000159  -0.000385   0.013463
     2  C   -0.039840  -0.157762   0.008328   0.001378   0.011033  -0.128623
     3  C   -0.042639  -0.004909   0.000643  -0.000157  -0.000208  -0.002421
     4  C    0.021658  -0.002632  -0.000342  -0.000233  -0.000146   0.001147
     5  N    0.015305   0.002466  -0.001457  -0.000069   0.000224  -0.000575
     6  C   -0.002350   0.000072   0.000047   0.000004  -0.000008   0.000004
     7  C   -0.000165   0.000009   0.000003   0.000000   0.000001   0.000004
     8  C   -0.000128  -0.000035   0.000005   0.000000  -0.000003  -0.000017
     9  C   -0.000043  -0.000183  -0.000019  -0.000003  -0.000000   0.000002
    10  C    0.000001   0.000001  -0.000000   0.000000   0.000000  -0.000000
    11  C    0.000482   0.000077  -0.000006  -0.000000   0.000000  -0.000004
    12  O    0.004984   0.000232  -0.000006   0.000000   0.000001  -0.000022
    13  C    5.213448   0.396280   0.042541  -0.090820  -0.036408   0.585926
    14  C    0.396280   5.179504   0.359149   0.063715  -0.103371  -0.053483
    15  C    0.042541   0.359149   4.976709   0.345979   0.035280  -0.050365
    16  C   -0.090820   0.063715   0.345979   5.122292   0.382220  -0.021656
    17  C   -0.036408  -0.103371   0.035280   0.382220   4.883287   0.514110
    18  N    0.585926  -0.053483  -0.050365  -0.021656   0.514110   6.224493
    19  H   -0.011012   0.000467   0.000051  -0.000006   0.000182   0.006873
    20  H   -0.015931   0.000670   0.000045   0.000057   0.000365   0.015339
    21  H    0.010404  -0.000366   0.000020   0.000005   0.000032   0.001895
    22  H    0.009161  -0.000055  -0.000011   0.000003   0.000007  -0.000072
    23  H    0.002861  -0.002192  -0.000054  -0.000060   0.000009   0.001792
    24  H   -0.012865   0.009328  -0.000185   0.000031  -0.000025   0.000057
    25  H    0.000233   0.000017  -0.000014  -0.000000  -0.000000   0.000000
    26  H    0.000742   0.000079  -0.000021  -0.000008   0.000031   0.000074
    27  H   -0.000003   0.000000  -0.000000  -0.000000  -0.000000   0.000000
    28  H    0.000006   0.000002  -0.000000   0.000000  -0.000000  -0.000000
    29  H    0.000001   0.000004   0.000001   0.000000  -0.000000  -0.000000
    30  H   -0.000000   0.000000   0.000000   0.000000   0.000000   0.000000
    31  H    0.000209   0.000971   0.000152   0.000009   0.000007  -0.000034
    32  H    0.000000  -0.000000  -0.000000  -0.000000  -0.000000   0.000000
    33  H   -0.000000  -0.000000   0.000000  -0.000000   0.000000   0.000000
    34  H    0.000000  -0.000000  -0.000000   0.000000  -0.000000  -0.000000
    35  H   -0.000039   0.000009   0.000000   0.000000  -0.000000   0.000000
    36  H    0.000012  -0.000010  -0.000000  -0.000000  -0.000000   0.000000
    37  H   -0.060128   0.410289  -0.065528   0.012852  -0.000033   0.005899
    38  H    0.014231  -0.073077   0.431389  -0.079289   0.012035  -0.000210
    39  H    0.000829   0.012569  -0.072382   0.408653  -0.055151   0.006049
    40  H    0.007469   0.001336   0.007608  -0.085145   0.408977  -0.049723
              19         20         21         22         23         24
     1  C    0.363062   0.363513   0.364928  -0.005679  -0.005599   0.008832
     2  C   -0.005026  -0.004638  -0.025155  -0.020404  -0.025469  -0.015936
     3  C    0.009100  -0.007449  -0.006440   0.370990   0.369192   0.366145
     4  C   -0.002806   0.007890  -0.009080  -0.008524   0.008754  -0.003247
     5  N    0.001076  -0.000140   0.000317   0.000322  -0.000170   0.000393
     6  C   -0.000073   0.000038   0.000023   0.000019   0.000032   0.000034
     7  C   -0.000077  -0.000004   0.000015  -0.000005   0.000000   0.000009
     8  C    0.000093   0.000012   0.000027  -0.000001   0.000000   0.000000
     9  C   -0.000002   0.000000   0.000001   0.000000   0.000000   0.000000
    10  C    0.000003   0.000000   0.000000   0.000000  -0.000000  -0.000000
    11  C   -0.000153   0.000023  -0.000047  -0.000072   0.000032  -0.000133
    12  O   -0.001134   0.000110   0.010556   0.009492   0.000075  -0.000827
    13  C   -0.011012  -0.015931   0.010404   0.009161   0.002861  -0.012865
    14  C    0.000467   0.000670  -0.000366  -0.000055  -0.002192   0.009328
    15  C    0.000051   0.000045   0.000020  -0.000011  -0.000054  -0.000185
    16  C   -0.000006   0.000057   0.000005   0.000003  -0.000060   0.000031
    17  C    0.000182   0.000365   0.000032   0.000007   0.000009  -0.000025
    18  N    0.006873   0.015339   0.001895  -0.000072   0.001792   0.000057
    19  H    0.589143  -0.016687  -0.022600  -0.000076  -0.000106  -0.000465
    20  H   -0.016687   0.581744  -0.021449  -0.001049   0.007247  -0.000012
    21  H   -0.022600  -0.021449   0.602224   0.005682  -0.000558  -0.000020
    22  H   -0.000076  -0.001049   0.005682   0.576496  -0.019918  -0.019999
    23  H   -0.000106   0.007247  -0.000558  -0.019918   0.588910  -0.021594
    24  H   -0.000465  -0.000012  -0.000020  -0.019999  -0.021594   0.597022
    25  H    0.000010  -0.000000  -0.000008  -0.000004  -0.000003  -0.000025
    26  H    0.002705  -0.000029  -0.000087  -0.000001  -0.000002  -0.000003
    27  H   -0.000018  -0.000000  -0.000001  -0.000000  -0.000000  -0.000000
    28  H    0.000096  -0.000001   0.000043   0.000000   0.000000  -0.000000
    29  H    0.000000  -0.000000  -0.000000  -0.000000  -0.000000  -0.000000
    30  H   -0.000000  -0.000000  -0.000000  -0.000000  -0.000000  -0.000000
    31  H   -0.000005  -0.000000  -0.000001  -0.000000  -0.000000  -0.000002
    32  H   -0.000000  -0.000000  -0.000000   0.000000  -0.000000  -0.000000
    33  H   -0.000000  -0.000000  -0.000000  -0.000000  -0.000000   0.000000
    34  H    0.000000  -0.000000  -0.000000   0.000000   0.000000  -0.000000
    35  H   -0.000005   0.000001   0.000039  -0.000086  -0.000006   0.000030
    36  H    0.000054  -0.000006  -0.000093   0.000030   0.000001  -0.000000
    37  H   -0.000086  -0.000082  -0.000033  -0.000166  -0.000022   0.004990
    38  H    0.000000   0.000001  -0.000000  -0.000001   0.000004   0.000010
    39  H   -0.000003  -0.000004  -0.000000   0.000000  -0.000002  -0.000001
    40  H   -0.000056  -0.000145  -0.000011  -0.000001   0.000001  -0.000001
              25         26         27         28         29         30
     1  C   -0.000056  -0.000136   0.000007   0.000107  -0.000000   0.000001
     2  C   -0.001003  -0.000978   0.000019  -0.000149   0.000002  -0.000007
     3  C    0.000242   0.000082  -0.000000  -0.000001   0.000000  -0.000000
     4  C    0.002333   0.003454  -0.000090   0.000225  -0.000082   0.000036
     5  N   -0.026352   0.013325   0.000229  -0.000779  -0.000756   0.000154
     6  C    0.336668  -0.012186   0.010435  -0.011230  -0.003232   0.009449
     7  C   -0.035321  -0.017585  -0.018055  -0.016393  -0.024195  -0.020001
     8  C    0.012728   0.367401   0.365957   0.362983   0.010303  -0.006446
     9  C   -0.009080  -0.003803  -0.006702   0.009339   0.363491   0.366059
    10  C   -0.007471   0.009292  -0.006002  -0.004890  -0.005932  -0.006819
    11  C   -0.028449   0.000935  -0.000029   0.009032   0.000055  -0.000367
    12  O    0.003401  -0.000698   0.000013   0.000140   0.000004   0.000006
    13  C    0.000233   0.000742  -0.000003   0.000006   0.000001  -0.000000
    14  C    0.000017   0.000079   0.000000   0.000002   0.000004   0.000000
    15  C   -0.000014  -0.000021  -0.000000  -0.000000   0.000001   0.000000
    16  C   -0.000000  -0.000008  -0.000000   0.000000   0.000000   0.000000
    17  C   -0.000000   0.000031  -0.000000  -0.000000  -0.000000   0.000000
    18  N    0.000000   0.000074   0.000000  -0.000000  -0.000000   0.000000
    19  H    0.000010   0.002705  -0.000018   0.000096   0.000000  -0.000000
    20  H   -0.000000  -0.000029  -0.000000  -0.000001  -0.000000  -0.000000
    21  H   -0.000008  -0.000087  -0.000001   0.000043  -0.000000  -0.000000
    22  H   -0.000004  -0.000001  -0.000000   0.000000  -0.000000  -0.000000
    23  H   -0.000003  -0.000002  -0.000000   0.000000  -0.000000  -0.000000
    24  H   -0.000025  -0.000003  -0.000000  -0.000000  -0.000000  -0.000000
    25  H    0.691099   0.000324  -0.000422  -0.000248   0.007439  -0.000062
    26  H    0.000324   0.561835  -0.019206  -0.022528  -0.000003  -0.000936
    27  H   -0.000422  -0.019206   0.601987  -0.021860  -0.000034   0.006048
    28  H   -0.000248  -0.022528  -0.021860   0.607799  -0.000544   0.000013
    29  H    0.007439  -0.000003  -0.000034  -0.000544   0.621991  -0.024983
    30  H   -0.000062  -0.000936   0.006048   0.000013  -0.024983   0.615713
    31  H   -0.000681   0.006070  -0.000677   0.000000  -0.019315  -0.021007
    32  H    0.008321  -0.000460  -0.000095  -0.000132   0.006105  -0.000644
    33  H   -0.000208  -0.000149   0.005552  -0.000489  -0.000625   0.006171
    34  H   -0.000404   0.000032  -0.000355   0.004543  -0.000053  -0.000147
    35  H   -0.014777  -0.000137   0.000006  -0.000040  -0.000039   0.000015
    36  H    0.007654   0.000405  -0.000579   0.004916   0.000021  -0.000033
    37  H   -0.000314  -0.000004  -0.000000   0.000001  -0.000003   0.000001
    38  H    0.000001  -0.000000  -0.000000  -0.000000   0.000000  -0.000000
    39  H   -0.000000  -0.000000  -0.000000   0.000000  -0.000000   0.000000
[...]
 0987,-0.00000889,0.00000742,0.00000691,0.00000013,0.00000015,0.0000234
 6,-0.00001124,-0.00000097,0.00003771,0.00001103,0.00000759,-0.00002278
 ,-0.00000039,0.00076629,-0.00352094,0.00106770,-0.00008404,0.00019001,
 0.00006900,-0.00012210,0.00040444,-0.00011045,0.00021063,-0.00026867,-
 0.00127807,0.00005918,0.00013408,-0.00012972,-0.00006616,0.00003347,-0
 .00009357,-0.00005781,0.00011192,0.00002913,0.00012229,0.00019480,-0.0
 0008747,-0.00002885,0.00028903,-0.00014777,-0.00128211,-0.00034571,-0.
 00008660,-0.00978137,0.00442865,-0.01429706,-0.02487302,0.05829905,-0.
 00002438,-0.00007477,0.00003670,0.00010875,-0.00041801,-0.00015313,-0.
 00006494,-0.00002260,-0.00002056,0.00220906,0.00110162,-0.00024167,-0.
 00022271,-0.00060142,-0.00045108,-0.00020105,0.00188695,-0.00188048,-0
 .00127076,-0.00069921,-0.00062806,0.00036194,-0.00086393,-0.00012188,0
 .00038487,0.00001015,0.00011245,-0.00075631,0.00009293,-0.00044928,-0.
 12780732,0.03517164,-0.22860967,0.00910843,-0.00242282,0.01530647,0.00
 006315,0.00002037,-0.00005503,0.00002443,-0.00000550,-0.00004364,0.000
 00234,-0.00001745,0.00001480,-0.00000441,0.00000256,0.00001537,-0.0000
 0340,-0.00000233,-0.00001804,0.00002339,-0.00002213,0.00001096,0.00000
 571,0.00000509,-0.00000255,-0.00000972,0.00001846,-0.00000838,-0.00000
 003,0.00006050,-0.00003505,0.00001454,0.00001147,-0.00000912,-0.000009
 30,-0.00001104,0.00000900,0.00001991,-0.00000260,0.00002135,-0.0006587
 3,0.00091953,0.00034572,0.00009293,-0.00008166,-0.00001723,-0.00011533
 ,0.00007952,0.00022408,0.00013163,-0.00114266,-0.00045784,-0.00004438,
 0.00002028,0.00002447,0.00002142,0.00012735,0.00006355,0.00003646,-0.0
 0008763,-0.00001970,0.00001935,-0.00004375,0.00006981,0.00019148,-0.00
 031170,0.00008572,0.00045668,-0.00054004,0.00057454,-0.01375430,0.0044
 0042,-0.01761590,0.13166790,-0.03656624,0.23389646,-0.00012429,-0.0002
 1294,-0.00006369,-0.00105286,-0.00047857,-0.00013702,-0.00008699,0.000
 41059,0.00036731,-0.00025267,0.00083790,-0.00114938,-0.00172829,-0.000
 00135,-0.00058838,-0.00020401,0.00002956,-0.00018527,-0.00002077,-0.00
 000960,-0.00000604,0.00000789,0.00001636,0.00001132,-0.00000347,0.0000
 1164,0.00001489,-0.00000253,0.00000549,0.00001109,-0.00006256,-0.00001
 231,0.00004102,0.00010294,-0.00022847,0.00011666,0.00153280,-0.0006674
 6,-0.00079388,-0.16315761,0.07965825,0.12823116,-0.00734209,0.00581041
 ,0.01316557,0.00290578,0.00556027,-0.00058250,-0.00011592,0.00000825,-
 0.00051404,0.00444227,0.00257724,0.00049161,-0.00002486,0.00000712,-0.
 00004928,0.00000516,0.00001977,0.00004899,0.00003953,-0.00000194,0.000
 02369,0.00002553,0.00001466,-0.00034811,0.00003158,-0.00002122,0.00003
 074,0.00024807,-0.00034277,-0.00047438,-0.00000467,-0.00000730,-0.0000
 2291,0.00000631,-0.00000298,-0.00001234,0.00000617,0.00000445,0.000007
 28,-0.00000083,-0.00000539,-0.00000341,-0.00000259,-0.00000465,-0.0000
 0080,0.00001128,0.00000626,0.00000800,0.00000194,-0.00002306,-0.000018
 04,-0.00000284,-0.00000103,-0.00000330,0.00000615,0.00000323,0.0000040
 3,0.00000044,-0.00000461,-0.00000028,0.00000681,0.00000749,-0.00000852
 ,0.00002335,-0.00000911,0.00000719,0.16724543,-0.00022408,0.00002518,-
 0.00004759,-0.00112117,-0.00097735,-0.00070546,-0.00011862,-0.00036410
 ,0.00037976,0.00071426,0.00081788,0.00013785,0.00030923,-0.00032407,0.
 00062275,-0.00008070,-0.00004853,0.00008584,-0.00001230,0.00004840,0.0
 0000198,0.00000830,-0.00001142,-0.00000189,-0.00001265,0.00001456,-0.0
 0000859,-0.00000236,-0.00001713,-0.00000368,0.00006720,0.00001135,0.00
 001925,-0.00007537,-0.00037391,0.00009386,-0.00819036,0.00778956,0.005
 57711,0.07805908,-0.09081073,-0.06773588,0.01524172,-0.00474425,-0.017
 38905,0.00584178,0.00065931,0.00378039,0.00022264,-0.00074425,0.000590
 08,0.00239608,0.00317956,0.00462501,-0.00000579,0.00000039,-0.00006021
 ,-0.00000188,0.00002809,-0.00002062,0.00004180,0.00004594,-0.00005810,
 0.00003704,0.00006227,-0.00023082,0.00007727,0.00000582,0.00001187,-0.
 00006586,-0.00114180,0.00029085,-0.00005172,0.00002820,-0.00001628,-0.
 00000221,0.00000706,-0.00000282,-0.00000263,-0.00000070,-0.00000071,0.
 00000320,-0.00000808,0.00000865,-0.00002965,-0.00000616,0.00001482,0.0
 0001722,-0.00000811,0.00001492,0.00000483,-0.00000954,-0.00004365,-0.0
 0000553,0.00000276,0.00000330,-0.00000437,0.00000087,-0.00000005,0.000
 00873,-0.00000834,0.00000442,0.00000266,-0.00001807,-0.00000239,-0.000
 00096,-0.00001904,0.00000343,-0.08990345,0.08896877,-0.00021697,-0.000
 00092,-0.00003997,0.00003669,-0.00128726,0.00024907,-0.00002884,0.0000
 4049,-0.00042706,-0.00025988,0.00195425,-0.00121259,0.00015910,-0.0002
 2681,0.00104871,-0.00048979,-0.00013646,0.00024984,0.00003356,-0.00007
 368,-0.00008166,0.00002966,0.00003955,0.00001072,-0.00000105,0.0000173
 5,0.00005314,0.00000328,0.00005692,0.00005670,-0.00015352,-0.00004460,
 0.00003934,0.00030757,-0.00063627,0.00008649,0.01906796,-0.01403904,-0
 .01152804,0.12542139,-0.06891808,-0.18497629,-0.00651509,0.00467239,0.
 00984190,0.00019943,0.00295211,0.00132646,-0.00147017,0.00150806,-0.00
 014472,0.00181504,0.00353100,-0.00596813,0.00010680,0.00001572,0.00007
 942,-0.00003608,-0.00016186,0.00012621,-0.00003495,0.00006471,0.000022
 99,-0.00000849,0.00005489,0.00016092,-0.00006464,-0.00011797,0.0001225
 2,0.00005317,0.00030422,0.00044242,0.00006664,0.00001613,-0.00010044,0
 .00001358,-0.00002332,-0.00003828,0.00002292,0.00001591,0.00002117,-0.
 00000998,-0.00000313,-0.00001591,0.00000134,-0.00000659,-0.00000892,0.
 00003008,0.00002773,0.00000952,0.00000318,-0.00005683,-0.00002607,-0.0
 0000665,-0.00000385,-0.00000954,0.00003633,0.00001201,0.00000800,-0.00
 001050,-0.00000526,-0.00000503,0.00002642,-0.00000244,-0.00001649,0.00
 004324,-0.00004450,0.00002297,-0.13695610,0.07213699,0.18994568,-0.000
 26861,0.00017380,0.00000526,0.00007871,-0.00009152,-0.00100919,0.00006
 892,-0.00022420,-0.00001812,0.00020534,0.00019930,-0.00011073,-0.00009
 180,-0.00011119,0.00008727,0.00000494,-0.00000305,-0.00004489,-0.00001
 129,0.00002603,0.00000370,0.00000536,-0.00000812,-0.00000048,-0.000007
 46,0.00000215,-0.00000557,-0.00000212,-0.00001414,-0.00000279,0.000019
 31,0.00001274,-0.00000770,-0.00007126,-0.00008489,0.00004068,0.0021302
 8,0.00690022,0.00101063,0.00528282,0.00757392,-0.01810440,-0.05055153,
 0.00720521,0.00723763,0.00502207,-0.00768171,0.01835149,0.00161604,0.0
 0541651,0.00381988,-0.00224419,-0.00131727,-0.00056074,0.00000971,-0.0
 0001164,-0.00001869,0.00000775,0.00001147,0.00001227,-0.00000163,0.000
 00249,-0.00011385,-0.00002202,-0.00000392,0.00000543,-0.00000160,0.000
 00557,0.00001751,0.00001936,-0.00000695,0.00004992,-0.00002491,0.00000
 280,0.00001436,-0.00000052,0.00000752,-0.00000144,-0.00000278,0.000000
 15,-0.00000054,0.00000332,-0.00000616,0.00000602,-0.00001847,-0.000002
 01,0.00000884,0.00000736,-0.00000427,0.00000871,0.00000711,0.00000454,
 -0.00002042,-0.00000325,0.00000171,0.00000231,-0.00000372,0.00000125,0
 .00000002,0.00000592,-0.00000543,0.00000228,-0.00000694,-0.00000021,0.
 00000090,-0.00000522,-0.00000174,0.00000277,-0.00141082,-0.00288480,-0
 .00073752,0.04166032,0.00019169,-0.00034589,-0.00005611,-0.00048300,0.
 00005963,0.00093626,0.00008473,-0.00004459,0.00004450,-0.00035763,0.00
 000151,0.00002095,0.00004822,0.00005852,-0.00012487,-0.00001417,-0.000
 00337,0.00000989,0.00000712,-0.00000357,-0.00000879,-0.00000502,0.0000
 0093,0.00000006,-0.00000831,-0.00000444,0.00000788,-0.00000102,0.00000
 202,0.00000629,-0.00002785,-0.00000890,0.00001544,0.00011177,0.0000041
 1,-0.00002166,0.00698569,0.00063725,0.00128932,-0.00083879,-0.00328243
 ,0.02333180,0.00732048,-0.08946432,0.09860007,0.00064340,0.00909678,-0
 .01180569,0.00514276,0.00282530,-0.00064785,-0.00138591,-0.00181250,-0
 .00089568,0.00000921,0.00001597,-0.00001487,-0.00002163,0.00001993,-0.
 00000128,-0.00002991,-0.00004834,0.00012638,-0.00002098,-0.00005443,-0
 .00001766,-0.00001141,-0.00001073,0.00000820,0.00000700,-0.00001405,-0
 .00000840,0.00002018,0.00000306,-0.00000526,0.00000253,-0.00000438,-0.
 00000447,0.00000288,0.00000255,-0.00000029,-0.00000157,-0.00000079,-0.
 00000119,0.00000454,0.00000168,-0.00000384,0.00000071,0.00000207,-0.00
 000164,-0.00000011,-0.00000107,-0.00000029,0.00000159,0.00000069,-0.00
 000328,0.00000248,0.00000145,0.00000004,0.00000001,-0.00000151,0.00000
 012,0.00001103,-0.00000363,-0.00000617,0.00000617,0.00000074,-0.000001
 49,-0.00247105,-0.00118297,-0.00142096,-0.01239286,0.08466720,-0.00014
 785,0.00010731,0.00004897,0.00019400,-0.00027654,-0.00029549,-0.000048
 08,-0.00006092,-0.00003489,0.00022697,0.00010612,-0.00006786,-0.000148
 10,-0.00008001,0.00003776,0.00004344,0.00001507,-0.00002914,-0.0000025
 0,0.00003575,0.00000528,0.00000749,-0.00001433,-0.00000199,-0.00000780
 ,-0.00000406,-0.00000567,-0.00000146,-0.00001961,-0.00000471,0.0000377
 8,0.00001853,-0.00001448,-0.00013442,-0.00004358,0.00003697,0.00065871
 ,0.00212024,0.00237451,0.00158488,0.00169573,-0.00277117,0.00685141,0.
 09860652,-0.29737490,-0.00163199,0.00997015,-0.01482532,0.00470856,-0.
 00156284,-0.00036103,-0.00076069,-0.00082077,0.00029596,0.00002175,-0.
 00001185,-0.00000675,0.00000422,-0.00001955,0.00000769,-0.00000147,0.0
 0001010,-0.00006226,-0.00000445,0.00003533,0.00001101,0.00000132,-0.00
 000891,-0.00000268,0.00000769,-0.00002103,0.00001272,-0.00002202,0.000
 00300,0.00001516,-0.00000178,0.00001092,0.00000379,-0.00000662,-0.0000
 0320,-0.00000455,0.00000382,-0.00000487,0.00000794,-0.00001515,0.00000
 171,0.00001019,0.00000094,-0.00000743,0.00000117,0.00000701,0.00001601
 ,-0.00001760,-0.00000241,0.00000275,0.00000444,-0.00000768,-0.00000179
 ,-0.00000308,0.00000734,-0.00000389,0.00000248,-0.00000988,-0.00000089
 ,0.00000508,-0.00001064,0.00000177,-0.00000168,-0.00103277,-0.00086969
 ,0.00044942,-0.00923487,-0.10840731,0.31264881,-0.00002969,0.00004017,
 -0.00000639,-0.00080305,-0.00077000,-0.00037692,0.00011010,-0.00012212
 ,0.00005057,0.00007921,0.00011184,-0.00001272,-0.00007010,-0.00003316,
 -0.00005948,0.00005224,0.00001464,-0.00000236,0.00000318,0.00002764,0.
 00000774,-0.00000065,-0.00001222,-0.00000305,-0.00000707,-0.00000729,-
 0.00000607,-0.00000155,-0.00001577,-0.00000654,0.00003297,0.00002518,-
 0.00000473,-0.00016478,0.00001796,0.00004230,0.00005963,-0.00047815,0.
 00065267,0.00247225,0.00357962,0.00447805,-0.00742513,0.01346074,-0.00
 623931,-0.15619571,0.14197345,-0.03255742,0.00193264,-0.00161879,0.001
 15855,0.00502466,0.00313681,0.00119653,0.00000195,-0.00000218,-0.00001
 018,-0.00000835,-0.00002669,0.00001181,-0.00001790,0.00000026,-0.00001
 507,-0.00001557,-0.00002659,-0.00006954,0.00001728,0.00000003,0.000007
 14,0.00000805,-0.00003039,-0.00004141,-0.00000982,0.00000165,0.0000075
 0,0.00000049,0.00001228,0.00000680,-0.00000852,-0.00000378,-0.00000640
 ,0.00000482,-0.00000432,0.00000572,-0.00000144,0.00000200,0.00000355,-
 0.00000872,-0.00000706,-0.00000475,0.00000623,0.00002016,0.00000133,0.
 00000047,0.00000249,0.00000212,-0.00000809,-0.00000277,-0.00000338,0.0
 0000595,-0.00000284,0.00000255,-0.00001024,-0.00000449,0.00000441,-0.0
 0000979,0.00000374,-0.00000346,-0.00018316,0.00069764,-0.00031225,-0.0
 0133924,-0.00241635,-0.00092039,0.15793783,0.00001937,-0.00004367,-0.0
 0000926,-0.00076460,-0.00067855,-0.00026894,0.00014531,-0.00010656,0.0
 0001886,-0.00015354,0.00018083,-0.00005564,0.00011675,0.00000496,0.000
 03262,-0.00004820,-0.00001168,0.00001862,0.00000224,-0.00001123,-0.000
 00731,-0.00000394,0.00000605,0.00000126,-0.00000581,0.00000113,0.00000
 532,-0.00000103,0.00000642,0.00000612,-0.00003212,0.00000204,0.0000150
 4,0.00004549,-0.00003829,0.00001704,-0.00079449,0.00059460,0.00009734,
 0.00387976,0.00370863,-0.00082360,0.00515564,-0.00447077,0.00404976,0.
 14198287,-0.20839296,0.04872064,0.00690276,-0.00593612,-0.00162019,0.0
 0328151,0.00327744,0.00395256,-0.00004385,0.00000015,-0.00002469,0.000
 01726,0.00003831,-0.00000622,0.00001592,-0.00003362,-0.00000433,-0.000
 01187,-0.00005765,-0.00005390,0.00000894,0.00001231,0.00002536,0.00000
 255,0.00000306,-0.00001291,0.00000662,0.00000086,-0.00000688,0.0000018
 7,-0.00000558,-0.00000652,0.00000569,0.00000455,0.00000329,-0.00000165
 ,-0.00000168,-0.00000220,-0.00000056,-0.00000177,-0.00000259,0.0000058
 0,0.00000424,0.00000435,0.00000019,-0.00000856,-0.00000441,-0.00000017
 ,-0.00000059,-0.00000308,0.00000518,0.00000338,0.00000245,-0.00000096,
 -0.00000256,-0.00000024,0.00000196,-0.00000241,-0.00000520,0.00000638,
 -0.00000405,0.00000490,0.00023274,-0.00014600,0.00033197,-0.00216893,-
 0.00123260,-0.00095281,-0.15596765,0.21444007,0.00000779,0.00001777,-0
 .00000214,-0.00050188,-0.00016622,-0.00001240,0.00002906,-0.00005812,-
 0.00001100,0.00007716,0.00022321,-0.00007561,0.00000891,-0.00004549,0.
 00007271,-0.00001463,-0.00000851,0.00000818,-0.00000065,0.00000373,-0.
 00000174,0.00000449,-0.00000133,-0.00000014,-0.00000300,0.00000135,0.0
 0000137,-0.00000051,-0.00000206,0.00000114,0.00001092,0.00000828,-0.00
 000551,-0.00007709,-0.00003973,0.00003212,0.00125465,-0.00073122,-0.00
 178451,0.00389805,-0.00018384,-0.00221275,0.01396801,-0.01773733,0.009
 48542,-0.03235659,0.04851470,-0.07019992,-0.02002403,0.02112334,0.0018
 7974,0.00095007,0.00435933,-0.00491842,0.00004728,0.00000515,0.0000272
 1,-0.00003715,-0.00007627,0.00003344,-0.00004264,0.00002215,0.00002715
 ,-0.00000282,-0.00000893,-0.00000357,0.00000598,-0.00001156,0.00000698
 ,0.00000434,0.00002673,0.00002818,-0.00000695,-0.00000108,-0.00000048,
 0.00000145,0.00000648,0.00000063,-0.00000450,-0.00000150,-0.00000058,0
 .00000277,-0.00000203,0.00000112,0.00000077,-0.00000165,-0.00000028,-0
 .00000227,-0.00000140,-0.00000077,0.00000132,0.00000289,0.00000028,-0.
 00000058,0.00000022,0.00000019,-0.00000112,-0.00000076,-0.00000047,0.0
 0000162,-0.00000101,0.00000050,-0.00000632,-0.00000126,0.00000213,-0.0
 0000324,-0.00000222,0.00000150,0.00064779,-0.00080435,0.00035540,-0.00
 150942,-0.00028481,0.00070418,0.03402925,-0.05296789,0.06600220,-0.000
 12824,-0.00005201,-0.00001639,0.00011664,0.00002620,0.00056519,-0.0001
 8246,0.00009478,-0.00010985,0.00030641,0.00014665,-0.00005710,-0.00013
 206,-0.00008476,-0.00001143,0.00005410,0.00001248,0.00000416,0.0000025
 2,0.00002496,0.00001835,-0.00000421,-0.00001240,-0.00000729,-0.0000040
 8,-0.00000296,-0.00001069,-0.00000152,-0.00001467,-0.00001270,0.000055
 84,0.00002330,-0.00001702,-0.00018939,-0.00000232,0.00002666,0.0046763
 2,0.00568301,0.00092716,-0.00039476,-0.00008986,-0.00018561,0.00413642
 ,0.00290922,0.00081650,0.00565950,0.00179484,-0.00096916,-0.13787447,0
 .05518782,0.12051496,-0.01929517,0.01271441,0.00920951,0.00007677,0.00
 003416,0.00003032,0.00000909,-0.00004705,-0.00001417,0.00000091,0.0000
 7646,0.00000351,0.00002019,0.00009403,0.00001881,0.00001137,-0.0000056
 3,0.00000246,0.00000334,-0.00001941,0.00000403,-0.00001672,-0.00000034
 ,0.00000605,0.00000508,0.00001969,0.00001590,-0.00001625,-0.00000733,-
 0.00000761,0.00000810,-0.00000328,0.00000520,0.00000481,0.00000029,-0.
 00000120,-0.00001373,-0.00000997,-0.00000535,0.00000494,0.00001884,0.0
 0001155,0.00000282,0.00000190,0.00000059,-0.00001048,-0.00000513,-0.00
 000329,0.00000531,-0.00000082,0.00000300,-0.00001114,-0.00000284,0.000
 00570,-0.00001484,0.00000341,-0.00000381,-0.00086558,-0.00095420,-0.00
 016492,-0.00006525,-0.00011662,-0.00021435,-0.00143137,-0.00184342,-0.
 00035629,0.14549124,-0.00010779,-0.00012172,-0.00004011,0.00039781,0.0
 0035096,-0.00048646,0.00007200,0.00004303,0.00005335,-0.00014522,-0.00
 023602,0.00008934,0.00009867,0.00003536,-0.00003977,-0.00003988,-0.000
 01268,0.00000877,0.00000142,-0.00001452,-0.00001582,0.00000268,0.00000
 613,0.00000480,-0.00000200,0.00000050,0.00000855,0.00000020,0.00000794
 ,0.00001059,-0.00002865,-0.00002607,0.00002039,0.00021348,0.00000921,-
 0.00001917,0.00624621,0.00264295,0.00197457,0.00001547,-0.00059989,0.0
 0017516,0.00324281,0.00224717,0.00346044,-0.00599395,0.00938342,0.0099
 1807,0.05516632,-0.07549296,-0.06168008,0.01920864,-0.01796957,-0.0166
 1688,0.00000273,0.00003291,0.00002319,0.00005218,0.00006381,-0.0000321
 9,0.00005945,0.00000486,0.00003191,0.00000165,-0.00003071,-0.00002224,
 -0.00001207,0.00001589,0.00000030,-0.00000751,-0.00000472,-0.00001270,
 0.00001485,0.00000168,-0.00000525,0.00000099,-0.00000656,-0.00000962,0
 .00000557,0.00000542,0.00000349,-0.00000220,-0.00000175,-0.00000383,0.
 00000047,-0.00000166,-0.00000159,0.00000393,0.00000584,0.00000221,0.00
 000009,-0.00000702,-0.00000268,-0.00000154,-0.00000072,-0.00000168,0.0
 0000628,0.00000385,0.00000180,-0.00000208,-0.00000174,-0.00000142,0.00
 001288,0.00000014,-0.00000631,0.00001806,-0.00000257,0.00000180,-0.000
 81244,-0.00073143,-0.00054258,-0.00052239,0.00012311,0.00043886,-0.001
 57569,-0.00110211,-0.00117477,-0.07559142,0.08138023,0.00001592,-0.000
 14897,0.00002447,-0.00006397,0.00011690,0.00024163,0.00001911,0.000038
 34,-0.00001065,-0.00009915,0.00000766,0.00000720,0.00006898,0.00001063
 ,0.00000791,-0.00003766,-0.00000567,0.00000357,0.00000018,-0.00001278,
 -0.00000559,-0.00000157,0.00000653,0.00000063,-0.00000130,0.00000136,0
 .00000380,-0.00000022,0.00000731,0.00000493,-0.00003243,-0.00000931,0.
 00000965,0.00008923,-0.00001227,-0.00001657,-0.00087529,0.00408387,0.0
 0242011,-0.00066985,0.00044874,0.00016888,-0.00007802,0.00447004,-0.00
 370756,0.01830023,-0.01083124,-0.01491711,0.12062704,-0.06164975,-0.20
 922696,-0.00685230,0.00042906,0.01316672,-0.00005165,0.00000356,-0.000
 01471,0.00005158,0.00009276,-0.00002548,0.00005019,-0.00001132,-0.0000
 1274,0.00000697,-0.00000106,-0.00000830,0.00000292,0.00001488,0.000009
 71,-0.00000688,-0.00000140,-0.00000763,0.00000645,0.00000074,-0.000004
 03,0.00000095,-0.00001013,-0.00000549,0.00000725,0.00000461,0.00000422
 ,-0.00000427,0.00000082,-0.00000237,-0.00000354,-0.00000074,-0.0000009
 7,0.00000825,0.00000485,0.00000550,-0.00000169,-0.00001082,-0.00000768
 ,-0.00000060,-0.00000092,-0.00000222,0.00000557,0.00000344,0.00000277,
 -0.00000217,-0.00000116,-0.00000075,0.00000659,0.00000055,-0.00000531,
 0.00000769,-0.00000325,0.00000404,-0.00027790,-0.00040131,-0.00012988,
 0.00081346,-0.00065337,-0.00079829,-0.00100676,-0.00046871,0.00055851,
 -0.13002136,0.06448755,0.21226605\\0.00000098,-0.00000161,-0.00000835,
 0.00000851,0.00000210,0.00001630,-0.00000478,-0.00000866,-0.00000591,-
 0.00000738,0.00002105,-0.00000607,-0.00001013,-0.00000832,0.00000023,0
 .00001336,-0.00001399,0.00000193,-0.00000010,0.00000609,0.00000033,0.0
 0000011,0.00000203,-0.00000163,0.00000112,-0.00000413,0.00000280,-0.00
 000107,0.00000154,-0.00000107,0.00000511,0.00001104,-0.00000668,0.0000
 0222,-0.00001714,0.00000433,0.00000271,-0.00000216,-0.00000955,0.00000
 082,-0.00000286,-0.00000028,-0.00000306,0.00000440,-0.00000216,0.00000
 157,0.00000307,-0.00000475,-0.00000148,-0.00000098,0.00000398,-0.00000
 585,0.00000322,0.00000196,-0.00000046,-0.00000078,0.00000158,0.0000023
 9,0.00000180,0.00000168,-0.00000069,0.00000322,0.00000195,-0.00000110,
 0.00000268,0.00000056,0.00000237,0.00000110,0.00000044,-0.00000062,0.0
 0000005,0.00000372,-0.00000421,-0.00000025,0.00000102,0.00000253,-0.00
 000051,0.00000023,-0.00000162,-0.00000177,-0.00000080,-0.00000028,0.00
 000311,0.00000159,-0.00000202,0.00000049,0.00000091,-0.00000074,-0.000
 00105,-0.00000304,0.00000362,0.00000096,-0.00000237,0.00000034,-0.0000
 0031,0.00000209,0.00000035,-0.00000237,-0.00000193,-0.00000033,0.00000
 217,-0.00000185,-0.00000130,-0.00000106,0.00000278,-0.00000130,-0.0000
 0017,-0.00000024,0.00000040,0.00000102,0.00000380,-0.00000004,-0.00000
 202,0.00000076,-0.00000127,-0.00000290,0.00000178,0.00000130,0.0000018
 8,-0.00000007\\\@
 The archive entry for this job was punched.


 I DON'T EXACTLY UNDERSTAND WHAT YOU ARE SAYING,
 BUT YOU ARE ABSOLUTELY RIGHT.
     M.S.GORDON, IN A NDSU FACULTY MEETING
 Job cpu time:       0 days  1 hours  7 minutes 33.5 seconds.
 Elapsed time:       0 days  0 hours  1 minutes 42.1 seconds.
 File lengths (MBytes):  RWF=    417 Int=      0 D2E=      0 Chk=      9 Scr=      1
 Normal termination of Gaussian 16 at Mon Feb 26 09:36:23 2024.
