 Entering Gaussian System, Link 0=g16
 Initial command:
 /public/apps/g16-C01//g16/l1.exe "/public/home/ljq/tmp/Gau-57798.inp" -scrdir="/public/home/ljq/tmp/"
 Entering Link 1 = /public/apps/g16-C01//g16/l1.exe PID=     57799.
  
 Copyright (c) 1988-2019, Gaussian, Inc.  All Rights Reserved.
  
 This is part of the Gaussian(R) 16 program.  It is based on
 the Gaussian(R) 09 system (copyright 2009, Gaussian, Inc.),
 the Gaussian(R) 03 system (copyright 2003, Gaussian, Inc.),
 the Gaussian(R) 98 system (copyright 1998, Gaussian, Inc.),
 the Gaussian(R) 94 system (copyright 1995, Gaussian, Inc.),
 the Gaussian 92(TM) system (copyright 1992, Gaussian, Inc.),
 the Gaussian 90(TM) system (copyright 1990, Gaussian, Inc.),
 the Gaussian 88(TM) system (copyright 1988, Gaussian, Inc.),
 the Gaussian 86(TM) system (copyright 1986, Carnegie Mellon
 University), and the Gaussian 82(TM) system (copyright 1983,
 Carnegie Mellon University). Gaussian is a federally registered
 trademark of Gaussian, Inc.
  
 This software contains proprietary and confidential information,
 including trade secrets, belonging to Gaussian, Inc.
  
 This software is provided under written license and may be
 used, copied, transmitted, or stored only in accord with that
 written license.
  
 The following legend is applicable only to US Government
 contracts under FAR:
  
                    RESTRICTED RIGHTS LEGEND
  
 Use, reproduction and disclosure by the US Government is
 subject to restrictions as set forth in subparagraphs (a)
 and (c) of the Commercial Computer Software - Restricted
 Rights clause in FAR 52.227-19.
  
 Gaussian, Inc.
 340 Quinnipiac St., Bldg. 40, Wallingford CT 06492
  
  
 ---------------------------------------------------------------
 Warning -- This program may not be used in any manner that
 competes with the business of Gaussian, Inc. or will provide
 assistance to any competitor of Gaussian, Inc.  The licensee
 of this program is prohibited from giving any competitor of
 Gaussian, Inc. access to this program.  By using this program,
 the user acknowledges that Gaussian, Inc. is engaged in the
 business of creating and licensing software in the field of
 computational chemistry and represents and warrants to the
 licensee that it is not a competitor of Gaussian, Inc. and that
 it will not use this program in any manner prohibited above.
 ---------------------------------------------------------------
  

 Cite this work as:
 Gaussian 16, Revision C.01,
 M. J. Frisch, G. W. Trucks, H. B. Schlegel, G. E. Scuseria, 
 M. A. Robb, J. R. Cheeseman, G. Scalmani, V. Barone, 
 G. A. Petersson, H. Nakatsuji, X. Li, M. Caricato, A. V. Marenich, 
 J. Bloino, B. G. Janesko, R. Gomperts, B. Mennucci, H. P. Hratchian, 
 J. V. Ortiz, A. F. Izmaylov, J. L. Sonnenberg, D. Williams-Young, 
 F. Ding, F. Lipparini, F. Egidi, J. Goings, B. Peng, A. Petrone, 
 T. Henderson, D. Ranasinghe, V. G. Zakrzewski, J. Gao, N. Rega, 
 G. Zheng, W. Liang, M. Hada, M. Ehara, K. Toyota, R. Fukuda, 
 J. Hasegawa, M. Ishida, T. Nakajima, Y. Honda, O. Kitao, H. Nakai, 
 T. Vreven, K. Throssell, J. A. Montgomery, Jr., J. E. Peralta, 
 F. Ogliaro, M. J. Bearpark, J. J. Heyd, E. N. Brothers, K. N. Kudin, 
 V. N. Staroverov, T. A. Keith, R. Kobayashi, J. Normand, 
 K. Raghavachari, A. P. Rendell, J. C. Burant, S. S. Iyengar, 
 J. Tomasi, M. Cossi, J. M. Millam, M. Klene, C. Adamo, R. Cammi, 
 J. W. Ochterski, R. L. Martin, K. Morokuma, O. Farkas, 
 J. B. Foresman, and D. J. Fox, Gaussian, Inc., Wallingford CT, 2019.
 
 ******************************************
 Gaussian 16:  ES64L-G16RevC.01  3-Jul-2019
                26-Feb-2024 
 ******************************************
 %nproc=40
 Will use up to   40 processors via shared memory.
 %mem=56GB
 ------------------------------------------
 #p opt freq b3lyp/def2svpp em=gd3bj nosymm
 ------------------------------------------
 1/18=20,19=15,26=3,38=1/1,3;
 2/9=110,12=2,15=1,17=6,18=5,40=1/2;
 3/5=43,7=202,11=2,25=1,30=1,71=1,74=-5,124=41/1,2,3;
 4//1;
 5/5=2,38=5/2;
 6/7=2,8=2,9=2,10=2,28=1/1;
 7/30=1/1,2,3,16;
 1/18=20,19=15,26=3/3(2);
 2/9=110,15=1/2;
 99//99;
 2/9=110,15=1/2;
 3/5=43,7=202,11=2,25=1,30=1,71=1,74=-5,124=41/1,2,3;
 4/5=5,16=3,69=1/1;
 5/5=2,38=5/2;
 7/30=1/1,2,3,16;
 1/18=20,19=15,26=3/3(-5);
 2/9=110,15=1/2;
 6/7=2,8=2,9=2,10=2,19=2,28=1/1;
 99/9=1/99;
 Leave Link    1 at Mon Feb 26 12:16:37 2024, MaxMem=  7516192768 cpu:               0.9 elap:               0.0
 (Enter /public/apps/g16-C01//g16/l101.exe)
 -----------------------
 $$$$Singlemol####-1????
 -----------------------
 Symbolic Z-matrix:
 Charge = -1 Multiplicity = 1
 C                     5.35838   3.74829  -0.30108 
 C                     5.24086   2.2226   -0.30673 
 C                     4.84744   1.72517  -1.69782 
 C                     6.59033   1.60814   0.07511 
 C                     4.20757   1.75739   0.74945 
 C                     2.75003   2.25082   0.52854 
 O                     1.992     1.07474   0.3735 
 C                     2.84577   0.0213    0.52589 
 C                     2.3699   -1.30559   0.43655 
 C                     1.07598  -1.70865   0.19812 
 N                    -0.00093  -0.93024  -0.00027 
 C                    -1.07732  -1.70966  -0.1978 
 C                    -2.37172  -1.30748  -0.43508 
 C                    -2.8479    0.01923  -0.52612 
 N                    -4.08414   0.31786  -0.74996 
 C                    -4.21038   1.75472  -0.75017 
 C                    -5.23912   2.22387   0.30873 
 C                    -4.84006   1.73113   1.69988 
 C                    -5.35616   3.74958   0.29828 
 C                    -6.59039   1.6086   -0.06534 
 C                    -2.75193   2.24866  -0.53681 
 O                    -1.9935    1.07296  -0.38044 
 C                    -0.69073  -3.13304  -0.12577 
 C                    -1.38469  -4.32028  -0.25293 
 C                    -0.68163  -5.50984  -0.12484 
 C                     0.68395  -5.5092    0.12465 
 C                     1.38577  -4.31898   0.25332 
 C                     0.69061  -3.1324    0.12664 
 N                     4.08113   0.3206    0.75348 
 H                     4.42283   4.21728  -0.59692 
 H                     5.61946   4.10716   0.69322 
 H                     6.13444   4.06602  -0.99628 
 H                     3.90598   2.16094  -2.02356 
 H                     4.73193   0.64432  -1.67441 
 H                     5.6159    1.98445  -2.42516 
 H                     7.3424    1.8266   -0.68183 
 H                     6.47367   0.53262   0.16998 
 H                     6.93306   2.00223   1.03005 
 H                     4.57861   2.08909   1.73203 
 H                     2.37266   2.81221   1.39214 
 H                     2.63061   2.86984  -0.36639 
 H                     3.12913  -2.06094   0.57446 
 H                    -3.13109  -2.06318  -0.57022 
 H                    -4.58542   2.08316  -1.73233 
 H                    -3.89698   2.16751   2.02006 
 H                    -5.60525   1.9934    2.42958 
 H                    -4.72523   0.65014   1.6798 
 H                    -5.62188   4.10503  -0.69602 
 H                    -6.12871   4.07009   0.99608 
 H                    -4.419     4.21924   0.58789 
 H                    -6.93738   2.0001   -1.01982 
 H                    -6.47439   0.53278  -0.15768 
 H                    -7.33898   1.82935   0.69438 
 H                    -2.37787   2.80669  -1.40401 
 H                    -2.62874   2.87094   0.35531 
 H                    -2.44847  -4.33066  -0.44751 
 H                    -1.20314  -6.4543   -0.2205 
 H                     1.20649  -6.45316   0.21966 
 H                     2.4496   -4.32837   0.4477 
 
 ITRead=  0  0  0  0  0  0  0  0  0  0  0  0  0  0  0  0  0  0  0  0
 ITRead=  0  0  0  0  0  0  0  0  0  0  0  0  0  0  0  0  0  0  0  0
 ITRead=  0  0  0  0  0  0  0  0  0  0  0  0  0  0  0  0  0  0  0
 MicOpt= -1 -1 -1 -1 -1 -1 -1 -1 -1 -1 -1 -1 -1 -1 -1 -1 -1 -1 -1 -1
 MicOpt= -1 -1 -1 -1 -1 -1 -1 -1 -1 -1 -1 -1 -1 -1 -1 -1 -1 -1 -1 -1
 MicOpt= -1 -1 -1 -1 -1 -1 -1 -1 -1 -1 -1 -1 -1 -1 -1 -1 -1 -1 -1
 NAtoms=     59 NQM=       59 NQMF=       0 NMMI=      0 NMMIF=      0
                NMic=       0 NMicF=      0.
                    Isotopes and Nuclear Properties:
 (Nuclear quadrupole moments (NQMom) in fm**2, nuclear magnetic moments (NMagM)
  in nuclear magnetons)

  Atom         1           2           3           4           5           6           7           8           9          10
 IAtWgt=          12          12          12          12          12          12          16          12          12          12
 AtmWgt=  12.0000000  12.0000000  12.0000000  12.0000000  12.0000000  12.0000000  15.9949146  12.0000000  12.0000000  12.0000000
 NucSpn=           0           0           0           0           0           0           0           0           0           0
 AtZEff=  -0.0000000  -0.0000000  -0.0000000  -0.0000000  -0.0000000  -0.0000000  -0.0000000  -0.0000000  -0.0000000  -0.0000000
 NQMom=    0.0000000   0.0000000   0.0000000   0.0000000   0.0000000   0.0000000   0.0000000   0.0000000   0.0000000   0.0000000
 NMagM=    0.0000000   0.0000000   0.0000000   0.0000000   0.0000000   0.0000000   0.0000000   0.0000000   0.0000000   0.0000000
 AtZNuc=   6.0000000   6.0000000   6.0000000   6.0000000   6.0000000   6.0000000   8.0000000   6.0000000   6.0000000   6.0000000

  Atom        11          12          13          14          15          16          17          18          19          20
 IAtWgt=          14          12          12          12          14          12          12          12          12          12
 AtmWgt=  14.0030740  12.0000000  12.0000000  12.0000000  14.0030740  12.0000000  12.0000000  12.0000000  12.0000000  12.0000000
 NucSpn=           2           0           0           0           2           0           0           0           0           0
 AtZEff=  -0.0000000  -0.0000000  -0.0000000  -0.0000000  -0.0000000  -0.0000000  -0.0000000  -0.0000000  -0.0000000  -0.0000000
 NQMom=    2.0440000   0.0000000   0.0000000   0.0000000   2.0440000   0.0000000   0.0000000   0.0000000   0.0000000   0.0000000
 NMagM=    0.4037610   0.0000000   0.0000000   0.0000000   0.4037610   0.0000000   0.0000000   0.0000000   0.0000000   0.0000000
 AtZNuc=   7.0000000   6.0000000   6.0000000   6.0000000   7.0000000   6.0000000   6.0000000   6.0000000   6.0000000   6.0000000

  Atom        21          22          23          24          25          26          27          28          29          30
 IAtWgt=          12          16          12          12          12          12          12          12          14           1
 AtmWgt=  12.0000000  15.9949146  12.0000000  12.0000000  12.0000000  12.0000000  12.0000000  12.0000000  14.0030740   1.0078250
 NucSpn=           0           0           0           0           0           0           0           0           2           1
 AtZEff=  -0.0000000  -0.0000000  -0.0000000  -0.0000000  -0.0000000  -0.0000000  -0.0000000  -0.0000000  -0.0000000  -0.0000000
 NQMom=    0.0000000   0.0000000   0.0000000   0.0000000   0.0000000   0.0000000   0.0000000   0.0000000   2.0440000   0.0000000
 NMagM=    0.0000000   0.0000000   0.0000000   0.0000000   0.0000000   0.0000000   0.0000000   0.0000000   0.4037610   2.7928460
 AtZNuc=   6.0000000   8.0000000   6.0000000   6.0000000   6.0000000   6.0000000   6.0000000   6.0000000   7.0000000   1.0000000

  Atom        31          32          33          34          35          36          37          38          39          40
 IAtWgt=           1           1           1           1           1           1           1           1           1           1
 AtmWgt=   1.0078250   1.0078250   1.0078250   1.0078250   1.0078250   1.0078250   1.0078250   1.0078250   1.0078250   1.0078250
 NucSpn=           1           1           1           1           1           1           1           1           1           1
 AtZEff=  -0.0000000  -0.0000000  -0.0000000  -0.0000000  -0.0000000  -0.0000000  -0.0000000  -0.0000000  -0.0000000  -0.0000000
 NQMom=    0.0000000   0.0000000   0.0000000   0.0000000   0.0000000   0.0000000   0.0000000   0.0000000   0.0000000   0.0000000
 NMagM=    2.7928460   2.7928460   2.7928460   2.7928460   2.7928460   2.7928460   2.7928460   2.7928460   2.7928460   2.7928460
 AtZNuc=   1.0000000   1.0000000   1.0000000   1.0000000   1.0000000   1.0000000   1.0000000   1.0000000   1.0000000   1.0000000

  Atom        41          42          43          44          45          46          47          48          49          50
 IAtWgt=           1           1           1           1           1           1           1           1           1           1
 AtmWgt=   1.0078250   1.0078250   1.0078250   1.0078250   1.0078250   1.0078250   1.0078250   1.0078250   1.0078250   1.0078250
 NucSpn=           1           1           1           1           1           1           1           1           1           1
 AtZEff=  -0.0000000  -0.0000000  -0.0000000  -0.0000000  -0.0000000  -0.0000000  -0.0000000  -0.0000000  -0.0000000  -0.0000000
 NQMom=    0.0000000   0.0000000   0.0000000   0.0000000   0.0000000   0.0000000   0.0000000   0.0000000   0.0000000   0.0000000
 NMagM=    2.7928460   2.7928460   2.7928460   2.7928460   2.7928460   2.7928460   2.7928460   2.7928460   2.7928460   2.7928460
 AtZNuc=   1.0000000   1.0000000   1.0000000   1.0000000   1.0000000   1.0000000   1.0000000   1.0000000   1.0000000   1.0000000

  Atom        51          52          53          54          55          56          57          58          59
 IAtWgt=           1           1           1           1           1           1           1           1           1
 AtmWgt=   1.0078250   1.0078250   1.0078250   1.0078250   1.0078250   1.0078250   1.0078250   1.0078250   1.0078250
 NucSpn=           1           1           1           1           1           1           1           1           1
 AtZEff=  -0.0000000  -0.0000000  -0.0000000  -0.0000000  -0.0000000  -0.0000000  -0.0000000  -0.0000000  -0.0000000
 NQMom=    0.0000000   0.0000000   0.0000000   0.0000000   0.0000000   0.0000000   0.0000000   0.0000000   0.0000000
 NMagM=    2.7928460   2.7928460   2.7928460   2.7928460   2.7928460   2.7928460   2.7928460   2.7928460   2.7928460
 AtZNuc=   1.0000000   1.0000000   1.0000000   1.0000000   1.0000000   1.0000000   1.0000000   1.0000000   1.0000000
 Leave Link  101 at Mon Feb 26 12:16:37 2024, MaxMem=  7516192768 cpu:               7.6 elap:               0.2
 (Enter /public/apps/g16-C01//g16/l103.exe)

 GradGradGradGradGradGradGradGradGradGradGradGradGradGradGradGradGradGrad
 Berny optimization.
 Initialization pass.
                           ----------------------------
                           !    Initial Parameters    !
                           ! (Angstroms and Degrees)  !
 --------------------------                            --------------------------
 ! Name  Definition              Value          Derivative Info.                !
 --------------------------------------------------------------------------------
 ! R1    R(1,2)                  1.5302         estimate D2E/DX2                !
 ! R2    R(1,30)                 1.0875         estimate D2E/DX2                !
 ! R3    R(1,31)                 1.0888         estimate D2E/DX2                !
 ! R4    R(1,32)                 1.0893         estimate D2E/DX2                !
 ! R5    R(2,3)                  1.5288         estimate D2E/DX2                !
 ! R6    R(2,4)                  1.5312         estimate D2E/DX2                !
 ! R7    R(2,5)                  1.5491         estimate D2E/DX2                !
 ! R8    R(3,33)                 1.0874         estimate D2E/DX2                !
 ! R9    R(3,34)                 1.0873         estimate D2E/DX2                !
 ! R10   R(3,35)                 1.0894         estimate D2E/DX2                !
 ! R11   R(4,36)                 1.0892         estimate D2E/DX2                !
 ! R12   R(4,37)                 1.086          estimate D2E/DX2                !
 ! R13   R(4,38)                 1.0884         estimate D2E/DX2                !
 ! R14   R(5,6)                  1.5546         estimate D2E/DX2                !
 ! R15   R(5,29)                 1.4423         estimate D2E/DX2                !
 ! R16   R(5,39)                 1.1014         estimate D2E/DX2                !
 ! R17   R(6,7)                  1.4078         estimate D2E/DX2                !
 ! R18   R(6,40)                 1.097          estimate D2E/DX2                !
 ! R19   R(6,41)                 1.0947         estimate D2E/DX2                !
 ! R20   R(7,8)                  1.3645         estimate D2E/DX2                !
 ! R21   R(8,9)                  1.4125         estimate D2E/DX2                !
 ! R22   R(8,29)                 1.2913         estimate D2E/DX2                !
 ! R23   R(9,10)                 1.376          estimate D2E/DX2                !
 ! R24   R(9,42)                 1.0798         estimate D2E/DX2                !
 ! R25   R(10,11)                1.3435         estimate D2E/DX2                !
 ! R26   R(10,28)                1.4767         estimate D2E/DX2                !
 ! R27   R(11,12)                1.3435         estimate D2E/DX2                !
 ! R28   R(12,13)                1.3761         estimate D2E/DX2                !
 ! R29   R(12,23)                1.4767         estimate D2E/DX2                !
 ! R30   R(13,14)                1.4125         estimate D2E/DX2                !
 ! R31   R(13,43)                1.0798         estimate D2E/DX2                !
 ! R32   R(14,15)                1.2913         estimate D2E/DX2                !
 ! R33   R(14,22)                1.3644         estimate D2E/DX2                !
 ! R34   R(15,16)                1.4424         estimate D2E/DX2                !
 ! R35   R(16,17)                1.5491         estimate D2E/DX2                !
 ! R36   R(16,21)                1.5545         estimate D2E/DX2                !
 ! R37   R(16,44)                1.1014         estimate D2E/DX2                !
 ! R38   R(17,18)                1.5288         estimate D2E/DX2                !
 ! R39   R(17,19)                1.5302         estimate D2E/DX2                !
 ! R40   R(17,20)                1.5312         estimate D2E/DX2                !
 ! R41   R(18,45)                1.0874         estimate D2E/DX2                !
 ! R42   R(18,46)                1.0894         estimate D2E/DX2                !
 ! R43   R(18,47)                1.0873         estimate D2E/DX2                !
 ! R44   R(19,48)                1.0888         estimate D2E/DX2                !
 ! R45   R(19,49)                1.0893         estimate D2E/DX2                !
 ! R46   R(19,50)                1.0875         estimate D2E/DX2                !
 ! R47   R(20,51)                1.0884         estimate D2E/DX2                !
 ! R48   R(20,52)                1.086          estimate D2E/DX2                !
 ! R49   R(20,53)                1.0892         estimate D2E/DX2                !
 ! R50   R(21,22)                1.4078         estimate D2E/DX2                !
 ! R51   R(21,54)                1.097          estimate D2E/DX2                !
 ! R52   R(21,55)                1.0947         estimate D2E/DX2                !
 ! R53   R(23,24)                1.381          estimate D2E/DX2                !
 ! R54   R(23,28)                1.4042         estimate D2E/DX2                !
 ! R55   R(24,25)                1.3877         estimate D2E/DX2                !
 ! R56   R(24,56)                1.0815         estimate D2E/DX2                !
 ! R57   R(25,26)                1.3882         estimate D2E/DX2                !
 ! R58   R(25,57)                1.0831         estimate D2E/DX2                !
 ! R59   R(26,27)                1.3877         estimate D2E/DX2                !
 ! R60   R(26,58)                1.0831         estimate D2E/DX2                !
 ! R61   R(27,28)                1.381          estimate D2E/DX2                !
 ! R62   R(27,59)                1.0815         estimate D2E/DX2                !
 ! A1    A(2,1,30)             111.2778         estimate D2E/DX2                !
 ! A2    A(2,1,31)             110.5117         estimate D2E/DX2                !
 ! A3    A(2,1,32)             110.0713         estimate D2E/DX2                !
 ! A4    A(30,1,31)            108.2124         estimate D2E/DX2                !
 ! A5    A(30,1,32)            108.2697         estimate D2E/DX2                !
 ! A6    A(31,1,32)            108.4113         estimate D2E/DX2                !
 ! A7    A(1,2,3)              110.3361         estimate D2E/DX2                !
 ! A8    A(1,2,4)              109.3604         estimate D2E/DX2                !
 ! A9    A(1,2,5)              110.3739         estimate D2E/DX2                !
 ! A10   A(3,2,4)              108.8524         estimate D2E/DX2                !
 ! A11   A(3,2,5)              110.5498         estimate D2E/DX2                !
 ! A12   A(4,2,5)              107.2977         estimate D2E/DX2                !
 ! A13   A(2,3,33)             111.4067         estimate D2E/DX2                !
 ! A14   A(2,3,34)             109.3413         estimate D2E/DX2                !
 ! A15   A(2,3,35)             110.3984         estimate D2E/DX2                !
 ! A16   A(33,3,34)            108.2316         estimate D2E/DX2                !
 ! A17   A(33,3,35)            108.3825         estimate D2E/DX2                !
 ! A18   A(34,3,35)            109.0214         estimate D2E/DX2                !
 ! A19   A(2,4,36)             110.7793         estimate D2E/DX2                !
 ! A20   A(2,4,37)             108.9386         estimate D2E/DX2                !
 ! A21   A(2,4,38)             110.549          estimate D2E/DX2                !
 ! A22   A(36,4,37)            109.4833         estimate D2E/DX2                !
 ! A23   A(36,4,38)            108.6436         estimate D2E/DX2                !
 ! A24   A(37,4,38)            108.4066         estimate D2E/DX2                !
 ! A25   A(2,5,6)              115.6703         estimate D2E/DX2                !
 ! A26   A(2,5,29)             111.0719         estimate D2E/DX2                !
 ! A27   A(2,5,39)             107.0434         estimate D2E/DX2                !
 ! A28   A(6,5,29)             103.5555         estimate D2E/DX2                !
 ! A29   A(6,5,39)             110.3051         estimate D2E/DX2                !
 ! A30   A(29,5,39)            109.089          estimate D2E/DX2                !
 ! A31   A(5,6,7)              104.7935         estimate D2E/DX2                !
 ! A32   A(5,6,40)             111.9068         estimate D2E/DX2                !
 ! A33   A(5,6,41)             113.4492         estimate D2E/DX2                !
 ! A34   A(7,6,40)             109.2085         estimate D2E/DX2                !
 ! A35   A(7,6,41)             108.8827         estimate D2E/DX2                !
 ! A36   A(40,6,41)            108.4619         estimate D2E/DX2                !
 ! A37   A(6,7,8)              107.2028         estimate D2E/DX2                !
 ! A38   A(7,8,9)              120.4901         estimate D2E/DX2                !
 ! A39   A(7,8,29)             116.0613         estimate D2E/DX2                !
 ! A40   A(9,8,29)             123.4484         estimate D2E/DX2                !
 ! A41   A(8,9,10)             127.0791         estimate D2E/DX2                !
 ! A42   A(8,9,42)             114.3416         estimate D2E/DX2                !
 ! A43   A(10,9,42)            118.5794         estimate D2E/DX2                !
 ! A44   A(9,10,11)            127.5607         estimate D2E/DX2                !
 ! A45   A(9,10,28)            122.4241         estimate D2E/DX2                !
 ! A46   A(11,10,28)           110.0152         estimate D2E/DX2                !
 ! A47   A(10,11,12)           109.1338         estimate D2E/DX2                !
 ! A48   A(11,12,13)           127.547          estimate D2E/DX2                !
 ! A49   A(11,12,23)           110.0151         estimate D2E/DX2                !
 ! A50   A(13,12,23)           122.4379         estimate D2E/DX2                !
 ! A51   A(12,13,14)           127.0665         estimate D2E/DX2                !
 ! A52   A(12,13,43)           118.591          estimate D2E/DX2                !
 ! A53   A(14,13,43)           114.3425         estimate D2E/DX2                !
 ! A54   A(13,14,15)           123.4431         estimate D2E/DX2                !
 ! A55   A(13,14,22)           120.491          estimate D2E/DX2                !
 ! A56   A(15,14,22)           116.0656         estimate D2E/DX2                !
 ! A57   A(14,15,16)           108.3114         estimate D2E/DX2                !
 ! A58   A(15,16,17)           111.0832         estimate D2E/DX2                !
 ! A59   A(15,16,21)           103.5556         estimate D2E/DX2                !
 ! A60   A(15,16,44)           109.0856         estimate D2E/DX2                !
 ! A61   A(17,16,21)           115.6578         estimate D2E/DX2                !
 ! A62   A(17,16,44)           107.044          estimate D2E/DX2                !
 ! A63   A(21,16,44)           110.3091         estimate D2E/DX2                !
 ! A64   A(16,17,18)           110.5514         estimate D2E/DX2                !
 ! A65   A(16,17,19)           110.3706         estimate D2E/DX2                !
 ! A66   A(16,17,20)           107.3001         estimate D2E/DX2                !
 ! A67   A(18,17,19)           110.3361         estimate D2E/DX2                !
 ! A68   A(18,17,20)           108.8533         estimate D2E/DX2                !
 ! A69   A(19,17,20)           109.3588         estimate D2E/DX2                !
 ! A70   A(17,18,45)           111.4062         estimate D2E/DX2                !
 ! A71   A(17,18,46)           110.3993         estimate D2E/DX2                !
 ! A72   A(17,18,47)           109.3418         estimate D2E/DX2                !
 ! A73   A(45,18,46)           108.3824         estimate D2E/DX2                !
 ! A74   A(45,18,47)           108.2311         estimate D2E/DX2                !
 ! A75   A(46,18,47)           109.0212         estimate D2E/DX2                !
 ! A76   A(17,19,48)           110.5111         estimate D2E/DX2                !
 ! A77   A(17,19,49)           110.0747         estimate D2E/DX2                !
 ! A78   A(17,19,50)           111.2755         estimate D2E/DX2                !
 ! A79   A(48,19,49)           108.4123         estimate D2E/DX2                !
 ! A80   A(48,19,50)           108.2102         estimate D2E/DX2                !
 ! A81   A(49,19,50)           108.2705         estimate D2E/DX2                !
 ! A82   A(17,20,51)           110.5511         estimate D2E/DX2                !
 ! A83   A(17,20,52)           108.9402         estimate D2E/DX2                !
 ! A84   A(17,20,53)           110.7759         estimate D2E/DX2                !
 ! A85   A(51,20,52)           108.4095         estimate D2E/DX2                !
 ! A86   A(51,20,53)           108.6421         estimate D2E/DX2                !
 ! A87   A(52,20,53)           109.4818         estimate D2E/DX2                !
 ! A88   A(16,21,22)           104.7924         estimate D2E/DX2                !
 ! A89   A(16,21,54)           111.904          estimate D2E/DX2                !
 ! A90   A(16,21,55)           113.4569         estimate D2E/DX2                !
 ! A91   A(22,21,54)           109.2044         estimate D2E/DX2                !
 ! A92   A(22,21,55)           108.8802         estimate D2E/DX2                !
 ! A93   A(54,21,55)           108.4642         estimate D2E/DX2                !
 ! A94   A(14,22,21)           107.2028         estimate D2E/DX2                !
 ! A95   A(12,23,24)           133.8352         estimate D2E/DX2                !
 ! A96   A(12,23,28)           105.4178         estimate D2E/DX2                !
 ! A97   A(24,23,28)           120.747          estimate D2E/DX2                !
 ! A98   A(23,24,25)           118.2837         estimate D2E/DX2                !
 ! A99   A(23,24,56)           121.2707         estimate D2E/DX2                !
 ! A100  A(25,24,56)           120.4456         estimate D2E/DX2                !
 ! A101  A(24,25,26)           120.969          estimate D2E/DX2                !
 ! A102  A(24,25,57)           119.6948         estimate D2E/DX2                !
 ! A103  A(26,25,57)           119.3362         estimate D2E/DX2                !
 ! A104  A(25,26,27)           120.9685         estimate D2E/DX2                !
 ! A105  A(25,26,58)           119.3375         estimate D2E/DX2                !
 ! A106  A(27,26,58)           119.6939         estimate D2E/DX2                !
 ! A107  A(26,27,28)           118.2838         estimate D2E/DX2                !
 ! A108  A(26,27,59)           120.4444         estimate D2E/DX2                !
 ! A109  A(28,27,59)           121.2717         estimate D2E/DX2                !
 ! A110  A(10,28,23)           105.418          estimate D2E/DX2                !
 ! A111  A(10,28,27)           133.834          estimate D2E/DX2                !
 ! A112  A(23,28,27)           120.7479         estimate D2E/DX2                !
 ! A113  A(5,29,8)             108.3158         estimate D2E/DX2                !
 ! D1    D(30,1,2,3)            58.6422         estimate D2E/DX2                !
 ! D2    D(30,1,2,4)           178.3447         estimate D2E/DX2                !
 ! D3    D(30,1,2,5)           -63.836          estimate D2E/DX2                !
 ! D4    D(31,1,2,3)           178.8942         estimate D2E/DX2                !
 ! D5    D(31,1,2,4)           -61.4033         estimate D2E/DX2                !
 ! D6    D(31,1,2,5)            56.4159         estimate D2E/DX2                !
 ! D7    D(32,1,2,3)           -61.3889         estimate D2E/DX2                !
 ! D8    D(32,1,2,4)            58.3136         estimate D2E/DX2                !
 ! D9    D(32,1,2,5)           176.1328         estimate D2E/DX2                !
 ! D10   D(1,2,3,33)           -58.2938         estimate D2E/DX2                !
 ! D11   D(1,2,3,34)          -177.8809         estimate D2E/DX2                !
 ! D12   D(1,2,3,35)            62.1819         estimate D2E/DX2                !
 ! D13   D(4,2,3,33)          -178.3028         estimate D2E/DX2                !
 ! D14   D(4,2,3,34)            62.11           estimate D2E/DX2                !
 ! D15   D(4,2,3,35)           -57.8272         estimate D2E/DX2                !
 ! D16   D(5,2,3,33)            64.0812         estimate D2E/DX2                !
 ! D17   D(5,2,3,34)           -55.506          estimate D2E/DX2                !
 ! D18   D(5,2,3,35)          -175.4432         estimate D2E/DX2                !
 ! D19   D(1,2,4,36)           -65.3384         estimate D2E/DX2                !
 ! D20   D(1,2,4,37)           174.1738         estimate D2E/DX2                !
 ! D21   D(1,2,4,38)            55.1522         estimate D2E/DX2                !
 ! D22   D(3,2,4,36)            55.2731         estimate D2E/DX2                !
 ! D23   D(3,2,4,37)           -65.2147         estimate D2E/DX2                !
 ! D24   D(3,2,4,38)           175.7638         estimate D2E/DX2                !
 ! D25   D(5,2,4,36)           174.9313         estimate D2E/DX2                !
 ! D26   D(5,2,4,37)            54.4435         estimate D2E/DX2                !
 ! D27   D(5,2,4,38)           -64.5781         estimate D2E/DX2                !
 ! D28   D(1,2,5,6)             62.1474         estimate D2E/DX2                !
 ! D29   D(1,2,5,29)           179.7851         estimate D2E/DX2                !
 ! D30   D(1,2,5,39)           -61.2227         estimate D2E/DX2                !
 ! D31   D(3,2,5,6)            -60.2054         estimate D2E/DX2                !
 ! D32   D(3,2,5,29)            57.4323         estimate D2E/DX2                !
 ! D33   D(3,2,5,39)           176.4244         estimate D2E/DX2                !
 ! D34   D(4,2,5,6)           -178.7721         estimate D2E/DX2                !
 ! D35   D(4,2,5,29)           -61.1344         estimate D2E/DX2                !
 ! D36   D(4,2,5,39)            57.8578         estimate D2E/DX2                !
 ! D37   D(2,5,6,7)            119.1421         estimate D2E/DX2                !
 ! D38   D(2,5,6,40)          -122.6305         estimate D2E/DX2                !
 ! D39   D(2,5,6,41)             0.4951         estimate D2E/DX2                !
 ! D40   D(29,5,6,7)            -2.6085         estimate D2E/DX2                !
 ! D41   D(29,5,6,40)          115.6188         estimate D2E/DX2                !
 ! D42   D(29,5,6,41)         -121.2555         estimate D2E/DX2                !
 ! D43   D(39,5,6,7)          -119.2181         estimate D2E/DX2                !
 ! D44   D(39,5,6,40)           -0.9908         estimate D2E/DX2                !
 ! D45   D(39,5,6,41)          122.1349         estimate D2E/DX2                !
 ! D46   D(2,5,29,8)          -122.3937         estimate D2E/DX2                !
 ! D47   D(6,5,29,8)             2.3869         estimate D2E/DX2                !
 ! D48   D(39,5,29,8)          119.8496         estimate D2E/DX2                !
 ! D49   D(5,6,7,8)              1.9271         estimate D2E/DX2                !
 ! D50   D(40,6,7,8)          -118.1159         estimate D2E/DX2                !
 ! D51   D(41,6,7,8)           123.6167         estimate D2E/DX2                !
 ! D52   D(6,7,8,9)            179.3757         estimate D2E/DX2                !
 ! D53   D(6,7,8,29)            -0.4832         estimate D2E/DX2                !
 ! D54   D(7,8,9,10)             0.1478         estimate D2E/DX2                !
 ! D55   D(7,8,9,42)          -179.8864         estimate D2E/DX2                !
 ! D56   D(29,8,9,10)          179.996          estimate D2E/DX2                !
 ! D57   D(29,8,9,42)           -0.0383         estimate D2E/DX2                !
 ! D58   D(7,8,29,5)            -1.3498         estimate D2E/DX2                !
 ! D59   D(9,8,29,5)           178.7958         estimate D2E/DX2                !
 ! D60   D(8,9,10,11)            0.08           estimate D2E/DX2                !
 ! D61   D(8,9,10,28)         -179.9387         estimate D2E/DX2                !
 ! D62   D(42,9,10,11)        -179.8844         estimate D2E/DX2                !
 ! D63   D(42,9,10,28)           0.0969         estimate D2E/DX2                !
 ! D64   D(9,10,11,12)        -179.9629         estimate D2E/DX2                !
 ! D65   D(28,10,11,12)          0.0539         estimate D2E/DX2                !
 ! D66   D(9,10,28,23)         179.9178         estimate D2E/DX2                !
 ! D67   D(9,10,28,27)          -0.0514         estimate D2E/DX2                !
 ! D68   D(11,10,28,23)         -0.098          estimate D2E/DX2                !
 ! D69   D(11,10,28,27)        179.9328         estimate D2E/DX2                !
 ! D70   D(10,11,12,13)        179.9532         estimate D2E/DX2                !
 ! D71   D(10,11,12,23)          0.01           estimate D2E/DX2                !
 ! D72   D(11,12,13,14)          0.1982         estimate D2E/DX2                !
 ! D73   D(11,12,13,43)       -179.7475         estimate D2E/DX2                !
 ! D74   D(23,12,13,14)       -179.8651         estimate D2E/DX2                !
 ! D75   D(23,12,13,43)          0.1892         estimate D2E/DX2                !
 ! D76   D(11,12,23,24)       -179.9858         estimate D2E/DX2                !
 ! D77   D(11,12,23,28)         -0.0716         estimate D2E/DX2                !
 ! D78   D(13,12,23,24)          0.0676         estimate D2E/DX2                !
 ! D79   D(13,12,23,28)        179.9818         estimate D2E/DX2                !
 ! D80   D(12,13,14,15)       -179.8683         estimate D2E/DX2                !
 ! D81   D(12,13,14,22)          0.3234         estimate D2E/DX2                !
 ! D82   D(43,13,14,15)          0.0794         estimate D2E/DX2                !
 ! D83   D(43,13,14,22)       -179.7289         estimate D2E/DX2                !
 ! D84   D(13,14,15,16)        178.8368         estimate D2E/DX2                !
 ! D85   D(22,14,15,16)         -1.3471         estimate D2E/DX2                !
 ! D86   D(13,14,22,21)        179.3206         estimate D2E/DX2                !
 ! D87   D(15,14,22,21)         -0.5013         estimate D2E/DX2                !
 ! D88   D(14,15,16,17)       -122.3729         estimate D2E/DX2                !
 ! D89   D(14,15,16,21)          2.3992         estimate D2E/DX2                !
 ! D90   D(14,15,16,44)        119.8651         estimate D2E/DX2                !
 ! D91   D(15,16,17,18)         57.4305         estimate D2E/DX2                !
 ! D92   D(15,16,17,19)        179.7822         estimate D2E/DX2                !
 ! D93   D(15,16,17,20)        -61.1396         estimate D2E/DX2                !
 ! D94   D(21,16,17,18)        -60.2072         estimate D2E/DX2                !
 ! D95   D(21,16,17,19)         62.1445         estimate D2E/DX2                !
 ! D96   D(21,16,17,20)       -178.7773         estimate D2E/DX2                !
 ! D97   D(44,16,17,18)        176.4254         estimate D2E/DX2                !
 ! D98   D(44,16,17,19)        -61.2229         estimate D2E/DX2                !
 ! D99   D(44,16,17,20)         57.8553         estimate D2E/DX2                !
 ! D100  D(15,16,21,22)         -2.6306         estimate D2E/DX2                !
 ! D101  D(15,16,21,54)        115.5897         estimate D2E/DX2                !
 ! D102  D(15,16,21,55)       -121.2779         estimate D2E/DX2                !
 ! D103  D(17,16,21,22)        119.1271         estimate D2E/DX2                !
 ! D104  D(17,16,21,54)       -122.6526         estimate D2E/DX2                !
 ! D105  D(17,16,21,55)          0.4798         estimate D2E/DX2                !
 ! D106  D(44,16,21,22)       -119.2382         estimate D2E/DX2                !
 ! D107  D(44,16,21,54)         -1.0179         estimate D2E/DX2                !
 ! D108  D(44,16,21,55)        122.1145         estimate D2E/DX2                !
 ! D109  D(16,17,18,45)         64.0642         estimate D2E/DX2                !
 ! D110  D(16,17,18,46)       -175.4601         estimate D2E/DX2                !
 ! D111  D(16,17,18,47)        -55.5222         estimate D2E/DX2                !
 ! D112  D(19,17,18,45)        -58.3077         estimate D2E/DX2                !
 ! D113  D(19,17,18,46)         62.168          estimate D2E/DX2                !
 ! D114  D(19,17,18,47)       -177.8941         estimate D2E/DX2                !
 ! D115  D(20,17,18,45)       -178.3154         estimate D2E/DX2                !
 ! D116  D(20,17,18,46)        -57.8397         estimate D2E/DX2                !
 ! D117  D(20,17,18,47)         62.0982         estimate D2E/DX2                !
 ! D118  D(16,17,19,48)         56.4515         estimate D2E/DX2                !
 ! D119  D(16,17,19,49)        176.1715         estimate D2E/DX2                !
 ! D120  D(16,17,19,50)        -63.7957         estimate D2E/DX2                !
 ! D121  D(18,17,19,48)        178.9296         estimate D2E/DX2                !
 ! D122  D(18,17,19,49)        -61.3504         estimate D2E/DX2                !
 ! D123  D(18,17,19,50)         58.6824         estimate D2E/DX2                !
 ! D124  D(20,17,19,48)        -61.3678         estimate D2E/DX2                !
 ! D125  D(20,17,19,49)         58.3522         estimate D2E/DX2                !
 ! D126  D(20,17,19,50)        178.385          estimate D2E/DX2                !
 ! D127  D(16,17,20,51)        -64.6206         estimate D2E/DX2                !
 ! D128  D(16,17,20,52)         54.4068         estimate D2E/DX2                !
 ! D129  D(16,17,20,53)        174.8916         estimate D2E/DX2                !
 ! D130  D(18,17,20,51)        175.7174         estimate D2E/DX2                !
 ! D131  D(18,17,20,52)        -65.2551         estimate D2E/DX2                !
 ! D132  D(18,17,20,53)         55.2297         estimate D2E/DX2                !
 ! D133  D(19,17,20,51)         55.1063         estimate D2E/DX2                !
 ! D134  D(19,17,20,52)        174.1337         estimate D2E/DX2                !
 ! D135  D(19,17,20,53)        -65.3815         estimate D2E/DX2                !
 ! D136  D(16,21,22,14)          1.9508         estimate D2E/DX2                !
 ! D137  D(54,21,22,14)       -118.0861         estimate D2E/DX2                !
 ! D138  D(55,21,22,14)        123.6476         estimate D2E/DX2                !
 ! D139  D(12,23,24,25)        179.9027         estimate D2E/DX2                !
 ! D140  D(12,23,24,56)         -0.0844         estimate D2E/DX2                !
 ! D141  D(28,23,24,25)         -0.001          estimate D2E/DX2                !
 ! D142  D(28,23,24,56)       -179.9881         estimate D2E/DX2                !
 ! D143  D(12,23,28,10)          0.0972         estimate D2E/DX2                !
 ! D144  D(12,23,28,27)       -179.9286         estimate D2E/DX2                !
 ! D145  D(24,23,28,10)       -179.9748         estimate D2E/DX2                !
 ! D146  D(24,23,28,27)         -0.0006         estimate D2E/DX2                !
 ! D147  D(23,24,25,26)         -0.0007         estimate D2E/DX2                !
 ! D148  D(23,24,25,57)       -179.9955         estimate D2E/DX2                !
 ! D149  D(56,24,25,26)        179.9865         estimate D2E/DX2                !
 ! D150  D(56,24,25,57)         -0.0082         estimate D2E/DX2                !
 ! D151  D(24,25,26,27)          0.0042         estimate D2E/DX2                !
 ! D152  D(24,25,26,58)       -179.9903         estimate D2E/DX2                !
 ! D153  D(57,25,26,27)        179.9989         estimate D2E/DX2                !
 ! D154  D(57,25,26,58)          0.0044         estimate D2E/DX2                !
 ! D155  D(25,26,27,28)         -0.0057         estimate D2E/DX2                !
 ! D156  D(25,26,27,59)        179.9984         estimate D2E/DX2                !
 ! D157  D(58,26,27,28)        179.9888         estimate D2E/DX2                !
 ! D158  D(58,26,27,59)         -0.0071         estimate D2E/DX2                !
 ! D159  D(26,27,28,10)        179.9695         estimate D2E/DX2                !
 ! D160  D(26,27,28,23)          0.004          estimate D2E/DX2                !
 ! D161  D(59,27,28,10)         -0.0347         estimate D2E/DX2                !
 ! D162  D(59,27,28,23)        179.9998         estimate D2E/DX2                !
 --------------------------------------------------------------------------------
 Trust Radius=3.00D-01 FncErr=1.00D-07 GrdErr=1.00D-06 EigMax=2.50D+02 EigMin=1.00D-04
 Number of steps in this run=    347 maximum allowed number of steps=    354.
 GradGradGradGradGradGradGradGradGradGradGradGradGradGradGradGradGradGrad

 Leave Link  103 at Mon Feb 26 12:16:37 2024, MaxMem=  7516192768 cpu:               0.6 elap:               0.0
 (Enter /public/apps/g16-C01//g16/l202.exe)
 Symmetry turned off by external request.
 Stoichiometry    C24H30N3O2(1-)
 Framework group  C1[X(C24H30N3O2)]
 Deg. of freedom   171
 Full point group                 C1      NOp   1
                          Input orientation:                          
 ---------------------------------------------------------------------
 Center     Atomic      Atomic             Coordinates (Angstroms)
 Number     Number       Type             X           Y           Z
 ---------------------------------------------------------------------
      1          6           0        5.358383    3.748288   -0.301083
      2          6           0        5.240857    2.222604   -0.306731
      3          6           0        4.847443    1.725170   -1.697821
      4          6           0        6.590326    1.608139    0.075105
      5          6           0        4.207568    1.757387    0.749451
      6          6           0        2.750025    2.250817    0.528543
      7          8           0        1.991997    1.074741    0.373498
      8          6           0        2.845765    0.021302    0.525885
      9          6           0        2.369895   -1.305593    0.436546
     10          6           0        1.075982   -1.708650    0.198121
     11          7           0       -0.000933   -0.930244   -0.000270
     12          6           0       -1.077315   -1.709662   -0.197795
     13          6           0       -2.371715   -1.307483   -0.435082
     14          6           0       -2.847897    0.019230   -0.526123
     15          7           0       -4.084140    0.317860   -0.749959
     16          6           0       -4.210384    1.754715   -0.750168
     17          6           0       -5.239117    2.223872    0.308727
     18          6           0       -4.840058    1.731130    1.699878
     19          6           0       -5.356157    3.749580    0.298275
     20          6           0       -6.590389    1.608597   -0.065338
     21          6           0       -2.751926    2.248660   -0.536812
     22          8           0       -1.993499    1.072957   -0.380437
     23          6           0       -0.690727   -3.133040   -0.125766
     24          6           0       -1.384687   -4.320279   -0.252928
     25          6           0       -0.681627   -5.509841   -0.124842
     26          6           0        0.683947   -5.509201    0.124646
     27          6           0        1.385772   -4.318978    0.253318
     28          6           0        0.690605   -3.132399    0.126638
     29          7           0        4.081127    0.320596    0.753478
     30          1           0        4.422830    4.217278   -0.596916
     31          1           0        5.619465    4.107159    0.693217
     32          1           0        6.134436    4.066017   -0.996278
     33          1           0        3.905981    2.160937   -2.023560
     34          1           0        4.731930    0.644319   -1.674408
     35          1           0        5.615897    1.984448   -2.425163
     36          1           0        7.342403    1.826597   -0.681829
     37          1           0        6.473668    0.532618    0.169984
     38          1           0        6.933056    2.002234    1.030055
     39          1           0        4.578605    2.089093    1.732034
     40          1           0        2.372661    2.812207    1.392136
     41          1           0        2.630606    2.869839   -0.366388
     42          1           0        3.129125   -2.060944    0.574458
     43          1           0       -3.131087   -2.063183   -0.570223
     44          1           0       -4.585420    2.083159   -1.732333
     45          1           0       -3.896976    2.167513    2.020055
     46          1           0       -5.605254    1.993404    2.429576
     47          1           0       -4.725232    0.650140    1.679798
     48          1           0       -5.621883    4.105032   -0.696019
     49          1           0       -6.128707    4.070088    0.996081
     50          1           0       -4.419001    4.219235    0.587890
     51          1           0       -6.937382    2.000098   -1.019818
     52          1           0       -6.474388    0.532784   -0.157682
     53          1           0       -7.338983    1.829348    0.694376
     54          1           0       -2.377867    2.806693   -1.404011
     55          1           0       -2.628736    2.870942    0.355314
     56          1           0       -2.448467   -4.330658   -0.447505
     57          1           0       -1.203143   -6.454296   -0.220497
     58          1           0        1.206487   -6.453155    0.219664
     59          1           0        2.449598   -4.328372    0.447700
 ---------------------------------------------------------------------
 Rotational constants (GHZ):           0.1778651           0.0925056           0.0634999
 Leave Link  202 at Mon Feb 26 12:16:37 2024, MaxMem=  7516192768 cpu:               0.3 elap:               0.0
 (Enter /public/apps/g16-C01//g16/l301.exe)
 Standard basis: def2SVPP (5D, 7F)
 Ernie: Thresh=  0.10000D-02 Tol=  0.10000D-05 Strict=F.
   466 basis functions,   845 primitive gaussians,   495 cartesian basis functions
   106 alpha electrons      106 beta electrons
       nuclear repulsion energy      2681.2435321011 Hartrees.
 IExCor=  402 DFT=T Ex+Corr=B3LYP ExCW=0 ScaHFX=  0.200000
 ScaDFX=  0.800000  0.720000  1.000000  0.810000 ScalE2=  1.000000  1.000000
 IRadAn=      5 IRanWt=     -1 IRanGd=            0 ICorTp=0 IEmpDi=141
 NAtoms=   59 NActive=   59 NUniq=   59 SFac= 1.00D+00 NAtFMM=   60 NAOKFM=F Big=F
 Integral buffers will be    131072 words long.
 Raffenetti 2 integral format.
 Two-electron integral symmetry is turned off.
 R6Disp:  Grimme-D3(BJ) Dispersion energy=       -0.1238496059 Hartrees.
 Nuclear repulsion after empirical dispersion term =     2681.1196824952 Hartrees.
 Leave Link  301 at Mon Feb 26 12:16:37 2024, MaxMem=  7516192768 cpu:               1.2 elap:               0.0
 (Enter /public/apps/g16-C01//g16/l302.exe)
 NPDir=0 NMtPBC=     1 NCelOv=     1 NCel=       1 NClECP=     1 NCelD=      1
         NCelK=      1 NCelE2=     1 NClLst=     1 CellRange=     0.0.
 One-electron integrals computed using PRISM.
   1 Symmetry operations used in ECPInt.
 ECPInt:  NShTT=   27495 NPrTT=  110213 LenC2=   22609 LenP2D=   57562.
 LDataN:  DoStor=T MaxTD1= 4 Len=   56
 NBasis=   466 RedAO= T EigKep=  2.54D-04  NBF=   466
 NBsUse=   466 1.00D-06 EigRej= -1.00D+00 NBFU=   466
 Precomputing XC quadrature grid using
 IXCGrd= 4 IRadAn=           5 IRanWt=          -1 IRanGd=           0 AccXCQ= 0.00D+00.
 Generated NRdTot=       0 NPtTot=           0 NUsed=           0 NTot=          32
 NSgBfM=   484   484   484   484   484 MxSgAt=    59 MxSgA2=    59.
 Leave Link  302 at Mon Feb 26 12:16:38 2024, MaxMem=  7516192768 cpu:              19.6 elap:               0.5
 (Enter /public/apps/g16-C01//g16/l303.exe)
 DipDrv:  MaxL=1.
 Leave Link  303 at Mon Feb 26 12:16:38 2024, MaxMem=  7516192768 cpu:               2.1 elap:               0.1
 (Enter /public/apps/g16-C01//g16/l401.exe)
 ExpMin= 1.22D-01 ExpMax= 2.27D+03 ExpMxC= 3.41D+02 IAcc=3 IRadAn=         5 AccDes= 0.00D+00
 Harris functional with IExCor=  402 and IRadAn=       5 diagonalized for initial guess.
 HarFok:  IExCor=  402 AccDes= 0.00D+00 IRadAn=         5 IDoV= 1 UseB2=F ITyADJ=14
 ICtDFT=  3500011 ScaDFX=  1.000000  1.000000  1.000000  1.000000
 FoFCou: FMM=F IPFlag=           0 FMFlag=      100000 FMFlg1=           0
         NFxFlg=           0 DoJE=T BraDBF=F KetDBF=T FulRan=T
         wScrn=  0.000000 ICntrl=       500 IOpCl=  0 I1Cent=   200000004 NGrid=           0
         NMat0=    1 NMatS0=      1 NMatT0=    0 NMatD0=    1 NMtDS0=    0 NMtDT0=    0
 Symmetry not used in FoFCou.
 Harris En= -1246.64922253713    
 JPrj=0 DoOrth=F DoCkMO=F.
 Leave Link  401 at Mon Feb 26 12:16:39 2024, MaxMem=  7516192768 cpu:              35.1 elap:               0.9
 (Enter /public/apps/g16-C01//g16/l502.exe)
 Two-electron integral symmetry not used.
 Closed shell SCF:
 Using DIIS extrapolation, IDIIS=  1040.
 NGot=  7516192768 LenX=  7515677091 LenY=  7515431571
 Requested convergence on RMS density matrix=1.00D-08 within 128 cycles.
 Requested convergence on MAX density matrix=1.00D-06.
 Requested convergence on             energy=1.00D-06.
 No special actions if energy rises.
 Fock matrices will be formed incrementally for  20 cycles.
 Integral accuracy reduced to 1.0D-05 until final iterations.

 Cycle   1  Pass 0  IDiag  1:
 FoFJK:  IHMeth= 1 ICntrl=       0 DoSepK=F KAlg= 0 I1Cent=           0 FoldK=F
 IRaf= 720000000 NMat=       1 IRICut=       1 DoRegI=T DoRafI=F ISym2E= 0 IDoP0=0 IntGTp=1.
 FoFCou: FMM=F IPFlag=           0 FMFlag=      100000 FMFlg1=           0
         NFxFlg=           0 DoJE=F BraDBF=F KetDBF=F FulRan=T
         wScrn=  0.000000 ICntrl=         0 IOpCl=  0 I1Cent=           0 NGrid=           0
         NMat0=    1 NMatS0=      1 NMatT0=    0 NMatD0=    1 NMtDS0=    0 NMtDT0=    0
 Symmetry not used in FoFCou.
 E= -1245.71589069396    
 DIIS: error= 5.12D-02 at cycle   1 NSaved=   1.
 NSaved= 1 IEnMin= 1 EnMin= -1245.71589069396     IErMin= 1 ErrMin= 5.12D-02
 ErrMax= 5.12D-02  0.00D+00 EMaxC= 1.00D-01 BMatC= 7.04D-01 BMatP= 7.04D-01
 IDIUse=3 WtCom= 4.88D-01 WtEn= 5.12D-01
 Coeff-Com:  0.100D+01
 Coeff-En:   0.100D+01
 Coeff:      0.100D+01
 Gap=     0.068 Goal=   None    Shift=    0.000
 GapD=    0.068 DampG=0.500 DampE=0.500 DampFc=0.2500 IDamp=-1.
 Damping current iteration by 2.50D-01
 RMSDP=5.89D-03 MaxDP=1.79D-01              OVMax= 2.05D-01

 Cycle   2  Pass 0  IDiag  1:
 RMSU=  1.43D-03    CP:  9.81D-01
 E= -1246.00168350442     Delta-E=       -0.285792810457 Rises=F Damp=T
 DIIS: error= 2.30D-02 at cycle   2 NSaved=   2.
 NSaved= 2 IEnMin= 2 EnMin= -1246.00168350442     IErMin= 2 ErrMin= 2.30D-02
 ErrMax= 2.30D-02  0.00D+00 EMaxC= 1.00D-01 BMatC= 1.73D-01 BMatP= 7.04D-01
 IDIUse=3 WtCom= 7.70D-01 WtEn= 2.30D-01
 Coeff-Com: -0.851D+00 0.185D+01
 Coeff-En:   0.000D+00 0.100D+01
 Coeff:     -0.655D+00 0.165D+01
 Gap=     0.104 Goal=   None    Shift=    0.000
 RMSDP=2.19D-03 MaxDP=6.44D-02 DE=-2.86D-01 OVMax= 1.51D-01

 Cycle   3  Pass 0  IDiag  1:
 RMSU=  1.50D-03    CP:  9.40D-01  1.99D+00
 E= -1246.47575211452     Delta-E=       -0.474068610101 Rises=F Damp=F
 DIIS: error= 5.56D-03 at cycle   3 NSaved=   3.
 NSaved= 3 IEnMin= 3 EnMin= -1246.47575211452     IErMin= 3 ErrMin= 5.56D-03
 ErrMax= 5.56D-03  0.00D+00 EMaxC= 1.00D-01 BMatC= 2.52D-02 BMatP= 1.73D-01
 IDIUse=3 WtCom= 9.44D-01 WtEn= 5.56D-02
 Coeff-Com: -0.331D+00 0.787D+00 0.543D+00
 Coeff-En:   0.000D+00 0.000D+00 0.100D+01
 Coeff:     -0.312D+00 0.743D+00 0.569D+00
 Gap=     0.098 Goal=   None    Shift=    0.000
 RMSDP=6.70D-04 MaxDP=3.01D-02 DE=-4.74D-01 OVMax= 8.17D-02

 Cycle   4  Pass 0  IDiag  1:
 RMSU=  5.74D-04    CP:  9.45D-01  1.89D+00  7.98D-01
 E= -1246.49302669504     Delta-E=       -0.017274580524 Rises=F Damp=F
 DIIS: error= 5.05D-03 at cycle   4 NSaved=   4.
 NSaved= 4 IEnMin= 4 EnMin= -1246.49302669504     IErMin= 4 ErrMin= 5.05D-03
 ErrMax= 5.05D-03  0.00D+00 EMaxC= 1.00D-01 BMatC= 9.51D-03 BMatP= 2.52D-02
 IDIUse=3 WtCom= 9.49D-01 WtEn= 5.05D-02
 Coeff-Com: -0.477D-01 0.155D+00 0.382D+00 0.511D+00
 Coeff-En:   0.000D+00 0.000D+00 0.275D+00 0.725D+00
 Coeff:     -0.453D-01 0.147D+00 0.376D+00 0.522D+00
 Gap=     0.098 Goal=   None    Shift=    0.000
 RMSDP=3.23D-04 MaxDP=1.89D-02 DE=-1.73D-02 OVMax= 4.13D-02

 Cycle   5  Pass 0  IDiag  1:
 RMSU=  1.88D-04    CP:  9.44D-01  1.88D+00  8.50D-01  5.67D-01
 E= -1246.50099770814     Delta-E=       -0.007971013099 Rises=F Damp=F
 DIIS: error= 1.87D-03 at cycle   5 NSaved=   5.
 NSaved= 5 IEnMin= 5 EnMin= -1246.50099770814     IErMin= 5 ErrMin= 1.87D-03
 ErrMax= 1.87D-03  0.00D+00 EMaxC= 1.00D-01 BMatC= 1.25D-03 BMatP= 9.51D-03
 IDIUse=3 WtCom= 9.81D-01 WtEn= 1.87D-02
 Coeff-Com:  0.952D-03 0.219D-01 0.185D+00 0.339D+00 0.453D+00
 Coeff-En:   0.000D+00 0.000D+00 0.000D+00 0.914D-01 0.909D+00
 Coeff:      0.934D-03 0.215D-01 0.181D+00 0.334D+00 0.462D+00
 Gap=     0.098 Goal=   None    Shift=    0.000
 RMSDP=1.15D-04 MaxDP=6.55D-03 DE=-7.97D-03 OVMax= 1.33D-02

 Cycle   6  Pass 0  IDiag  1:
 RMSU=  7.43D-05    CP:  9.43D-01  1.88D+00  8.54D-01  6.29D-01  5.79D-01
 E= -1246.50205238362     Delta-E=       -0.001054675473 Rises=F Damp=F
 DIIS: error= 7.21D-04 at cycle   6 NSaved=   6.
 NSaved= 6 IEnMin= 6 EnMin= -1246.50205238362     IErMin= 6 ErrMin= 7.21D-04
 ErrMax= 7.21D-04  0.00D+00 EMaxC= 1.00D-01 BMatC= 1.22D-04 BMatP= 1.25D-03
 IDIUse=3 WtCom= 9.93D-01 WtEn= 7.21D-03
 Coeff-Com:  0.711D-02-0.790D-02 0.588D-01 0.136D+00 0.285D+00 0.521D+00
 Coeff-En:   0.000D+00 0.000D+00 0.000D+00 0.000D+00 0.734D-01 0.927D+00
 Coeff:      0.706D-02-0.784D-02 0.584D-01 0.135D+00 0.284D+00 0.523D+00
 Gap=     0.098 Goal=   None    Shift=    0.000
 RMSDP=3.79D-05 MaxDP=3.04D-03 DE=-1.05D-03 OVMax= 5.17D-03

 Cycle   7  Pass 0  IDiag  1:
 RMSU=  2.27D-05    CP:  9.43D-01  1.88D+00  8.56D-01  6.20D-01  6.25D-01
                    CP:  6.28D-01
 E= -1246.50215881284     Delta-E=       -0.000106429221 Rises=F Damp=F
 DIIS: error= 2.01D-04 at cycle   7 NSaved=   7.
 NSaved= 7 IEnMin= 7 EnMin= -1246.50215881284     IErMin= 7 ErrMin= 2.01D-04
 ErrMax= 2.01D-04  0.00D+00 EMaxC= 1.00D-01 BMatC= 1.38D-05 BMatP= 1.22D-04
 IDIUse=3 WtCom= 9.98D-01 WtEn= 2.01D-03
 Coeff-Com:  0.394D-02-0.643D-02 0.178D-01 0.509D-01 0.128D+00 0.327D+00
 Coeff-Com:  0.478D+00
 Coeff-En:   0.000D+00 0.000D+00 0.000D+00 0.000D+00 0.000D+00 0.932D-01
 Coeff-En:   0.907D+00
 Coeff:      0.393D-02-0.642D-02 0.177D-01 0.508D-01 0.128D+00 0.327D+00
 Coeff:      0.479D+00
 Gap=     0.098 Goal=   None    Shift=    0.000
 RMSDP=1.21D-05 MaxDP=6.94D-04 DE=-1.06D-04 OVMax= 1.44D-03

 Cycle   8  Pass 0  IDiag  1:
 RMSU=  4.73D-06    CP:  9.43D-01  1.88D+00  8.56D-01  6.27D-01  6.17D-01
                    CP:  6.64D-01  5.63D-01
 E= -1246.50217593161     Delta-E=       -0.000017118770 Rises=F Damp=F
 DIIS: error= 2.67D-05 at cycle   8 NSaved=   8.
 NSaved= 8 IEnMin= 8 EnMin= -1246.50217593161     IErMin= 8 ErrMin= 2.67D-05
 ErrMax= 2.67D-05  0.00D+00 EMaxC= 1.00D-01 BMatC= 3.71D-07 BMatP= 1.38D-05
 IDIUse=1 WtCom= 1.00D+00 WtEn= 0.00D+00
 Coeff-Com:  0.135D-02-0.236D-02 0.515D-02 0.167D-01 0.455D-01 0.125D+00
 Coeff-Com:  0.225D+00 0.584D+00
 Coeff:      0.135D-02-0.236D-02 0.515D-02 0.167D-01 0.455D-01 0.125D+00
 Coeff:      0.225D+00 0.584D+00
 Gap=     0.098 Goal=   None    Shift=    0.000
 RMSDP=2.15D-06 MaxDP=8.11D-05 DE=-1.71D-05 OVMax= 2.09D-04

 Initial convergence to 1.0D-05 achieved.  Increase integral accuracy.
 Cycle   9  Pass 1  IDiag  1:
 E= -1246.50214567035     Delta-E=        0.000030261259 Rises=F Damp=F
 DIIS: error= 2.84D-04 at cycle   1 NSaved=   1.
 NSaved= 1 IEnMin= 1 EnMin= -1246.50214567035     IErMin= 1 ErrMin= 2.84D-04
 ErrMax= 2.84D-04  0.00D+00 EMaxC= 1.00D-01 BMatC= 7.41D-06 BMatP= 7.41D-06
 IDIUse=3 WtCom= 9.97D-01 WtEn= 2.84D-03
 Coeff-Com:  0.100D+01
 Coeff-En:   0.100D+01
 Coeff:      0.100D+01
 Gap=     0.098 Goal=   None    Shift=    0.000
 RMSDP=2.15D-06 MaxDP=8.11D-05 DE= 3.03D-05 OVMax= 5.01D-04

 Cycle  10  Pass 1  IDiag  1:
 RMSU=  1.58D-04    CP:  1.00D+00
 E= -1246.50215394133     Delta-E=       -0.000008270986 Rises=F Damp=F
 DIIS: error= 2.46D-05 at cycle   2 NSaved=   2.
 NSaved= 2 IEnMin= 2 EnMin= -1246.50215394133     IErMin= 2 ErrMin= 2.46D-05
 ErrMax= 2.46D-05  0.00D+00 EMaxC= 1.00D-01 BMatC= 2.40D-07 BMatP= 7.41D-06
 IDIUse=1 WtCom= 1.00D+00 WtEn= 0.00D+00
 Coeff-Com:  0.374D-01 0.963D+00
 Coeff:      0.374D-01 0.963D+00
 Gap=     0.098 Goal=   None    Shift=    0.000
 RMSDP=4.46D-06 MaxDP=1.79D-04 DE=-8.27D-06 OVMax= 4.36D-04

 Cycle  11  Pass 1  IDiag  1:
 RMSU=  3.88D-06    CP:  1.00D+00  1.01D+00
 E= -1246.50215332363     Delta-E=        0.000000617703 Rises=F Damp=F
 DIIS: error= 4.88D-05 at cycle   3 NSaved=   3.
 NSaved= 3 IEnMin= 2 EnMin= -1246.50215394133     IErMin= 2 ErrMin= 2.46D-05
 ErrMax= 4.88D-05  0.00D+00 EMaxC= 1.00D-01 BMatC= 8.26D-07 BMatP= 2.40D-07
 IDIUse=1 WtCom= 1.00D+00 WtEn= 0.00D+00
 Coeff-Com: -0.634D-02 0.654D+00 0.352D+00
 Coeff:     -0.634D-02 0.654D+00 0.352D+00
 Gap=     0.098 Goal=   None    Shift=    0.000
 RMSDP=2.56D-06 MaxDP=1.18D-04 DE= 6.18D-07 OVMax= 3.08D-04

 Cycle  12  Pass 1  IDiag  1:
 RMSU=  6.74D-07    CP:  1.00D+00  1.01D+00  3.64D-01
 E= -1246.50215417617     Delta-E=       -0.000000852538 Rises=F Damp=F
 DIIS: error= 4.24D-06 at cycle   4 NSaved=   4.
 NSaved= 4 IEnMin= 4 EnMin= -1246.50215417617     IErMin= 4 ErrMin= 4.24D-06
 ErrMax= 4.24D-06  0.00D+00 EMaxC= 1.00D-01 BMatC= 7.90D-09 BMatP= 2.40D-07
 IDIUse=1 WtCom= 1.00D+00 WtEn= 0.00D+00
 Coeff-Com: -0.452D-02 0.411D+00 0.227D+00 0.367D+00
 Coeff:     -0.452D-02 0.411D+00 0.227D+00 0.367D+00
 Gap=     0.098 Goal=   None    Shift=    0.000
 RMSDP=2.74D-07 MaxDP=1.25D-05 DE=-8.53D-07 OVMax= 3.01D-05

 Cycle  13  Pass 1  IDiag  1:
 RMSU=  2.16D-07    CP:  1.00D+00  1.01D+00  3.77D-01  7.62D-01
 E= -1246.50215418403     Delta-E=       -0.000000007868 Rises=F Damp=F
 DIIS: error= 9.10D-07 at cycle   5 NSaved=   5.
 NSaved= 5 IEnMin= 5 EnMin= -1246.50215418403     IErMin= 5 ErrMin= 9.10D-07
 ErrMax= 9.10D-07  0.00D+00 EMaxC= 1.00D-01 BMatC= 4.37D-10 BMatP= 7.90D-09
 IDIUse=1 WtCom= 1.00D+00 WtEn= 0.00D+00
 Coeff-Com: -0.239D-02 0.211D+00 0.118D+00 0.233D+00 0.440D+00
 Coeff:     -0.239D-02 0.211D+00 0.118D+00 0.233D+00 0.440D+00
 Gap=     0.098 Goal=   None    Shift=    0.000
 RMSDP=7.08D-08 MaxDP=3.69D-06 DE=-7.87D-09 OVMax= 8.48D-06

 Cycle  14  Pass 1  IDiag  1:
 RMSU=  6.10D-08    CP:  1.00D+00  1.01D+00  3.78D-01  7.86D-01  8.55D-01
 E= -1246.50215418442     Delta-E=       -0.000000000384 Rises=F Damp=F
 DIIS: error= 1.78D-07 at cycle   6 NSaved=   6.
 NSaved= 6 IEnMin= 6 EnMin= -1246.50215418442     IErMin= 6 ErrMin= 1.78D-07
 ErrMax= 1.78D-07  0.00D+00 EMaxC= 1.00D-01 BMatC= 2.99D-11 BMatP= 4.37D-10
 IDIUse=1 WtCom= 1.00D+00 WtEn= 0.00D+00
 Coeff-Com: -0.444D-03 0.376D-01 0.210D-01 0.578D-01 0.234D+00 0.650D+00
 Coeff:     -0.444D-03 0.376D-01 0.210D-01 0.578D-01 0.234D+00 0.650D+00
 Gap=     0.098 Goal=   None    Shift=    0.000
 RMSDP=2.11D-08 MaxDP=1.32D-06 DE=-3.84D-10 OVMax= 2.36D-06

 Cycle  15  Pass 1  IDiag  1:
 RMSU=  1.50D-08    CP:  1.00D+00  1.01D+00  3.78D-01  7.92D-01  8.94D-01
                    CP:  8.37D-01
 E= -1246.50215418445     Delta-E=       -0.000000000029 Rises=F Damp=F
 DIIS: error= 1.01D-07 at cycle   7 NSaved=   7.
 NSaved= 7 IEnMin= 7 EnMin= -1246.50215418445     IErMin= 7 ErrMin= 1.01D-07
 ErrMax= 1.01D-07  0.00D+00 EMaxC= 1.00D-01 BMatC= 5.95D-12 BMatP= 2.99D-11
 IDIUse=1 WtCom= 1.00D+00 WtEn= 0.00D+00
 Coeff-Com: -0.652D-05-0.538D-03-0.277D-03 0.971D-02 0.944D-01 0.401D+00
 Coeff-Com:  0.496D+00
 Coeff:     -0.652D-05-0.538D-03-0.277D-03 0.971D-02 0.944D-01 0.401D+00
 Coeff:      0.496D+00
 Gap=     0.098 Goal=   None    Shift=    0.000
 RMSDP=8.11D-09 MaxDP=4.82D-07 DE=-2.86D-11 OVMax= 1.19D-06

 SCF Done:  E(RB3LYP) =  -1246.50215418     A.U. after   15 cycles
            NFock= 15  Conv=0.81D-08     -V/T= 2.0092
 KE= 1.235078205788D+03 PE=-8.280460069058D+03 EE= 3.117760026591D+03
 Leave Link  502 at Mon Feb 26 12:17:01 2024, MaxMem=  7516192768 cpu:             902.8 elap:              22.7
 (Enter /public/apps/g16-C01//g16/l601.exe)
 Copying SCF densities to generalized density rwf, IOpCl= 0 IROHF=0.

 **********************************************************************

            Population analysis using the SCF Density.

 **********************************************************************

 Alpha  occ. eigenvalues --  -19.03022 -19.03021 -14.15922 -14.15921 -14.13992
 Alpha  occ. eigenvalues --  -10.13442 -10.13441 -10.11773 -10.11773 -10.09748
 Alpha  occ. eigenvalues --  -10.09748 -10.09554 -10.09553 -10.08231 -10.08230
 Alpha  occ. eigenvalues --  -10.08139 -10.08132 -10.08126 -10.08085 -10.07864
 Alpha  occ. eigenvalues --  -10.07854 -10.06795 -10.06795 -10.06783 -10.06751
 Alpha  occ. eigenvalues --  -10.06746 -10.06745 -10.03358 -10.03354  -0.95200
 Alpha  occ. eigenvalues --   -0.95191  -0.80647  -0.76888  -0.76885  -0.73387
 Alpha  occ. eigenvalues --   -0.71518  -0.71456  -0.66580  -0.64496  -0.63759
 Alpha  occ. eigenvalues --   -0.62479  -0.60346  -0.59499  -0.59343  -0.58643
 Alpha  occ. eigenvalues --   -0.58608  -0.57311  -0.52217  -0.52094  -0.51012
 Alpha  occ. eigenvalues --   -0.50307  -0.46244  -0.46166  -0.43699  -0.43621
 Alpha  occ. eigenvalues --   -0.42023  -0.41539  -0.39417  -0.39127  -0.38938
 Alpha  occ. eigenvalues --   -0.37737  -0.36281  -0.35875  -0.35274  -0.34971
 Alpha  occ. eigenvalues --   -0.34390  -0.34155  -0.34054  -0.33772  -0.33731
 Alpha  occ. eigenvalues --   -0.32855  -0.31434  -0.31329  -0.30738  -0.30364
 Alpha  occ. eigenvalues --   -0.29578  -0.29574  -0.29415  -0.28362  -0.27703
 Alpha  occ. eigenvalues --   -0.27673  -0.27469  -0.27232  -0.25753  -0.25673
 Alpha  occ. eigenvalues --   -0.25344  -0.24859  -0.24680  -0.24182  -0.23679
 Alpha  occ. eigenvalues --   -0.23472  -0.23429  -0.23244  -0.22656  -0.22325
 Alpha  occ. eigenvalues --   -0.20949  -0.20769  -0.17408  -0.13988  -0.13943
 Alpha  occ. eigenvalues --   -0.13630  -0.13054  -0.12180  -0.10503  -0.10187
 Alpha  occ. eigenvalues --   -0.04045
 Alpha virt. eigenvalues --    0.05751   0.09452   0.13567   0.13682   0.14289
 Alpha virt. eigenvalues --    0.16088   0.16354   0.17582   0.17677   0.17878
 Alpha virt. eigenvalues --    0.18510   0.18851   0.18868   0.19216   0.19769
 Alpha virt. eigenvalues --    0.19771   0.20505   0.21313   0.21489   0.21911
 Alpha virt. eigenvalues --    0.22252   0.23048   0.23436   0.24245   0.24362
 Alpha virt. eigenvalues --    0.24749   0.24954   0.25525   0.25597   0.26781
 Alpha virt. eigenvalues --    0.26786   0.27825   0.28120   0.28203   0.28429
 Alpha virt. eigenvalues --    0.28448   0.29269   0.29913   0.30281   0.30357
 Alpha virt. eigenvalues --    0.30455   0.30911   0.31254   0.33003   0.33128
 Alpha virt. eigenvalues --    0.33633   0.33827   0.35193   0.35641   0.35803
 Alpha virt. eigenvalues --    0.36058   0.36203   0.37009   0.37630   0.37853
 Alpha virt. eigenvalues --    0.40699   0.41896   0.42813   0.43937   0.44848
 Alpha virt. eigenvalues --    0.45938   0.46975   0.47014   0.48011   0.48230
 Alpha virt. eigenvalues --    0.48887   0.49176   0.50040   0.51081   0.51260
 Alpha virt. eigenvalues --    0.51605   0.51768   0.52208   0.52290   0.52763
 Alpha virt. eigenvalues --    0.54622   0.54753   0.56459   0.56976   0.57379
 Alpha virt. eigenvalues --    0.57953   0.58820   0.59910   0.60619   0.61451
 Alpha virt. eigenvalues --    0.61574   0.62292   0.62790   0.62967   0.63695
 Alpha virt. eigenvalues --    0.63845   0.64507   0.64629   0.65438   0.65498
 Alpha virt. eigenvalues --    0.66510   0.66723   0.66820   0.68298   0.68381
 Alpha virt. eigenvalues --    0.69973   0.70063   0.70235   0.70511   0.70612
 Alpha virt. eigenvalues --    0.71229   0.72094   0.72393   0.73232   0.74620
 Alpha virt. eigenvalues --    0.74985   0.75326   0.75514   0.76071   0.76791
 Alpha virt. eigenvalues --    0.76832   0.77150   0.77309   0.77383   0.77551
 Alpha virt. eigenvalues --    0.77863   0.78125   0.78290   0.78340   0.79020
 Alpha virt. eigenvalues --    0.79164   0.79853   0.80100   0.80160   0.80307
 Alpha virt. eigenvalues --    0.80733   0.81246   0.81280   0.81294   0.81538
 Alpha virt. eigenvalues --    0.81948   0.82115   0.82732   0.83026   0.83200
 Alpha virt. eigenvalues --    0.83371   0.83791   0.84262   0.84660   0.85095
 Alpha virt. eigenvalues --    0.85284   0.85661   0.85731   0.85990   0.86440
 Alpha virt. eigenvalues --    0.86824   0.87327   0.87737   0.88787   0.89181
 Alpha virt. eigenvalues --    0.89196   0.89851   0.90222   0.90558   0.90868
 Alpha virt. eigenvalues --    0.91419   0.92077   0.93603   0.93781   0.94887
 Alpha virt. eigenvalues --    0.96845   0.96985   0.97579   0.98285   0.99547
 Alpha virt. eigenvalues --    0.99694   1.00773   1.02827   1.03164   1.05138
 Alpha virt. eigenvalues --    1.06158   1.07236   1.07962   1.09229   1.10729
 Alpha virt. eigenvalues --    1.14181   1.14306   1.15482   1.15947   1.17477
 Alpha virt. eigenvalues --    1.18306   1.21756   1.22422   1.22661   1.23646
 Alpha virt. eigenvalues --    1.25311   1.25813   1.26757   1.27971   1.29705
 Alpha virt. eigenvalues --    1.29988   1.30637   1.31243   1.31869   1.33088
 Alpha virt. eigenvalues --    1.35263   1.35361   1.36055   1.38342   1.42515
 Alpha virt. eigenvalues --    1.42914   1.43447   1.46399   1.47517   1.47645
 Alpha virt. eigenvalues --    1.49848   1.50987   1.52374   1.53242   1.53252
 Alpha virt. eigenvalues --    1.55632   1.56433   1.58157   1.59909   1.61040
 Alpha virt. eigenvalues --    1.61341   1.64192   1.64358   1.66145   1.68292
 Alpha virt. eigenvalues --    1.69074   1.70036   1.70594   1.74618   1.78371
 Alpha virt. eigenvalues --    1.78722   1.79693   1.81839   1.82559   1.84100
 Alpha virt. eigenvalues --    1.84800   1.84916   1.85235   1.86002   1.86855
 Alpha virt. eigenvalues --    1.86981   1.89635   1.91089   1.92236   1.93091
 Alpha virt. eigenvalues --    1.93193   1.94458   1.95183   1.95379   1.95948
 Alpha virt. eigenvalues --    1.96216   1.98134   1.99310   2.00764   2.01492
 Alpha virt. eigenvalues --    2.02606   2.02621   2.05278   2.06013   2.06305
 Alpha virt. eigenvalues --    2.06705   2.09473   2.10287   2.12174   2.12268
 Alpha virt. eigenvalues --    2.13101   2.13777   2.14253   2.14755   2.15045
 Alpha virt. eigenvalues --    2.16120   2.16420   2.17344   2.17774   2.17879
 Alpha virt. eigenvalues --    2.18343   2.20377   2.20729   2.20805   2.21853
 Alpha virt. eigenvalues --    2.23995   2.24121   2.24828   2.26596   2.26809
 Alpha virt. eigenvalues --    2.27004   2.27660   2.27937   2.28002   2.28445
 Alpha virt. eigenvalues --    2.29302   2.30369   2.31366   2.31462   2.33712
 Alpha virt. eigenvalues --    2.34304   2.35241   2.36199   2.36913   2.38895
 Alpha virt. eigenvalues --    2.39135   2.40163   2.40194   2.40867   2.41314
 Alpha virt. eigenvalues --    2.48116   2.50878   2.50941   2.53831   2.56123
 Alpha virt. eigenvalues --    2.56936   2.57241   2.59205   2.60780   2.66955
 Alpha virt. eigenvalues --    2.67396   2.67647   2.69199   2.71283   2.72358
 Alpha virt. eigenvalues --    2.73724   2.76095   2.77339   2.79151   2.79420
 Alpha virt. eigenvalues --    2.80767   2.80835   2.81358   2.83733   2.84650
 Alpha virt. eigenvalues --    2.85151   2.85180   2.85669   2.88424   2.88732
 Alpha virt. eigenvalues --    2.91442   2.94620   2.95972   3.01705   3.02146
 Alpha virt. eigenvalues --    3.02494   3.03973   3.04246   3.09930   3.11366
 Alpha virt. eigenvalues --    3.11446   3.13208   3.20412   3.27451   3.29397
 Alpha virt. eigenvalues --    3.32250   3.37435   3.39540   3.43733   3.44566
 Alpha virt. eigenvalues --    3.53395   3.53627   3.71827   3.75374   3.75500
          Condensed to atoms (all electrons):
 Mulliken charges:
               1
     1  C   -0.177636
     2  C   -0.161966
     3  C   -0.206250
     4  C   -0.174573
     5  C   -0.028740
     6  C    0.115530
     7  O   -0.282469
     8  C    0.165317
     9  C   -0.318742
    10  C    0.147379
    11  N   -0.121598
    12  C    0.147313
    13  C   -0.318646
    14  C    0.165264
    15  N   -0.235490
    16  C   -0.028715
    17  C   -0.161968
    18  C   -0.206247
    19  C   -0.177650
    20  C   -0.174589
    21  C    0.115462
    22  O   -0.282380
    23  C    0.094116
    24  C   -0.175858
    25  C   -0.036438
    26  C   -0.036431
    27  C   -0.175862
    28  C    0.094039
    29  N   -0.235443
    30  H    0.071754
    31  H    0.063870
    32  H    0.063161
    33  H    0.078780
    34  H    0.112028
    35  H    0.056337
    36  H    0.052714
    37  H    0.100428
    38  H    0.053342
    39  H    0.021445
    40  H    0.052441
    41  H    0.065537
    42  H    0.014694
    43  H    0.014688
    44  H    0.021428
    45  H    0.078835
    46  H    0.056345
    47  H    0.112023
    48  H    0.063859
    49  H    0.063172
    50  H    0.071754
    51  H    0.053326
    52  H    0.100435
    53  H    0.052719
    54  H    0.052412
    55  H    0.065633
    56  H    0.017219
    57  H    0.012829
    58  H    0.012830
    59  H    0.017231
 Sum of Mulliken charges =  -1.00000
 Mulliken charges with hydrogens summed into heavy atoms:
               1
     1  C    0.021149
     2  C   -0.161966
     3  C    0.040894
     4  C    0.031912
     5  C   -0.007295
     6  C    0.233508
     7  O   -0.282469
     8  C    0.165317
     9  C   -0.304048
    10  C    0.147379
    11  N   -0.121598
    12  C    0.147313
    13  C   -0.303958
    14  C    0.165264
    15  N   -0.235490
    16  C   -0.007287
    17  C   -0.161968
    18  C    0.040956
    19  C    0.021135
    20  C    0.031891
    21  C    0.233507
    22  O   -0.282380
    23  C    0.094116
    24  C   -0.158638
    25  C   -0.023608
    26  C   -0.023601
    27  C   -0.158631
    28  C    0.094039
    29  N   -0.235443
 Electronic spatial extent (au):  <R**2>=          16845.0728
 Charge=             -1.0000 electrons
 Dipole moment (field-independent basis, Debye):
    X=              0.0037    Y=              3.2268    Z=             -0.0063  Tot=              3.2268
 Quadrupole moment (field-independent basis, Debye-Ang):
   XX=           -240.5609   YY=           -191.3384   ZZ=           -183.3034
   XY=             -0.0170   XZ=             -5.4927   YZ=             -0.0036
 Traceless Quadrupole moment (field-independent basis, Debye-Ang):
   XX=            -35.4934   YY=             13.7292   ZZ=             21.7642
   XY=             -0.0170   XZ=             -5.4927   YZ=             -0.0036
 Octapole moment (field-independent basis, Debye-Ang**2):
  XXX=              0.1510  YYY=             10.8258  ZZZ=             -0.0884  XYY=              0.0014
  XXY=            -55.2190  XXZ=             -0.2159  XZZ=             -0.1093  YZZ=             10.0334
  YYZ=             -0.0226  XYZ=              7.0859
 Hexadecapole moment (field-independent basis, Debye-Ang**3):
 XXXX=         -17469.2191 YYYY=          -8134.1163 ZZZZ=           -747.4680 XXXY=             -0.5179
 XXXZ=            -93.8778 YYYX=              0.2203 YYYZ=              0.1587 ZZZX=             66.1545
 ZZZY=             -0.0891 XXYY=          -4011.5611 XXZZ=          -2748.9989 YYZZ=          -1481.0854
 XXYZ=             -0.2165 YYXZ=             66.2075 ZZXY=             -0.0184
 N-N= 2.681119682495D+03 E-N=-8.280460079705D+03  KE= 1.235078205788D+03
 No NMR shielding tensors so no spin-rotation constants.
 Leave Link  601 at Mon Feb 26 12:17:02 2024, MaxMem=  7516192768 cpu:               7.5 elap:               0.3
 (Enter /public/apps/g16-C01//g16/l701.exe)
 ... and contract with generalized density number  0.
 Compute integral first derivatives.
 R6Disp: Adding Grimme-D3(BJ) dispersion energy 1st derivatives to the gradient.
   1 Symmetry operations used in ECPInt.
 ECPInt:  NShTT=   27495 NPrTT=  110213 LenC2=   22609 LenP2D=   57562.
 LDataN:  DoStor=T MaxTD1= 5 Len=  102
 Leave Link  701 at Mon Feb 26 12:17:02 2024, MaxMem=  7516192768 cpu:              11.4 elap:               0.3
 (Enter /public/apps/g16-C01//g16/l702.exe)
 L702 exits ... SP integral derivatives will be done elsewhere.
 Leave Link  702 at Mon Feb 26 12:17:02 2024, MaxMem=  7516192768 cpu:               0.4 elap:               0.0
 (Enter /public/apps/g16-C01//g16/l703.exe)
 Integral derivatives from FoFJK, PRISM(SPDF).
 Compute integral first derivatives, UseDBF=F ICtDFT=           0.
 Calling FoFJK, ICntrl=      2127 FMM=F ISym2X=0 I1Cent= 0 IOpClX= 0 NMat=1 NMatS=1 NMatT=0.
 FoFJK:  IHMeth= 1 ICntrl=    2127 DoSepK=F KAlg= 0 I1Cent=           0 FoldK=F
 IRaf=         0 NMat=       1 IRICut=       1 DoRegI=T DoRafI=F ISym2E= 0 IDoP0=0 IntGTp=1.
 FoFCou: FMM=F IPFlag=           0 FMFlag=      100000 FMFlg1=         800
         NFxFlg=           0 DoJE=F BraDBF=F KetDBF=F FulRan=T
         wScrn=  0.000000 ICntrl=      2127 IOpCl=  0 I1Cent=           0 NGrid=           0
         NMat0=    1 NMatS0=      1 NMatT0=    0 NMatD0=    1 NMtDS0=    0 NMtDT0=    0
 Symmetry not used in FoFCou.
 Leave Link  703 at Mon Feb 26 12:17:08 2024, MaxMem=  7516192768 cpu:             229.1 elap:               5.8
 (Enter /public/apps/g16-C01//g16/l716.exe)
 Dipole        = 1.44463563D-03 1.26952559D+00-2.47758272D-03
 -------------------------------------------------------------------
 Center     Atomic                   Forces (Hartrees/Bohr)
 Number     Number              X              Y              Z
 -------------------------------------------------------------------
      1        6          -0.001222807   -0.010688164    0.000195102
      2        6           0.002479659    0.001513616    0.001007619
      3        6           0.001712620    0.001882676    0.008868382
      4        6          -0.007902711    0.002456826   -0.003344620
      5        6          -0.003525488   -0.000937341   -0.003754347
      6        6           0.005699868    0.002529945    0.002698179
      7        8          -0.005392604   -0.004920914   -0.001810448
      8        6           0.002875996    0.003673216    0.001814101
      9        6          -0.006429907   -0.003574516   -0.001555535
     10        6           0.002925303   -0.000052093    0.000422984
     11        7           0.000002977    0.011541713   -0.000008234
     12        6          -0.002931071   -0.000027060   -0.000397950
     13        6           0.006451852   -0.003555408    0.001512634
     14        6          -0.002943238    0.003598073   -0.001829691
     15        7          -0.009408015   -0.002340777   -0.003472240
     16        6           0.003537628   -0.000922279    0.003748582
     17        6          -0.002497553    0.001501608   -0.001009897
     18        6          -0.001742279    0.001849948   -0.008871677
     19        6           0.001227093   -0.010695007   -0.000166745
     20        6           0.007914883    0.002466807    0.003308271
     21        6          -0.005681437    0.002491264   -0.002700113
     22        8           0.005412062   -0.004848928    0.001815568
     23        6           0.002403039    0.002276116    0.000328446
     24        6          -0.003547133    0.001474947   -0.000655100
     25        6          -0.003214625   -0.006444589   -0.000569635
     26        6           0.003218116   -0.006440171    0.000571524
     27        6           0.003545987    0.001475843    0.000662516
     28        6          -0.002411937    0.002280388   -0.000329635
     29        7           0.009404686   -0.002355551    0.003528248
     30        1          -0.009420655    0.006236765   -0.003469282
     31        1           0.003012372    0.004866204    0.010221097
     32        1           0.007527141    0.004815485   -0.006788117
     33        1          -0.009787473    0.003978317   -0.004704883
     34        1          -0.001340466   -0.010233845   -0.001281182
     35        1           0.007047520    0.002771385   -0.007978726
     36        1           0.008796805    0.002574372   -0.007241941
     37        1           0.000198709   -0.010626889    0.001390234
     38        1           0.004562581    0.003653420    0.010332190
     39        1           0.002541004    0.003970845    0.004295590
     40        1          -0.002600794    0.003479614    0.003586863
     41        1          -0.001612943    0.004225295   -0.004742382
     42        1           0.006386690   -0.004816376    0.001171026
     43        1          -0.006383248   -0.004829238   -0.001154855
     44        1          -0.002553638    0.003960922   -0.004293234
     45        1           0.009808825    0.003988261    0.004650414
     46        1          -0.007013561    0.002803209    0.007995982
     47        1           0.001343932   -0.010231517    0.001310433
     48        1          -0.003059250    0.004832289   -0.010225154
     49        1          -0.007498028    0.004839090    0.006807562
     50        1           0.009438040    0.006249913    0.003409643
     51        1          -0.004604740    0.003620393   -0.010324089
     52        1          -0.000205397   -0.010634004   -0.001356105
     53        1          -0.008769377    0.002595727    0.007270857
     54        1           0.002590740    0.003470138   -0.003608537
     55        1           0.001630724    0.004246483    0.004724286
     56        1          -0.009180361    0.000344259   -0.001681475
[...]
 1671,0.00145705,-0.00231276,-0.00060751,0.00097664,-0.00001562,-0.0000
 5481,-0.00006320,-0.00000845,0.00000135,0.00000114,-0.00000072,0.00000
 021,0.00000004,-0.00000230,-0.00000383,-0.00000397,0.00000288,0.000000
 56,0.00000086,-0.00000218,0.00000292,-0.00000096,-0.00000580,-0.000004
 34,-0.00000312,0.00000444,-0.00000482,-0.00000249,0.00000388,0.0000066
 2,-0.00000047,-0.00000247,0.00000002,-0.00000116,-0.00000227,-0.000005
 02,-0.00001240,-0.00000633,-0.00000236,-0.00000672,-0.00000489,0.00000
 124,-0.00000800,0.00000296,0.00007041,0.00001143,0.00000053,-0.0000130
 6,-0.00001688,0.00000447,0.00000522,-0.00001421,0.00000678,-0.00000040
 ,0.00000087,0.00000168,0.00000343,-0.00000234,-0.00000375,-0.00000249,
 -0.00000135,0.00000504,0.,-0.00000023,0.00000253,0.00000325,-0.0000036
 7,-0.00000243,-0.00000125,0.00000094,0.00000040,0.00000029,-0.00000146
 ,0.00000261,-0.00000596,-0.00000046,0.00000168,0.00000404,-0.00000180,
 -0.00000318,0.00000112,-0.00000536,0.00000462,-0.00000177,-0.00000574,
 -0.00000226,0.00073563,-0.00077194,0.00099731,0.12430301,-0.00001083,0
 .00000335,0.00001371,0.00001309,-0.00001607,-0.00001165,-0.00000420,0.
 00000148,0.00000095,0.00000272,-0.00000062,0.00000869,0.00001459,0.000
 08595,0.00000217,0.00002410,0.00007491,0.00001673,-0.00004029,-0.00013
 773,-0.00000531,0.00018895,0.00029575,0.00003993,-0.00016767,-0.000200
 50,-0.00003390,0.00038910,0.00008337,0.00008035,-0.00020542,-0.0009270
 6,-0.00004184,-0.00130489,0.00073939,-0.00027180,0.00009077,-0.0003717
 5,0.00001815,-0.00021177,0.00038038,-0.00004626,0.00024042,-0.00017822
 ,0.00004956,-0.00001133,0.00009856,-0.00000239,-0.00001922,-0.00002183
 ,0.00001517,0.00000652,-0.00000033,-0.00000192,0.00001499,0.00000382,-
 0.00001745,-0.00000155,-0.00000376,-0.00001138,-0.00002954,0.00007864,
 -0.00001841,0.00005154,-0.00014150,0.00000640,0.00421662,-0.00353809,0
 .00088180,-0.01615743,-0.01876941,-0.00334795,-0.11427828,-0.26303475,
 -0.02364525,0.00273780,0.00263091,0.00056798,0.00002602,0.00132638,0.0
 0000735,0.00078766,0.00051478,0.00016185,-0.00018718,-0.00014296,-0.00
 003614,0.00000273,0.00000379,-0.00000173,0.00000049,0.00000017,-0.0000
 0550,-0.00000884,-0.00000963,0.00000629,0.00000072,0.00000406,-0.00000
 569,0.00000767,-0.00000301,-0.00001287,-0.00000996,-0.00000644,0.00001
 008,-0.00001131,-0.00000454,0.00000804,0.00001546,-0.00000124,-0.00000
 505,-0.00000039,-0.00000268,-0.00000546,-0.00001583,-0.00003334,-0.000
 01660,-0.00000422,-0.00001516,-0.00001238,0.00000313,-0.00001733,0.000
 00684,-0.00000860,0.00000260,-0.00000083,0.00000341,0.00003961,-0.0000
 0032,0.00001853,-0.00004279,0.00001963,0.00000115,0.00000653,0.0000067
 9,0.00001078,-0.00000849,-0.00001212,-0.00001115,-0.00000284,0.0000156
 5,-0.00000119,0.00000049,0.00000563,0.00000952,-0.00001206,-0.00000693
 ,-0.00000127,0.00000609,0.00000247,0.00000099,-0.00000338,0.00000605,-
 0.00002010,-0.00000044,0.00000617,0.00001395,-0.00000563,-0.00000869,0
 .00000586,-0.00001724,0.00001241,-0.00000349,-0.00001951,-0.00000627,0
 .00025888,0.00126766,0.00005103,0.12397550,0.27920277,-0.00000062,0.00
 000005,0.00000006,0.00000254,-0.00000044,0.00000215,-0.00000055,0.0000
 0166,-0.00000091,0.00000041,0.00000062,0.00000011,0.00000221,0.0000050
 3,-0.00000915,0.00000177,0.00000647,0.00002139,-0.00000508,-0.00001748
 ,0.00000186,0.00001799,0.00001960,-0.00003068,0.00000217,-0.00000720,-
 0.00000601,0.00005967,0.00001856,-0.00042473,0.00019102,0.00003776,-0.
 00070516,-0.00005999,0.00001562,0.00078999,0.00002017,-0.00001205,-0.0
 0001107,-0.00003500,0.00002643,0.00008707,0.00001638,-0.00001291,-0.00
 001335,-0.00000138,0.00001037,-0.00000494,-0.00000180,-0.00000346,0.00
 000408,0.00000059,-0.00000221,-0.00000161,0.00000150,0.00000001,-0.000
 00322,-0.00000009,-0.00000049,-0.00000113,-0.00000302,0.00000447,-0.00
 000110,0.00000198,-0.00001222,-0.00000010,-0.00155329,0.00062836,0.006
 44202,0.00169293,0.00303293,0.00303568,-0.01800204,-0.02359010,-0.0379
 5452,-0.00250411,-0.00596752,0.00182729,-0.00231406,0.00030190,0.00583
 981,-0.00001184,0.00020479,-0.00053737,-0.00000752,-0.00001024,0.00000
 036,0.00000011,0.00000026,0.00000038,-0.00000053,-0.00000068,-0.000001
 37,-0.00000019,-0.00000022,0.00000025,-0.00000026,0.00000029,0.0000000
 9,0.00000050,-0.00000099,0.00000055,0.00000025,-0.00000002,-0.00000005
 ,0.00000014,0.00000006,0.00000021,0.00000107,-0.00000023,0.00000083,-0
 .00000063,-0.00000112,-0.00000160,-0.00000395,-0.00000429,-0.00000275,
 0.00000200,-0.00000053,-0.00000246,-0.00000154,-0.00000259,-0.00000091
 ,0.00000098,0.00000128,0.00006792,0.00000502,-0.00000382,-0.00003807,0
 .00000081,0.00000057,-0.00000017,-0.00000040,0.00000032,0.00000092,0.0
 0000206,-0.00000165,-0.00000222,-0.00000074,0.00000078,0.00000390,-0.0
 0000076,0.00000122,-0.00000076,0.00000168,-0.00000184,-0.00000083,-0.0
 0000017,0.00000057,0.00000064,-0.00000101,0.00000145,-0.00000131,-0.00
 000192,0.00000004,0.00000293,0.00000240,-0.00000172,-0.00000172,0.0000
 0098,0.00000063,-0.00000083,-0.00000062,-0.00000260,-0.00000125,0.0009
 9664,-0.00016186,-0.00385930,0.02064269,0.02565044,0.02892921,0.000003
 94,-0.00000153,-0.00000506,-0.00000559,0.00000634,0.00000397,0.0000016
 6,-0.00000174,0.00000028,-0.00000173,-0.00000086,-0.00000300,-0.000007
 84,-0.00003784,-0.00000140,-0.00000848,-0.00002143,-0.00000604,0.00000
 251,0.00005453,-0.00000110,-0.00005973,-0.00012082,-0.00003207,0.00006
 954,0.00006005,0.00001708,0.00053150,-0.00007390,-0.00005556,0.0001813
 0,-0.00017574,0.00019221,-0.00014723,-0.00011513,0.00006097,-0.0000042
 9,0.00005517,0.00000036,0.00007347,-0.00012133,0.00002205,-0.00005477,
 0.00006318,-0.00000852,0.00000947,-0.00003581,0.00000324,0.00000484,0.
 00000654,-0.00000488,-0.00000155,-0.00000220,0.00000009,-0.00000390,-0
 .00000148,0.00000539,0.00000151,-0.00000144,0.00000315,0.00001532,-0.0
 0002074,0.00000418,-0.00000697,0.00007831,-0.00000116,-0.00060777,-0.0
 0097647,-0.00001496,-0.00481694,-0.00145777,-0.00231175,-0.00972442,0.
 02874244,-0.00251638,-0.12110128,0.11396925,-0.01807736,0.01081089,-0.
 01456760,0.00169346,-0.00071472,-0.00299406,-0.00155309,0.00005277,0.0
 0005234,0.00001359,-0.00000125,-0.00000094,0.00000040,0.,0.00000023,0.
 00000253,0.00000325,0.00000367,-0.00000243,-0.00000040,-0.00000087,0.0
 0000168,-0.00000249,0.00000135,0.00000504,0.00000342,0.00000234,-0.000
 00375,0.00000404,0.00000180,-0.00000318,-0.00000596,0.00000046,0.00000
 168,0.00000029,0.00000146,0.00000261,0.00000522,0.00001421,0.00000677,
 0.00000112,0.00000536,0.00000462,-0.00000177,0.00000573,-0.00000226,-0
 .00001305,0.00001689,0.00000446,0.00007041,-0.00001144,0.00000055,-0.0
 0000502,0.00001239,-0.00000633,0.00000056,-0.00000086,-0.00000218,-0.0
 0000434,0.00000312,0.00000443,0.00000292,0.00000096,-0.00000579,0.0000
 0021,-0.00000004,-0.00000230,-0.00000383,0.00000397,0.00000288,0.00000
 135,-0.00000114,-0.00000072,0.00000002,0.00000116,-0.00000227,0.000006
 62,0.00000047,-0.00000247,-0.00000482,0.00000249,0.00000387,-0.0000023
 6,0.00000671,-0.00000489,0.00000125,0.00000800,0.00000295,-0.00060388,
 0.00126732,-0.00020878,0.00105493,-0.00053967,0.00105283,0.12426635,-0
 .00001498,0.00000383,0.00001744,0.00001922,-0.00002182,-0.00001516,-0.
 00000652,-0.00000033,0.00000192,0.00000155,-0.00000375,0.00001139,0.00
 001135,0.00009855,0.00000231,0.00002955,0.00007866,0.00001833,-0.00005
 156,-0.00014149,-0.00000630,0.00021182,0.00038037,0.00004601,-0.000090
 80,-0.00037174,-0.00001794,0.00130487,0.00073937,0.00027182,0.00020539
 ,-0.00092706,0.00004197,-0.00038903,0.00008338,-0.00008072,0.00016765,
 -0.00020051,0.00003401,-0.00018890,0.00029576,-0.00004020,0.00018715,-
 0.00014297,0.00003633,-0.00001457,0.00008595,-0.00000225,-0.00001309,-
 0.00001607,0.00001166,0.00000420,0.00000148,-0.00000095,0.00001083,0.0
 0000334,-0.00001372,-0.00000272,-0.00000063,-0.00000869,-0.00002408,0.
 00007489,-0.00001680,0.00004026,-0.00013774,0.00000540,-0.00078750,0.0
 0051477,-0.00016259,-0.00002673,0.00132638,-0.00000385,-0.00273771,0.0
 0263082,-0.00056816,0.11424459,-0.26303541,0.02380526,0.01615430,-0.01
 876945,0.00336297,-0.00421814,-0.00353805,-0.00087460,-0.00024047,-0.0
 0017822,-0.00004934,0.00000127,0.00000609,-0.00000248,0.00000119,0.000
 00049,-0.00000563,-0.00000952,-0.00001206,0.00000693,-0.00000115,0.000
 00653,-0.00000679,0.00001115,-0.00000286,-0.00001565,-0.00001077,-0.00
 000848,0.00001213,-0.00001395,-0.00000562,0.00000869,0.00002010,-0.000
 00044,-0.00000616,-0.00000099,-0.00000339,-0.00000605,-0.00001854,-0.0
 0004282,-0.00001961,-0.00000586,-0.00001726,-0.00001239,0.00000348,-0.
 00001951,0.00000629,-0.00000340,0.00003961,0.00000028,0.00000859,0.000
 00260,0.00000089,0.00001583,-0.00003331,0.00001661,-0.00000072,0.00000
 407,0.00000568,0.00000996,-0.00000645,-0.00001008,-0.00000767,-0.00000
 300,0.00001287,-0.00000049,0.00000018,0.00000550,0.00000884,-0.0000096
 4,-0.00000628,-0.00000273,0.00000379,0.00000173,0.00000039,-0.00000267
 ,0.00000546,-0.00001547,-0.00000123,0.00000505,0.00001131,-0.00000455,
 -0.00000804,0.00000422,-0.00001515,0.00001240,-0.00000314,-0.00001733,
 -0.00000682,-0.00013200,0.00000594,-0.00002727,0.00054038,0.00083294,0
 .00011038,-0.12393810,0.27920354,0.00000151,-0.00000002,-0.00000323,-0
 .00000182,0.00000348,0.00000408,0.00000059,0.00000221,-0.00000162,-0.0
 0000009,0.00000049,-0.00000113,-0.00000139,-0.00001044,-0.00000493,-0.
 00000304,-0.00000453,-0.00000111,0.00000203,0.00001231,-0.00000010,-0.
 00003516,-0.00002663,0.00008706,0.00002024,0.00001230,-0.00001107,-0.0
 0006087,-0.00001559,0.00078982,0.00019086,-0.00003764,-0.00070517,0.00
 005993,-0.00001891,-0.00042466,0.00000207,0.00000735,-0.00000604,0.000
 01812,-0.00001982,-0.00003064,-0.00000765,0.00001034,0.00000032,0.0000
 0222,-0.00000509,-0.00000914,0.00000255,0.00000046,0.00000214,-0.00000
 055,-0.00000166,-0.00000091,-0.00000062,-0.00000005,0.00000007,0.00000
 041,-0.00000062,0.00000012,0.00000179,-0.00000651,0.00002141,-0.000005
 12,0.00001758,0.00000184,-0.00001135,-0.00020553,-0.00053710,-0.002314
 08,-0.00029839,0.00584001,-0.00250125,0.00596733,0.00182356,-0.0180785
 4,0.02375017,-0.03798777,0.00168118,-0.00301798,0.00303549,-0.00155045
 ,-0.00062117,0.00644306,0.00001656,0.00001301,-0.00001333,-0.00000017,
 -0.00000058,0.00000064,-0.00000076,-0.00000123,-0.00000076,0.00000169,
 0.00000185,-0.00000083,-0.00000040,-0.00000032,0.00000092,-0.00000075,
 -0.00000077,0.00000391,0.00000207,0.00000166,-0.00000223,0.00000241,0.
 00000172,-0.00000173,-0.00000193,-0.00000004,0.00000293,-0.00000101,-0
 .00000145,-0.00000131,0.00000082,-0.00000054,-0.00000016,0.00000098,-0
 .00000062,-0.00000083,-0.00000062,0.00000261,-0.00000126,0.00000502,0.
 00000377,-0.00003807,0.00000096,-0.00000124,0.00006792,-0.00000396,0.0
 0000431,-0.00000277,-0.00000025,-0.00000029,0.00000009,0.00000025,0.00
 000002,-0.00000005,0.00000051,0.00000099,0.00000054,-0.00000052,0.0000
 0068,-0.00000137,-0.00000020,0.00000023,0.00000025,0.00000011,-0.00000
 026,0.00000038,-0.00000063,0.00000112,-0.00000160,0.00000108,0.0000002
 3,0.00000083,0.00000013,-0.00000006,0.00000021,0.00000199,0.00000054,-
 0.00000248,-0.00000153,0.00000261,-0.00000091,-0.00020828,0.00026272,0
 .00035769,0.00105244,-0.00011377,-0.00379691,0.02072559,-0.02582847,0.
 02896524,0.00001048,-0.00000228,-0.00001114,-0.00001400,0.00001567,0.0
 0000979,0.00000501,0.00000537,-0.00000178,-0.00000097,0.00000605,-0.00
 000668,0.00001285,-0.00005164,0.00000536,0.00002813,-0.00003396,-0.000
 00139,-0.00001447,-0.00010165,-0.00000990,0.00016697,-0.00015270,0.000
 03651,0.00034053,0.00041201,0.00015233,-0.00148431,-0.00191443,0.00046
 778,0.00085050,0.00063394,-0.00003218,-0.00122732,-0.00086024,-0.00018
 740,0.00027809,0.00033871,0.00008958,-0.00005687,-0.00006497,0.0000352
 5,-0.00002930,0.00007778,-0.00000189,0.00000476,-0.00001933,-0.0000109
 0,0.00000580,0.00000300,-0.00000723,-0.00000228,-0.00000250,0.00000118
 ,-0.00000385,-0.00000166,0.00000553,0.00000123,-0.00000141,0.00000394,
 0.00001272,-0.00003538,0.00000715,-0.00002844,0.00007489,-0.00000319,0
 .00114331,0.00269682,-0.00133763,0.00066206,0.00047657,0.00021770,0.00
 129825,-0.00317960,-0.00118099,-0.01115704,0.00318634,-0.00298386,-0.3
 1887272,0.00064801,-0.05846536,-0.01282141,-0.00051312,-0.00330502,0.0
 0013427,0.00007865,0.00004348,0.00000041,-0.00000300,0.00000084,-0.000
 00098,-0.00000062,0.00000181,0.00000318,0.00000687,-0.00000174,0.00000
 134,-0.00000387,0.00000203,-0.00000518,0.00000171,0.00000879,0.0000028
 0,0.00000263,-0.00000511,0.00000595,0.00000124,-0.00000190,-0.00000942
 ,-0.00000052,0.00000226,0.00000101,0.00000173,0.00000235,0.00000775,0.
 00003280,0.00000991,-0.00000007,0.00000061,0.00000187,-0.00000590,-0.0
 0000188,-0.00000118,0.00055786,-0.00046382,-0.00002516,0.00002667,-0.0
 0002467,-0.00001308,-0.00000604,0.00001345,-0.00000506,0.00000139,-0.0
 0000052,-0.00000294,-0.00000501,0.00000293,0.00000458,0.00000284,0.000
 00130,-0.00000595,0.00000021,-0.00000025,-0.00000212,-0.00000432,0.000
 00384,0.00000306,0.00000207,-0.00000098,-0.00000088,0.00000038,0.00000
 093,-0.00000198,0.00000620,0.00000095,-0.00000253,-0.00000504,0.000002
 11,0.00000384,-0.00000218,0.00000824,-0.00000680,0.00000039,0.00001089
 ,0.00000427,-0.00020267,-0.00004912,0.00024429,-0.00060405,0.00013194,
 -0.00020842,0.00073570,-0.00025812,0.00099687,0.34025273,0.00000119,-0
 .00000065,-0.00000402,-0.00000119,-0.00000826,0.00000700,0.00000172,-0
 .00000470,-0.00000272,0.00000101,-0.00000484,-0.00000559,-0.00009036,-
 0.00003488,-0.00000538,-0.00004850,0.00000184,-0.00003000,0.00003596,0
 .00029366,0.00001112,-0.00036679,0.00017415,-0.00006610,0.00091217,-0.
 00073623,0.00018743,-0.00031669,0.00056034,-0.00006861,-0.00081775,-0.
 00003380,-0.00016980,0.00204394,0.00090151,0.00042029,-0.00042990,-0.0
 0032208,-0.00008553,0.00021221,-0.00016664,0.00004562,-0.00009713,0.00
 001766,-0.00002402,0.00001037,-0.00004564,0.00000510,0.00000241,0.0000
 0648,-0.00000099,-0.00000056,0.00000065,-0.00000017,-0.00000300,-0.000
 00078,0.00000379,0.00000099,0.00000098,0.00000215,0.00000442,-0.000016
 18,0.00000157,0.00000835,0.00002817,0.00000443,0.00162478,-0.00445355,
 0.00033668,-0.00003403,-0.00108475,-0.00000591,-0.00162163,-0.00416462
 ,-0.00033290,-0.02725515,0.00458817,-0.00565886,0.00200521,-0.05869836
 ,0.00042277,0.02674835,0.00694185,0.00556098,0.00004186,0.00006421,-0.
 00001262,-0.00000120,-0.00000219,0.00000144,0.00000004,0.00000015,0.00
 000299,0.00000510,0.00000296,-0.00000423,-0.00000033,-0.00000063,0.000
 00398,-0.00000353,0.00000009,0.00001021,0.00000625,0.00000528,-0.00000
 546,0.00000642,0.00000541,-0.00000608,-0.00001241,-0.00000186,0.000004
 88,0.00000002,0.00000211,0.00000319,0.00001139,0.00000341,0.00000773,0
 .00000268,0.00001794,0.00001020,-0.00000082,0.00002379,-0.00000083,-0.
 00098666,-0.00085788,-0.00021035,-0.00001388,0.00002562,-0.00000239,-0
 .00000449,0.00001112,-0.00000624,-0.00000010,-0.00000112,-0.00000116,-
 0.00000228,0.00000149,0.00000264,0.00000167,0.00000051,-0.00000366,0.0
 0000022,-0.00000005,-0.00000157,-0.00000215,0.00000269,0.00000137,0.00
 000040,-0.00000111,-0.00000035,-0.00000022,0.00000078,-0.00000157,0.00
 000434,0.00000015,-0.00000118,-0.00000289,0.00000112,0.00000198,-0.000
 00089,0.00000219,-0.00000165,0.00000214,0.00000141,0.00000103,0.000049
 34,0.00011361,0.00000950,-0.00126738,0.00000594,-0.00026244,0.00077271
 ,0.00126766,0.00015814,-0.00113575,0.05556568,0.00000511,-0.00000027,-
 0.00001076,-0.00000698,0.00001483,0.00001398,0.00000346,0.00001282,-0.
 00000420,0.00000092,0.00000510,-0.00000462,0.00000778,-0.00002654,-0.0
 0005209,-0.00000026,-0.00000445,0.00003906,0.00000213,-0.00001633,-0.0
 0000180,0.00002832,-0.00004962,-0.00002363,0.00016331,0.00009634,-0.00
 038381,0.00045180,-0.00041178,-0.00361810,-0.00003472,0.00013427,0.000
 99159,-0.00018667,-0.00017857,-0.00035293,0.00008827,0.00007136,-0.000
 14379,0.00003236,-0.00001472,-0.00021914,-0.00000497,0.00001561,0.0000
 0772,-0.00000919,-0.00000500,0.00003811,0.00000249,0.00000923,0.000000
 42,0.00000034,-0.00000029,-0.00000223,-0.00000228,-0.00000021,0.000001
 93,0.00000101,-0.00000001,-0.00000028,0.00000208,-0.00001041,0.0000159
 9,-0.00000315,0.00001912,-0.00001297,-0.00134254,0.00056163,0.00730449
 ,0.00021885,0.00010266,-0.00034111,-0.00118011,-0.00065724,0.00674821,
 -0.00297108,0.00066215,0.00258459,-0.05847890,0.00014063,-0.04933309,-
 0.00330356,-0.00009718,0.00242864,0.00003795,0.00002636,0.00000528,0.0
 0000014,-0.00000148,0.00000147,-0.00000214,-0.00000384,-0.00000257,0.0
 0000246,0.00000475,-0.00000106,0.,-0.00000193,0.00000116,-0.00000143,-
 0.00000184,0.00000760,0.00000170,0.00000085,-0.00000410,0.00000478,0.0
 0000291,-0.00000240,-0.00000195,0.00000006,0.00000802,-0.00000287,-0.0
 0000509,-0.00000417,0.00000037,-0.00000673,-0.00000078,0.00000286,0.00
 000158,-0.00000531,-0.00000415,-0.00000173,-0.00000491,-0.00000843,-0.
 00009983,0.00063712,-0.00001253,-0.00000530,0.00008485,-0.00000226,-0.
 00000526,-0.00000319,-0.00000043,-0.00000199,0.00000022,-0.00000021,0.
 00000008,-0.00000016,0.00000134,0.00000150,0.00000119,-0.00000096,0.00
 000094,-0.00000182,-0.00000037,0.00000135,0.00000030,0.00000026,-0.000
 00039,0.00000058,-0.00000109,0.00000074,-0.00000165,0.00000059,0.00000
 034,0.00000048,0.00000006,-0.00000005,0.00000023,0.00000087,0.00000307
 ,-0.00000438,-0.00000055,0.00000138,-0.00000067,0.00024425,-0.00001054
 ,-0.00132914,-0.00020789,0.00002755,0.00035786,0.00099677,-0.00005476,
 -0.00385938,0.06546902,-0.00024584,0.03844912\\-0.00000272,-0.00000117
 ,0.00000004,-0.00000979,-0.00000515,0.00000640,0.00000188,0.00000351,0
 .00000267,0.00000610,-0.00000608,0.00000296,0.00000823,0.00001511,-0.0
 0000697,0.00001278,0.00000075,0.00000511,0.00000248,-0.00001618,0.0000
 0015,-0.00001884,0.00001251,-0.00000349,-0.00000839,0.00000134,0.00000
 875,0.00000854,-0.00000903,-0.00000977,-0.00000058,0.00001125,-0.00000
 022,-0.00000747,-0.00000783,0.00000710,0.00000695,0.00000168,-0.000005
 17,0.00001761,0.00001072,0.00000150,-0.00000657,-0.00000998,0.00000168
 ,-0.00000722,0.00001459,0.00000713,0.00000963,-0.00000515,-0.00000621,
 -0.00000182,0.00000312,-0.00000160,0.00000194,-0.00000047,0.00000005,-
 0.00000469,-0.00000543,-0.00000282,-0.00001158,0.00000121,-0.00000461,
 -0.00000284,-0.00001434,0.00000302,-0.00000637,0.00000096,-0.00000414,
 0.00000243,0.00000157,-0.00000054,0.00000080,0.00000064,0.00000014,-0.
 00000084,0.00000056,-0.00000027,-0.00000247,0.00000142,0.00000068,0.00
 000612,0.00000146,0.00000394,0.00000644,-0.00001032,-0.00000492,-0.000
 00328,0.00000144,-0.00000060,0.00000041,0.00000010,0.00000118,0.000000
 65,0.00000009,-0.00000006,-0.00000313,0.00000123,0.00000050,0.00000012
 ,-0.00000095,0.00000039,0.00000063,0.00000008,-0.00000209,-0.00000055,
 0.00000180,-0.00000034,-0.00000036,-0.00000046,0.00000042,-0.00000023,
 0.00000116,0.00000038,-0.00000318,0.00000297,0.00000456,0.00000193,-0.
 00000187,0.00000184,-0.00000001,-0.00000126,-0.00000478,0.00000222,0.0
 0000052,0.00000187,-0.00000191,0.00000065,-0.00000129,0.00000313,0.000
 00224,-0.00000420,0.00000263,0.00000083,-0.00000086,-0.00000069,0.0000
 0012,0.00000224,-0.00000011,-0.00000064,-0.00000025,-0.00000043,0.0000
 0033,-0.00000113,-0.00000078,0.00000024,-0.00000004,0.00000217,0.00000
 137,0.00000067,0.00000029,0.00000130,-0.00000029,0.00000058,-0.0000008
 5,-0.00000027,0.00000057,0.00000153,0.00000028,-0.00000189,-0.00000245
 ,-0.00000234,0.00000121,-0.00000184,0.00000355,-0.00000106,0.00000026,
 -0.00000015,-0.00000058,0.00000028,0.00000009,0.00000062,0.00000022,-0
 .00000004,0.00000128,0.00000027,0.00000022\\\@
 The archive entry for this job was punched.


 THE PROBLEM WITH THE LADDER OF SUCCESS IS YOU CAN'T
 CLIMB IT WHILE YOU'RE TWIDDLING YOUR THUMBS.
 Job cpu time:       0 days  3 hours 26 minutes  9.3 seconds.
 Elapsed time:       0 days  0 hours  5 minutes 10.7 seconds.
 File lengths (MBytes):  RWF=   1511 Int=      0 D2E=      0 Chk=     21 Scr=      1
 Normal termination of Gaussian 16 at Mon Feb 26 12:27:43 2024.
