 Entering Gaussian System, Link 0=g16
 Initial command:
 /public/apps/g16-C01//g16/l1.exe "/public/home/ljq/tmp/Gau-110205.inp" -scrdir="/public/home/ljq/tmp/"
 Entering Link 1 = /public/apps/g16-C01//g16/l1.exe PID=    110206.
  
 Copyright (c) 1988-2019, Gaussian, Inc.  All Rights Reserved.
  
 This is part of the Gaussian(R) 16 program.  It is based on
 the Gaussian(R) 09 system (copyright 2009, Gaussian, Inc.),
 the Gaussian(R) 03 system (copyright 2003, Gaussian, Inc.),
 the Gaussian(R) 98 system (copyright 1998, Gaussian, Inc.),
 the Gaussian(R) 94 system (copyright 1995, Gaussian, Inc.),
 the Gaussian 92(TM) system (copyright 1992, Gaussian, Inc.),
 the Gaussian 90(TM) system (copyright 1990, Gaussian, Inc.),
 the Gaussian 88(TM) system (copyright 1988, Gaussian, Inc.),
 the Gaussian 86(TM) system (copyright 1986, Carnegie Mellon
 University), and the Gaussian 82(TM) system (copyright 1983,
 Carnegie Mellon University). Gaussian is a federally registered
 trademark of Gaussian, Inc.
  
 This software contains proprietary and confidential information,
 including trade secrets, belonging to Gaussian, Inc.
  
 This software is provided under written license and may be
 used, copied, transmitted, or stored only in accord with that
 written license.
  
 The following legend is applicable only to US Government
 contracts under FAR:
  
                    RESTRICTED RIGHTS LEGEND
  
 Use, reproduction and disclosure by the US Government is
 subject to restrictions as set forth in subparagraphs (a)
 and (c) of the Commercial Computer Software - Restricted
 Rights clause in FAR 52.227-19.
  
 Gaussian, Inc.
 340 Quinnipiac St., Bldg. 40, Wallingford CT 06492
  
  
 ---------------------------------------------------------------
 Warning -- This program may not be used in any manner that
 competes with the business of Gaussian, Inc. or will provide
 assistance to any competitor of Gaussian, Inc.  The licensee
 of this program is prohibited from giving any competitor of
 Gaussian, Inc. access to this program.  By using this program,
 the user acknowledges that Gaussian, Inc. is engaged in the
 business of creating and licensing software in the field of
 computational chemistry and represents and warrants to the
 licensee that it is not a competitor of Gaussian, Inc. and that
 it will not use this program in any manner prohibited above.
 ---------------------------------------------------------------
  

 Cite this work as:
 Gaussian 16, Revision C.01,
 M. J. Frisch, G. W. Trucks, H. B. Schlegel, G. E. Scuseria, 
 M. A. Robb, J. R. Cheeseman, G. Scalmani, V. Barone, 
 G. A. Petersson, H. Nakatsuji, X. Li, M. Caricato, A. V. Marenich, 
 J. Bloino, B. G. Janesko, R. Gomperts, B. Mennucci, H. P. Hratchian, 
 J. V. Ortiz, A. F. Izmaylov, J. L. Sonnenberg, D. Williams-Young, 
 F. Ding, F. Lipparini, F. Egidi, J. Goings, B. Peng, A. Petrone, 
 T. Henderson, D. Ranasinghe, V. G. Zakrzewski, J. Gao, N. Rega, 
 G. Zheng, W. Liang, M. Hada, M. Ehara, K. Toyota, R. Fukuda, 
 J. Hasegawa, M. Ishida, T. Nakajima, Y. Honda, O. Kitao, H. Nakai, 
 T. Vreven, K. Throssell, J. A. Montgomery, Jr., J. E. Peralta, 
 F. Ogliaro, M. J. Bearpark, J. J. Heyd, E. N. Brothers, K. N. Kudin, 
 V. N. Staroverov, T. A. Keith, R. Kobayashi, J. Normand, 
 K. Raghavachari, A. P. Rendell, J. C. Burant, S. S. Iyengar, 
 J. Tomasi, M. Cossi, J. M. Millam, M. Klene, C. Adamo, R. Cammi, 
 J. W. Ochterski, R. L. Martin, K. Morokuma, O. Farkas, 
 J. B. Foresman, and D. J. Fox, Gaussian, Inc., Wallingford CT, 2019.
 
 ******************************************
 Gaussian 16:  ES64L-G16RevC.01  3-Jul-2019
                25-Feb-2024 
 ******************************************
 %nproc=40
 Will use up to   40 processors via shared memory.
 %mem=56GB
 ------------------------------------------
 #p opt freq b3lyp/def2svpp em=gd3bj nosymm
 ------------------------------------------
 1/18=20,19=15,26=3,38=1/1,3;
 2/9=110,12=2,15=1,17=6,18=5,40=1/2;
 3/5=43,7=202,11=2,25=1,30=1,71=1,74=-5,124=41/1,2,3;
 4//1;
 5/5=2,38=5/2;
 6/7=2,8=2,9=2,10=2,28=1/1;
 7/30=1/1,2,3,16;
 1/18=20,19=15,26=3/3(2);
 2/9=110,15=1/2;
 99//99;
 2/9=110,15=1/2;
 3/5=43,7=202,11=2,25=1,30=1,71=1,74=-5,124=41/1,2,3;
 4/5=5,16=3,69=1/1;
 5/5=2,38=5/2;
 7/30=1/1,2,3,16;
 1/18=20,19=15,26=3/3(-5);
 2/9=110,15=1/2;
 6/7=2,8=2,9=2,10=2,19=2,28=1/1;
 99/9=1/99;
 Leave Link    1 at Sun Feb 25 15:39:09 2024, MaxMem=  7516192768 cpu:               3.0 elap:               0.1
 (Enter /public/apps/g16-C01//g16/l101.exe)
 ----------------------
 $$$$Singlemol####0????
 ----------------------
 Symbolic Z-matrix:
 Charge =  0 Multiplicity = 1
 C                     2.55655  -1.22853  -3.72709 
 C                     3.00628  -2.137    -2.58666 
 C                     4.3664   -2.75627  -2.89543 
 C                     3.05942  -1.33455  -1.27885 
 C                     3.24585  -2.20735  -0.00719 
 O                     2.09687  -1.93112   0.7842 
 C                     1.36152  -1.03357   0.08339 
 C                     0.11483  -0.51821   0.73437 
 C                    -0.67569  -1.70322   1.34612 
 C                    -2.07705  -1.29794   1.70551 
 C                    -2.35208  -0.61171   2.88173 
 C                    -3.63974  -0.19836   3.17336 
 C                    -4.67532  -0.47353   2.29757 
 C                    -4.41643  -1.1757    1.1332 
 C                    -3.12677  -1.58365   0.84131 
 C                     0.532     0.51797   1.80619 
 C                     1.73901   1.2977    1.36276 
 C                     3.00712   0.92823   1.79322 
 C                     4.12978   1.59907   1.34097 
 C                     3.99608   2.6535    0.45489 
 C                     2.73445   3.03754   0.03263 
 C                     1.61318   2.36564   0.4842 
 C                    -0.75009   0.11258  -0.31385 
 N                    -1.26629   1.26126  -0.24439 
 C                    -2.09121   1.46399  -1.41676 
 C                    -3.55173   1.7271   -1.01831 
 C                    -4.38949   2.07287  -2.24611 
 C                    -3.61743   2.85218   0.01015 
 C                    -1.88727   0.15153  -2.2213 
 O                    -1.04758  -0.64368  -1.39233 
 N                     1.80556  -0.65666  -1.03305 
 H                     3.28742  -0.43984  -3.88981 
 H                     2.44653  -1.79911  -4.64647 
 H                     1.60621  -0.76886  -3.47286 
 H                     2.26403  -2.93416  -2.46243 
 H                     4.69535  -3.41438  -2.09442 
 H                     4.31245  -3.33541  -3.81432 
 H                     5.11318  -1.97579  -3.02529 
 H                     3.84163  -0.57105  -1.36155 
 H                     4.13822  -1.94084   0.56392 
 H                     3.26079  -3.2779   -0.23143 
 H                    -0.13404  -2.06733   2.2207 
 H                    -0.70857  -2.50332   0.60357 
 H                    -1.55528  -0.40263   3.57971 
 H                    -3.83595   0.3399    4.08922 
 H                    -5.68001  -0.14816   2.52366 
 H                    -5.22243  -1.40794   0.45114 
 H                    -2.92915  -2.12927  -0.07068 
 H                     0.77026  -0.01513   2.72813 
 H                    -0.31244   1.1862    1.97204 
 H                     3.118     0.10286   2.48352 
 H                     5.11103   1.29736   1.68014 
 H                     4.87223   3.17512   0.09732 
 H                     2.62563   3.86416  -0.65451 
 H                     0.62731   2.65301   0.15369 
 H                    -1.71003   2.33547  -1.96054 
 H                    -3.94193   0.81414  -0.55486 
 H                    -4.35362   1.27875  -2.98831 
 H                    -5.42679   2.22619  -1.95798 
 H                    -4.02309   2.98793  -2.70681 
 H                    -4.64429   3.00929   0.33156 
 H                    -3.23923   3.77802  -0.41702 
 H                    -3.01101   2.59656   0.87388 
 H                    -2.82318  -0.38961  -2.38558 
 H                    -1.3846    0.31186  -3.1783 
 
 ITRead=  0  0  0  0  0  0  0  0  0  0  0  0  0  0  0  0  0  0  0  0
 ITRead=  0  0  0  0  0  0  0  0  0  0  0  0  0  0  0  0  0  0  0  0
 ITRead=  0  0  0  0  0  0  0  0  0  0  0  0  0  0  0  0  0  0  0  0
 ITRead=  0  0  0  0  0
 MicOpt= -1 -1 -1 -1 -1 -1 -1 -1 -1 -1 -1 -1 -1 -1 -1 -1 -1 -1 -1 -1
 MicOpt= -1 -1 -1 -1 -1 -1 -1 -1 -1 -1 -1 -1 -1 -1 -1 -1 -1 -1 -1 -1
 MicOpt= -1 -1 -1 -1 -1 -1 -1 -1 -1 -1 -1 -1 -1 -1 -1 -1 -1 -1 -1 -1
 MicOpt= -1 -1 -1 -1 -1
 NAtoms=     65 NQM=       65 NQMF=       0 NMMI=      0 NMMIF=      0
                NMic=       0 NMicF=      0.
                    Isotopes and Nuclear Properties:
 (Nuclear quadrupole moments (NQMom) in fm**2, nuclear magnetic moments (NMagM)
  in nuclear magnetons)

  Atom         1           2           3           4           5           6           7           8           9          10
 IAtWgt=          12          12          12          12          12          16          12          12          12          12
 AtmWgt=  12.0000000  12.0000000  12.0000000  12.0000000  12.0000000  15.9949146  12.0000000  12.0000000  12.0000000  12.0000000
 NucSpn=           0           0           0           0           0           0           0           0           0           0
 AtZEff=  -0.0000000  -0.0000000  -0.0000000  -0.0000000  -0.0000000  -0.0000000  -0.0000000  -0.0000000  -0.0000000  -0.0000000
 NQMom=    0.0000000   0.0000000   0.0000000   0.0000000   0.0000000   0.0000000   0.0000000   0.0000000   0.0000000   0.0000000
 NMagM=    0.0000000   0.0000000   0.0000000   0.0000000   0.0000000   0.0000000   0.0000000   0.0000000   0.0000000   0.0000000
 AtZNuc=   6.0000000   6.0000000   6.0000000   6.0000000   6.0000000   8.0000000   6.0000000   6.0000000   6.0000000   6.0000000

  Atom        11          12          13          14          15          16          17          18          19          20
 IAtWgt=          12          12          12          12          12          12          12          12          12          12
 AtmWgt=  12.0000000  12.0000000  12.0000000  12.0000000  12.0000000  12.0000000  12.0000000  12.0000000  12.0000000  12.0000000
 NucSpn=           0           0           0           0           0           0           0           0           0           0
 AtZEff=  -0.0000000  -0.0000000  -0.0000000  -0.0000000  -0.0000000  -0.0000000  -0.0000000  -0.0000000  -0.0000000  -0.0000000
 NQMom=    0.0000000   0.0000000   0.0000000   0.0000000   0.0000000   0.0000000   0.0000000   0.0000000   0.0000000   0.0000000
 NMagM=    0.0000000   0.0000000   0.0000000   0.0000000   0.0000000   0.0000000   0.0000000   0.0000000   0.0000000   0.0000000
 AtZNuc=   6.0000000   6.0000000   6.0000000   6.0000000   6.0000000   6.0000000   6.0000000   6.0000000   6.0000000   6.0000000

  Atom        21          22          23          24          25          26          27          28          29          30
 IAtWgt=          12          12          12          14          12          12          12          12          12          16
 AtmWgt=  12.0000000  12.0000000  12.0000000  14.0030740  12.0000000  12.0000000  12.0000000  12.0000000  12.0000000  15.9949146
 NucSpn=           0           0           0           2           0           0           0           0           0           0
 AtZEff=  -0.0000000  -0.0000000  -0.0000000  -0.0000000  -0.0000000  -0.0000000  -0.0000000  -0.0000000  -0.0000000  -0.0000000
 NQMom=    0.0000000   0.0000000   0.0000000   2.0440000   0.0000000   0.0000000   0.0000000   0.0000000   0.0000000   0.0000000
 NMagM=    0.0000000   0.0000000   0.0000000   0.4037610   0.0000000   0.0000000   0.0000000   0.0000000   0.0000000   0.0000000
 AtZNuc=   6.0000000   6.0000000   6.0000000   7.0000000   6.0000000   6.0000000   6.0000000   6.0000000   6.0000000   8.0000000

  Atom        31          32          33          34          35          36          37          38          39          40
 IAtWgt=          14           1           1           1           1           1           1           1           1           1
 AtmWgt=  14.0030740   1.0078250   1.0078250   1.0078250   1.0078250   1.0078250   1.0078250   1.0078250   1.0078250   1.0078250
 NucSpn=           2           1           1           1           1           1           1           1           1           1
 AtZEff=  -0.0000000  -0.0000000  -0.0000000  -0.0000000  -0.0000000  -0.0000000  -0.0000000  -0.0000000  -0.0000000  -0.0000000
 NQMom=    2.0440000   0.0000000   0.0000000   0.0000000   0.0000000   0.0000000   0.0000000   0.0000000   0.0000000   0.0000000
 NMagM=    0.4037610   2.7928460   2.7928460   2.7928460   2.7928460   2.7928460   2.7928460   2.7928460   2.7928460   2.7928460
 AtZNuc=   7.0000000   1.0000000   1.0000000   1.0000000   1.0000000   1.0000000   1.0000000   1.0000000   1.0000000   1.0000000

  Atom        41          42          43          44          45          46          47          48          49          50
 IAtWgt=           1           1           1           1           1           1           1           1           1           1
 AtmWgt=   1.0078250   1.0078250   1.0078250   1.0078250   1.0078250   1.0078250   1.0078250   1.0078250   1.0078250   1.0078250
 NucSpn=           1           1           1           1           1           1           1           1           1           1
 AtZEff=  -0.0000000  -0.0000000  -0.0000000  -0.0000000  -0.0000000  -0.0000000  -0.0000000  -0.0000000  -0.0000000  -0.0000000
 NQMom=    0.0000000   0.0000000   0.0000000   0.0000000   0.0000000   0.0000000   0.0000000   0.0000000   0.0000000   0.0000000
 NMagM=    2.7928460   2.7928460   2.7928460   2.7928460   2.7928460   2.7928460   2.7928460   2.7928460   2.7928460   2.7928460
 AtZNuc=   1.0000000   1.0000000   1.0000000   1.0000000   1.0000000   1.0000000   1.0000000   1.0000000   1.0000000   1.0000000

  Atom        51          52          53          54          55          56          57          58          59          60
 IAtWgt=           1           1           1           1           1           1           1           1           1           1
 AtmWgt=   1.0078250   1.0078250   1.0078250   1.0078250   1.0078250   1.0078250   1.0078250   1.0078250   1.0078250   1.0078250
 NucSpn=           1           1           1           1           1           1           1           1           1           1
 AtZEff=  -0.0000000  -0.0000000  -0.0000000  -0.0000000  -0.0000000  -0.0000000  -0.0000000  -0.0000000  -0.0000000  -0.0000000
 NQMom=    0.0000000   0.0000000   0.0000000   0.0000000   0.0000000   0.0000000   0.0000000   0.0000000   0.0000000   0.0000000
 NMagM=    2.7928460   2.7928460   2.7928460   2.7928460   2.7928460   2.7928460   2.7928460   2.7928460   2.7928460   2.7928460
 AtZNuc=   1.0000000   1.0000000   1.0000000   1.0000000   1.0000000   1.0000000   1.0000000   1.0000000   1.0000000   1.0000000

  Atom        61          62          63          64          65
 IAtWgt=           1           1           1           1           1
 AtmWgt=   1.0078250   1.0078250   1.0078250   1.0078250   1.0078250
 NucSpn=           1           1           1           1           1
 AtZEff=  -0.0000000  -0.0000000  -0.0000000  -0.0000000  -0.0000000
 NQMom=    0.0000000   0.0000000   0.0000000   0.0000000   0.0000000
 NMagM=    2.7928460   2.7928460   2.7928460   2.7928460   2.7928460
 AtZNuc=   1.0000000   1.0000000   1.0000000   1.0000000   1.0000000
 Leave Link  101 at Sun Feb 25 15:39:10 2024, MaxMem=  7516192768 cpu:              10.3 elap:               0.3
 (Enter /public/apps/g16-C01//g16/l103.exe)

 GradGradGradGradGradGradGradGradGradGradGradGradGradGradGradGradGradGrad
 Berny optimization.
 Initialization pass.
                           ----------------------------
                           !    Initial Parameters    !
                           ! (Angstroms and Degrees)  !
 --------------------------                            --------------------------
 ! Name  Definition              Value          Derivative Info.                !
 --------------------------------------------------------------------------------
 ! R1    R(1,2)                  1.5258         estimate D2E/DX2                !
 ! R2    R(1,32)                 1.0875         estimate D2E/DX2                !
 ! R3    R(1,33)                 1.0876         estimate D2E/DX2                !
 ! R4    R(1,34)                 1.0859         estimate D2E/DX2                !
 ! R5    R(2,3)                  1.526          estimate D2E/DX2                !
 ! R6    R(2,4)                  1.5353         estimate D2E/DX2                !
 ! R7    R(2,35)                 1.0963         estimate D2E/DX2                !
 ! R8    R(3,36)                 1.0876         estimate D2E/DX2                !
 ! R9    R(3,37)                 1.0875         estimate D2E/DX2                !
 ! R10   R(3,38)                 1.088          estimate D2E/DX2                !
 ! R11   R(4,5)                  1.5536         estimate D2E/DX2                !
 ! R12   R(4,31)                 1.4464         estimate D2E/DX2                !
 ! R13   R(4,39)                 1.0962         estimate D2E/DX2                !
 ! R14   R(5,6)                  1.4222         estimate D2E/DX2                !
 ! R15   R(5,40)                 1.0925         estimate D2E/DX2                !
 ! R16   R(5,41)                 1.0939         estimate D2E/DX2                !
 ! R17   R(6,7)                  1.3555         estimate D2E/DX2                !
 ! R18   R(7,8)                  1.4979         estimate D2E/DX2                !
 ! R19   R(7,31)                 1.2592         estimate D2E/DX2                !
 ! R20   R(8,9)                  1.5503         estimate D2E/DX2                !
 ! R21   R(8,16)                 1.5481         estimate D2E/DX2                !
 ! R22   R(8,23)                 1.4983         estimate D2E/DX2                !
 ! R23   R(9,10)                 1.5024         estimate D2E/DX2                !
 ! R24   R(9,42)                 1.0913         estimate D2E/DX2                !
 ! R25   R(9,43)                 1.0921         estimate D2E/DX2                !
 ! R26   R(10,11)                1.3893         estimate D2E/DX2                !
 ! R27   R(10,15)                1.3894         estimate D2E/DX2                !
 ! R28   R(11,12)                1.3835         estimate D2E/DX2                !
 ! R29   R(11,44)                1.0797         estimate D2E/DX2                !
 ! R30   R(12,13)                1.3839         estimate D2E/DX2                !
 ! R31   R(12,45)                1.0803         estimate D2E/DX2                !
 ! R32   R(13,14)                1.3841         estimate D2E/DX2                !
 ! R33   R(13,46)                1.08           estimate D2E/DX2                !
 ! R34   R(14,15)                1.3838         estimate D2E/DX2                !
 ! R35   R(14,47)                1.0811         estimate D2E/DX2                !
 ! R36   R(15,48)                1.081          estimate D2E/DX2                !
 ! R37   R(16,17)                1.5038         estimate D2E/DX2                !
 ! R38   R(16,49)                1.0913         estimate D2E/DX2                !
 ! R39   R(16,50)                1.0895         estimate D2E/DX2                !
 ! R40   R(17,18)                1.3892         estimate D2E/DX2                !
 ! R41   R(17,22)                1.3886         estimate D2E/DX2                !
 ! R42   R(18,19)                1.3838         estimate D2E/DX2                !
 ! R43   R(18,51)                1.0817         estimate D2E/DX2                !
 ! R44   R(19,20)                1.3838         estimate D2E/DX2                !
 ! R45   R(19,52)                1.0812         estimate D2E/DX2                !
 ! R46   R(20,21)                1.3847         estimate D2E/DX2                !
 ! R47   R(20,53)                1.0805         estimate D2E/DX2                !
 ! R48   R(21,22)                1.383          estimate D2E/DX2                !
 ! R49   R(21,54)                1.0804         estimate D2E/DX2                !
 ! R50   R(22,55)                1.0788         estimate D2E/DX2                !
 ! R51   R(23,24)                1.2613         estimate D2E/DX2                !
 ! R52   R(23,30)                1.3504         estimate D2E/DX2                !
 ! R53   R(24,25)                1.4478         estimate D2E/DX2                !
 ! R54   R(25,26)                1.5366         estimate D2E/DX2                !
 ! R55   R(25,29)                1.5529         estimate D2E/DX2                !
 ! R56   R(25,56)                1.0957         estimate D2E/DX2                !
 ! R57   R(26,27)                1.5261         estimate D2E/DX2                !
 ! R58   R(26,28)                1.5257         estimate D2E/DX2                !
 ! R59   R(26,57)                1.0957         estimate D2E/DX2                !
 ! R60   R(27,58)                1.0876         estimate D2E/DX2                !
 ! R61   R(27,59)                1.0874         estimate D2E/DX2                !
 ! R62   R(27,60)                1.088          estimate D2E/DX2                !
 ! R63   R(28,61)                1.0874         estimate D2E/DX2                !
 ! R64   R(28,62)                1.0875         estimate D2E/DX2                !
 ! R65   R(28,63)                1.0859         estimate D2E/DX2                !
 ! R66   R(29,30)                1.4229         estimate D2E/DX2                !
 ! R67   R(29,64)                1.0935         estimate D2E/DX2                !
 ! R68   R(29,65)                1.0928         estimate D2E/DX2                !
 ! A1    A(2,1,32)             110.215          estimate D2E/DX2                !
 ! A2    A(2,1,33)             110.4422         estimate D2E/DX2                !
 ! A3    A(2,1,34)             109.5739         estimate D2E/DX2                !
 ! A4    A(32,1,33)            108.7815         estimate D2E/DX2                !
 ! A5    A(32,1,34)            108.4337         estimate D2E/DX2                !
 ! A6    A(33,1,34)            109.3575         estimate D2E/DX2                !
 ! A7    A(1,2,3)              110.6763         estimate D2E/DX2                !
 ! A8    A(1,2,4)              109.6138         estimate D2E/DX2                !
 ! A9    A(1,2,35)             108.5462         estimate D2E/DX2                !
 ! A10   A(3,2,4)              110.7083         estimate D2E/DX2                !
 ! A11   A(3,2,35)             109.3481         estimate D2E/DX2                !
 ! A12   A(4,2,35)             107.8764         estimate D2E/DX2                !
 ! A13   A(2,3,36)             111.4751         estimate D2E/DX2                !
 ! A14   A(2,3,37)             110.0504         estimate D2E/DX2                !
 ! A15   A(2,3,38)             110.1704         estimate D2E/DX2                !
 ! A16   A(36,3,37)            108.3637         estimate D2E/DX2                !
 ! A17   A(36,3,38)            108.324          estimate D2E/DX2                !
 ! A18   A(37,3,38)            108.3744         estimate D2E/DX2                !
 ! A19   A(2,4,5)              114.0647         estimate D2E/DX2                !
 ! A20   A(2,4,31)             111.0827         estimate D2E/DX2                !
 ! A21   A(2,4,39)             108.9335         estimate D2E/DX2                !
 ! A22   A(5,4,31)             103.1927         estimate D2E/DX2                !
 ! A23   A(5,4,39)             111.5563         estimate D2E/DX2                !
 ! A24   A(31,4,39)            107.7563         estimate D2E/DX2                !
 ! A25   A(4,5,6)              104.4422         estimate D2E/DX2                !
 ! A26   A(4,5,40)             112.8844         estimate D2E/DX2                !
 ! A27   A(4,5,41)             112.5606         estimate D2E/DX2                !
 ! A28   A(6,5,40)             108.7607         estimate D2E/DX2                !
 ! A29   A(6,5,41)             108.3713         estimate D2E/DX2                !
 ! A30   A(40,5,41)            109.5575         estimate D2E/DX2                !
 ! A31   A(5,6,7)              106.211          estimate D2E/DX2                !
 ! A32   A(6,7,8)              117.0416         estimate D2E/DX2                !
 ! A33   A(6,7,31)             117.7275         estimate D2E/DX2                !
 ! A34   A(8,7,31)             125.1581         estimate D2E/DX2                !
 ! A35   A(7,8,9)              109.4458         estimate D2E/DX2                !
 ! A36   A(7,8,16)             107.8732         estimate D2E/DX2                !
 ! A37   A(7,8,23)             108.7399         estimate D2E/DX2                !
 ! A38   A(9,8,16)             112.0758         estimate D2E/DX2                !
 ! A39   A(9,8,23)             107.6694         estimate D2E/DX2                !
 ! A40   A(16,8,23)            110.987          estimate D2E/DX2                !
 ! A41   A(8,9,10)             111.3349         estimate D2E/DX2                !
 ! A42   A(8,9,42)             108.5534         estimate D2E/DX2                !
 ! A43   A(8,9,43)             107.8819         estimate D2E/DX2                !
 ! A44   A(10,9,42)            111.1782         estimate D2E/DX2                !
 ! A45   A(10,9,43)            109.4029         estimate D2E/DX2                !
 ! A46   A(42,9,43)            108.3863         estimate D2E/DX2                !
 ! A47   A(9,10,11)            121.3611         estimate D2E/DX2                !
 ! A48   A(9,10,15)            120.03           estimate D2E/DX2                !
 ! A49   A(11,10,15)           118.5955         estimate D2E/DX2                !
 ! A50   A(10,11,12)           120.6851         estimate D2E/DX2                !
 ! A51   A(10,11,44)           119.7938         estimate D2E/DX2                !
 ! A52   A(12,11,44)           119.5201         estimate D2E/DX2                !
 ! A53   A(11,12,13)           120.2429         estimate D2E/DX2                !
 ! A54   A(11,12,45)           119.7776         estimate D2E/DX2                !
 ! A55   A(13,12,45)           119.9794         estimate D2E/DX2                !
 ! A56   A(12,13,14)           119.5562         estimate D2E/DX2                !
 ! A57   A(12,13,46)           120.2478         estimate D2E/DX2                !
 ! A58   A(14,13,46)           120.1948         estimate D2E/DX2                !
 ! A59   A(13,14,15)           120.0878         estimate D2E/DX2                !
 ! A60   A(13,14,47)           120.0169         estimate D2E/DX2                !
 ! A61   A(15,14,47)           119.8952         estimate D2E/DX2                !
 ! A62   A(10,15,14)           120.8179         estimate D2E/DX2                !
 ! A63   A(10,15,48)           119.3697         estimate D2E/DX2                !
 ! A64   A(14,15,48)           119.8122         estimate D2E/DX2                !
 ! A65   A(8,16,17)            111.0504         estimate D2E/DX2                !
 ! A66   A(8,16,49)            108.4678         estimate D2E/DX2                !
 ! A67   A(8,16,50)            107.8814         estimate D2E/DX2                !
 ! A68   A(17,16,49)           109.0963         estimate D2E/DX2                !
 ! A69   A(17,16,50)           110.4231         estimate D2E/DX2                !
 ! A70   A(49,16,50)           109.8903         estimate D2E/DX2                !
 ! A71   A(16,17,18)           120.2246         estimate D2E/DX2                !
 ! A72   A(16,17,22)           120.8367         estimate D2E/DX2                !
 ! A73   A(18,17,22)           118.9021         estimate D2E/DX2                !
 ! A74   A(17,18,19)           120.6876         estimate D2E/DX2                !
 ! A75   A(17,18,51)           119.6206         estimate D2E/DX2                !
 ! A76   A(19,18,51)           119.6902         estimate D2E/DX2                !
 ! A77   A(18,19,20)           120.0191         estimate D2E/DX2                !
 ! A78   A(18,19,52)           119.9008         estimate D2E/DX2                !
 ! A79   A(20,19,52)           120.0801         estimate D2E/DX2                !
 ! A80   A(19,20,21)           119.6447         estimate D2E/DX2                !
 ! A81   A(19,20,53)           120.0925         estimate D2E/DX2                !
 ! A82   A(21,20,53)           120.2627         estimate D2E/DX2                !
 ! A83   A(20,21,22)           120.2901         estimate D2E/DX2                !
 ! A84   A(20,21,54)           119.8605         estimate D2E/DX2                !
 ! A85   A(22,21,54)           119.8492         estimate D2E/DX2                !
 ! A86   A(17,22,21)           120.4486         estimate D2E/DX2                !
 ! A87   A(17,22,55)           118.7856         estimate D2E/DX2                !
 ! A88   A(21,22,55)           120.7625         estimate D2E/DX2                !
 ! A89   A(8,23,24)            125.5338         estimate D2E/DX2                !
 ! A90   A(8,23,30)            116.7531         estimate D2E/DX2                !
 ! A91   A(24,23,30)           117.6368         estimate D2E/DX2                !
 ! A92   A(23,24,25)           108.4295         estimate D2E/DX2                !
 ! A93   A(24,25,26)           110.8282         estimate D2E/DX2                !
 ! A94   A(24,25,29)           103.0829         estimate D2E/DX2                !
 ! A95   A(24,25,56)           108.3632         estimate D2E/DX2                !
 ! A96   A(26,25,29)           113.822          estimate D2E/DX2                !
 ! A97   A(26,25,56)           108.8555         estimate D2E/DX2                !
 ! A98   A(29,25,56)           111.6806         estimate D2E/DX2                !
 ! A99   A(25,26,27)           110.6068         estimate D2E/DX2                !
 ! A100  A(25,26,28)           109.9984         estimate D2E/DX2                !
 ! A101  A(25,26,57)           107.7886         estimate D2E/DX2                !
 ! A102  A(27,26,28)           110.5852         estimate D2E/DX2                !
 ! A103  A(27,26,57)           109.4875         estimate D2E/DX2                !
 ! A104  A(28,26,57)           108.299          estimate D2E/DX2                !
 ! A105  A(26,27,58)           111.4389         estimate D2E/DX2                !
 ! A106  A(26,27,59)           110.0244         estimate D2E/DX2                !
 ! A107  A(26,27,60)           110.2644         estimate D2E/DX2                !
 ! A108  A(58,27,59)           108.3754         estimate D2E/DX2                !
 ! A109  A(58,27,60)           108.3025         estimate D2E/DX2                !
 ! A110  A(59,27,60)           108.3515         estimate D2E/DX2                !
 ! A111  A(26,28,61)           110.2706         estimate D2E/DX2                !
 ! A112  A(26,28,62)           110.3674         estimate D2E/DX2                !
 ! A113  A(26,28,63)           109.7875         estimate D2E/DX2                !
 ! A114  A(61,28,62)           108.7542         estimate D2E/DX2                !
 ! A115  A(61,28,63)           109.0423         estimate D2E/DX2                !
 ! A116  A(62,28,63)           108.5801         estimate D2E/DX2                !
 ! A117  A(25,29,30)           104.3593         estimate D2E/DX2                !
 ! A118  A(25,29,64)           112.562          estimate D2E/DX2                !
 ! A119  A(25,29,65)           112.9616         estimate D2E/DX2                !
 ! A120  A(30,29,64)           108.4237         estimate D2E/DX2                !
 ! A121  A(30,29,65)           108.7076         estimate D2E/DX2                !
 ! A122  A(64,29,65)           109.5565         estimate D2E/DX2                !
 ! A123  A(23,30,29)           106.3982         estimate D2E/DX2                !
 ! A124  A(4,31,7)             108.4254         estimate D2E/DX2                !
 ! D1    D(32,1,2,3)           -58.6345         estimate D2E/DX2                !
 ! D2    D(32,1,2,4)            63.7585         estimate D2E/DX2                !
 ! D3    D(32,1,2,35)         -178.6428         estimate D2E/DX2                !
 ! D4    D(33,1,2,3)            61.591          estimate D2E/DX2                !
 ! D5    D(33,1,2,4)          -176.0161         estimate D2E/DX2                !
 ! D6    D(33,1,2,35)          -58.4174         estimate D2E/DX2                !
 ! D7    D(34,1,2,3)          -177.8804         estimate D2E/DX2                !
 ! D8    D(34,1,2,4)           -55.4875         estimate D2E/DX2                !
 ! D9    D(34,1,2,35)           62.1113         estimate D2E/DX2                !
 ! D10   D(1,2,3,36)          -179.4552         estimate D2E/DX2                !
 ! D11   D(1,2,3,37)           -59.1918         estimate D2E/DX2                !
 ! D12   D(1,2,3,38)            60.2511         estimate D2E/DX2                !
 ! D13   D(4,2,3,36)            58.7932         estimate D2E/DX2                !
 ! D14   D(4,2,3,37)           179.0566         estimate D2E/DX2                !
 ! D15   D(4,2,3,38)           -61.5005         estimate D2E/DX2                !
 ! D16   D(35,2,3,36)          -59.9282         estimate D2E/DX2                !
 ! D17   D(35,2,3,37)           60.3352         estimate D2E/DX2                !
 ! D18   D(35,2,3,38)          179.7781         estimate D2E/DX2                !
 ! D19   D(1,2,4,5)            169.1611         estimate D2E/DX2                !
 ! D20   D(1,2,4,31)            53.0541         estimate D2E/DX2                !
 ! D21   D(1,2,4,39)           -65.4871         estimate D2E/DX2                !
 ! D22   D(3,2,4,5)            -68.465          estimate D2E/DX2                !
 ! D23   D(3,2,4,31)           175.4279         estimate D2E/DX2                !
 ! D24   D(3,2,4,39)            56.8868         estimate D2E/DX2                !
 ! D25   D(35,2,4,5)            51.1445         estimate D2E/DX2                !
 ! D26   D(35,2,4,31)          -64.9625         estimate D2E/DX2                !
 ! D27   D(35,2,4,39)          176.4963         estimate D2E/DX2                !
 ! D28   D(2,4,5,6)           -120.2799         estimate D2E/DX2                !
 ! D29   D(2,4,5,40)           121.7382         estimate D2E/DX2                !
 ! D30   D(2,4,5,41)            -2.9299         estimate D2E/DX2                !
 ! D31   D(31,4,5,6)             0.3386         estimate D2E/DX2                !
 ! D32   D(31,4,5,40)         -117.6433         estimate D2E/DX2                !
 ! D33   D(31,4,5,41)          117.6886         estimate D2E/DX2                !
 ! D34   D(39,4,5,6)           115.7679         estimate D2E/DX2                !
 ! D35   D(39,4,5,40)           -2.214          estimate D2E/DX2                !
 ! D36   D(39,4,5,41)         -126.8821         estimate D2E/DX2                !
 ! D37   D(2,4,31,7)           122.29           estimate D2E/DX2                !
 ! D38   D(5,4,31,7)            -0.3418         estimate D2E/DX2                !
 ! D39   D(39,4,31,7)         -118.4616         estimate D2E/DX2                !
 ! D40   D(4,5,6,7)             -0.2243         estimate D2E/DX2                !
 ! D41   D(40,5,6,7)           120.5442         estimate D2E/DX2                !
 ! D42   D(41,5,6,7)          -120.422          estimate D2E/DX2                !
 ! D43   D(5,6,7,8)           -177.0496         estimate D2E/DX2                !
 ! D44   D(5,6,7,31)             0.0101         estimate D2E/DX2                !
 ! D45   D(6,7,8,9)            -45.8633         estimate D2E/DX2                !
 ! D46   D(6,7,8,16)            76.3201         estimate D2E/DX2                !
 ! D47   D(6,7,8,23)          -163.2298         estimate D2E/DX2                !
 ! D48   D(31,7,8,9)           137.3203         estimate D2E/DX2                !
 ! D49   D(31,7,8,16)         -100.4963         estimate D2E/DX2                !
 ! D50   D(31,7,8,23)           19.9538         estimate D2E/DX2                !
 ! D51   D(6,7,31,4)             0.2301         estimate D2E/DX2                !
 ! D52   D(8,7,31,4)           177.0266         estimate D2E/DX2                !
 ! D53   D(7,8,9,10)          -165.9301         estimate D2E/DX2                !
 ! D54   D(7,8,9,42)            71.3723         estimate D2E/DX2                !
 ! D55   D(7,8,9,43)           -45.8788         estimate D2E/DX2                !
 ! D56   D(16,8,9,10)           74.4388         estimate D2E/DX2                !
 ! D57   D(16,8,9,42)          -48.2588         estimate D2E/DX2                !
 ! D58   D(16,8,9,43)         -165.51           estimate D2E/DX2                !
 ! D59   D(23,8,9,10)          -47.893          estimate D2E/DX2                !
 ! D60   D(23,8,9,42)         -170.5906         estimate D2E/DX2                !
 ! D61   D(23,8,9,43)           72.1582         estimate D2E/DX2                !
 ! D62   D(7,8,16,17)           34.9507         estimate D2E/DX2                !
 ! D63   D(7,8,16,49)          -84.9251         estimate D2E/DX2                !
 ! D64   D(7,8,16,50)          156.0855         estimate D2E/DX2                !
 ! D65   D(9,8,16,17)          155.4983         estimate D2E/DX2                !
 ! D66   D(9,8,16,49)           35.6226         estimate D2E/DX2                !
 ! D67   D(9,8,16,50)          -83.3669         estimate D2E/DX2                !
 ! D68   D(23,8,16,17)         -84.0783         estimate D2E/DX2                !
 ! D69   D(23,8,16,49)         156.0459         estimate D2E/DX2                !
 ! D70   D(23,8,16,50)          37.0565         estimate D2E/DX2                !
 ! D71   D(7,8,23,24)         -129.6001         estimate D2E/DX2                !
 ! D72   D(7,8,23,30)           53.6643         estimate D2E/DX2                !
 ! D73   D(9,8,23,24)          111.9084         estimate D2E/DX2                !
 ! D74   D(9,8,23,30)          -64.8273         estimate D2E/DX2                !
 ! D75   D(16,8,23,24)         -11.0934         estimate D2E/DX2                !
 ! D76   D(16,8,23,30)         172.1709         estimate D2E/DX2                !
 ! D77   D(8,9,10,11)          -80.4567         estimate D2E/DX2                !
 ! D78   D(8,9,10,15)           98.1932         estimate D2E/DX2                !
 ! D79   D(42,9,10,11)          40.7192         estimate D2E/DX2                !
 ! D80   D(42,9,10,15)        -140.6309         estimate D2E/DX2                !
 ! D81   D(43,9,10,11)         160.3953         estimate D2E/DX2                !
 ! D82   D(43,9,10,15)         -20.9548         estimate D2E/DX2                !
 ! D83   D(9,10,11,12)         177.398          estimate D2E/DX2                !
 ! D84   D(9,10,11,44)          -2.9557         estimate D2E/DX2                !
 ! D85   D(15,10,11,12)         -1.2707         estimate D2E/DX2                !
 ! D86   D(15,10,11,44)        178.3755         estimate D2E/DX2                !
 ! D87   D(9,10,15,14)        -177.6619         estimate D2E/DX2                !
 ! D88   D(9,10,15,48)           2.1735         estimate D2E/DX2                !
 ! D89   D(11,10,15,14)          1.0251         estimate D2E/DX2                !
 ! D90   D(11,10,15,48)       -179.1395         estimate D2E/DX2                !
 ! D91   D(10,11,12,13)          0.4823         estimate D2E/DX2                !
 ! D92   D(10,11,12,45)       -179.6019         estimate D2E/DX2                !
 ! D93   D(44,11,12,13)       -179.1649         estimate D2E/DX2                !
 ! D94   D(44,11,12,45)          0.7509         estimate D2E/DX2                !
 ! D95   D(11,12,13,14)          0.5749         estimate D2E/DX2                !
 ! D96   D(11,12,13,46)       -179.8064         estimate D2E/DX2                !
 ! D97   D(45,12,13,14)       -179.3408         estimate D2E/DX2                !
 ! D98   D(45,12,13,46)          0.2779         estimate D2E/DX2                !
 ! D99   D(12,13,14,15)         -0.8192         estimate D2E/DX2                !
 ! D100  D(12,13,14,47)        179.0612         estimate D2E/DX2                !
 ! D101  D(46,13,14,15)        179.5619         estimate D2E/DX2                !
 ! D102  D(46,13,14,47)         -0.5577         estimate D2E/DX2                !
 ! D103  D(13,14,15,10)          0.0118         estimate D2E/DX2                !
 ! D104  D(13,14,15,48)       -179.8228         estimate D2E/DX2                !
 ! D105  D(47,14,15,10)       -179.8687         estimate D2E/DX2                !
 ! D106  D(47,14,15,48)          0.2966         estimate D2E/DX2                !
 ! D107  D(8,16,17,18)         -97.2445         estimate D2E/DX2                !
 ! D108  D(8,16,17,22)          80.5317         estimate D2E/DX2                !
 ! D109  D(49,16,17,18)         22.2564         estimate D2E/DX2                !
 ! D110  D(49,16,17,22)       -159.9674         estimate D2E/DX2                !
 ! D111  D(50,16,17,18)        143.1266         estimate D2E/DX2                !
 ! D112  D(50,16,17,22)        -39.0972         estimate D2E/DX2                !
 ! D113  D(16,17,18,19)        176.9049         estimate D2E/DX2                !
 ! D114  D(16,17,18,51)         -2.6474         estimate D2E/DX2                !
 ! D115  D(22,17,18,19)         -0.9141         estimate D2E/DX2                !
 ! D116  D(22,17,18,51)        179.5336         estimate D2E/DX2                !
 ! D117  D(16,17,22,21)       -176.9557         estimate D2E/DX2                !
 ! D118  D(16,17,22,55)          2.3939         estimate D2E/DX2                !
 ! D119  D(18,17,22,21)          0.8495         estimate D2E/DX2                !
 ! D120  D(18,17,22,55)       -179.8009         estimate D2E/DX2                !
 ! D121  D(17,18,19,20)          0.2672         estimate D2E/DX2                !
 ! D122  D(17,18,19,52)       -179.6668         estimate D2E/DX2                !
 ! D123  D(51,18,19,20)        179.8192         estimate D2E/DX2                !
 ! D124  D(51,18,19,52)         -0.1148         estimate D2E/DX2                !
 ! D125  D(18,19,20,21)          0.4541         estimate D2E/DX2                !
 ! D126  D(18,19,20,53)       -179.7081         estimate D2E/DX2                !
 ! D127  D(52,19,20,21)       -179.612          estimate D2E/DX2                !
 ! D128  D(52,19,20,53)          0.2257         estimate D2E/DX2                !
 ! D129  D(19,20,21,22)         -0.5176         estimate D2E/DX2                !
 ! D130  D(19,20,21,54)        179.6323         estimate D2E/DX2                !
 ! D131  D(53,20,21,22)        179.645          estimate D2E/DX2                !
 ! D132  D(53,20,21,54)         -0.2052         estimate D2E/DX2                !
 ! D133  D(20,21,22,17)         -0.1407         estimate D2E/DX2                !
 ! D134  D(20,21,22,55)       -179.4773         estimate D2E/DX2                !
 ! D135  D(54,21,22,17)        179.7094         estimate D2E/DX2                !
 ! D136  D(54,21,22,55)          0.3728         estimate D2E/DX2                !
 ! D137  D(8,23,24,25)        -176.6205         estimate D2E/DX2                !
 ! D138  D(30,23,24,25)          0.0892         estimate D2E/DX2                !
 ! D139  D(8,23,30,29)         178.9474         estimate D2E/DX2                !
 ! D140  D(24,23,30,29)          1.9457         estimate D2E/DX2                !
 ! D141  D(23,24,25,26)        120.26           estimate D2E/DX2                !
 ! D142  D(23,24,25,29)         -1.8847         estimate D2E/DX2                !
 ! D143  D(23,24,25,56)       -120.3592         estimate D2E/DX2                !
 ! D144  D(24,25,26,27)        174.5406         estimate D2E/DX2                !
 ! D145  D(24,25,26,28)         52.0894         estimate D2E/DX2                !
 ! D146  D(24,25,26,57)        -65.7936         estimate D2E/DX2                !
 ! D147  D(29,25,26,27)        -69.82           estimate D2E/DX2                !
 ! D148  D(29,25,26,28)        167.7287         estimate D2E/DX2                !
 ! D149  D(29,25,26,57)         49.8458         estimate D2E/DX2                !
 ! D150  D(56,25,26,27)         55.456          estimate D2E/DX2                !
 ! D151  D(56,25,26,28)        -66.9953         estimate D2E/DX2                !
 ! D152  D(56,25,26,57)        175.1218         estimate D2E/DX2                !
 ! D153  D(24,25,29,30)          2.889          estimate D2E/DX2                !
 ! D154  D(24,25,29,64)        120.2525         estimate D2E/DX2                !
 ! D155  D(24,25,29,65)       -115.0179         estimate D2E/DX2                !
 ! D156  D(26,25,29,30)       -117.2197         estimate D2E/DX2                !
 ! D157  D(26,25,29,64)          0.1438         estimate D2E/DX2                !
 ! D158  D(26,25,29,65)        124.8734         estimate D2E/DX2                !
 ! D159  D(56,25,29,30)        119.0214         estimate D2E/DX2                !
 ! D160  D(56,25,29,64)       -123.6151         estimate D2E/DX2                !
 ! D161  D(56,25,29,65)          1.1145         estimate D2E/DX2                !
 ! D162  D(25,26,27,58)         57.9768         estimate D2E/DX2                !
 ! D163  D(25,26,27,59)        178.2139         estimate D2E/DX2                !
 ! D164  D(25,26,27,60)        -62.329          estimate D2E/DX2                !
 ! D165  D(28,26,27,58)       -179.9154         estimate D2E/DX2                !
 ! D166  D(28,26,27,59)        -59.6783         estimate D2E/DX2                !
 ! D167  D(28,26,27,60)         59.7787         estimate D2E/DX2                !
 ! D168  D(57,26,27,58)        -60.6617         estimate D2E/DX2                !
 ! D169  D(57,26,27,59)         59.5754         estimate D2E/DX2                !
 ! D170  D(57,26,27,60)        179.0325         estimate D2E/DX2                !
 ! D171  D(25,26,28,61)       -177.2391         estimate D2E/DX2                !
 ! D172  D(25,26,28,62)         62.5817         estimate D2E/DX2                !
 ! D173  D(25,26,28,63)        -57.073          estimate D2E/DX2                !
 ! D174  D(27,26,28,61)         60.2969         estimate D2E/DX2                !
 ! D175  D(27,26,28,62)        -59.8823         estimate D2E/DX2                !
 ! D176  D(27,26,28,63)       -179.537          estimate D2E/DX2                !
 ! D177  D(57,26,28,61)        -59.6725         estimate D2E/DX2                !
 ! D178  D(57,26,28,62)       -179.8517         estimate D2E/DX2                !
 ! D179  D(57,26,28,63)         60.4935         estimate D2E/DX2                !
 ! D180  D(25,29,30,23)         -2.8757         estimate D2E/DX2                !
 ! D181  D(64,29,30,23)       -123.0564         estimate D2E/DX2                !
 ! D182  D(65,29,30,23)        117.9112         estimate D2E/DX2                !
 --------------------------------------------------------------------------------
 Trust Radius=3.00D-01 FncErr=1.00D-07 GrdErr=1.00D-06 EigMax=2.50D+02 EigMin=1.00D-04
 Number of steps in this run=    384 maximum allowed number of steps=    390.
 GradGradGradGradGradGradGradGradGradGradGradGradGradGradGradGradGradGrad

 Leave Link  103 at Sun Feb 25 15:39:10 2024, MaxMem=  7516192768 cpu:               1.3 elap:               0.1
 (Enter /public/apps/g16-C01//g16/l202.exe)
 Symmetry turned off by external request.
 Stoichiometry    C27H34N2O2
 Framework group  C1[X(C27H34N2O2)]
 Deg. of freedom   189
 Full point group                 C1      NOp   1
                          Input orientation:                          
 ---------------------------------------------------------------------
 Center     Atomic      Atomic             Coordinates (Angstroms)
 Number     Number       Type             X           Y           Z
 ---------------------------------------------------------------------
      1          6           0        2.556550   -1.228529   -3.727087
      2          6           0        3.006283   -2.136999   -2.586659
      3          6           0        4.366403   -2.756265   -2.895425
      4          6           0        3.059416   -1.334549   -1.278849
      5          6           0        3.245854   -2.207349   -0.007192
      6          8           0        2.096872   -1.931120    0.784202
      7          6           0        1.361517   -1.033571    0.083390
      8          6           0        0.114834   -0.518213    0.734371
      9          6           0       -0.675694   -1.703224    1.346121
     10          6           0       -2.077048   -1.297937    1.705512
     11          6           0       -2.352077   -0.611714    2.881725
     12          6           0       -3.639744   -0.198355    3.173365
     13          6           0       -4.675317   -0.473530    2.297570
     14          6           0       -4.416425   -1.175700    1.133203
     15          6           0       -3.126775   -1.583646    0.841307
     16          6           0        0.532002    0.517970    1.806191
     17          6           0        1.739014    1.297703    1.362763
     18          6           0        3.007121    0.928225    1.793224
     19          6           0        4.129781    1.599066    1.340965
     20          6           0        3.996082    2.653500    0.454886
     21          6           0        2.734450    3.037539    0.032629
     22          6           0        1.613179    2.365637    0.484202
     23          6           0       -0.750085    0.112582   -0.313852
     24          7           0       -1.266294    1.261259   -0.244390
     25          6           0       -2.091214    1.463991   -1.416763
     26          6           0       -3.551728    1.727096   -1.018305
     27          6           0       -4.389491    2.072875   -2.246113
     28          6           0       -3.617434    2.852183    0.010145
     29          6           0       -1.887273    0.151528   -2.221303
     30          8           0       -1.047580   -0.643679   -1.392326
     31          7           0        1.805558   -0.656662   -1.033051
     32          1           0        3.287418   -0.439837   -3.889810
     33          1           0        2.446533   -1.799109   -4.646467
     34          1           0        1.606208   -0.768855   -3.472861
     35          1           0        2.264025   -2.934159   -2.462434
     36          1           0        4.695345   -3.414382   -2.094420
     37          1           0        4.312446   -3.335408   -3.814315
     38          1           0        5.113182   -1.975788   -3.025291
     39          1           0        3.841625   -0.571049   -1.361551
     40          1           0        4.138219   -1.940840    0.563921
     41          1           0        3.260791   -3.277896   -0.231426
     42          1           0       -0.134039   -2.067335    2.220696
     43          1           0       -0.708569   -2.503320    0.603572
     44          1           0       -1.555278   -0.402626    3.579713
     45          1           0       -3.835950    0.339899    4.089219
     46          1           0       -5.680010   -0.148161    2.523662
     47          1           0       -5.222426   -1.407944    0.451144
     48          1           0       -2.929154   -2.129274   -0.070684
     49          1           0        0.770263   -0.015132    2.728129
     50          1           0       -0.312438    1.186199    1.972039
     51          1           0        3.118001    0.102861    2.483521
     52          1           0        5.111032    1.297356    1.680135
     53          1           0        4.872231    3.175122    0.097321
     54          1           0        2.625631    3.864164   -0.654513
     55          1           0        0.627314    2.653007    0.153688
     56          1           0       -1.710032    2.335473   -1.960537
     57          1           0       -3.941926    0.814144   -0.554855
     58          1           0       -4.353615    1.278753   -2.988314
     59          1           0       -5.426787    2.226191   -1.957980
     60          1           0       -4.023090    2.987934   -2.706807
     61          1           0       -4.644293    3.009291    0.331564
     62          1           0       -3.239232    3.778018   -0.417017
     63          1           0       -3.011014    2.596560    0.873878
     64          1           0       -2.823184   -0.389612   -2.385582
     65          1           0       -1.384597    0.311863   -3.178304
 ---------------------------------------------------------------------
 Rotational constants (GHZ):           0.2208192           0.1079146           0.1050464
 Leave Link  202 at Sun Feb 25 15:39:10 2024, MaxMem=  7516192768 cpu:               2.6 elap:               0.1
 (Enter /public/apps/g16-C01//g16/l301.exe)
 Standard basis: def2SVPP (5D, 7F)
 Ernie: Thresh=  0.10000D-02 Tol=  0.10000D-05 Strict=F.
   502 basis functions,   911 primitive gaussians,   533 cartesian basis functions
   113 alpha electrons      113 beta electrons
       nuclear repulsion energy      3314.3755988358 Hartrees.
 IExCor=  402 DFT=T Ex+Corr=B3LYP ExCW=0 ScaHFX=  0.200000
 ScaDFX=  0.800000  0.720000  1.000000  0.810000 ScalE2=  1.000000  1.000000
 IRadAn=      5 IRanWt=     -1 IRanGd=            0 ICorTp=0 IEmpDi=141
 NAtoms=   65 NActive=   65 NUniq=   65 SFac= 1.00D+00 NAtFMM=   60 NAOKFM=T Big=T
 Integral buffers will be    131072 words long.
 Raffenetti 2 integral format.
 Two-electron integral symmetry is turned off.
 R6Disp:  Grimme-D3(BJ) Dispersion energy=       -0.1539888839 Hartrees.
 Nuclear repulsion after empirical dispersion term =     3314.2216099520 Hartrees.
 Leave Link  301 at Sun Feb 25 15:39:10 2024, MaxMem=  7516192768 cpu:               1.8 elap:               0.1
 (Enter /public/apps/g16-C01//g16/l302.exe)
 NPDir=0 NMtPBC=     1 NCelOv=     1 NCel=       1 NClECP=     1 NCelD=      1
         NCelK=      1 NCelE2=     1 NClLst=     1 CellRange=     0.0.
 One-electron integrals computed using PRISM.
   1 Symmetry operations used in ECPInt.
 ECPInt:  NShTT=   32385 NPrTT=  129791 LenC2=   29449 LenP2D=   77026.
 LDataN:  DoStor=T MaxTD1= 4 Len=   56
 NBasis=   502 RedAO= T EigKep=  2.50D-04  NBF=   502
 NBsUse=   502 1.00D-06 EigRej= -1.00D+00 NBFU=   502
 Precomputing XC quadrature grid using
 IXCGrd= 4 IRadAn=           5 IRanWt=          -1 IRanGd=           0 AccXCQ= 0.00D+00.
 Generated NRdTot=       0 NPtTot=           0 NUsed=           0 NTot=          32
 NSgBfM=   528   527   528   528   528 MxSgAt=    65 MxSgA2=    65.
 Leave Link  302 at Sun Feb 25 15:39:11 2024, MaxMem=  7516192768 cpu:              25.7 elap:               0.7
 (Enter /public/apps/g16-C01//g16/l303.exe)
 DipDrv:  MaxL=1.
 Leave Link  303 at Sun Feb 25 15:39:11 2024, MaxMem=  7516192768 cpu:               5.1 elap:               0.2
 (Enter /public/apps/g16-C01//g16/l401.exe)
 ExpMin= 1.22D-01 ExpMax= 2.27D+03 ExpMxC= 3.41D+02 IAcc=3 IRadAn=         5 AccDes= 0.00D+00
 Harris functional with IExCor=  402 and IRadAn=       5 diagonalized for initial guess.
 HarFok:  IExCor=  402 AccDes= 0.00D+00 IRadAn=         5 IDoV= 1 UseB2=F ITyADJ=14
 ICtDFT=  3500011 ScaDFX=  1.000000  1.000000  1.000000  1.000000
 FoFCou: FMM=F IPFlag=           0 FMFlag=      100000 FMFlg1=        2001
         NFxFlg=           0 DoJE=T BraDBF=F KetDBF=T FulRan=T
         wScrn=  0.000000 ICntrl=       500 IOpCl=  0 I1Cent=   200000004 NGrid=           0
         NMat0=    1 NMatS0=      1 NMatT0=    0 NMatD0=    1 NMtDS0=    0 NMtDT0=    0
 Symmetry not used in FoFCou.
 Harris En= -1308.40657792016    
 JPrj=0 DoOrth=F DoCkMO=F.
 Leave Link  401 at Sun Feb 25 15:39:13 2024, MaxMem=  7516192768 cpu:              50.1 elap:               1.4
 (Enter /public/apps/g16-C01//g16/l502.exe)
 Two-electron integral symmetry not used.
 Closed shell SCF:
 Using DIIS extrapolation, IDIIS=  1040.
 NGot=  7516192768 LenX=  7515596929 LenY=  7515312307
 Requested convergence on RMS density matrix=1.00D-08 within 128 cycles.
 Requested convergence on MAX density matrix=1.00D-06.
 Requested convergence on             energy=1.00D-06.
 No special actions if energy rises.
 Fock matrices will be formed incrementally for  20 cycles.
 Integral accuracy reduced to 1.0D-05 until final iterations.

 Cycle   1  Pass 0  IDiag  1:
 FoFJK:  IHMeth= 1 ICntrl=       0 DoSepK=F KAlg= 0 I1Cent=           0 FoldK=F
 IRaf= 990000000 NMat=       1 IRICut=       1 DoRegI=T DoRafI=F ISym2E= 0 IDoP0=0 IntGTp=1.
 FoFCou: FMM=T IPFlag=           0 FMFlag=      100000 FMFlg1=        2001
         NFxFlg=           0 DoJE=F BraDBF=F KetDBF=F FulRan=T
         wScrn=  0.000000 ICntrl=         0 IOpCl=  0 I1Cent=           0 NGrid=           0
         NMat0=    1 NMatS0=      1 NMatT0=    0 NMatD0=    1 NMtDS0=    0 NMtDT0=    0
 Symmetry not used in FoFCou.
 FMM levels:  10  Number of levels for PrismC:   9
 E= -1307.65170508744    
 DIIS: error= 3.45D-02 at cycle   1 NSaved=   1.
 NSaved= 1 IEnMin= 1 EnMin= -1307.65170508744     IErMin= 1 ErrMin= 3.45D-02
 ErrMax= 3.45D-02  0.00D+00 EMaxC= 1.00D-01 BMatC= 6.76D-01 BMatP= 6.76D-01
 IDIUse=3 WtCom= 6.55D-01 WtEn= 3.45D-01
 Coeff-Com:  0.100D+01
 Coeff-En:   0.100D+01
 Coeff:      0.100D+01
 Gap=     0.260 Goal=   None    Shift=    0.000
 GapD=    0.260 DampG=1.000 DampE=0.500 DampFc=0.5000 IDamp=-1.
 Damping current iteration by 5.00D-01
 RMSDP=5.48D-03 MaxDP=4.50D-01              OVMax= 2.27D-01

 Cycle   2  Pass 0  IDiag  1:
 RMSU=  2.64D-03    CP:  9.58D-01
 E= -1307.96459909501     Delta-E=       -0.312894007565 Rises=F Damp=T
 DIIS: error= 4.60D-03 at cycle   2 NSaved=   2.
 NSaved= 2 IEnMin= 2 EnMin= -1307.96459909501     IErMin= 2 ErrMin= 4.60D-03
 ErrMax= 4.60D-03  0.00D+00 EMaxC= 1.00D-01 BMatC= 5.10D-02 BMatP= 6.76D-01
 IDIUse=3 WtCom= 9.54D-01 WtEn= 4.60D-02
 Coeff-Com:  0.105D+00 0.895D+00
 Coeff-En:   0.164D+00 0.836D+00
 Coeff:      0.108D+00 0.892D+00
 Gap=     0.272 Goal=   None    Shift=    0.000
 RMSDP=1.88D-03 MaxDP=1.95D-01 DE=-3.13D-01 OVMax= 1.76D-01

 Cycle   3  Pass 0  IDiag  1:
 RMSU=  1.75D-03    CP:  9.32D-01  8.01D-01
 E= -1308.33941394475     Delta-E=       -0.374814849747 Rises=F Damp=F
 DIIS: error= 8.48D-03 at cycle   3 NSaved=   3.
 NSaved= 3 IEnMin= 3 EnMin= -1308.33941394475     IErMin= 2 ErrMin= 4.60D-03
 ErrMax= 8.48D-03  0.00D+00 EMaxC= 1.00D-01 BMatC= 7.73D-02 BMatP= 5.10D-02
 IDIUse=3 WtCom= 9.80D-02 WtEn= 9.02D-01
 Coeff-Com:  0.170D-01 0.555D+00 0.428D+00
 Coeff-En:   0.000D+00 0.000D+00 0.100D+01
 Coeff:      0.166D-02 0.544D-01 0.944D+00
 Gap=     0.226 Goal=   None    Shift=    0.000
 RMSDP=2.40D-03 MaxDP=2.67D-01 DE=-3.75D-01 OVMax= 2.19D-01

 Cycle   4  Pass 0  IDiag  1:
 RMSU=  1.50D-03    CP:  9.41D-01  1.20D+00  1.14D-01
 E= -1308.07562792465     Delta-E=        0.263786020099 Rises=F Damp=F
 DIIS: error= 2.06D-02 at cycle   4 NSaved=   4.
 NSaved= 4 IEnMin= 3 EnMin= -1308.33941394475     IErMin= 2 ErrMin= 4.60D-03
 ErrMax= 2.06D-02  0.00D+00 EMaxC= 1.00D-01 BMatC= 3.69D-01 BMatP= 5.10D-02
 IDIUse=2 WtCom= 0.00D+00 WtEn= 1.00D+00
 Coeff-En:   0.000D+00 0.000D+00 0.765D+00 0.235D+00
 Coeff:      0.000D+00 0.000D+00 0.765D+00 0.235D+00
 Gap=     0.239 Goal=   None    Shift=    0.000
 RMSDP=1.29D-03 MaxDP=1.73D-01 DE= 2.64D-01 OVMax= 1.22D-01

 Cycle   5  Pass 0  IDiag  1:
 RMSU=  2.46D-04    CP:  9.35D-01  9.76D-01  5.64D-01  4.72D-01
 E= -1308.38910225823     Delta-E=       -0.313474333580 Rises=F Damp=F
 DIIS: error= 5.08D-03 at cycle   5 NSaved=   5.
 NSaved= 5 IEnMin= 5 EnMin= -1308.38910225823     IErMin= 2 ErrMin= 4.60D-03
 ErrMax= 5.08D-03  0.00D+00 EMaxC= 1.00D-01 BMatC= 2.42D-02 BMatP= 5.10D-02
 IDIUse=3 WtCom= 9.49D-01 WtEn= 5.08D-02
 Coeff-Com:  0.112D-02 0.114D-01 0.287D+00-0.697D-01 0.771D+00
 Coeff-En:   0.000D+00 0.000D+00 0.290D+00 0.000D+00 0.710D+00
 Coeff:      0.107D-02 0.108D-01 0.287D+00-0.661D-01 0.767D+00
 Gap=     0.225 Goal=   None    Shift=    0.000
 RMSDP=4.26D-04 MaxDP=4.47D-02 DE=-3.13D-01 OVMax= 3.95D-02

 Cycle   6  Pass 0  IDiag  1:
 RMSU=  5.95D-05    CP:  9.33D-01  9.11D-01  7.24D-01  2.99D-01  8.95D-01
 E= -1308.41101646368     Delta-E=       -0.021914205446 Rises=F Damp=F
 DIIS: error= 5.08D-04 at cycle   6 NSaved=   6.
 NSaved= 6 IEnMin= 6 EnMin= -1308.41101646368     IErMin= 6 ErrMin= 5.08D-04
 ErrMax= 5.08D-04  0.00D+00 EMaxC= 1.00D-01 BMatC= 1.16D-04 BMatP= 2.42D-02
 IDIUse=3 WtCom= 9.95D-01 WtEn= 5.08D-03
 Coeff-Com: -0.667D-03 0.205D-02 0.122D+00-0.580D-01 0.445D+00 0.490D+00
 Coeff-En:   0.000D+00 0.000D+00 0.000D+00 0.000D+00 0.000D+00 0.100D+01
 Coeff:     -0.664D-03 0.204D-02 0.121D+00-0.577D-01 0.443D+00 0.492D+00
 Gap=     0.224 Goal=   None    Shift=    0.000
 RMSDP=3.22D-05 MaxDP=1.47D-03 DE=-2.19D-02 OVMax= 3.11D-03

 Cycle   7  Pass 0  IDiag  1:
 RMSU=  2.16D-05    CP:  9.33D-01  9.13D-01  7.21D-01  2.99D-01  9.16D-01
                    CP:  6.28D-01
 E= -1308.41114950883     Delta-E=       -0.000133045155 Rises=F Damp=F
 DIIS: error= 1.62D-04 at cycle   7 NSaved=   7.
 NSaved= 7 IEnMin= 7 EnMin= -1308.41114950883     IErMin= 7 ErrMin= 1.62D-04
 ErrMax= 1.62D-04  0.00D+00 EMaxC= 1.00D-01 BMatC= 1.03D-05 BMatP= 1.16D-04
 IDIUse=3 WtCom= 9.98D-01 WtEn= 1.62D-03
 Coeff-Com: -0.383D-03 0.615D-03 0.537D-01-0.298D-01 0.211D+00 0.294D+00
 Coeff-Com:  0.471D+00
 Coeff-En:   0.000D+00 0.000D+00 0.000D+00 0.000D+00 0.000D+00 0.000D+00
 Coeff-En:   0.100D+01
 Coeff:     -0.382D-03 0.614D-03 0.536D-01-0.297D-01 0.210D+00 0.294D+00
 Coeff:      0.472D+00
 Gap=     0.224 Goal=   None    Shift=    0.000
 RMSDP=1.15D-05 MaxDP=6.33D-04 DE=-1.33D-04 OVMax= 9.51D-04

 Cycle   8  Pass 0  IDiag  1:
 RMSU=  7.96D-06    CP:  9.33D-01  9.12D-01  7.21D-01  3.00D-01  9.09D-01
                    CP:  6.48D-01  6.46D-01
 E= -1308.41116778488     Delta-E=       -0.000018276043 Rises=F Damp=F
 DIIS: error= 3.38D-05 at cycle   8 NSaved=   8.
 NSaved= 8 IEnMin= 8 EnMin= -1308.41116778488     IErMin= 8 ErrMin= 3.38D-05
 ErrMax= 3.38D-05  0.00D+00 EMaxC= 1.00D-01 BMatC= 8.78D-07 BMatP= 1.03D-05
 IDIUse=1 WtCom= 1.00D+00 WtEn= 0.00D+00
 Coeff-Com: -0.661D-06-0.260D-03 0.858D-02-0.564D-02 0.349D-01 0.714D-01
 Coeff-Com:  0.241D+00 0.650D+00
 Coeff:     -0.661D-06-0.260D-03 0.858D-02-0.564D-02 0.349D-01 0.714D-01
 Coeff:      0.241D+00 0.650D+00
 Gap=     0.224 Goal=   None    Shift=    0.000
 RMSDP=4.55D-06 MaxDP=1.55D-04 DE=-1.83D-05 OVMax= 1.98D-04

 Initial convergence to 1.0D-05 achieved.  Increase integral accuracy.
 Cycle   9  Pass 1  IDiag  1:
 E= -1308.41097889919     Delta-E=        0.000188885683 Rises=F Damp=F
 DIIS: error= 3.90D-04 at cycle   1 NSaved=   1.
 NSaved= 1 IEnMin= 1 EnMin= -1308.41097889919     IErMin= 1 ErrMin= 3.90D-04
 ErrMax= 3.90D-04  0.00D+00 EMaxC= 1.00D-01 BMatC= 4.01D-05 BMatP= 4.01D-05
 IDIUse=3 WtCom= 9.96D-01 WtEn= 3.90D-03
 Coeff-Com:  0.100D+01
 Coeff-En:   0.100D+01
 Coeff:      0.100D+01
 Gap=     0.224 Goal=   None    Shift=    0.000
 RMSDP=4.55D-06 MaxDP=1.55D-04 DE= 1.89D-04 OVMax= 1.32D-03

 Cycle  10  Pass 1  IDiag  1:
 RMSU=  3.71D-04    CP:  9.99D-01
 E= -1308.41102483262     Delta-E=       -0.000045933430 Rises=F Damp=F
 DIIS: error= 1.54D-05 at cycle   2 NSaved=   2.
 NSaved= 2 IEnMin= 2 EnMin= -1308.41102483262     IErMin= 2 ErrMin= 1.54D-05
 ErrMax= 1.54D-05  0.00D+00 EMaxC= 1.00D-01 BMatC= 2.19D-07 BMatP= 4.01D-05
 IDIUse=1 WtCom= 1.00D+00 WtEn= 0.00D+00
 Coeff-Com: -0.272D-02 0.100D+01
 Coeff:     -0.272D-02 0.100D+01
 Gap=     0.224 Goal=   None    Shift=    0.000
 RMSDP=6.51D-06 MaxDP=1.74D-04 DE=-4.59D-05 OVMax= 3.39D-04

 Cycle  11  Pass 1  IDiag  1:
 RMSU=  3.97D-06    CP:  9.99D-01  1.01D+00
 E= -1308.41102414809     Delta-E=        0.000000684533 Rises=F Damp=F
 DIIS: error= 3.42D-05 at cycle   3 NSaved=   3.
 NSaved= 3 IEnMin= 2 EnMin= -1308.41102483262     IErMin= 2 ErrMin= 1.54D-05
 ErrMax= 3.42D-05  0.00D+00 EMaxC= 1.00D-01 BMatC= 9.61D-07 BMatP= 2.19D-07
 IDIUse=1 WtCom= 1.00D+00 WtEn= 0.00D+00
 Coeff-Com: -0.720D-02 0.685D+00 0.322D+00
 Coeff:     -0.720D-02 0.685D+00 0.322D+00
 Gap=     0.224 Goal=   None    Shift=    0.000
 RMSDP=2.52D-06 MaxDP=1.31D-04 DE= 6.85D-07 OVMax= 2.50D-04

 Cycle  12  Pass 1  IDiag  1:
 RMSU=  1.09D-06    CP:  9.99D-01  1.01D+00  4.28D-01
 E= -1308.41102504333     Delta-E=       -0.000000895244 Rises=F Damp=F
 DIIS: error= 2.26D-06 at cycle   4 NSaved=   4.
 NSaved= 4 IEnMin= 4 EnMin= -1308.41102504333     IErMin= 4 ErrMin= 2.26D-06
 ErrMax= 2.26D-06  0.00D+00 EMaxC= 1.00D-01 BMatC= 6.33D-09 BMatP= 2.19D-07
 IDIUse=1 WtCom= 1.00D+00 WtEn= 0.00D+00
 Coeff-Com: -0.396D-02 0.361D+00 0.178D+00 0.464D+00
 Coeff:     -0.396D-02 0.361D+00 0.178D+00 0.464D+00
 Gap=     0.224 Goal=   None    Shift=    0.000
 RMSDP=2.51D-07 MaxDP=1.19D-05 DE=-8.95D-07 OVMax= 2.05D-05

 Cycle  13  Pass 1  IDiag  1:
 RMSU=  2.38D-07    CP:  9.99D-01  1.01D+00  4.35D-01  9.36D-01
 E= -1308.41102504870     Delta-E=       -0.000000005370 Rises=F Damp=F
 DIIS: error= 5.44D-07 at cycle   5 NSaved=   5.
 NSaved= 5 IEnMin= 5 EnMin= -1308.41102504870     IErMin= 5 ErrMin= 5.44D-07
 ErrMax= 5.44D-07  0.00D+00 EMaxC= 1.00D-01 BMatC= 5.59D-10 BMatP= 6.33D-09
 IDIUse=1 WtCom= 1.00D+00 WtEn= 0.00D+00
 Coeff-Com: -0.123D-02 0.109D+00 0.555D-01 0.256D+00 0.581D+00
 Coeff:     -0.123D-02 0.109D+00 0.555D-01 0.256D+00 0.581D+00
 Gap=     0.224 Goal=   None    Shift=    0.000
 RMSDP=9.29D-08 MaxDP=6.68D-06 DE=-5.37D-09 OVMax= 5.81D-06

 Cycle  14  Pass 1  IDiag  1:
 RMSU=  8.15D-08    CP:  9.99D-01  1.01D+00  4.37D-01  9.49D-01  8.35D-01
 E= -1308.41102504913     Delta-E=       -0.000000000422 Rises=F Damp=F
 DIIS: error= 2.32D-07 at cycle   6 NSaved=   6.
 NSaved= 6 IEnMin= 6 EnMin= -1308.41102504913     IErMin= 6 ErrMin= 2.32D-07
 ErrMax= 2.32D-07  0.00D+00 EMaxC= 1.00D-01 BMatC= 7.83D-11 BMatP= 5.59D-10
 IDIUse=1 WtCom= 1.00D+00 WtEn= 0.00D+00
 Coeff-Com: -0.137D-03 0.108D-01 0.614D-02 0.804D-01 0.330D+00 0.573D+00
 Coeff:     -0.137D-03 0.108D-01 0.614D-02 0.804D-01 0.330D+00 0.573D+00
 Gap=     0.224 Goal=   None    Shift=    0.000
 RMSDP=3.13D-08 MaxDP=2.06D-06 DE=-4.22D-10 OVMax= 2.81D-06

 Cycle  15  Pass 1  IDiag  1:
 RMSU=  1.76D-08    CP:  9.99D-01  1.01D+00  4.37D-01  9.58D-01  8.52D-01
                    CP:  7.13D-01
 E= -1308.41102504918     Delta-E=       -0.000000000057 Rises=F Damp=F
 DIIS: error= 1.32D-07 at cycle   7 NSaved=   7.
 NSaved= 7 IEnMin= 7 EnMin= -1308.41102504918     IErMin= 7 ErrMin= 1.32D-07
 ErrMax= 1.32D-07  0.00D+00 EMaxC= 1.00D-01 BMatC= 9.12D-12 BMatP= 7.83D-11
 IDIUse=1 WtCom= 1.00D+00 WtEn= 0.00D+00
 Coeff-Com:  0.117D-04-0.186D-02-0.545D-03 0.293D-01 0.156D+00 0.345D+00
 Coeff-Com:  0.473D+00
 Coeff:      0.117D-04-0.186D-02-0.545D-03 0.293D-01 0.156D+00 0.345D+00
 Coeff:      0.473D+00
 Gap=     0.224 Goal=   None    Shift=    0.000
 RMSDP=9.27D-09 MaxDP=5.04D-07 DE=-5.73D-11 OVMax= 1.01D-06

 SCF Done:  E(RB3LYP) =  -1308.41102505     A.U. after   15 cycles
            NFock= 15  Conv=0.93D-08     -V/T= 2.0094
 KE= 1.296267016126D+03 PE=-9.663935238722D+03 EE= 3.745035587594D+03
 Leave Link  502 at Sun Feb 25 15:39:50 2024, MaxMem=  7516192768 cpu:            1449.4 elap:              36.8
 (Enter /public/apps/g16-C01//g16/l601.exe)
 Copying SCF densities to generalized density rwf, IOpCl= 0 IROHF=0.

 **********************************************************************

            Population analysis using the SCF Density.

 **********************************************************************

 Alpha  occ. eigenvalues --  -19.16745 -19.16459 -14.29672 -14.29294 -10.26927
 Alpha  occ. eigenvalues --  -10.26632 -10.23268 -10.23169 -10.22014 -10.20858
 Alpha  occ. eigenvalues --  -10.20705 -10.19211 -10.18954 -10.18478 -10.18426
 Alpha  occ. eigenvalues --  -10.18317 -10.18223 -10.18199 -10.18135 -10.18102
 Alpha  occ. eigenvalues --  -10.18054 -10.17895 -10.17534 -10.17353 -10.17257
 Alpha  occ. eigenvalues --  -10.17211 -10.16805 -10.16692 -10.16466 -10.15455
 Alpha  occ. eigenvalues --  -10.15301  -1.08837  -1.08430  -0.90356  -0.89976
 Alpha  occ. eigenvalues --   -0.86413  -0.85095  -0.83440  -0.80012  -0.79260
 Alpha  occ. eigenvalues --   -0.76689  -0.74953  -0.74282  -0.73732  -0.73114
 Alpha  occ. eigenvalues --   -0.71376  -0.67874  -0.67755  -0.67532  -0.64714
 Alpha  occ. eigenvalues --   -0.63537  -0.63149  -0.60689  -0.59695  -0.58755
 Alpha  occ. eigenvalues --   -0.58199  -0.57384  -0.56516  -0.56294  -0.53416
 Alpha  occ. eigenvalues --   -0.52037  -0.51728  -0.51036  -0.49657  -0.49292
 Alpha  occ. eigenvalues --   -0.48177  -0.47081  -0.46826  -0.46624  -0.45871
 Alpha  occ. eigenvalues --   -0.45595  -0.45326  -0.44059  -0.43402  -0.43173
 Alpha  occ. eigenvalues --   -0.42840  -0.42676  -0.42308  -0.41870  -0.41642
 Alpha  occ. eigenvalues --   -0.41433  -0.40387  -0.39903  -0.38923  -0.38607
 Alpha  occ. eigenvalues --   -0.38419  -0.38292  -0.38182  -0.37325  -0.37195
 Alpha  occ. eigenvalues --   -0.36572  -0.36523  -0.35813  -0.35108  -0.34883
 Alpha  occ. eigenvalues --   -0.34648  -0.34190  -0.33796  -0.33623  -0.33416
 Alpha  occ. eigenvalues --   -0.33301  -0.33147  -0.32492  -0.32227  -0.32195
 Alpha  occ. eigenvalues --   -0.26805  -0.26714  -0.25694  -0.25321  -0.25087
 Alpha  occ. eigenvalues --   -0.24475  -0.24154  -0.23524
 Alpha virt. eigenvalues --   -0.01104  -0.00836   0.00144   0.00282   0.02181
 Alpha virt. eigenvalues --    0.02460   0.04967   0.05593   0.06458   0.06652
 Alpha virt. eigenvalues --    0.07399   0.07829   0.08166   0.08527   0.09213
 Alpha virt. eigenvalues --    0.09534   0.10027   0.10345   0.10919   0.11510
 Alpha virt. eigenvalues --    0.12088   0.12839   0.12884   0.13131   0.13401
 Alpha virt. eigenvalues --    0.13725   0.13762   0.14142   0.14519   0.14940
 Alpha virt. eigenvalues --    0.15324   0.15685   0.15842   0.16501   0.16650
 Alpha virt. eigenvalues --    0.16856   0.16895   0.17251   0.17524   0.18415
 Alpha virt. eigenvalues --    0.19116   0.19459   0.19680   0.20578   0.20939
 Alpha virt. eigenvalues --    0.21863   0.22992   0.23560   0.23724   0.24169
 Alpha virt. eigenvalues --    0.24423   0.24528   0.24984   0.25215   0.25707
 Alpha virt. eigenvalues --    0.26607   0.26719   0.27830   0.28539   0.29511
 Alpha virt. eigenvalues --    0.30223   0.30574   0.30844   0.31912   0.32494
 Alpha virt. eigenvalues --    0.33529   0.33977   0.34871   0.35299   0.35775
 Alpha virt. eigenvalues --    0.37176   0.37782   0.38266   0.39574   0.40021
 Alpha virt. eigenvalues --    0.40950   0.41416   0.41999   0.42412   0.42734
 Alpha virt. eigenvalues --    0.43045   0.43187   0.43531   0.44287   0.44963
 Alpha virt. eigenvalues --    0.45286   0.45958   0.46424   0.46792   0.47789
 Alpha virt. eigenvalues --    0.48506   0.48764   0.49480   0.50038   0.50812
 Alpha virt. eigenvalues --    0.50918   0.51389   0.51864   0.52279   0.52646
 Alpha virt. eigenvalues --    0.53311   0.53949   0.54560   0.54861   0.55426
 Alpha virt. eigenvalues --    0.55702   0.55963   0.56754   0.56903   0.57374
 Alpha virt. eigenvalues --    0.57868   0.59107   0.59513   0.59625   0.60814
 Alpha virt. eigenvalues --    0.61066   0.61466   0.62453   0.62814   0.62967
 Alpha virt. eigenvalues --    0.64057   0.64161   0.64561   0.64721   0.65165
 Alpha virt. eigenvalues --    0.65553   0.66117   0.66840   0.66979   0.67777
 Alpha virt. eigenvalues --    0.67835   0.68199   0.68435   0.68643   0.68832
 Alpha virt. eigenvalues --    0.69140   0.69322   0.69671   0.69784   0.70199
 Alpha virt. eigenvalues --    0.70461   0.70598   0.70905   0.71099   0.71477
 Alpha virt. eigenvalues --    0.71811   0.71916   0.72192   0.72290   0.72538
 Alpha virt. eigenvalues --    0.72923   0.73103   0.73178   0.73492   0.73811
 Alpha virt. eigenvalues --    0.74043   0.74162   0.74641   0.74723   0.75047
 Alpha virt. eigenvalues --    0.75628   0.75687   0.75932   0.76055   0.76682
 Alpha virt. eigenvalues --    0.77276   0.77423   0.78320   0.78788   0.78965
 Alpha virt. eigenvalues --    0.79498   0.80013   0.80593   0.81153   0.82061
 Alpha virt. eigenvalues --    0.82429   0.82746   0.84505   0.84796   0.85227
 Alpha virt. eigenvalues --    0.86000   0.86774   0.88154   0.88407   0.89789
 Alpha virt. eigenvalues --    0.90602   0.91854   0.92385   0.92455   0.94101
 Alpha virt. eigenvalues --    0.94932   0.95142   0.96595   0.96889   0.98212
 Alpha virt. eigenvalues --    0.98889   0.99659   1.01156   1.03639   1.05493
 Alpha virt. eigenvalues --    1.07126   1.08001   1.09214   1.09906   1.10264
 Alpha virt. eigenvalues --    1.11519   1.12621   1.13336   1.14176   1.14983
 Alpha virt. eigenvalues --    1.15285   1.15475   1.17071   1.18070   1.19746
 Alpha virt. eigenvalues --    1.22225   1.23867   1.24175   1.26742   1.27968
 Alpha virt. eigenvalues --    1.28721   1.29700   1.32166   1.32632   1.33321
 Alpha virt. eigenvalues --    1.35842   1.36287   1.38487   1.39721   1.43069
 Alpha virt. eigenvalues --    1.43629   1.44305   1.44735   1.46365   1.46952
 Alpha virt. eigenvalues --    1.48877   1.49391   1.50314   1.50868   1.51269
 Alpha virt. eigenvalues --    1.51680   1.52150   1.53910   1.54241   1.54893
 Alpha virt. eigenvalues --    1.59102   1.59916   1.60766   1.62382   1.63935
 Alpha virt. eigenvalues --    1.64941   1.66560   1.68697   1.70170   1.73509
 Alpha virt. eigenvalues --    1.74363   1.76437   1.76878   1.78074   1.78487
 Alpha virt. eigenvalues --    1.79034   1.79343   1.80352   1.81039   1.81289
 Alpha virt. eigenvalues --    1.82411   1.83137   1.83366   1.83630   1.84258
 Alpha virt. eigenvalues --    1.85336   1.86309   1.87463   1.87474   1.89009
 Alpha virt. eigenvalues --    1.89873   1.90791   1.91729   1.92671   1.93254
 Alpha virt. eigenvalues --    1.93646   1.94480   1.95169   1.95466   1.95935
 Alpha virt. eigenvalues --    1.97079   1.97434   1.97844   1.99857   2.00364
 Alpha virt. eigenvalues --    2.01323   2.01888   2.03863   2.04712   2.05669
 Alpha virt. eigenvalues --    2.06007   2.06517   2.06788   2.08050   2.08442
 Alpha virt. eigenvalues --    2.08638   2.10052   2.10853   2.11559   2.11762
 Alpha virt. eigenvalues --    2.13798   2.14403   2.14906   2.15368   2.16446
 Alpha virt. eigenvalues --    2.16820   2.17350   2.17579   2.18544   2.18712
 Alpha virt. eigenvalues --    2.20272   2.21779   2.22305   2.24574   2.25600
 Alpha virt. eigenvalues --    2.26669   2.27186   2.29382   2.30393   2.31800
 Alpha virt. eigenvalues --    2.32052   2.33307   2.33724   2.33994   2.35975
 Alpha virt. eigenvalues --    2.36901   2.37995   2.39919   2.41567   2.42908
 Alpha virt. eigenvalues --    2.42949   2.45654   2.46073   2.47602   2.48067
 Alpha virt. eigenvalues --    2.48899   2.49319   2.50588   2.51825   2.54130
 Alpha virt. eigenvalues --    2.54856   2.58874   2.59495   2.60408   2.62313
 Alpha virt. eigenvalues --    2.65383   2.67441   2.68105   2.69677   2.70436
 Alpha virt. eigenvalues --    2.71233   2.72922   2.73027   2.73279   2.74148
 Alpha virt. eigenvalues --    2.74204   2.74683   2.75958   2.76440   2.77377
 Alpha virt. eigenvalues --    2.78641   2.79368   2.83287   2.85955   2.88373
 Alpha virt. eigenvalues --    2.90447   2.92289   2.95395   2.98946   2.99785
 Alpha virt. eigenvalues --    3.00165   3.01534   3.03748   3.04785   3.16583
 Alpha virt. eigenvalues --    3.17671   3.28545   3.29968   3.38592   3.41285
 Alpha virt. eigenvalues --    3.42271   3.42940   3.58997   3.66302
          Condensed to atoms (all electrons):
 Mulliken charges:
               1
     1  C   -0.205718
     2  C   -0.104186
     3  C   -0.210303
     4  C   -0.073218
     5  C    0.110894
     6  O   -0.318297
     7  C    0.104202
     8  C   -0.172484
     9  C    0.010189
    10  C    0.078717
    11  C   -0.104498
    12  C   -0.037312
    13  C   -0.048928
    14  C   -0.025222
    15  C   -0.132752
    16  C    0.027334
    17  C    0.045305
    18  C   -0.121069
    19  C   -0.052546
    20  C   -0.045271
    21  C   -0.034350
    22  C   -0.086183
    23  C    0.114899
    24  N   -0.156691
    25  C   -0.061698
    26  C   -0.138451
    27  C   -0.207764
    28  C   -0.201700
    29  C    0.106648
    30  O   -0.307687
    31  N   -0.134133
    32  H    0.072906
    33  H    0.078343
    34  H    0.112798
    35  H    0.043538
    36  H    0.082449
    37  H    0.090338
    38  H    0.081387
    39  H    0.067604
    40  H    0.084131
    41  H    0.082829
    42  H    0.085369
    43  H    0.076551
    44  H    0.038955
    45  H    0.045492
    46  H    0.046037
    47  H    0.044915
    48  H    0.044249
    49  H    0.065031
    50  H    0.112428
    51  H    0.035965
    52  H    0.037798
    53  H    0.040791
    54  H    0.038798
    55  H    0.056185
    56  H    0.059355
    57  H    0.073616
    58  H    0.080546
    59  H    0.088773
    60  H    0.079938
    61  H    0.077317
    62  H    0.070267
    63  H    0.114197
    64  H    0.081524
    65  H    0.091851
 Sum of Mulliken charges =  -0.00000
 Mulliken charges with hydrogens summed into heavy atoms:
               1
     1  C    0.058330
     2  C   -0.060647
     3  C    0.043871
     4  C   -0.005614
     5  C    0.277854
     6  O   -0.318297
     7  C    0.104202
     8  C   -0.172484
     9  C    0.172109
    10  C    0.078717
    11  C   -0.065543
    12  C    0.008180
    13  C   -0.002891
    14  C    0.019693
    15  C   -0.088503
    16  C    0.204794
    17  C    0.045305
    18  C   -0.085104
    19  C   -0.014748
    20  C   -0.004480
    21  C    0.004447
    22  C   -0.029998
    23  C    0.114899
    24  N   -0.156691
    25  C   -0.002343
    26  C   -0.064835
    27  C    0.041494
    28  C    0.060082
    29  C    0.280023
    30  O   -0.307687
    31  N   -0.134133
 Electronic spatial extent (au):  <R**2>=          12284.6918
 Charge=             -0.0000 electrons
 Dipole moment (field-independent basis, Debye):
    X=             -0.2454    Y=             -1.2178    Z=             -0.7887  Tot=              1.4715
 Quadrupole moment (field-independent basis, Debye-Ang):
   XX=           -172.5211   YY=           -188.1609   ZZ=           -183.1513
   XY=             -4.7272   XZ=              1.5307   YZ=             -1.1829
 Traceless Quadrupole moment (field-independent basis, Debye-Ang):
   XX=              8.7566   YY=             -6.8831   ZZ=             -1.8735
   XY=             -4.7272   XZ=              1.5307   YZ=             -1.1829
 Octapole moment (field-independent basis, Debye-Ang**2):
  XXX=             14.9293  YYY=            -19.6033  ZZZ=             19.3604  XYY=             19.9484
  XXY=            -10.4021  XXZ=             -0.5174  XZZ=            -10.9670  YZZ=             -0.9728
  YYZ=            -24.2580  XYZ=            -13.4191
 Hexadecapole moment (field-independent basis, Debye-Ang**3):
 XXXX=          -9389.1775 YYYY=          -3450.7188 ZZZZ=          -3748.8556 XXXY=            476.4646
 XXXZ=            652.9221 YYYX=            461.0261 YYYZ=           -211.6677 ZZZX=            648.1577
 ZZZY=           -161.0895 XXYY=          -2230.4281 XXZZ=          -2271.7052 YYZZ=          -1244.7562
 XXYZ=            -34.3337 YYXZ=            212.9191 ZZXY=            103.3908
 N-N= 3.314221609952D+03 E-N=-9.663935204687D+03  KE= 1.296267016126D+03
 No NMR shielding tensors so no spin-rotation constants.
 Leave Link  601 at Sun Feb 25 15:39:51 2024, MaxMem=  7516192768 cpu:              12.9 elap:               0.4
 (Enter /public/apps/g16-C01//g16/l701.exe)
 ... and contract with generalized density number  0.
 Compute integral first derivatives.
 R6Disp: Adding Grimme-D3(BJ) dispersion energy 1st derivatives to the gradient.
   1 Symmetry operations used in ECPInt.
 ECPInt:  NShTT=   32385 NPrTT=  129791 LenC2=   29449 LenP2D=   77026.
 LDataN:  DoStor=T MaxTD1= 5 Len=  102
 Leave Link  701 at Sun Feb 25 15:39:52 2024, MaxMem=  7516192768 cpu:              15.7 elap:               0.5
 (Enter /public/apps/g16-C01//g16/l702.exe)
 L702 exits ... SP integral derivatives will be done elsewhere.
[...]
 06,-0.00005530,-0.00024706,0.00096816,0.00022180,-0.01559439,0.0066074
 8,-0.02127720,0.00084269,-0.00416785,-0.00285292,0.03264872,-0.0605094
 4,0.04938281,-0.00033041,0.00000356,0.00002565,0.00030554,0.00030371,0
 .00033727,-0.00006689,0.00001482,0.00003723,-0.00000245,-0.00000170,-0
 .00000018,-0.00000175,0.00000217,0.00000450,-0.00000044,0.00000082,-0.
 00000741,-0.00000020,-0.00000246,0.00000020,0.00000103,-0.00000081,-0.
 00000086,-0.00000268,0.00000228,0.00000308,-0.00000160,-0.00000156,-0.
 00000023,-0.00001174,0.00000081,0.00000344,-0.00000806,0.00000266,-0.0
 0000062,-0.00000507,0.00000421,0.00000143,-0.00000398,0.00001504,-0.00
 000800,-0.00000828,0.00000228,0.00000843,-0.00001619,0.00000143,-0.000
 00526,0.00000378,-0.00000545,-0.00001721,0.00001464,-0.00000347,-0.000
 00232,0.00002216,0.00000867,0.00000602,-0.00000963,0.00000682,0.000008
 74,-0.00002200,0.00000140,-0.00000439,0.00008144,0.00006928,0.00008537
 ,0.00000880,-0.00000089,0.00000853,-0.00000307,-0.00000073,0.00000316,
 -0.00000057,0.00000014,0.00000382,-0.00001033,-0.00000516,0.00001178,-
 0.00001162,0.00006723,0.00003490,0.00004401,-0.00002928,0.00001161,-0.
 00053212,0.00096269,0.00042989,-0.00080225,0.00023266,-0.00155975,0.00
 007994,-0.00017753,0.00022791,0.00015827,0.00012934,-0.00026980,0.0020
 1071,-0.00206683,0.00406627,0.01536574,-0.00411784,0.01902888,-0.03471
 158,0.06317091,0.00000371,0.00000296,0.00000318,-0.00000459,-0.0000057
 0,-0.00001408,0.00000361,0.00000227,0.00000842,0.00003085,-0.00001512,
 -0.00002639,0.00002096,-0.00000649,-0.00002412,-0.00009899,0.00006200,
 0.00002068,0.00009198,-0.00004572,-0.00006152,0.00000511,-0.00003762,0
 .00013930,-0.00005949,-0.00002447,-0.00000493,-0.00003430,-0.00002716,
 0.00000988,0.00001177,0.00000016,0.00004518,-0.00000621,-0.00002760,0.
 00002808,0.00001497,-0.00004096,0.00000495,-0.00004838,-0.00002432,0.0
 0000624,0.00002336,-0.00001171,-0.00002044,0.00003762,-0.00000873,0.00
 001012,-0.00001051,-0.00000099,-0.00001391,0.00000661,-0.00000022,-0.0
 0000464,-0.00001404,-0.00000131,-0.00000013,-0.00001135,-0.00000497,0.
 00000251,-0.00002469,0.00004302,-0.00003337,0.00008111,-0.00005455,0.0
 0005405,0.00038492,-0.00139877,0.00009864,-0.00132778,0.00109912,0.000
 79247,-0.00145107,0.00070915,-0.00074895,-0.01032144,0.00522235,-0.016
 15095,0.00085801,-0.00444084,-0.00175596,-0.12046828,0.04576509,-0.222
 30581,-0.00038892,0.00023261,-0.00021745,0.00070136,0.00101580,0.00083
 031,-0.00006452,0.00004474,0.00004269,-0.00000051,-0.00000155,-0.00000
 201,-0.00000359,0.00000539,0.00000874,-0.00000145,-0.00000096,-0.00001
 330,0.00000119,0.00000035,0.00000145,0.00000158,-0.00000239,-0.0000015
 5,-0.00000390,0.00000426,0.00000590,-0.00000057,-0.00000121,-0.0000017
 1,-0.00000876,0.00000142,-0.00000120,-0.00000568,-0.00000098,0.0000008
 0,-0.00000526,0.00001037,0.00000321,0.00001715,0.00001769,-0.00001883,
 0.00001086,0.00000023,0.00000053,-0.00000259,0.00000131,0.00001076,0.0
 0000673,0.00000913,-0.00001843,0.00000692,0.00000011,-0.00000346,0.000
 02601,0.00001503,-0.00000411,-0.00002865,-0.00000122,0.00000208,-0.000
 03223,0.00001588,-0.00002131,0.00006500,-0.00006719,0.00014275,-0.0000
 0456,0.00000720,-0.00000420,-0.00000849,0.00000255,-0.00000193,-0.0000
 1384,-0.00000152,-0.00000052,0.00000724,-0.00000442,0.00000169,0.00015
 463,0.00005680,-0.00002554,-0.00002456,-0.00006876,0.00002838,0.000190
 09,-0.00000457,0.00094882,-0.00099881,0.00016697,-0.00093587,-0.000098
 44,0.00005962,0.00021092,0.00020674,-0.00004522,0.00036949,0.00592521,
 -0.00253468,0.01077797,-0.00665078,0.00163324,-0.00933243,0.13327964,-
 0.04741330,0.23706353,0.00004110,-0.00000082,-0.00000479,-0.00002523,-
 0.00002927,-0.00000434,0.00000838,0.00001137,0.00000337,0.00007992,-0.
 00003584,-0.00007001,0.00002692,-0.00001211,-0.00003382,-0.00015685,0.
 00013916,-0.00005860,0.00028143,-0.00020295,0.00020110,0.00005490,-0.0
 0048067,-0.00036944,-0.00010334,-0.00005831,0.00004681,-0.00017840,0.0
 0002366,0.00009908,0.00005620,0.00002578,0.00003175,0.00002592,0.00001
 790,0.00003492,0.00001103,-0.00001573,-0.00003841,-0.00001606,0.000001
 07,0.00006401,0.00020349,-0.00007280,-0.00019992,-0.00005570,0.0002049
 3,-0.00013845,0.00003144,0.00002400,-0.00001621,-0.00001179,-0.0000151
 6,0.00000330,0.00000126,0.00000228,-0.00000004,-0.00000309,-0.00000636
 ,0.00000365,-0.00001047,0.00001608,-0.00001788,0.00001827,-0.00002889,
 0.00000193,-0.00166338,0.00445323,0.00377035,0.00050603,-0.00011359,0.
 00091800,0.00668032,-0.00006641,0.00107099,-0.00068577,0.00137775,-0.0
 0017852,-0.00034532,0.00066340,-0.00011083,0.00025386,0.00024012,-0.00
 006939,-0.25053237,-0.11178260,-0.01892530,-0.01676989,-0.00119685,-0.
 01499092,-0.00018477,0.00007210,-0.00002398,0.00000408,0.00000162,-0.0
 0000175,-0.00002159,0.00001600,0.00002070,0.00000113,-0.00002371,-0.00
 002944,0.00000645,0.00000929,-0.00000634,-0.00000299,-0.00000068,-0.00
 000500,-0.00000786,0.00000556,0.00001135,0.00000232,-0.00000133,-0.000
 00126,-0.00001990,0.00000617,0.00000468,-0.00001161,0.00000479,-0.0000
 0366,-0.00000974,0.00001824,0.00000223,0.00004913,0.00002535,-0.000049
 25,-0.00000979,-0.00004728,0.00000748,-0.00000170,0.00000602,0.0000324
 2,0.00000404,-0.00000454,0.00000492,-0.00000138,0.00000083,0.00000919,
 0.00004678,-0.00000357,-0.00001992,-0.00010453,0.00008273,-0.00009611,
 -0.00004843,-0.00005046,-0.00008197,0.00000915,-0.00001323,0.00003318,
 0.00000291,0.00000370,0.00000199,-0.00000788,0.00000228,-0.00000077,-0
 .00000793,-0.00000255,0.00000180,0.00000200,-0.00000082,0.00000544,0.0
 0001390,0.00004220,0.00001463,0.00016935,0.00054348,-0.00025369,0.0004
 9763,-0.00018029,-0.00023518,-0.00027957,0.00096927,0.00030354,0.00008
 056,-0.00000716,0.00017650,0.00007932,0.00013464,0.00003624,0.00004852
 ,-0.00005130,-0.00006289,-0.00010027,0.00003189,0.00011040,-0.00002443
 ,-0.00000290,0.00004656,0.27293407,0.00000765,-0.00000720,-0.00000375,
 0.00000425,0.00000158,0.00000805,-0.00000027,-0.00000049,-0.00000633,0
 .00000243,0.00000713,0.00001072,0.00000602,0.00000181,-0.00000590,-0.0
 0002641,0.00002127,0.00000106,-0.00010692,0.00010283,-0.00008029,-0.00
 025087,0.00041643,0.00067091,0.00002894,0.00007209,0.00005606,-0.00003
 366,-0.00005221,-0.00003282,-0.00000596,0.00000828,0.00000992,0.000015
 20,0.00000577,0.00000316,0.00002970,-0.00003197,-0.00002185,-0.0000368
 2,-0.00005941,-0.00003920,0.00008217,0.00010403,0.00006137,0.00008606,
 -0.00014404,0.00011852,-0.00002480,-0.00002789,0.00000228,0.00001815,0
 .00000720,-0.00000137,-0.00001438,-0.00000677,-0.00000025,-0.00000584,
 0.00000521,-0.00000210,-0.00001030,0.00001914,-0.00002957,0.00002263,-
 0.00005537,0.00002397,0.00275582,-0.00569101,-0.00242060,-0.00211680,-
 0.00051328,-0.00238261,-0.02014274,-0.00928408,-0.00052094,-0.00165474
 ,0.00117536,0.00055279,0.00009477,-0.00075905,-0.00053654,0.00006104,0
 .00022154,-0.00002861,-0.11786845,-0.11017470,-0.01511877,0.02542268,0
 .01111442,0.01073135,0.00005813,0.00001044,-0.00003075,-0.00000060,-0.
 00000076,-0.00000184,-0.00000066,0.00000464,-0.00000041,-0.00000098,-0
 .00000203,0.00000126,-0.00000103,-0.00000159,0.00000042,-0.00000251,0.
 00000213,-0.00000168,0.00000146,0.00000006,0.00000117,-0.00000092,-0.0
 0000107,0.00000024,0.00000856,-0.00000363,-0.00000177,-0.00000059,-0.0
 0000320,0.00000027,-0.00000034,0.00000181,0.00000211,0.00000259,-0.000
 02925,0.,-0.00000002,-0.00000680,-0.00003433,0.00000077,-0.00000034,0.
 00000218,0.00000220,0.00000013,-0.00000004,0.00000312,-0.00000119,-0.0
 0001036,0.00003724,0.00002819,-0.00000967,-0.00002617,-0.00005338,0.00
 005960,-0.00001891,0.00006617,0.00004215,-0.00003111,0.00002225,0.0000
 4412,-0.00000493,0.00000576,-0.00000262,-0.00000337,0.00000181,-0.0000
 0144,-0.00000769,0.00000126,0.00000145,0.00000609,0.00000367,0.0000021
 7,0.00003380,0.00006685,0.00001345,-0.00001494,-0.00272689,-0.00204077
 ,0.00065102,0.00026901,-0.00057256,0.00093584,-0.00036101,0.00080271,0
 .00002290,0.00032196,0.00021124,-0.00011777,0.00024646,0.00004809,0.00
 004928,0.00000725,-0.00000374,-0.00002991,0.00019012,0.00006566,0.0000
 1142,0.00003966,0.00011970,0.11344950,0.11454650,-0.00004065,0.0000151
 5,0.00002277,0.00001651,0.00001102,-0.00004875,0.00000225,-0.00000848,
 0.00003244,0.00001735,-0.00003059,-0.00004759,0.00000922,0.00000183,-0
 .00001578,-0.00008434,0.00004250,0.00005155,0.00028272,-0.00010065,-0.
 00000126,0.00015509,-0.00063965,-0.00044083,-0.00012264,-0.00005565,0.
 00004163,-0.00024328,0.00007038,0.00007973,0.00004680,0.00003937,0.000
 02456,0.00000716,0.00000974,0.00004920,0.00003290,-0.00001430,-0.00001
 342,0.00005524,0.00000485,0.00007265,0.00007986,-0.00027320,-0.0002020
 6,-0.00006864,0.00024136,-0.00018743,0.00004195,0.00002941,-0.00002156
 ,-0.00000764,-0.00001221,0.00000791,-0.00000430,0.00000067,0.00000150,
 -0.00001588,-0.00000661,0.00000935,-0.00001648,0.00002614,-0.00001385,
 0.00000504,-0.00004632,0.00001518,-0.00236966,0.00213705,-0.00025825,-
 0.00077936,-0.00096545,-0.00203642,-0.01071304,-0.00680531,0.00027816,
 -0.00129689,-0.00043978,0.00122120,0.00028741,0.00022529,0.00032512,-0
 .00007127,0.00022136,-0.00012946,-0.01321562,-0.01025024,-0.05308355,-
 0.02533697,-0.00656287,-0.00819365,-0.00015686,0.00001349,0.00009563,0
 .00000102,-0.00000503,-0.00000031,0.00001437,-0.00001016,0.00000269,0.
 00000574,0.00003055,-0.00002958,-0.00000093,-0.00000851,0.00000881,0.0
 0001127,-0.00000850,0.00000266,-0.00000542,0.00000530,0.00000235,-0.00
 000269,0.00000041,-0.00000307,-0.00002442,0.00000602,-0.00000259,-0.00
 000509,0.00000107,0.00000225,-0.00000497,0.00000649,0.00000219,0.00005
 270,0.00003070,-0.00003733,0.00001382,-0.00001471,0.00001786,0.0000071
 6,0.00000670,0.00004217,0.00000524,-0.00000019,0.00001087,-0.00000607,
 0.00001296,0.00001439,0.00004633,0.00000772,-0.00002142,-0.00009723,0.
 00030270,-0.00001708,-0.00008200,-0.00004106,-0.00010201,-0.00000606,0
 .00000340,0.00005667,0.00000246,0.00000077,-0.00000092,-0.00000537,-0.
 00000007,-0.00000073,-0.00000766,-0.00000245,-0.00000151,-0.00000100,-
 0.00001089,0.00000037,0.00004635,0.00006203,0.00000440,0.00001090,-0.0
 0149111,-0.00062841,0.00007905,0.00017825,-0.00043766,-0.00022294,0.00
 020397,0.00016669,0.00002762,-0.00008102,-0.00001472,-0.00004100,0.000
 12760,-0.00007966,0.00005138,0.00005383,0.00006067,0.00003506,0.000135
 12,0.00001693,-0.00001939,-0.00001038,0.00004860,0.02982662,0.01119254
 ,0.05743878,-0.00013261,0.00004073,0.00002160,0.00003058,0.00001399,-0
 .00001663,-0.00000536,-0.00001138,0.00001965,-0.00004992,-0.00000517,0
 .00005281,0.00000502,0.00000599,0.00000501,-0.00000362,-0.00007495,0.0
 0012445,0.00019472,0.00005635,-0.00033118,-0.00044997,-0.00048281,-0.0
 0009124,-0.00004629,-0.00005170,0.00010576,-0.00014779,-0.00000789,0.0
 0007600,0.00002816,0.00001721,0.00002140,0.00002190,0.00001013,0.00001
 900,0.00002549,-0.00002911,-0.00003096,-0.00001570,-0.00002740,0.00002
 355,0.00013335,-0.00002975,-0.00006665,-0.00013408,0.00009905,-0.00009
 079,0.00001927,-0.00000363,-0.00002136,-0.00000293,-0.00000147,0.00000
 628,-0.00000234,-0.00000002,0.00000611,-0.00001011,-0.00000206,0.00000
 249,0.00000130,0.00000530,-0.00000022,-0.00001028,-0.00000837,0.000001
 19,0.00029834,0.00431312,-0.00005165,-0.00066235,-0.00125877,0.0006485
 6,0.00144993,-0.00141276,-0.00039897,0.00011646,0.00065903,0.00057887,
 0.00030910,0.00009790,0.00012730,-0.00011366,0.00023050,-0.00028175,-0
 .11965683,-0.01277225,0.12152465,0.00987549,0.00472183,-0.02925581,0.0
 0014242,-0.00004316,0.00020172,0.00000860,0.00000075,-0.00000072,0.000
 03003,-0.00002412,-0.00001788,0.00005127,-0.00000537,0.00005115,-0.000
 00162,-0.00000735,0.00000613,0.00000888,-0.00000386,0.00000126,0.00000
 160,-0.00000219,-0.00000452,0.00000011,0.00000187,-0.00000018,-0.00000
 070,0.00000290,-0.00000177,0.00000147,-0.00000421,0.00000771,-0.000001
 00,-0.00000448,0.00000400,0.00002233,-0.00001324,-0.00004040,-0.000002
 41,-0.00005334,-0.00001286,0.00000243,0.00000541,0.00001755,0.00000438
 ,0.00000040,0.00000556,-0.00000254,0.00000571,0.00000368,0.00004666,0.
 00001357,-0.00002222,-0.00008518,0.00007480,-0.00003109,-0.00002661,-0
 .00003311,-0.00004333,-0.00001350,-0.00000164,0.00001013,0.00000084,-0
 .00000265,-0.00000316,-0.00000058,-0.00000124,-0.00000009,0.00000012,-
 0.00000007,-0.00000067,-0.00000266,-0.00000431,-0.00000028,0.00000270,
 0.00001242,-0.00000069,0.00084174,0.00052880,-0.00028290,0.00036376,0.
 00013688,-0.00040798,-0.00000724,-0.00032585,0.00012934,0.00000225,-0.
 00004778,-0.00007131,-0.00002534,0.00017334,0.00001620,-0.00001554,0.0
 0004296,0.00004796,-0.00001467,0.00009818,0.00008688,0.00000807,-0.000
 02626,0.00000570,-0.01082977,-0.00135006,0.02379920,0.11842445,0.00007
 710,-0.00007556,-0.00003172,0.00000746,0.00001047,0.00004021,-0.000002
 14,-0.00000282,-0.00002849,-0.00002336,0.00003322,0.00005871,-0.000018
 41,-0.00000313,0.00002411,0.00009985,-0.00002127,-0.00005478,-0.000166
 57,0.00006790,0.00014116,0.00043862,0.00041886,0.00009233,0.00004244,0
 .00008872,-0.00006607,0.00001247,-0.00001046,-0.00001198,0.00000970,-0
 .00000453,-0.00000566,-0.00001249,0.00001109,0.00001247,-0.00000478,0.
 00002065,0.00001662,0.00001208,0.00000681,0.00000276,0.00002354,-0.000
 03282,-0.00010212,0.00014091,-0.00009339,0.00002881,-0.00000180,0.0000
 1892,0.00002449,0.00000483,0.00000160,-0.00000450,0.00000283,-0.000001
 51,-0.00000543,0.00000231,0.00000064,0.00000023,-0.00000088,0.00000246
 ,0.00000732,0.00000807,0.00000407,0.00002200,-0.00219835,-0.00722254,-
 0.00220763,-0.00107698,0.00069457,-0.00228108,0.01453767,0.00326497,-0
 .02124404,-0.00145528,-0.00326093,-0.00268872,-0.00008696,0.00015775,-
 0.00004070,0.00117991,-0.00004059,-0.00001379,-0.01100332,-0.04961348,
 0.00909932,0.00037553,-0.00125069,0.02737264,0.00010252,-0.00012365,-0
 .00015477,-0.00005651,0.00000452,-0.00000050,0.00001542,-0.00000498,-0
 .00001448,-0.00001004,0.00007951,0.00002829,-0.00000278,-0.00001837,0.
 00000833,-0.00001159,0.00000946,-0.00000246,0.00000818,-0.00000508,-0.
 00000485,-0.00000647,-0.00000170,0.00000211,0.00000678,-0.00000670,-0.
 00000547,0.00000416,-0.00000151,-0.00000396,0.00000750,-0.00001224,0.0
 0000246,-0.00000517,0.00001979,0.00004943,-0.00000653,0.00007815,-0.00
 000064,0.00000313,0.00000279,0.00000409,-0.00000168,0.00000039,0.00000
 809,-0.00000893,0.00000128,0.00000997,0.00000677,-0.00000780,-0.000012
 33,0.00002262,0.00008562,-0.00002783,-0.00000108,0.00003973,0.00003822
 ,-0.00001243,0.00001337,0.00000932,-0.00000182,-0.00000047,0.00000355,
 0.00000449,-0.00000077,0.00000180,0.00000294,0.00000127,-0.00000162,-0
 .00000200,-0.00000413,-0.00000373,-0.00000060,-0.00002602,-0.00003475,
 0.00031161,0.00132841,-0.00010326,-0.00013773,0.00011949,-0.00001875,0
 .00014179,-0.00002165,0.00013005,0.00005320,-0.00005095,0.00005585,0.0
 0002455,-0.00003577,0.00003996,0.00005867,-0.00033739,-0.00025458,-0.0
 0002533,-0.00004687,0.00003677,-0.00005407,0.00005431,-0.00000131,-0.0
 0811823,0.00087838,0.01243763,0.00676466,0.05482064,-0.00012108,0.0000
 5716,0.00003280,0.00000871,0.00001809,-0.00009849,0.00000197,-0.000011
 55,0.00006164,-0.00002283,-0.00004611,-0.00003058,0.00003656,-0.000007
 99,-0.00002728,-0.00010360,-0.00007222,0.00025706,0.00041821,-0.000047
 91,-0.00041511,-0.00013781,-0.00037504,-0.00022106,-0.00008660,-0.0000
 6223,0.00013068,-0.00006729,0.00001441,0.00004770,0.00002252,0.0000217
 3,0.00002577,0.00001780,0.00000655,0.00000817,0.00000533,-0.00000483,-
 0.00001784,-0.00005120,0.00001777,-0.00002616,0.00007599,0.00000573,0.
 00001403,-0.00013187,0.00013130,-0.00014189,0.00006082,0.00004918,-0.0
 0004358,-0.00001750,-0.00002113,0.00001855,-0.00000948,-0.00000085,0.0
 0000934,-0.00003014,-0.00000735,0.00001156,-0.00000951,0.00003112,-0.0
 0000659,-0.00001050,-0.00004609,0.00003427,0.00151421,0.00480791,0.001
 71256,-0.00010567,-0.00139936,-0.00061896,0.00764622,0.00096248,-0.006
 89397,-0.00113954,-0.00191998,-0.00050258,-0.00001700,-0.00010972,-0.0
 0035822,0.00068069,0.00011987,0.00004045,0.11315690,0.01161769,-0.2473
 1764,-0.00380120,0.00763504,-0.02424436,-0.00015651,0.00000590,0.00034
 943,0.00002735,-0.00000627,0.00000243,0.00002226,-0.00002240,0.0000093
 0,0.00001013,0.00003055,-0.00003849,-0.00000170,-0.00000030,0.00000645
 ,0.00002540,-0.00001998,0.00000962,-0.00001138,0.00000913,0.00000312,0
 .00000073,0.00000297,-0.00000571,-0.00003532,0.00001399,-0.00000362,-0
 .00000439,-0.00000176,0.00001285,-0.00000756,0.00000821,0.00000159,0.0
 0002906,-0.00000871,-0.00007207,0.00001097,-0.00010004,0.00000996,-0.0
 0000571,-0.00000325,0.00000459,0.00000313,-0.00000671,-0.00000320,0.00
 000350,-0.00000770,-0.00000128,0.00001589,-0.00000600,-0.00000277,-0.0
 0009631,-0.00004969,0.00000260,-0.00006261,-0.00003827,-0.00006006,-0.
 00001506,0.00002988,0.00007347,0.00000666,-0.00000353,-0.00000553,-0.0
 0000873,-0.00000251,-0.00000257,-0.00000920,-0.00000525,-0.00000348,-0
 .00000305,-0.00002027,-0.00000189,0.00005417,0.00004810,-0.00001733,-0
 .00048409,0.00016684,0.00164947,-0.00016933,0.00009528,0.00007370,0.00
 006286,0.00003049,0.00009973,0.00004746,0.00000211,0.00010569,0.000025
 74,-0.00005192,0.00003553,0.00000915,-0.00018506,-0.00015440,-0.000018
 85,-0.00003850,0.00003019,-0.00006712,0.00006531,0.00004674,-0.0008010
 3,-0.00091722,0.00584296,-0.11617963,-0.02037712,0.27056268\\-0.000001
 06,0.00000021,-0.00000209,-0.00000368,-0.00000536,-0.00000503,0.000000
 75,-0.00000081,-0.00000015,0.00000364,0.00000286,0.00000592,0.00000612
 ,-0.00000335,-0.00000797,-0.00000839,0.00000248,0.00000051,-0.00000172
 ,-0.00000714,-0.00000365,0.00000418,-0.00000792,0.00001371,0.00000759,
 0.00000211,-0.00000801,0.00000099,0.00000051,0.00000744,0.00000106,0.0
 0000207,-0.00000246,0.00000046,0.00000008,0.00000049,-0.00000273,0.,-0
 .00000024,-0.00000106,0.00000004,-0.00000007,-0.00000089,0.00000021,-0
 .00000219,-0.00000812,-0.00000111,0.00000279,-0.00000180,0.00000007,-0
 .00000200,0.00001082,-0.00000104,0.00000024,-0.00000348,-0.00000476,0.
 00000404,-0.00000224,0.00000437,-0.00000333,0.00000751,0.00000107,-0.0
 0000174,-0.00000481,-0.00000317,0.00000153,0.00000234,0.00002072,-0.00
 000058,0.00000350,-0.00001131,0.00000382,0.00000156,0.00000129,-0.0000
 1750,-0.00000785,-0.00000388,0.00000432,0.00000027,0.00000209,-0.00000
 196,0.00000158,0.00000256,0.00000233,-0.00000532,0.00000625,0.00000311
 ,-0.00001105,-0.00000860,-0.00000083,0.00000626,0.00000019,0.00000465,
 -0.00000374,-0.00000163,0.00000092,0.00000026,0.00000174,0.00000185,0.
 00000365,-0.00000051,-0.00000104,0.00000058,0.00000117,0.00000001,-0.0
 0000169,0.00000170,-0.00000125,-0.00000082,0.00000121,0.00000221,-0.00
 000267,-0.00000349,-0.00000004,-0.00000068,-0.00000345,-0.00000078,-0.
 00000163,0.00000124,-0.00000071,0.00000033,0.00000185,0.00000247,-0.00
 000116,0.00000167,0.00000105,-0.00000056,0.00000094,-0.00000127,-0.000
 00038,-0.00000022,-0.00000058,0.00000048,-0.00000040,-0.00000190,0.000
 00240,0.00000087,-0.00000071,0.00000168,0.00000056,0.00000109,-0.00000
 056,0.00000141,0.00000079,-0.00000144,-0.00000032,0.00000088,0.0000028
 0,0.00000132,-0.00000129,-0.00000135,0.00000102,-0.00000122,-0.0000010
 4,-0.00000080,-0.00000181,-0.00000093,-0.00000210,0.00000118,0.0000004
 1,-0.00000166,0.00000225,0.00000150,-0.00000079,0.00000075,-0.00000238
 ,-0.00000167,0.00000309,0.00000279,0.00000454,-0.00000263,0.00000060,0
 .00000334,0.00000208,0.00000344,0.00000100,-0.00000027,-0.00000126,-0.
 00000179,0.00000119,0.00000364,0.00000007,-0.00000049,-0.00000004,-0.0
 0000268,0.00000207,-0.00000201,0.00000156,-0.00000219,0.00000317,0.000
 00142,-0.00000284,0.00000219,0.00000215,0.00000202\\\@
 The archive entry for this job was punched.


 Experience is what you get when you don't get what you want.
 -- Dan Stanford
 Job cpu time:       0 days  6 hours 51 minutes 37.4 seconds.
 Elapsed time:       0 days  0 hours 10 minutes 23.1 seconds.
 File lengths (MBytes):  RWF=   1810 Int=      0 D2E=      0 Chk=     24 Scr=      1
 Normal termination of Gaussian 16 at Sun Feb 25 16:05:56 2024.
