 Entering Gaussian System, Link 0=g16
 Initial command:
 /public/apps/g16-C01//g16/l1.exe "/public/home/ljq/tmp/Gau-18617.inp" -scrdir="/public/home/ljq/tmp/"
 Entering Link 1 = /public/apps/g16-C01//g16/l1.exe PID=     18618.
  
 Copyright (c) 1988-2019, Gaussian, Inc.  All Rights Reserved.
  
 This is part of the Gaussian(R) 16 program.  It is based on
 the Gaussian(R) 09 system (copyright 2009, Gaussian, Inc.),
 the Gaussian(R) 03 system (copyright 2003, Gaussian, Inc.),
 the Gaussian(R) 98 system (copyright 1998, Gaussian, Inc.),
 the Gaussian(R) 94 system (copyright 1995, Gaussian, Inc.),
 the Gaussian 92(TM) system (copyright 1992, Gaussian, Inc.),
 the Gaussian 90(TM) system (copyright 1990, Gaussian, Inc.),
 the Gaussian 88(TM) system (copyright 1988, Gaussian, Inc.),
 the Gaussian 86(TM) system (copyright 1986, Carnegie Mellon
 University), and the Gaussian 82(TM) system (copyright 1983,
 Carnegie Mellon University). Gaussian is a federally registered
 trademark of Gaussian, Inc.
  
 This software contains proprietary and confidential information,
 including trade secrets, belonging to Gaussian, Inc.
  
 This software is provided under written license and may be
 used, copied, transmitted, or stored only in accord with that
 written license.
  
 The following legend is applicable only to US Government
 contracts under FAR:
  
                    RESTRICTED RIGHTS LEGEND
  
 Use, reproduction and disclosure by the US Government is
 subject to restrictions as set forth in subparagraphs (a)
 and (c) of the Commercial Computer Software - Restricted
 Rights clause in FAR 52.227-19.
  
 Gaussian, Inc.
 340 Quinnipiac St., Bldg. 40, Wallingford CT 06492
  
  
 ---------------------------------------------------------------
 Warning -- This program may not be used in any manner that
 competes with the business of Gaussian, Inc. or will provide
 assistance to any competitor of Gaussian, Inc.  The licensee
 of this program is prohibited from giving any competitor of
 Gaussian, Inc. access to this program.  By using this program,
 the user acknowledges that Gaussian, Inc. is engaged in the
 business of creating and licensing software in the field of
 computational chemistry and represents and warrants to the
 licensee that it is not a competitor of Gaussian, Inc. and that
 it will not use this program in any manner prohibited above.
 ---------------------------------------------------------------
  

 Cite this work as:
 Gaussian 16, Revision C.01,
 M. J. Frisch, G. W. Trucks, H. B. Schlegel, G. E. Scuseria, 
 M. A. Robb, J. R. Cheeseman, G. Scalmani, V. Barone, 
 G. A. Petersson, H. Nakatsuji, X. Li, M. Caricato, A. V. Marenich, 
 J. Bloino, B. G. Janesko, R. Gomperts, B. Mennucci, H. P. Hratchian, 
 J. V. Ortiz, A. F. Izmaylov, J. L. Sonnenberg, D. Williams-Young, 
 F. Ding, F. Lipparini, F. Egidi, J. Goings, B. Peng, A. Petrone, 
 T. Henderson, D. Ranasinghe, V. G. Zakrzewski, J. Gao, N. Rega, 
 G. Zheng, W. Liang, M. Hada, M. Ehara, K. Toyota, R. Fukuda, 
 J. Hasegawa, M. Ishida, T. Nakajima, Y. Honda, O. Kitao, H. Nakai, 
 T. Vreven, K. Throssell, J. A. Montgomery, Jr., J. E. Peralta, 
 F. Ogliaro, M. J. Bearpark, J. J. Heyd, E. N. Brothers, K. N. Kudin, 
 V. N. Staroverov, T. A. Keith, R. Kobayashi, J. Normand, 
 K. Raghavachari, A. P. Rendell, J. C. Burant, S. S. Iyengar, 
 J. Tomasi, M. Cossi, J. M. Millam, M. Klene, C. Adamo, R. Cammi, 
 J. W. Ochterski, R. L. Martin, K. Morokuma, O. Farkas, 
 J. B. Foresman, and D. J. Fox, Gaussian, Inc., Wallingford CT, 2019.
 
 ******************************************
 Gaussian 16:  ES64L-G16RevC.01  3-Jul-2019
                25-Feb-2024 
 ******************************************
 %nproc=40
 Will use up to   40 processors via shared memory.
 %mem=56GB
 ------------------------------------------
 #p opt freq b3lyp/def2svpp em=gd3bj nosymm
 ------------------------------------------
 1/18=20,19=15,26=3,38=1/1,3;
 2/9=110,12=2,15=1,17=6,18=5,40=1/2;
 3/5=43,7=202,11=2,25=1,30=1,71=1,74=-5,124=41/1,2,3;
 4//1;
 5/5=2,38=5/2;
 6/7=2,8=2,9=2,10=2,28=1/1;
 7/30=1/1,2,3,16;
 1/18=20,19=15,26=3/3(2);
 2/9=110,15=1/2;
 99//99;
 2/9=110,15=1/2;
 3/5=43,7=202,11=2,25=1,30=1,71=1,74=-5,124=41/1,2,3;
 4/5=5,16=3,69=1/1;
 5/5=2,38=5/2;
 7/30=1/1,2,3,16;
 1/18=20,19=15,26=3/3(-5);
 2/9=110,15=1/2;
 6/7=2,8=2,9=2,10=2,19=2,28=1/1;
 99/9=1/99;
 Leave Link    1 at Sun Feb 25 23:08:27 2024, MaxMem=  7516192768 cpu:               0.9 elap:               0.0
 (Enter /public/apps/g16-C01//g16/l101.exe)
 ----------------------
 $$$$Singlemol####0????
 ----------------------
 Symbolic Z-matrix:
 Charge =  0 Multiplicity = 1
 C                    -3.17781   1.92965  -0.32922 
 C                    -3.07153   0.41679  -0.49736 
 C                    -4.44111  -0.23852  -0.34165 
 C                    -2.08011  -0.14884   0.53158 
 C                    -1.71169  -1.64218   0.3029 
 O                    -0.2998   -1.63745   0.1347 
 C                     0.09246  -0.33438   0.22582 
 C                     1.51893  -0.05499   0.06804 
 C                     2.42188  -1.10477  -0.10649 
 C                     3.7647   -0.80183  -0.24988 
 C                     4.15663   0.52698  -0.21504 
 C                     3.17538   1.4949   -0.03786 
 N                     1.89526   1.21908   0.0997 
 N                    -0.80686   0.52537   0.44813 
 H                    -3.60497   2.1709    0.64137 
 H                    -3.81335   2.35237  -1.10377 
 H                    -2.19021   2.37673  -0.39075 
 H                    -2.67808   0.20137  -1.49752 
 H                    -4.38533  -1.31716  -0.46983 
 H                    -5.12939   0.15888  -1.08381 
 H                    -4.84672  -0.0319    0.64659 
 H                    -2.48883   0.01857   1.53501 
 H                    -2.16538  -2.04976  -0.6055 
 H                    -1.96258  -2.28159   1.15272 
 H                     2.06486  -2.12198  -0.12608 
 H                     4.49253  -1.58894  -0.38639 
 H                     5.19326   0.80635  -0.32266 
 H                     3.42897   2.54652  -0.00505 
 
 ITRead=  0  0  0  0  0  0  0  0  0  0  0  0  0  0  0  0  0  0  0  0
 ITRead=  0  0  0  0  0  0  0  0
 MicOpt= -1 -1 -1 -1 -1 -1 -1 -1 -1 -1 -1 -1 -1 -1 -1 -1 -1 -1 -1 -1
 MicOpt= -1 -1 -1 -1 -1 -1 -1 -1
 NAtoms=     28 NQM=       28 NQMF=       0 NMMI=      0 NMMIF=      0
                NMic=       0 NMicF=      0.
                    Isotopes and Nuclear Properties:
 (Nuclear quadrupole moments (NQMom) in fm**2, nuclear magnetic moments (NMagM)
  in nuclear magnetons)

  Atom         1           2           3           4           5           6           7           8           9          10
 IAtWgt=          12          12          12          12          12          16          12          12          12          12
 AtmWgt=  12.0000000  12.0000000  12.0000000  12.0000000  12.0000000  15.9949146  12.0000000  12.0000000  12.0000000  12.0000000
 NucSpn=           0           0           0           0           0           0           0           0           0           0
 AtZEff=  -0.0000000  -0.0000000  -0.0000000  -0.0000000  -0.0000000  -0.0000000  -0.0000000  -0.0000000  -0.0000000  -0.0000000
 NQMom=    0.0000000   0.0000000   0.0000000   0.0000000   0.0000000   0.0000000   0.0000000   0.0000000   0.0000000   0.0000000
 NMagM=    0.0000000   0.0000000   0.0000000   0.0000000   0.0000000   0.0000000   0.0000000   0.0000000   0.0000000   0.0000000
 AtZNuc=   6.0000000   6.0000000   6.0000000   6.0000000   6.0000000   8.0000000   6.0000000   6.0000000   6.0000000   6.0000000

  Atom        11          12          13          14          15          16          17          18          19          20
 IAtWgt=          12          12          14          14           1           1           1           1           1           1
 AtmWgt=  12.0000000  12.0000000  14.0030740  14.0030740   1.0078250   1.0078250   1.0078250   1.0078250   1.0078250   1.0078250
 NucSpn=           0           0           2           2           1           1           1           1           1           1
 AtZEff=  -0.0000000  -0.0000000  -0.0000000  -0.0000000  -0.0000000  -0.0000000  -0.0000000  -0.0000000  -0.0000000  -0.0000000
 NQMom=    0.0000000   0.0000000   2.0440000   2.0440000   0.0000000   0.0000000   0.0000000   0.0000000   0.0000000   0.0000000
 NMagM=    0.0000000   0.0000000   0.4037610   0.4037610   2.7928460   2.7928460   2.7928460   2.7928460   2.7928460   2.7928460
 AtZNuc=   6.0000000   6.0000000   7.0000000   7.0000000   1.0000000   1.0000000   1.0000000   1.0000000   1.0000000   1.0000000

  Atom        21          22          23          24          25          26          27          28
 IAtWgt=           1           1           1           1           1           1           1           1
 AtmWgt=   1.0078250   1.0078250   1.0078250   1.0078250   1.0078250   1.0078250   1.0078250   1.0078250
 NucSpn=           1           1           1           1           1           1           1           1
 AtZEff=  -0.0000000  -0.0000000  -0.0000000  -0.0000000  -0.0000000  -0.0000000  -0.0000000  -0.0000000
 NQMom=    0.0000000   0.0000000   0.0000000   0.0000000   0.0000000   0.0000000   0.0000000   0.0000000
 NMagM=    2.7928460   2.7928460   2.7928460   2.7928460   2.7928460   2.7928460   2.7928460   2.7928460
 AtZNuc=   1.0000000   1.0000000   1.0000000   1.0000000   1.0000000   1.0000000   1.0000000   1.0000000
 Leave Link  101 at Sun Feb 25 23:08:27 2024, MaxMem=  7516192768 cpu:               7.2 elap:               0.2
 (Enter /public/apps/g16-C01//g16/l103.exe)

 GradGradGradGradGradGradGradGradGradGradGradGradGradGradGradGradGradGrad
 Berny optimization.
 Initialization pass.
                           ----------------------------
                           !    Initial Parameters    !
                           ! (Angstroms and Degrees)  !
 --------------------------                            --------------------------
 ! Name  Definition              Value          Derivative Info.                !
 --------------------------------------------------------------------------------
 ! R1    R(1,2)                  1.5259         estimate D2E/DX2                !
 ! R2    R(1,15)                 1.0875         estimate D2E/DX2                !
 ! R3    R(1,16)                 1.0874         estimate D2E/DX2                !
 ! R4    R(1,17)                 1.0858         estimate D2E/DX2                !
 ! R5    R(2,3)                  1.5262         estimate D2E/DX2                !
 ! R6    R(2,4)                  1.5367         estimate D2E/DX2                !
 ! R7    R(2,18)                 1.0961         estimate D2E/DX2                !
 ! R8    R(3,19)                 1.0877         estimate D2E/DX2                !
 ! R9    R(3,20)                 1.0874         estimate D2E/DX2                !
 ! R10   R(3,21)                 1.088          estimate D2E/DX2                !
 ! R11   R(4,5)                  1.555          estimate D2E/DX2                !
 ! R12   R(4,14)                 1.4431         estimate D2E/DX2                !
 ! R13   R(4,22)                 1.0963         estimate D2E/DX2                !
 ! R14   R(5,6)                  1.4219         estimate D2E/DX2                !
 ! R15   R(5,23)                 1.0941         estimate D2E/DX2                !
 ! R16   R(5,24)                 1.0927         estimate D2E/DX2                !
 ! R17   R(6,7)                  1.3639         estimate D2E/DX2                !
 ! R18   R(7,8)                  1.4621         estimate D2E/DX2                !
 ! R19   R(7,14)                 1.2639         estimate D2E/DX2                !
 ! R20   R(8,9)                  1.3956         estimate D2E/DX2                !
 ! R21   R(8,13)                 1.3289         estimate D2E/DX2                !
 ! R22   R(9,10)                 1.384          estimate D2E/DX2                !
 ! R23   R(9,25)                 1.0782         estimate D2E/DX2                !
 ! R24   R(10,11)                1.3858         estimate D2E/DX2                !
 ! R25   R(10,26)                1.0807         estimate D2E/DX2                !
 ! R26   R(11,12)                1.3896         estimate D2E/DX2                !
 ! R27   R(11,27)                1.079          estimate D2E/DX2                !
 ! R28   R(12,13)                1.3167         estimate D2E/DX2                !
 ! R29   R(12,28)                1.0823         estimate D2E/DX2                !
 ! A1    A(2,1,15)             110.2206         estimate D2E/DX2                !
 ! A2    A(2,1,16)             110.3419         estimate D2E/DX2                !
 ! A3    A(2,1,17)             109.7937         estimate D2E/DX2                !
 ! A4    A(15,1,16)            108.6569         estimate D2E/DX2                !
 ! A5    A(15,1,17)            108.4512         estimate D2E/DX2                !
 ! A6    A(16,1,17)            109.3383         estimate D2E/DX2                !
 ! A7    A(1,2,3)              110.607          estimate D2E/DX2                !
 ! A8    A(1,2,4)              109.6382         estimate D2E/DX2                !
 ! A9    A(1,2,18)             108.6864         estimate D2E/DX2                !
 ! A10   A(3,2,4)              110.6457         estimate D2E/DX2                !
 ! A11   A(3,2,18)             109.3178         estimate D2E/DX2                !
 ! A12   A(4,2,18)             107.8798         estimate D2E/DX2                !
 ! A13   A(2,3,19)             111.5771         estimate D2E/DX2                !
 ! A14   A(2,3,20)             109.9646         estimate D2E/DX2                !
 ! A15   A(2,3,21)             110.2211         estimate D2E/DX2                !
 ! A16   A(19,3,20)            108.328          estimate D2E/DX2                !
 ! A17   A(19,3,21)            108.3299         estimate D2E/DX2                !
 ! A18   A(20,3,21)            108.3334         estimate D2E/DX2                !
 ! A19   A(2,4,5)              114.0702         estimate D2E/DX2                !
 ! A20   A(2,4,14)             111.01           estimate D2E/DX2                !
 ! A21   A(2,4,22)             108.4273         estimate D2E/DX2                !
 ! A22   A(5,4,14)             103.3627         estimate D2E/DX2                !
 ! A23   A(5,4,22)             111.6882         estimate D2E/DX2                !
 ! A24   A(14,4,22)            108.0896         estimate D2E/DX2                !
 ! A25   A(4,5,6)              104.4454         estimate D2E/DX2                !
 ! A26   A(4,5,23)             112.4322         estimate D2E/DX2                !
 ! A27   A(4,5,24)             113.1533         estimate D2E/DX2                !
 ! A28   A(6,5,23)             108.3467         estimate D2E/DX2                !
 ! A29   A(6,5,24)             108.7803         estimate D2E/DX2                !
 ! A30   A(23,5,24)            109.4209         estimate D2E/DX2                !
 ! A31   A(5,6,7)              106.3114         estimate D2E/DX2                !
 ! A32   A(6,7,8)              117.126          estimate D2E/DX2                !
 ! A33   A(6,7,14)             117.1951         estimate D2E/DX2                !
 ! A34   A(8,7,14)             125.6771         estimate D2E/DX2                !
 ! A35   A(7,8,9)              120.0644         estimate D2E/DX2                !
 ! A36   A(7,8,13)             117.1888         estimate D2E/DX2                !
 ! A37   A(9,8,13)             122.7468         estimate D2E/DX2                !
 ! A38   A(8,9,10)             118.4268         estimate D2E/DX2                !
 ! A39   A(8,9,25)             119.8454         estimate D2E/DX2                !
 ! A40   A(10,9,25)            121.7278         estimate D2E/DX2                !
 ! A41   A(9,10,11)            118.7942         estimate D2E/DX2                !
 ! A42   A(9,10,26)            120.4712         estimate D2E/DX2                !
 ! A43   A(11,10,26)           120.7347         estimate D2E/DX2                !
 ! A44   A(10,11,12)           118.1232         estimate D2E/DX2                !
 ! A45   A(10,11,27)           121.1619         estimate D2E/DX2                !
 ! A46   A(12,11,27)           120.7149         estimate D2E/DX2                !
 ! A47   A(11,12,13)           123.6359         estimate D2E/DX2                !
 ! A48   A(11,12,28)           121.0121         estimate D2E/DX2                !
 ! A49   A(13,12,28)           115.3519         estimate D2E/DX2                !
 ! A50   A(8,13,12)            118.273          estimate D2E/DX2                !
 ! A51   A(4,14,7)             108.6731         estimate D2E/DX2                !
 ! D1    D(15,1,2,3)            57.655          estimate D2E/DX2                !
 ! D2    D(15,1,2,4)           -64.6298         estimate D2E/DX2                !
 ! D3    D(15,1,2,18)          177.6723         estimate D2E/DX2                !
 ! D4    D(16,1,2,3)           -62.3545         estimate D2E/DX2                !
 ! D5    D(16,1,2,4)           175.3606         estimate D2E/DX2                !
 ! D6    D(16,1,2,18)           57.6627         estimate D2E/DX2                !
 ! D7    D(17,1,2,3)           177.0631         estimate D2E/DX2                !
 ! D8    D(17,1,2,4)            54.7782         estimate D2E/DX2                !
 ! D9    D(17,1,2,18)          -62.9197         estimate D2E/DX2                !
 ! D10   D(1,2,3,19)           179.3583         estimate D2E/DX2                !
 ! D11   D(1,2,3,20)            59.1308         estimate D2E/DX2                !
 ! D12   D(1,2,3,21)           -60.2393         estimate D2E/DX2                !
 ! D13   D(4,2,3,19)           -58.9485         estimate D2E/DX2                !
 ! D14   D(4,2,3,20)          -179.176          estimate D2E/DX2                !
 ! D15   D(4,2,3,21)            61.4539         estimate D2E/DX2                !
 ! D16   D(18,2,3,19)           59.7203         estimate D2E/DX2                !
 ! D17   D(18,2,3,20)          -60.5072         estimate D2E/DX2                !
 ! D18   D(18,2,3,21)         -179.8773         estimate D2E/DX2                !
 ! D19   D(1,2,4,5)           -170.3516         estimate D2E/DX2                !
 ! D20   D(1,2,4,14)           -54.0746         estimate D2E/DX2                !
 ! D21   D(1,2,4,22)            64.5167         estimate D2E/DX2                !
 ! D22   D(3,2,4,5)             67.3866         estimate D2E/DX2                !
 ! D23   D(3,2,4,14)          -176.3363         estimate D2E/DX2                !
 ! D24   D(3,2,4,22)           -57.7451         estimate D2E/DX2                !
 ! D25   D(18,2,4,5)           -52.1514         estimate D2E/DX2                !
 ! D26   D(18,2,4,14)           64.1256         estimate D2E/DX2                !
 ! D27   D(18,2,4,22)         -177.2832         estimate D2E/DX2                !
 ! D28   D(2,4,5,6)            121.2313         estimate D2E/DX2                !
 ! D29   D(2,4,5,23)             3.9735         estimate D2E/DX2                !
 ! D30   D(2,4,5,24)          -120.6218         estimate D2E/DX2                !
 ! D31   D(14,4,5,6)             0.5866         estimate D2E/DX2                !
 ! D32   D(14,4,5,23)         -116.6713         estimate D2E/DX2                !
 ! D33   D(14,4,5,24)          118.7334         estimate D2E/DX2                !
 ! D34   D(22,4,5,6)          -115.3854         estimate D2E/DX2                !
 ! D35   D(22,4,5,23)          127.3567         estimate D2E/DX2                !
 ! D36   D(22,4,5,24)            2.7614         estimate D2E/DX2                !
 ! D37   D(2,4,14,7)          -122.6308         estimate D2E/DX2                !
 ! D38   D(5,4,14,7)             0.0728         estimate D2E/DX2                !
 ! D39   D(22,4,14,7)          118.5744         estimate D2E/DX2                !
 ! D40   D(4,5,6,7)             -0.9962         estimate D2E/DX2                !
 ! D41   D(23,5,6,7)           119.042          estimate D2E/DX2                !
 ! D42   D(24,5,6,7)          -122.0911         estimate D2E/DX2                !
 ! D43   D(5,6,7,8)           -179.2646         estimate D2E/DX2                !
 ! D44   D(5,6,7,14)             1.1985         estimate D2E/DX2                !
 ! D45   D(6,7,8,9)             -2.801          estimate D2E/DX2                !
 ! D46   D(6,7,8,13)           177.2097         estimate D2E/DX2                !
 ! D47   D(14,7,8,9)           176.6919         estimate D2E/DX2                !
 ! D48   D(14,7,8,13)           -3.2974         estimate D2E/DX2                !
 ! D49   D(6,7,14,4)            -0.7963         estimate D2E/DX2                !
 ! D50   D(8,7,14,4)           179.7111         estimate D2E/DX2                !
 ! D51   D(7,8,9,10)          -179.8741         estimate D2E/DX2                !
 ! D52   D(7,8,9,25)             0.0864         estimate D2E/DX2                !
 ! D53   D(13,8,9,10)            0.1146         estimate D2E/DX2                !
 ! D54   D(13,8,9,25)         -179.9249         estimate D2E/DX2                !
 ! D55   D(7,8,13,12)          179.8778         estimate D2E/DX2                !
 ! D56   D(9,8,13,12)           -0.1112         estimate D2E/DX2                !
 ! D57   D(8,9,10,11)           -0.0278         estimate D2E/DX2                !
 ! D58   D(8,9,10,26)          179.9698         estimate D2E/DX2                !
 ! D59   D(25,9,10,11)        -179.9876         estimate D2E/DX2                !
 ! D60   D(25,9,10,26)           0.0101         estimate D2E/DX2                !
 ! D61   D(9,10,11,12)          -0.053          estimate D2E/DX2                !
 ! D62   D(9,10,11,27)         179.9843         estimate D2E/DX2                !
 ! D63   D(26,10,11,12)        179.9494         estimate D2E/DX2                !
 ! D64   D(26,10,11,27)         -0.0133         estimate D2E/DX2                !
 ! D65   D(10,11,12,13)          0.0591         estimate D2E/DX2                !
 ! D66   D(10,11,12,28)       -179.9051         estimate D2E/DX2                !
 ! D67   D(27,11,12,13)       -179.978          estimate D2E/DX2                !
 ! D68   D(27,11,12,28)          0.0577         estimate D2E/DX2                !
 ! D69   D(11,12,13,8)           0.0226         estimate D2E/DX2                !
 ! D70   D(28,12,13,8)         179.9887         estimate D2E/DX2                !
 --------------------------------------------------------------------------------
 Trust Radius=3.00D-01 FncErr=1.00D-07 GrdErr=1.00D-06 EigMax=2.50D+02 EigMin=1.00D-04
 Number of steps in this run=    160 maximum allowed number of steps=    168.
 GradGradGradGradGradGradGradGradGradGradGradGradGradGradGradGradGradGrad

 Leave Link  103 at Sun Feb 25 23:08:27 2024, MaxMem=  7516192768 cpu:               0.5 elap:               0.0
 (Enter /public/apps/g16-C01//g16/l202.exe)
                          Input orientation:                          
 ---------------------------------------------------------------------
 Center     Atomic      Atomic             Coordinates (Angstroms)
 Number     Number       Type             X           Y           Z
 ---------------------------------------------------------------------
      1          6           0       -3.177805    1.929654   -0.329215
      2          6           0       -3.071531    0.416785   -0.497356
      3          6           0       -4.441114   -0.238523   -0.341651
      4          6           0       -2.080107   -0.148836    0.531576
      5          6           0       -1.711691   -1.642175    0.302903
      6          8           0       -0.299796   -1.637446    0.134698
      7          6           0        0.092461   -0.334378    0.225818
      8          6           0        1.518931   -0.054994    0.068043
      9          6           0        2.421881   -1.104772   -0.106487
     10          6           0        3.764696   -0.801832   -0.249880
     11          6           0        4.156625    0.526976   -0.215035
     12          6           0        3.175378    1.494895   -0.037858
     13          7           0        1.895259    1.219081    0.099702
     14          7           0       -0.806862    0.525366    0.448132
     15          1           0       -3.604966    2.170896    0.641369
     16          1           0       -3.813345    2.352367   -1.103774
     17          1           0       -2.190208    2.376731   -0.390752
     18          1           0       -2.678076    0.201369   -1.497515
     19          1           0       -4.385333   -1.317157   -0.469833
     20          1           0       -5.129394    0.158884   -1.083815
     21          1           0       -4.846720   -0.031901    0.646593
     22          1           0       -2.488830    0.018568    1.535012
     23          1           0       -2.165384   -2.049762   -0.605497
     24          1           0       -1.962581   -2.281590    1.152725
     25          1           0        2.064857   -2.121976   -0.126078
     26          1           0        4.492534   -1.588940   -0.386386
     27          1           0        5.193259    0.806347   -0.322664
     28          1           0        3.428965    2.546522   -0.005050
 ---------------------------------------------------------------------
                    Distance matrix (angstroms):
                    1          2          3          4          5
     1  C    0.000000
     2  C    1.525889   0.000000
     3  C    2.509401   1.526247   0.000000
     4  C    2.503202   1.536733   2.518913   0.000000
     5  C    3.912419   2.594011   3.136150   1.555019   0.000000
     6  O    4.606773   3.507402   4.397091   2.354353   1.421887
     7  C    4.016036   3.331377   4.569957   2.201810   2.229628
     8  C    5.114291   4.649150   5.976928   3.629978   3.607107
     9  C    6.372898   5.713623   6.921444   4.646379   4.188415
    10  C    7.460940   6.948401   8.225634   5.932858   5.567994
    11  C    7.468226   7.234507   8.632678   6.317513   6.277787
    12  C    6.374703   6.355890   7.817159   5.535904   5.817282
    13  N    5.140512   5.066474   6.516826   4.226257   4.608488
    14  N    2.863156   2.456514   3.796718   1.443144   2.353304
    15  H    1.087519   2.158275   2.733271   2.778202   4.270663
    16  H    1.087446   2.159747   2.772659   3.454635   4.727796
    17  H    1.085823   2.151623   3.450876   2.690966   4.106305
    18  H    2.145139   1.096143   2.153562   2.144160   2.752101
    19  H    3.466941   2.175635   1.087655   2.771617   2.801985
    20  H    2.741122   2.155284   1.087414   3.464438   4.104570
    21  H    2.754120   2.158989   1.088042   2.771471   3.541117
    22  H    2.757223   2.151427   2.720179   1.096340   2.209096
    23  H    4.115468   2.629953   2.920471   2.216693   1.094146
    24  H    4.626823   3.351681   3.542656   2.224473   1.092701
    25  H    6.628912   5.741571   6.776542   4.637512   3.830998
    26  H    8.439068   7.826259   9.035247   6.790888   6.242625
    27  H    8.446098   8.275810   9.690885   7.385388   7.352886
    28  H    6.643419   6.858177   8.355113   6.156525   6.638250
                    6          7          8          9         10
     6  O    0.000000
     7  C    1.363875   0.000000
     8  C    2.411714   1.462110   0.000000
     9  C    2.783781   2.475910   1.395641   0.000000
    10  C    4.167283   3.732306   2.387949   1.384011   0.000000
    11  C    4.966561   4.177764   2.715926   2.384056   1.385840
    12  C    4.681685   3.594460   2.270944   2.707533   2.380589
    13  N    3.602671   2.383112   1.328869   2.391681   2.775084
    14  N    2.243460   1.263869   2.427056   3.659198   4.811218
    15  H    5.067971   4.485538   5.615836   6.900158   7.996459
    16  H    5.458704   4.923590   5.966717   7.198919   8.252564
    17  H    4.468039   3.597339   4.458867   5.785589   6.751592
    18  H    3.420757   3.306475   4.486821   5.445230   6.638698
    19  H    4.142421   4.636855   6.061576   6.820212   8.169266
    20  H    5.294959   5.406128   6.750759   7.718403   8.984612
    21  H    4.849158   4.966292   6.391930   7.385847   8.692120
    22  H    3.081417   2.915754   4.268437   5.298254   6.554806
    23  H    2.048978   2.954910   4.243458   4.710097   6.070391
    24  H    2.053328   2.978924   4.272609   4.711053   6.079366
    25  H    2.427830   2.685085   2.146656   1.078218   2.155820
    26  H    4.820820   4.616206   3.376657   2.144846   1.080704
    27  H    6.029507   5.255495   3.794107   3.373373   2.152285
    28  H    5.606137   4.414198   3.228228   3.788991   3.374038
                   11         12         13         14         15
    11  C    0.000000
    12  C    1.389642   0.000000
    13  N    2.385759   1.316701   0.000000
    14  N    5.007594   4.127276   2.811423   0.000000
    15  H    7.979862   6.847729   5.608193   3.251845   0.000000
    16  H    8.224496   7.121354   5.943135   3.845164   1.766884
    17  H    6.613226   5.449007   4.274546   2.458643   1.763287
    18  H    6.961603   6.169824   4.949973   2.718816   3.051719
    19  H    8.742471   8.078279   6.797257   4.128318   3.743028
    20  H    9.333832   8.476331   7.202116   4.600593   3.057504
    21  H    9.061731   8.194732   6.878832   4.082938   2.528694
    22  H    6.890807   6.061082   4.766716   2.065713   2.583965
    23  H    6.838116   6.435103   5.260367   3.096288   4.630445
    24  H    6.870480   6.486752   5.314742   3.116270   4.773211
    25  H    3.376441   3.784547   3.352969   3.947772   7.152945
    26  H    2.149255   3.371411   3.855788   5.766308   8.986777
    27  H    1.079001   2.151059   3.350455   6.055950   8.955452
    28  H    2.156884   1.082267   2.031090   4.715154   7.073552
                   16         17         18         19         20
    16  H    0.000000
    17  H    1.773011   0.000000
    18  H    2.463871   2.489004   0.000000
    19  H    3.767553   4.297631   2.505350   0.000000
    20  H    2.558076   3.746731   2.486345   1.763320   0.000000
    21  H    3.133111   3.732914   3.058534   1.763850   1.763694
    22  H    3.763529   3.059195   3.043920   3.065989   3.721629
    23  H    4.726817   4.431768   2.475104   2.341642   3.727232
    24  H    5.476374   4.912646   3.701458   3.071246   4.581127
    25  H    7.451771   6.197902   5.456573   6.509290   7.607682
    26  H    9.221506   7.770818   7.473785   8.882418   9.804223
    27  H    9.171653   7.548929   7.981490   9.812255  10.370908
    28  H    7.327752   5.634953   6.709929   8.729679   8.950422
                   21         22         23         24         25
    21  H    0.000000
    22  H    2.520214   0.000000
    23  H    3.581767   2.994058   0.000000
    24  H    3.692632   2.390357   1.784998   0.000000
    25  H    7.261910   5.298794   4.257933   4.228601   0.000000
    26  H    9.524342   7.417230   6.677443   6.672116   2.499100
    27  H   10.121428   7.942673   7.898543   7.932098   4.289594
    28  H    8.692518   6.616845   7.265198   7.329384   4.865214
                   26         27         28
    26  H    0.000000
    27  H    2.496493   0.000000
    28  H    4.287032   2.498364   0.000000
 Symmetry turned off by external request.
 Stoichiometry    C11H14N2O
 Framework group  C1[X(C11H14N2O)]
 Deg. of freedom    78
 Full point group                 C1      NOp   1
 Rotational constants (GHZ):           1.8796569           0.3539044           0.3066854
 Leave Link  202 at Sun Feb 25 23:08:27 2024, MaxMem=  7516192768 cpu:               0.3 elap:               0.0
 (Enter /public/apps/g16-C01//g16/l301.exe)
 Standard basis: def2SVPP (5D, 7F)
 Ernie: Thresh=  0.10000D-02 Tol=  0.10000D-05 Strict=F.
   224 basis functions,   406 primitive gaussians,   238 cartesian basis functions
    51 alpha electrons       51 beta electrons
       nuclear repulsion energy       866.5538107202 Hartrees.
 IExCor=  402 DFT=T Ex+Corr=B3LYP ExCW=0 ScaHFX=  0.200000
 ScaDFX=  0.800000  0.720000  1.000000  0.810000 ScalE2=  1.000000  1.000000
 IRadAn=      5 IRanWt=     -1 IRanGd=            0 ICorTp=0 IEmpDi=141
 NAtoms=   28 NActive=   28 NUniq=   28 SFac= 1.00D+00 NAtFMM=   60 NAOKFM=F Big=F
 Integral buffers will be    131072 words long.
 Raffenetti 2 integral format.
 Two-electron integral symmetry is turned off.
 R6Disp:  Grimme-D3(BJ) Dispersion energy=       -0.0512589642 Hartrees.
 Nuclear repulsion after empirical dispersion term =      866.5025517559 Hartrees.
 Leave Link  301 at Sun Feb 25 23:08:27 2024, MaxMem=  7516192768 cpu:               1.2 elap:               0.0
 (Enter /public/apps/g16-C01//g16/l302.exe)
 NPDir=0 NMtPBC=     1 NCelOv=     1 NCel=       1 NClECP=     1 NCelD=      1
         NCelK=      1 NCelE2=     1 NClLst=     1 CellRange=     0.0.
 One-electron integrals computed using PRISM.
   1 Symmetry operations used in ECPInt.
 ECPInt:  NShTT=    6328 NPrTT=   25424 LenC2=    6019 LenP2D=   17243.
 LDataN:  DoStor=T MaxTD1= 4 Len=   56
 NBasis=   224 RedAO= T EigKep=  6.01D-04  NBF=   224
 NBsUse=   224 1.00D-06 EigRej= -1.00D+00 NBFU=   224
 Precomputing XC quadrature grid using
 IXCGrd= 4 IRadAn=           5 IRanWt=          -1 IRanGd=           0 AccXCQ= 0.00D+00.
 Generated NRdTot=       0 NPtTot=           0 NUsed=           0 NTot=          32
 NSgBfM=   236   236   236   236   236 MxSgAt=    28 MxSgA2=    28.
 Leave Link  302 at Sun Feb 25 23:08:27 2024, MaxMem=  7516192768 cpu:               6.6 elap:               0.2
 (Enter /public/apps/g16-C01//g16/l303.exe)
 DipDrv:  MaxL=1.
 Leave Link  303 at Sun Feb 25 23:08:27 2024, MaxMem=  7516192768 cpu:               1.0 elap:               0.0
 (Enter /public/apps/g16-C01//g16/l401.exe)
 ExpMin= 1.22D-01 ExpMax= 2.27D+03 ExpMxC= 3.41D+02 IAcc=3 IRadAn=         5 AccDes= 0.00D+00
 Harris functional with IExCor=  402 and IRadAn=       5 diagonalized for initial guess.
 HarFok:  IExCor=  402 AccDes= 0.00D+00 IRadAn=         5 IDoV= 1 UseB2=F ITyADJ=14
 ICtDFT=  3500011 ScaDFX=  1.000000  1.000000  1.000000  1.000000
 FoFCou: FMM=F IPFlag=           0 FMFlag=      100000 FMFlg1=           0
         NFxFlg=           0 DoJE=T BraDBF=F KetDBF=T FulRan=T
         wScrn=  0.000000 ICntrl=       500 IOpCl=  0 I1Cent=   200000004 NGrid=           0
         NMat0=    1 NMatS0=      1 NMatT0=    0 NMatD0=    1 NMtDS0=    0 NMtDT0=    0
 Symmetry not used in FoFCou.
 Harris En= -611.868113784879    
 JPrj=0 DoOrth=F DoCkMO=F.
 Leave Link  401 at Sun Feb 25 23:08:28 2024, MaxMem=  7516192768 cpu:              12.1 elap:               0.3
 (Enter /public/apps/g16-C01//g16/l502.exe)
 Two-electron integral symmetry not used.
 Closed shell SCF:
 Using DIIS extrapolation, IDIIS=  1040.
 NGot=  7516192768 LenX=  7516067092 LenY=  7516010007
 Requested convergence on RMS density matrix=1.00D-08 within 128 cycles.
 Requested convergence on MAX density matrix=1.00D-06.
 Requested convergence on             energy=1.00D-06.
 No special actions if energy rises.
 Fock matrices will be formed incrementally for  20 cycles.
 Integral accuracy reduced to 1.0D-05 until final iterations.

 Cycle   1  Pass 0  IDiag  1:
 FoFJK:  IHMeth= 1 ICntrl=       0 DoSepK=F KAlg= 0 I1Cent=           0 FoldK=F
 IRaf= 910000000 NMat=       1 IRICut=       1 DoRegI=T DoRafI=F ISym2E= 0 IDoP0=0 IntGTp=1.
 FoFCou: FMM=F IPFlag=           0 FMFlag=      100000 FMFlg1=           0
         NFxFlg=           0 DoJE=F BraDBF=F KetDBF=F FulRan=T
         wScrn=  0.000000 ICntrl=         0 IOpCl=  0 I1Cent=           0 NGrid=           0
         NMat0=    1 NMatS0=      1 NMatT0=    0 NMatD0=    1 NMtDS0=    0 NMtDT0=    0
 Symmetry not used in FoFCou.
 E= -611.576860192887    
 DIIS: error= 3.58D-02 at cycle   1 NSaved=   1.
 NSaved= 1 IEnMin= 1 EnMin= -611.576860192887     IErMin= 1 ErrMin= 3.58D-02
 ErrMax= 3.58D-02  0.00D+00 EMaxC= 1.00D-01 BMatC= 2.84D-01 BMatP= 2.84D-01
 IDIUse=3 WtCom= 6.42D-01 WtEn= 3.58D-01
 Coeff-Com:  0.100D+01
 Coeff-En:   0.100D+01
 Coeff:      0.100D+01
 Gap=     0.174 Goal=   None    Shift=    0.000
 GapD=    0.174 DampG=1.000 DampE=0.500 DampFc=0.5000 IDamp=-1.
 Damping current iteration by 5.00D-01
 RMSDP=6.67D-03 MaxDP=1.77D-01              OVMax= 2.31D-01

 Cycle   2  Pass 0  IDiag  1:
 RMSU=  3.28D-03    CP:  9.76D-01
 E= -611.701635801365     Delta-E=       -0.124775608477 Rises=F Damp=T
 DIIS: error= 5.87D-03 at cycle   2 NSaved=   2.
 NSaved= 2 IEnMin= 2 EnMin= -611.701635801365     IErMin= 2 ErrMin= 5.87D-03
 ErrMax= 5.87D-03  0.00D+00 EMaxC= 1.00D-01 BMatC= 2.48D-02 BMatP= 2.84D-01
 IDIUse=3 WtCom= 9.41D-01 WtEn= 5.87D-02
 Coeff-Com:  0.119D+00 0.881D+00
 Coeff-En:   0.185D+00 0.815D+00
 Coeff:      0.123D+00 0.877D+00
 Gap=     0.225 Goal=   None    Shift=    0.000
 RMSDP=2.15D-03 MaxDP=6.54D-02 DE=-1.25D-01 OVMax= 2.11D-01

 Cycle   3  Pass 0  IDiag  1:
 RMSU=  2.09D-03    CP:  9.64D-01  8.69D-01
 E= -611.856310138986     Delta-E=       -0.154674337621 Rises=F Damp=F
 DIIS: error= 1.11D-02 at cycle   3 NSaved=   3.
 NSaved= 3 IEnMin= 3 EnMin= -611.856310138986     IErMin= 2 ErrMin= 5.87D-03
 ErrMax= 1.11D-02  0.00D+00 EMaxC= 1.00D-01 BMatC= 3.43D-02 BMatP= 2.48D-02
 IDIUse=2 WtCom= 0.00D+00 WtEn= 1.00D+00
 Coeff-En:   0.000D+00 0.000D+00 0.100D+01
 Coeff:      0.000D+00 0.000D+00 0.100D+01
 Gap=     0.168 Goal=   None    Shift=    0.000
 RMSDP=3.02D-03 MaxDP=1.24D-01 DE=-1.55D-01 OVMax= 2.45D-01

 Cycle   4  Pass 0  IDiag  1:
 RMSU=  1.84D-03    CP:  9.71D-01  1.20D+00 -1.83D-02
 E= -611.719602971175     Delta-E=        0.136707167811 Rises=F Damp=F
 DIIS: error= 2.83D-02 at cycle   4 NSaved=   4.
 NSaved= 4 IEnMin= 3 EnMin= -611.856310138986     IErMin= 2 ErrMin= 5.87D-03
 ErrMax= 2.83D-02  0.00D+00 EMaxC= 1.00D-01 BMatC= 1.83D-01 BMatP= 2.48D-02
 IDIUse=2 WtCom= 0.00D+00 WtEn= 1.00D+00
 Coeff-En:   0.000D+00 0.000D+00 0.785D+00 0.215D+00
 Coeff:      0.000D+00 0.000D+00 0.785D+00 0.215D+00
 Gap=     0.193 Goal=   None    Shift=    0.000
 RMSDP=1.61D-03 MaxDP=6.27D-02 DE= 1.37D-01 OVMax= 1.29D-01

 Cycle   5  Pass 0  IDiag  1:
 RMSU=  2.78D-04    CP:  9.68D-01  9.84D-01  4.76D-01  4.75D-01
 E= -611.876274604297     Delta-E=       -0.156671633122 Rises=F Damp=F
 DIIS: error= 7.42D-03 at cycle   5 NSaved=   5.
 NSaved= 5 IEnMin= 5 EnMin= -611.876274604297     IErMin= 2 ErrMin= 5.87D-03
 ErrMax= 7.42D-03  0.00D+00 EMaxC= 1.00D-01 BMatC= 1.33D-02 BMatP= 2.48D-02
 IDIUse=3 WtCom= 9.26D-01 WtEn= 7.42D-02
 Coeff-Com:  0.254D-02 0.119D-01 0.307D+00-0.738D-01 0.753D+00
 Coeff-En:   0.000D+00 0.000D+00 0.325D+00 0.000D+00 0.675D+00
 Coeff:      0.235D-02 0.110D-01 0.308D+00-0.683D-01 0.747D+00
 Gap=     0.188 Goal=   None    Shift=    0.000
 RMSDP=5.82D-04 MaxDP=2.29D-02 DE=-1.57D-01 OVMax= 4.45D-02

 Cycle   6  Pass 0  IDiag  1:
 RMSU=  9.77D-05    CP:  9.67D-01  9.30D-01  6.71D-01  2.82D-01  7.87D-01
 E= -611.888488272287     Delta-E=       -0.012213667991 Rises=F Damp=F
 DIIS: error= 5.61D-04 at cycle   6 NSaved=   6.
 NSaved= 6 IEnMin= 6 EnMin= -611.888488272287     IErMin= 6 ErrMin= 5.61D-04
 ErrMax= 5.61D-04  0.00D+00 EMaxC= 1.00D-01 BMatC= 5.45D-05 BMatP= 1.33D-02
 IDIUse=3 WtCom= 9.94D-01 WtEn= 5.61D-03
 Coeff-Com: -0.356D-03 0.357D-02 0.134D+00-0.583D-01 0.432D+00 0.489D+00
 Coeff-En:   0.000D+00 0.000D+00 0.000D+00 0.000D+00 0.000D+00 0.100D+01
 Coeff:     -0.354D-03 0.355D-02 0.133D+00-0.580D-01 0.429D+00 0.492D+00
 Gap=     0.189 Goal=   None    Shift=    0.000
 RMSDP=4.91D-05 MaxDP=1.69D-03 DE=-1.22D-02 OVMax= 3.97D-03

 Cycle   7  Pass 0  IDiag  1:
 RMSU=  2.26D-05    CP:  9.67D-01  9.30D-01  6.67D-01  2.87D-01  8.40D-01
                    CP:  5.99D-01
 E= -611.888543557871     Delta-E=       -0.000055285584 Rises=F Damp=F
 DIIS: error= 2.11D-04 at cycle   7 NSaved=   7.
 NSaved= 7 IEnMin= 7 EnMin= -611.888543557871     IErMin= 7 ErrMin= 2.11D-04
 ErrMax= 2.11D-04  0.00D+00 EMaxC= 1.00D-01 BMatC= 5.49D-06 BMatP= 5.45D-05
 IDIUse=3 WtCom= 9.98D-01 WtEn= 2.11D-03
 Coeff-Com: -0.266D-03 0.961D-03 0.594D-01-0.303D-01 0.206D+00 0.290D+00
 Coeff-Com:  0.474D+00
 Coeff-En:   0.000D+00 0.000D+00 0.000D+00 0.000D+00 0.000D+00 0.163D-01
 Coeff-En:   0.984D+00
 Coeff:     -0.265D-03 0.959D-03 0.593D-01-0.302D-01 0.205D+00 0.289D+00
 Coeff:      0.475D+00
 Gap=     0.189 Goal=   None    Shift=    0.000
 RMSDP=1.30D-05 MaxDP=5.12D-04 DE=-5.53D-05 OVMax= 1.09D-03

 Cycle   8  Pass 0  IDiag  1:
 RMSU=  7.22D-06    CP:  9.67D-01  9.30D-01  6.69D-01  2.86D-01  8.33D-01
                    CP:  6.25D-01  5.63D-01
 E= -611.888548897932     Delta-E=       -0.000005340061 Rises=F Damp=F
 DIIS: error= 5.03D-05 at cycle   8 NSaved=   8.
 NSaved= 8 IEnMin= 8 EnMin= -611.888548897932     IErMin= 8 ErrMin= 5.03D-05
 ErrMax= 5.03D-05  0.00D+00 EMaxC= 1.00D-01 BMatC= 5.50D-07 BMatP= 5.49D-06
 IDIUse=1 WtCom= 1.00D+00 WtEn= 0.00D+00
 Coeff-Com:  0.589D-04-0.351D-03 0.107D-01-0.613D-02 0.373D-01 0.705D-01
 Coeff-Com:  0.253D+00 0.635D+00
 Coeff:      0.589D-04-0.351D-03 0.107D-01-0.613D-02 0.373D-01 0.705D-01
 Coeff:      0.253D+00 0.635D+00
 Gap=     0.189 Goal=   None    Shift=    0.000
 RMSDP=4.43D-06 MaxDP=1.78D-04 DE=-5.34D-06 OVMax= 2.72D-04

 Initial convergence to 1.0D-05 achieved.  Increase integral accuracy.
 Cycle   9  Pass 1  IDiag  1:
 E= -611.888546733738     Delta-E=        0.000002164194 Rises=F Damp=F
 DIIS: error= 5.63D-05 at cycle   1 NSaved=   1.
 NSaved= 1 IEnMin= 1 EnMin= -611.888546733738     IErMin= 1 ErrMin= 5.63D-05
 ErrMax= 5.63D-05  0.00D+00 EMaxC= 1.00D-01 BMatC= 4.52D-07 BMatP= 4.52D-07
 IDIUse=1 WtCom= 1.00D+00 WtEn= 0.00D+00
 Coeff-Com:  0.100D+01
 Coeff:      0.100D+01
 Gap=     0.189 Goal=   None    Shift=    0.000
 RMSDP=4.43D-06 MaxDP=1.78D-04 DE= 2.16D-06 OVMax= 1.49D-04

 Cycle  10  Pass 1  IDiag  1:
 RMSU=  5.22D-05    CP:  1.00D+00
 E= -611.888547147660     Delta-E=       -0.000000413922 Rises=F Damp=F
 DIIS: error= 2.21D-05 at cycle   2 NSaved=   2.
 NSaved= 2 IEnMin= 2 EnMin= -611.888547147660     IErMin= 2 ErrMin= 2.21D-05
 ErrMax= 2.21D-05  0.00D+00 EMaxC= 1.00D-01 BMatC= 1.29D-07 BMatP= 4.52D-07
 IDIUse=1 WtCom= 1.00D+00 WtEn= 0.00D+00
 Coeff-Com:  0.277D+00 0.723D+00
 Coeff:      0.277D+00 0.723D+00
 Gap=     0.189 Goal=   None    Shift=    0.000
 RMSDP=3.35D-06 MaxDP=1.48D-04 DE=-4.14D-07 OVMax= 1.94D-04

 Cycle  11  Pass 1  IDiag  1:
 RMSU=  3.33D-06    CP:  1.00D+00  1.01D+00
 E= -611.888547140373     Delta-E=        0.000000007287 Rises=F Damp=F
 DIIS: error= 2.41D-05 at cycle   3 NSaved=   3.
 NSaved= 3 IEnMin= 2 EnMin= -611.888547147660     IErMin= 2 ErrMin= 2.21D-05
 ErrMax= 2.41D-05  0.00D+00 EMaxC= 1.00D-01 BMatC= 1.37D-07 BMatP= 1.29D-07
 IDIUse=1 WtCom= 1.00D+00 WtEn= 0.00D+00
 Coeff-Com:  0.694D-02 0.506D+00 0.487D+00
 Coeff:      0.694D-02 0.506D+00 0.487D+00
 Gap=     0.189 Goal=   None    Shift=    0.000
 RMSDP=1.85D-06 MaxDP=7.96D-05 DE= 7.29D-09 OVMax= 1.20D-04

 Cycle  12  Pass 1  IDiag  1:
 RMSU=  6.51D-07    CP:  1.00D+00  1.01D+00  4.91D-01
 E= -611.888547260459     Delta-E=       -0.000000120085 Rises=F Damp=F
 DIIS: error= 4.27D-06 at cycle   4 NSaved=   4.
 NSaved= 4 IEnMin= 4 EnMin= -611.888547260459     IErMin= 4 ErrMin= 4.27D-06
 ErrMax= 4.27D-06  0.00D+00 EMaxC= 1.00D-01 BMatC= 6.47D-09 BMatP= 1.29D-07
 IDIUse=1 WtCom= 1.00D+00 WtEn= 0.00D+00
 Coeff-Com: -0.450D-02 0.303D+00 0.315D+00 0.386D+00
 Coeff:     -0.450D-02 0.303D+00 0.315D+00 0.386D+00
 Gap=     0.189 Goal=   None    Shift=    0.000
 RMSDP=3.90D-07 MaxDP=1.23D-05 DE=-1.20D-07 OVMax= 2.55D-05

 Cycle  13  Pass 1  IDiag  1:
 RMSU=  1.60D-07    CP:  1.00D+00  1.01D+00  5.19D-01  4.74D-01
 E= -611.888547266673     Delta-E=       -0.000000006215 Rises=F Damp=F
 DIIS: error= 8.46D-07 at cycle   5 NSaved=   5.
 NSaved= 5 IEnMin= 5 EnMin= -611.888547266673     IErMin= 5 ErrMin= 8.46D-07
 ErrMax= 8.46D-07  0.00D+00 EMaxC= 1.00D-01 BMatC= 1.09D-10 BMatP= 6.47D-09
 IDIUse=1 WtCom= 1.00D+00 WtEn= 0.00D+00
 Coeff-Com: -0.282D-02 0.167D+00 0.175D+00 0.228D+00 0.433D+00
 Coeff:     -0.282D-02 0.167D+00 0.175D+00 0.228D+00 0.433D+00
 Gap=     0.189 Goal=   None    Shift=    0.000
 RMSDP=6.18D-08 MaxDP=1.72D-06 DE=-6.21D-09 OVMax= 3.70D-06

 Cycle  14  Pass 1  IDiag  1:
 RMSU=  4.91D-08    CP:  1.00D+00  1.01D+00  5.15D-01  4.76D-01  7.85D-01
 E= -611.888547266764     Delta-E=       -0.000000000091 Rises=F Damp=F
 DIIS: error= 1.85D-07 at cycle   6 NSaved=   6.
 NSaved= 6 IEnMin= 6 EnMin= -611.888547266764     IErMin= 6 ErrMin= 1.85D-07
 ErrMax= 1.85D-07  0.00D+00 EMaxC= 1.00D-01 BMatC= 7.06D-12 BMatP= 1.09D-10
 IDIUse=1 WtCom= 1.00D+00 WtEn= 0.00D+00
 Coeff-Com: -0.117D-02 0.659D-01 0.692D-01 0.919D-01 0.248D+00 0.527D+00
 Coeff:     -0.117D-02 0.659D-01 0.692D-01 0.919D-01 0.248D+00 0.527D+00
 Gap=     0.189 Goal=   None    Shift=    0.000
 RMSDP=2.20D-08 MaxDP=5.80D-07 DE=-9.07D-11 OVMax= 1.32D-06

 Cycle  15  Pass 1  IDiag  1:
 RMSU=  2.00D-08    CP:  1.00D+00  1.01D+00  5.14D-01  4.74D-01  8.06D-01
                    CP:  8.40D-01
 E= -611.888547266772     Delta-E=       -0.000000000008 Rises=F Damp=F
 DIIS: error= 9.92D-08 at cycle   7 NSaved=   7.
 NSaved= 7 IEnMin= 7 EnMin= -611.888547266772     IErMin= 7 ErrMin= 9.92D-08
 ErrMax= 9.92D-08  0.00D+00 EMaxC= 1.00D-01 BMatC= 1.34D-12 BMatP= 7.06D-12
 IDIUse=1 WtCom= 1.00D+00 WtEn= 0.00D+00
 Coeff-Com: -0.133D-03 0.597D-02 0.654D-02 0.914D-02 0.621D-01 0.334D+00
 Coeff-Com:  0.582D+00
 Coeff:     -0.133D-03 0.597D-02 0.654D-02 0.914D-02 0.621D-01 0.334D+00
 Coeff:      0.582D+00
 Gap=     0.189 Goal=   None    Shift=    0.000
 RMSDP=7.90D-09 MaxDP=2.02D-07 DE=-7.96D-12 OVMax= 4.88D-07

 SCF Done:  E(RB3LYP) =  -611.888547267     A.U. after   15 cycles
            NFock= 15  Conv=0.79D-08     -V/T= 2.0091
 KE= 6.063697832196D+02 PE=-3.153976155655D+03 EE= 1.069215273413D+03
 Leave Link  502 at Sun Feb 25 23:08:32 2024, MaxMem=  7516192768 cpu:             184.4 elap:               4.7
 (Enter /public/apps/g16-C01//g16/l601.exe)
 Copying SCF densities to generalized density rwf, IOpCl= 0 IROHF=0.

 **********************************************************************

            Population analysis using the SCF Density.

 **********************************************************************

 Alpha  occ. eigenvalues --  -19.16564 -14.32226 -14.29805 -10.26780 -10.23436
 Alpha  occ. eigenvalues --  -10.23366 -10.22120 -10.21040 -10.20886 -10.20065
 Alpha  occ. eigenvalues --  -10.19961 -10.18344 -10.16887 -10.15313  -1.08420
 Alpha  occ. eigenvalues --   -0.95147  -0.89967  -0.81025  -0.80657  -0.77828
 Alpha  occ. eigenvalues --   -0.73069  -0.67808  -0.65057  -0.64795  -0.62282
 Alpha  occ. eigenvalues --   -0.57677  -0.56485  -0.53293  -0.50265  -0.49743
 Alpha  occ. eigenvalues --   -0.49004  -0.46661  -0.46326  -0.43381  -0.43282
 Alpha  occ. eigenvalues --   -0.42179  -0.41987  -0.41149  -0.39139  -0.38602
 Alpha  occ. eigenvalues --   -0.37719  -0.37420  -0.36672  -0.33808  -0.33518
 Alpha  occ. eigenvalues --   -0.32404  -0.30057  -0.27754  -0.26840  -0.25430
 Alpha  occ. eigenvalues --   -0.24226
 Alpha virt. eigenvalues --   -0.05344  -0.02644   0.05305   0.06089   0.06414
 Alpha virt. eigenvalues --    0.08209   0.08389   0.09905   0.10374   0.12237
 Alpha virt. eigenvalues --    0.12853   0.13517   0.14155   0.14784   0.15371
 Alpha virt. eigenvalues --    0.16106   0.16373   0.16641   0.18604   0.19752
 Alpha virt. eigenvalues --    0.22123   0.22962   0.23928   0.24588   0.25782
 Alpha virt. eigenvalues --    0.27038   0.28070   0.29703   0.32112   0.33701
 Alpha virt. eigenvalues --    0.35543   0.38229   0.39567   0.40043   0.41061
 Alpha virt. eigenvalues --    0.42559   0.43242   0.44291   0.45002   0.45585
 Alpha virt. eigenvalues --    0.46327   0.47801   0.51109   0.51975   0.52246
 Alpha virt. eigenvalues --    0.53015   0.55040   0.56510   0.57320   0.58137
 Alpha virt. eigenvalues --    0.59264   0.59400   0.61511   0.62099   0.64246
 Alpha virt. eigenvalues --    0.64846   0.65351   0.66095   0.66582   0.67509
 Alpha virt. eigenvalues --    0.67892   0.68221   0.69400   0.69949   0.70679
 Alpha virt. eigenvalues --    0.71312   0.71728   0.72125   0.72630   0.73302
 Alpha virt. eigenvalues --    0.73589   0.73820   0.74399   0.74587   0.75099
 Alpha virt. eigenvalues --    0.76176   0.76986   0.78982   0.79766   0.83502
 Alpha virt. eigenvalues --    0.85463   0.85943   0.89482   0.90858   0.94198
 Alpha virt. eigenvalues --    0.96876   0.98727   1.00479   1.05796   1.06869
 Alpha virt. eigenvalues --    1.12186   1.12627   1.12842   1.15888   1.17607
 Alpha virt. eigenvalues --    1.18599   1.20901   1.26329   1.27665   1.33505
 Alpha virt. eigenvalues --    1.35604   1.37781   1.38583   1.42552   1.43895
 Alpha virt. eigenvalues --    1.47521   1.49299   1.49842   1.57952   1.58812
 Alpha virt. eigenvalues --    1.60413   1.64255   1.67219   1.69932   1.76832
 Alpha virt. eigenvalues --    1.78723   1.80164   1.81342   1.82517   1.83106
 Alpha virt. eigenvalues --    1.86085   1.89667   1.90557   1.91871   1.93089
 Alpha virt. eigenvalues --    1.94420   1.96471   1.96679   2.01144   2.03016
 Alpha virt. eigenvalues --    2.04610   2.05993   2.07205   2.09545   2.12389
 Alpha virt. eigenvalues --    2.14384   2.16037   2.17157   2.17590   2.19282
 Alpha virt. eigenvalues --    2.20349   2.23647   2.25166   2.29619   2.32991
 Alpha virt. eigenvalues --    2.40693   2.40830   2.42090   2.45650   2.47062
 Alpha virt. eigenvalues --    2.51995   2.54110   2.55908   2.58876   2.66002
 Alpha virt. eigenvalues --    2.67901   2.70268   2.73119   2.74506   2.77870
 Alpha virt. eigenvalues --    2.82856   2.83216   2.86359   2.87592   2.91866
 Alpha virt. eigenvalues --    2.98525   3.00446   3.14553   3.20732   3.29307
 Alpha virt. eigenvalues --    3.38465   3.51099   3.64082
          Condensed to atoms (all electrons):
               1          2          3          4          5          6
     1  C    4.822558   0.424973  -0.052573  -0.057586   0.010622  -0.000168
     2  C    0.424973   4.876729   0.399737   0.356091  -0.046308   0.001057
     3  C   -0.052573   0.399737   4.850837  -0.053671  -0.001484   0.000123
     4  C   -0.057586   0.356091  -0.053671   4.949055   0.327743  -0.065471
     5  C    0.010622  -0.046308  -0.001484   0.327743   4.770363   0.332028
     6  O   -0.000168   0.001057   0.000123  -0.065471   0.332028   7.884675
     7  C   -0.001702   0.000948  -0.000171  -0.070406  -0.112852   0.423243
     8  C    0.000109   0.000295   0.000007   0.018982   0.002338  -0.130982
     9  C    0.000002   0.000013  -0.000001  -0.000139  -0.001037   0.020754
    10  C   -0.000000  -0.000000   0.000000   0.000006  -0.000003   0.000968
    11  C   -0.000000   0.000000  -0.000000   0.000006   0.000000  -0.000029
    12  C   -0.000001  -0.000000   0.000000   0.000004   0.000016  -0.000031
    13  N   -0.000075   0.000037  -0.000000  -0.000228  -0.000156   0.001020
    14  N   -0.010114  -0.077255   0.006835   0.384384  -0.055056  -0.102309
    15  H    0.372930  -0.025630  -0.008031  -0.005578   0.000077   0.000002
    16  H    0.368583  -0.021881  -0.004239   0.008969  -0.000304   0.000007
    17  H    0.369275  -0.016013   0.008821  -0.017020   0.001833   0.000131
    18  H   -0.033266   0.327668  -0.031489  -0.015445  -0.012890  -0.000060
    19  H    0.009322  -0.020751   0.368598  -0.008018   0.007063  -0.000075
    20  H   -0.004732  -0.014079   0.368182   0.008366  -0.000137   0.000003
    21  H   -0.008139  -0.020636   0.370864  -0.008190  -0.002131  -0.000008
    22  H   -0.009851  -0.029864  -0.008057   0.334287  -0.026634   0.003168
    23  H    0.000628  -0.009061  -0.003387  -0.013677   0.351969  -0.029668
    24  H   -0.000487   0.004096   0.000670   0.005440   0.339722  -0.029041
    25  H    0.000001  -0.000004   0.000000   0.000113   0.000186   0.012025
    26  H   -0.000000   0.000000  -0.000000  -0.000000  -0.000001  -0.000018
    27  H    0.000000  -0.000000   0.000000   0.000000   0.000000  -0.000000
    28  H    0.000000  -0.000000   0.000000  -0.000002   0.000000   0.000002
               7          8          9         10         11         12
     1  C   -0.001702   0.000109   0.000002  -0.000000  -0.000000  -0.000001
     2  C    0.000948   0.000295   0.000013  -0.000000   0.000000  -0.000000
     3  C   -0.000171   0.000007  -0.000001   0.000000  -0.000000   0.000000
     4  C   -0.070406   0.018982  -0.000139   0.000006   0.000006   0.000004
     5  C   -0.112852   0.002338  -0.001037  -0.000003   0.000000   0.000016
     6  O    0.423243  -0.130982   0.020754   0.000968  -0.000029  -0.000031
     7  C    5.256708  -0.018602  -0.127523   0.012864   0.000589   0.010349
     8  C   -0.018602   5.461489   0.345205   0.032774  -0.090612  -0.030938
     9  C   -0.127523   0.345205   5.272467   0.308812   0.073812  -0.105384
    10  C    0.012864   0.032774   0.308812   5.019633   0.343514   0.037537
    11  C    0.000589  -0.090612   0.073812   0.343514   5.121852   0.367453
    12  C    0.010349  -0.030938  -0.105384   0.037537   0.367453   4.867181
    13  N   -0.109039   0.578152  -0.058391  -0.057641  -0.019185   0.530049
    14  N    0.638355  -0.120850   0.008358  -0.000077  -0.000034   0.000258
    15  H   -0.000013  -0.000012  -0.000000  -0.000000   0.000000   0.000000
    16  H    0.000043  -0.000010  -0.000000   0.000000  -0.000000   0.000000
    17  H    0.001534  -0.000601  -0.000003   0.000001  -0.000000   0.000009
    18  H    0.004347  -0.000624  -0.000023  -0.000000   0.000000   0.000000
    19  H    0.000046   0.000002   0.000000   0.000000   0.000000  -0.000000
    20  H   -0.000001  -0.000001   0.000000  -0.000000  -0.000000  -0.000000
    21  H    0.000034  -0.000001   0.000000  -0.000000   0.000000  -0.000000
    22  H    0.003916  -0.000824   0.000001  -0.000001  -0.000000   0.000000
    23  H    0.008217   0.000213   0.000004  -0.000000   0.000000  -0.000001
    24  H    0.007060   0.000313  -0.000013  -0.000002   0.000000  -0.000001
    25  H   -0.018207  -0.044082   0.417670  -0.075011   0.012724  -0.000252
    26  H   -0.000660   0.014056  -0.076164   0.436456  -0.077044   0.011861
    27  H    0.000157   0.000771   0.012824  -0.072214   0.408473  -0.053222
    28  H   -0.000210   0.006762   0.001409   0.006925  -0.084993   0.409903
              13         14         15         16         17         18
     1  C   -0.000075  -0.010114   0.372930   0.368583   0.369275  -0.033266
     2  C    0.000037  -0.077255  -0.025630  -0.021881  -0.016013   0.327668
     3  C   -0.000000   0.006835  -0.008031  -0.004239   0.008821  -0.031489
     4  C   -0.000228   0.384384  -0.005578   0.008969  -0.017020  -0.015445
     5  C   -0.000156  -0.055056   0.000077  -0.000304   0.001833  -0.012890
     6  O    0.001020  -0.102309   0.000002   0.000007   0.000131  -0.000060
     7  C   -0.109039   0.638355  -0.000013   0.000043   0.001534   0.004347
     8  C    0.578152  -0.120850  -0.000012  -0.000010  -0.000601  -0.000624
     9  C   -0.058391   0.008358  -0.000000  -0.000000  -0.000003  -0.000023
    10  C   -0.057641  -0.000077  -0.000000   0.000000   0.000001  -0.000000
    11  C   -0.019185  -0.000034   0.000000  -0.000000  -0.000000   0.000000
    12  C    0.530049   0.000258   0.000000   0.000000   0.000009   0.000000
    13  N    6.202645   0.001055   0.000001   0.000000   0.000389  -0.000008
    14  N    0.001055   6.429745  -0.001046   0.000318   0.028776  -0.001405
    15  H    0.000001  -0.001046   0.617375  -0.026733  -0.019172   0.009092
    16  H    0.000000   0.000318  -0.026733   0.618071  -0.019686  -0.007588
    17  H    0.000389   0.028776  -0.019172  -0.019686   0.550674  -0.004826
    18  H   -0.000008  -0.001405   0.009092  -0.007588  -0.004826   0.704497
    19  H   -0.000000   0.000117  -0.000104  -0.000090  -0.000414  -0.006866
    20  H    0.000000  -0.000190  -0.001040   0.006191  -0.000116  -0.006331
    21  H    0.000000  -0.000082   0.008285  -0.001098  -0.000107   0.009232
    22  H    0.000028  -0.030822   0.007629  -0.000237  -0.000191   0.010829
    23  H    0.000004   0.001823   0.000048  -0.000053  -0.000070   0.009215
    24  H    0.000005   0.002099   0.000001   0.000014  -0.000050  -0.000017
    25  H    0.005500   0.000783  -0.000000  -0.000000  -0.000001  -0.000005
    26  H   -0.000174  -0.000000   0.000000   0.000000   0.000000   0.000000
    27  H    0.005949  -0.000000  -0.000000  -0.000000  -0.000000  -0.000000
    28  H   -0.047396   0.000003  -0.000000   0.000000  -0.000002  -0.000000
              19         20         21         22         23         24
     1  C    0.009322  -0.004732  -0.008139  -0.009851   0.000628  -0.000487
     2  C   -0.020751  -0.014079  -0.020636  -0.029864  -0.009061   0.004096
     3  C    0.368598   0.368182   0.370864  -0.008057  -0.003387   0.000670
     4  C   -0.008018   0.008366  -0.008190   0.334287  -0.013677   0.005440
     5  C    0.007063  -0.000137  -0.002131  -0.026634   0.351969   0.339722
     6  O   -0.000075   0.000003  -0.000008   0.003168  -0.029668  -0.029041
     7  C    0.000046  -0.000001   0.000034   0.003916   0.008217   0.007060
     8  C    0.000002  -0.000001  -0.000001  -0.000824   0.000213   0.000313
     9  C    0.000000   0.000000   0.000000   0.000001   0.000004  -0.000013
    10  C    0.000000  -0.000000  -0.000000  -0.000001  -0.000000  -0.000002
    11  C    0.000000  -0.000000   0.000000  -0.000000   0.000000   0.000000
    12  C   -0.000000  -0.000000  -0.000000   0.000000  -0.000001  -0.000001
    13  N   -0.000000   0.000000   0.000000   0.000028   0.000004   0.000005
    14  N    0.000117  -0.000190  -0.000082  -0.030822   0.001823   0.002099
    15  H   -0.000104  -0.001040   0.008285   0.007629   0.000048   0.000001
    16  H   -0.000090   0.006191  -0.001098  -0.000237  -0.000053   0.000014
    17  H   -0.000414  -0.000116  -0.000107  -0.000191  -0.000070  -0.000050
    18  H   -0.006866  -0.006331   0.009232   0.010829   0.009215  -0.000017
    19  H    0.609998  -0.021575  -0.024775  -0.000577   0.006684  -0.001433
    20  H   -0.021575   0.597239  -0.023226  -0.000195  -0.000266   0.000016
    21  H   -0.024775  -0.023226   0.608207   0.009730   0.000448   0.000112
    22  H   -0.000577  -0.000195   0.009730   0.680394   0.007338  -0.012798
    23  H    0.006684  -0.000266   0.000448   0.007338   0.624843  -0.038388
    24  H   -0.001433   0.000016   0.000112  -0.012798  -0.038388   0.637400
    25  H    0.000000  -0.000000  -0.000000  -0.000008  -0.000014  -0.000046
    26  H   -0.000000   0.000000   0.000000   0.000000  -0.000000   0.000000
    27  H    0.000000  -0.000000  -0.000000  -0.000000  -0.000000  -0.000000
    28  H    0.000000  -0.000000  -0.000000   0.000000  -0.000000   0.000000
              25         26         27         28
     1  C    0.000001  -0.000000   0.000000   0.000000
     2  C   -0.000004   0.000000  -0.000000  -0.000000
     3  C    0.000000  -0.000000   0.000000   0.000000
     4  C    0.000113  -0.000000   0.000000  -0.000002
     5  C    0.000186  -0.000001   0.000000   0.000000
     6  O    0.012025  -0.000018  -0.000000   0.000002
     7  C   -0.018207  -0.000660   0.000157  -0.000210
     8  C   -0.044082   0.014056   0.000771   0.006762
     9  C    0.417670  -0.076164   0.012824   0.001409
    10  C   -0.075011   0.436456  -0.072214   0.006925
    11  C    0.012724  -0.077044   0.408473  -0.084993
    12  C   -0.000252   0.011861  -0.053222   0.409903
    13  N    0.005500  -0.000174   0.005949  -0.047396
    14  N    0.000783  -0.000000  -0.000000   0.000003
    15  H   -0.000000   0.000000  -0.000000  -0.000000
    16  H   -0.000000   0.000000  -0.000000   0.000000
    17  H   -0.000001   0.000000  -0.000000  -0.000002
    18  H   -0.000005   0.000000  -0.000000  -0.000000
    19  H    0.000000  -0.000000   0.000000   0.000000
    20  H   -0.000000   0.000000  -0.000000  -0.000000
    21  H   -0.000000   0.000000  -0.000000  -0.000000
    22  H   -0.000008   0.000000  -0.000000   0.000000
    23  H   -0.000014  -0.000000  -0.000000  -0.000000
    24  H   -0.000046   0.000000  -0.000000   0.000000
    25  H    0.631836  -0.010549  -0.000147   0.000089
    26  H   -0.010549   0.651594  -0.012028  -0.000327
    27  H   -0.000147  -0.012028   0.651565  -0.005770
    28  H    0.000089  -0.000327  -0.005770   0.646068
 Mulliken charges:
               1
     1  C   -0.200310
     2  C   -0.110162
     3  C   -0.211572
     4  C   -0.078017
     5  C    0.115035
     6  O   -0.321346
     7  C    0.090976
     8  C   -0.023330
     9  C   -0.092656
    10  C    0.005460
    11  C   -0.056527
    12  C   -0.044791
    13  N   -0.032542
    14  N   -0.103671
    15  H    0.071921
    16  H    0.079723
    17  H    0.116829
    18  H    0.045962
    19  H    0.082849
    20  H    0.091893
    21  H    0.081482
    22  H    0.062740
    23  H    0.083148
    24  H    0.085328
    25  H    0.067399
    26  H    0.062999
    27  H    0.063642
    28  H    0.067539
 Sum of Mulliken charges =  -0.00000
 Mulliken charges with hydrogens summed into heavy atoms:
               1
     1  C    0.068163
     2  C   -0.064200
     3  C    0.044652
     4  C   -0.015277
     5  C    0.283511
     6  O   -0.321346
     7  C    0.090976
     8  C   -0.023330
     9  C   -0.025258
    10  C    0.068459
    11  C    0.007115
    12  C    0.022748
    13  N   -0.032542
    14  N   -0.103671
 Electronic spatial extent (au):  <R**2>=           3582.2553
 Charge=             -0.0000 electrons
 Dipole moment (field-independent basis, Debye):
    X=              0.8535    Y=             -2.1432    Z=             -0.3763  Tot=              2.3374
 Quadrupole moment (field-independent basis, Debye-Ang):
   XX=            -66.8042   YY=            -84.4479   ZZ=            -83.8242
   XY=              1.7280   XZ=             -1.5582   YZ=             -1.1941
 Traceless Quadrupole moment (field-independent basis, Debye-Ang):
   XX=             11.5546   YY=             -6.0891   ZZ=             -5.4654
   XY=              1.7280   XZ=             -1.5582   YZ=             -1.1941
 Octapole moment (field-independent basis, Debye-Ang**2):
  XXX=             75.8558  YYY=            -10.4864  ZZZ=              5.4487  XYY=             15.8681
  XXY=             -2.9509  XXZ=             -3.4318  XZZ=             -2.7536  YZZ=             -3.5042
  YYZ=             -0.0952  XYZ=              2.1106
 Hexadecapole moment (field-independent basis, Debye-Ang**3):
 XXXX=          -3752.4853 YYYY=           -751.1016 ZZZZ=           -168.4590 XXXY=             22.6584
 XXXZ=            -37.3857 YYYX=             31.0781 YYYZ=             21.4422 ZZZX=             -8.0613
 ZZZY=             21.1461 XXYY=           -750.0481 XXZZ=           -710.8465 YYZZ=           -154.5225
 XXYZ=              7.7312 YYXZ=             -7.1902 ZZXY=              3.9626
 N-N= 8.665025517559D+02 E-N=-3.153976168740D+03  KE= 6.063697832196D+02
 No NMR shielding tensors so no spin-rotation constants.
 Leave Link  601 at Sun Feb 25 23:08:32 2024, MaxMem=  7516192768 cpu:               3.6 elap:               0.1
 (Enter /public/apps/g16-C01//g16/l701.exe)
 ... and contract with generalized density number  0.
 Compute integral first derivatives.
 R6Disp: Adding Grimme-D3(BJ) dispersion energy 1st derivatives to the gradient.
   1 Symmetry operations used in ECPInt.
 ECPInt:  NShTT=    6328 NPrTT=   25424 LenC2=    6019 LenP2D=   17243.
 LDataN:  DoStor=T MaxTD1= 5 Len=  102
 Leave Link  701 at Sun Feb 25 23:08:33 2024, MaxMem=  7516192768 cpu:               5.4 elap:               0.2
 (Enter /public/apps/g16-C01//g16/l702.exe)
 L702 exits ... SP integral derivatives will be done elsewhere.
 Leave Link  702 at Sun Feb 25 23:08:33 2024, MaxMem=  7516192768 cpu:               0.4 elap:               0.0
 (Enter /public/apps/g16-C01//g16/l703.exe)
 Integral derivatives from FoFJK, PRISM(SPDF).
 Compute integral first derivatives, UseDBF=F ICtDFT=           0.
 Calling FoFJK, ICntrl=      2127 FMM=F ISym2X=0 I1Cent= 0 IOpClX= 0 NMat=1 NMatS=1 NMatT=0.
 FoFJK:  IHMeth= 1 ICntrl=    2127 DoSepK=F KAlg= 0 I1Cent=           0 FoldK=F
 IRaf=         0 NMat=       1 IRICut=       1 DoRegI=T DoRafI=F ISym2E= 0 IDoP0=0 IntGTp=1.
 FoFCou: FMM=F IPFlag=           0 FMFlag=      100000 FMFlg1=         800
         NFxFlg=           0 DoJE=F BraDBF=F KetDBF=F FulRan=T
         wScrn=  0.000000 ICntrl=      2127 IOpCl=  0 I1Cent=           0 NGrid=           0
         NMat0=    1 NMatS0=      1 NMatT0=    0 NMatD0=    1 NMtDS0=    0 NMtDT0=    0
 Symmetry not used in FoFCou.
 Leave Link  703 at Sun Feb 25 23:08:34 2024, MaxMem=  7516192768 cpu:              40.3 elap:               1.0
 (Enter /public/apps/g16-C01//g16/l716.exe)
 Dipole        = 3.35799012D-01-8.43198414D-01-1.48040191D-01
 -------------------------------------------------------------------
 Center     Atomic                   Forces (Hartrees/Bohr)
 Number     Number              X              Y              Z
 -------------------------------------------------------------------
      1        6           0.002996995   -0.008910667   -0.005358785
      2        6          -0.004451679    0.003580186    0.010974905
      3        6           0.010289471    0.002913748   -0.003681022
      4        6           0.000569075   -0.005702803   -0.009067749
      5        6          -0.005888363    0.002019319    0.002253225
      6        8           0.010541831   -0.003187734   -0.001094171
      7        6          -0.007288708   -0.002354771    0.000877652
      8        6           0.002599027   -0.005634874   -0.001220797
      9        6          -0.002310959   -0.000687484    0.000126534
     10        6           0.002349493   -0.000319892   -0.000257839
     11        6           0.001721325   -0.001653197   -0.000321104
     12        6           0.001139083    0.003045279    0.000101392
     13        7          -0.009834899    0.006399559    0.001645440
     14        7           0.003149418    0.014705276    0.003245070
     15        1          -0.004755997    0.003796154    0.010627583
     16        1          -0.007335755    0.005687875   -0.007368208
     17        1           0.008514016    0.006049381   -0.000276864
     18        1           0.003397826   -0.002234018   -0.005607462
     19        1          -0.001341467   -0.011821720   -0.001486281
     20        1          -0.008534926    0.002791253   -0.007080709
     21        1          -0.005208918    0.001803819    0.010379693
     22        1          -0.004151741    0.000336096    0.005645120
     23        1          -0.002805875   -0.003396417   -0.004761792
     24        1          -0.001641936   -0.004846010    0.004114216
     25        1          -0.003085215   -0.008796116   -0.000206947
     26        1           0.006488459   -0.007050624   -0.001201470
     27        1           0.009943955    0.003151632   -0.001024761
     28        1           0.004936465    0.010316749    0.000025129
 -------------------------------------------------------------------
 Cartesian Forces:  Max     0.014705276 RMS     0.005562839
 Leave Link  716 at Sun Feb 25 23:08:34 2024, MaxMem=  7516192768 cpu:               0.5 elap:               0.0
 (Enter /public/apps/g16-C01//g16/l103.exe)

 GradGradGradGradGradGradGradGradGradGradGradGradGradGradGradGradGradGrad
 Berny optimization.
 FormGI is forming the generalized inverse of G from B-inverse, IUseBI=4.
 Internal  Forces:  Max     0.015250545 RMS     0.004623279
 Search for a local minimum.
 Step number   1 out of a maximum of  160
 All quantities printed in internal units (Hartrees-Bohrs-Radians)
 RMS Force = .46233D-02 SwitMx=.10000D-02 MixMth= 1
 Mixed Optimization -- RFO/linear search
 Second derivative matrix not updated -- first step.
 ITU=  0
     Eigenvalues ---    0.00280   0.00419   0.00423   0.00608   0.01267
     Eigenvalues ---    0.01854   0.01944   0.02212   0.02247   0.02253
     Eigenvalues ---    0.02288   0.02291   0.02404   0.02491   0.02606
     Eigenvalues ---    0.03766   0.04058   0.04686   0.04738   0.04858
     Eigenvalues ---    0.05053   0.05548   0.05654   0.05690   0.05717
     Eigenvalues ---    0.05755   0.07771   0.10797   0.11242   0.15468
     Eigenvalues ---    0.16000   0.16000   0.16000   0.16000   0.16000
     Eigenvalues ---    0.16000   0.16000   0.16000   0.16000   0.16000
     Eigenvalues ---    0.16372   0.16585   0.20196   0.22000   0.22428
     Eigenvalues ---    0.24430   0.24646   0.24999   0.25000   0.26687
     Eigenvalues ---    0.28810   0.29773   0.29806   0.34090   0.34112
     Eigenvalues ---    0.34338   0.34502   0.35040   0.35085   0.35101
     Eigenvalues ---    0.35109   0.35113   0.35300   0.35722   0.35909
     Eigenvalues ---    0.36115   0.36211   0.36701   0.37455   0.41167
     Eigenvalues ---    0.42916   0.45766   0.46881   0.48028   0.49237
     Eigenvalues ---    0.57945   0.61103   0.73944
 RFO step:  Lambda=-8.92554487D-03 EMin= 2.80034286D-03
 Linear search not attempted -- first point.
 Iteration  1 RMS(Cart)=  0.06866521 RMS(Int)=  0.00075133
 Iteration  2 RMS(Cart)=  0.00206702 RMS(Int)=  0.00008747
 Iteration  3 RMS(Cart)=  0.00000233 RMS(Int)=  0.00008747
 Iteration  4 RMS(Cart)=  0.00000000 RMS(Int)=  0.00008747
 ITry= 1 IFail=0 DXMaxC= 2.87D-01 DCOld= 1.00D+10 DXMaxT= 3.00D-01 DXLimC= 3.00D+00 Rises=F
 Variable       Old X    -DE/DX   Delta X   Delta X   Delta X     New X
                                 (Linear)    (Quad)   (Total)
    R1        2.88351   0.00635   0.00000   0.02067   0.02067   2.90418
    R2        2.05511   0.01220   0.00000   0.03388   0.03388   2.08899
    R3        2.05498   0.01175   0.00000   0.03263   0.03263   2.08760
    R4        2.05191   0.01025   0.00000   0.02832   0.02832   2.08023
    R5        2.88419   0.00596   0.00000   0.01945   0.01945   2.90364
    R6        2.90401   0.00474   0.00000   0.01596   0.01596   2.91997
    R7        2.07141   0.00677   0.00000   0.01935   0.01935   2.09076
    R8        2.05537   0.01183   0.00000   0.03288   0.03288   2.08825
    R9        2.05491   0.01125   0.00000   0.03126   0.03126   2.08617
   R10        2.05610   0.01171   0.00000   0.03260   0.03260   2.08870
   R11        2.93856   0.00520   0.00000   0.01443   0.01445   2.95301
   R12        2.72715   0.01371   0.00000   0.03339   0.03342   2.76057
   R13        2.07178   0.00677   0.00000   0.01934   0.01934   2.09112
   R14        2.68698   0.00879   0.00000   0.01992   0.01989   2.70687
   R15        2.06764   0.00638   0.00000   0.01811   0.01811   2.08575
   R16        2.06491   0.00641   0.00000   0.01812   0.01812   2.08302
   R17        2.57735   0.00283   0.00000   0.00726   0.00722   2.58457
   R18        2.76299   0.01362   0.00000   0.03624   0.03624   2.79923
   R19        2.38837   0.01113   0.00000   0.01522   0.01522   2.40358
   R20        2.63738   0.00980   0.00000   0.02048   0.02047   2.65785
   R21        2.51120   0.01226   0.00000   0.02052   0.02052   2.53172
   R22        2.61540   0.01244   0.00000   0.02458   0.02457   2.63997
   R23        2.03754   0.00932   0.00000   0.02513   0.02513   2.06267
   R24        2.61886   0.01037   0.00000   0.02080   0.02080   2.63966
   R25        2.04223   0.00966   0.00000   0.02624   0.02624   2.06848
   R26        2.62604   0.01192   0.00000   0.02501   0.02501   2.65105
   R27        2.03902   0.01047   0.00000   0.02830   0.02830   2.06731
   R28        2.48820   0.01525   0.00000   0.02447   0.02448   2.51268
   R29        2.04519   0.01118   0.00000   0.03054   0.03054   2.07573
    A1        1.92371   0.00073   0.00000   0.00271   0.00269   1.92641
    A2        1.92583   0.00121   0.00000   0.00693   0.00687   1.93270
    A3        1.91626   0.00255   0.00000   0.01696   0.01688   1.93314
    A4        1.89642  -0.00149   0.00000  -0.01236  -0.01235   1.88407
    A5        1.89283  -0.00160   0.00000  -0.00904  -0.00908   1.88375
    A6        1.90831  -0.00152   0.00000  -0.00585  -0.00596   1.90235
    A7        1.93046  -0.00020   0.00000   0.01025   0.00993   1.94039
    A8        1.91355   0.00319   0.00000   0.02976   0.02964   1.94319
    A9        1.89693  -0.00066   0.00000  -0.00582  -0.00556   1.89137
   A10        1.93113  -0.00108   0.00000   0.00131   0.00076   1.93190
   A11        1.90796   0.00013   0.00000  -0.01414  -0.01422   1.89374
   A12        1.88286  -0.00142   0.00000  -0.02249  -0.02249   1.86037
   A13        1.94739   0.00208   0.00000   0.01262   0.01257   1.95995
   A14        1.91924   0.00221   0.00000   0.01297   0.01292   1.93216
   A15        1.92372   0.00053   0.00000   0.00301   0.00299   1.92671
   A16        1.89068  -0.00222   0.00000  -0.01282  -0.01290   1.87778
   A17        1.89071  -0.00134   0.00000  -0.00765  -0.00767   1.88304
   A18        1.89077  -0.00147   0.00000  -0.00931  -0.00933   1.88145
   A19        1.99090  -0.00074   0.00000  -0.00006  -0.00049   1.99041
   A20        1.93749   0.00167   0.00000   0.02520   0.02515   1.96264
   A21        1.89241  -0.00102   0.00000  -0.02067  -0.02084   1.87158
   A22        1.80402   0.00094   0.00000   0.00888   0.00877   1.81279
   A23        1.94933  -0.00053   0.00000  -0.01598  -0.01616   1.93317
   A24        1.88652  -0.00016   0.00000   0.00531   0.00549   1.89201
   A25        1.82292   0.00003   0.00000  -0.00828  -0.00824   1.81468
   A26        1.96231   0.00049   0.00000   0.00627   0.00625   1.96856
   A27        1.97490   0.00102   0.00000   0.00905   0.00904   1.98394
   A28        1.89101   0.00006   0.00000   0.00223   0.00221   1.89322
   A29        1.89858  -0.00053   0.00000  -0.00043  -0.00038   1.89819
   A30        1.90975  -0.00108   0.00000  -0.00902  -0.00904   1.90071
   A31        1.85548   0.00152   0.00000   0.00609   0.00604   1.86152
   A32        2.04423  -0.00740   0.00000  -0.03037  -0.03037   2.01387
   A33        2.04544   0.00106   0.00000   0.00772   0.00771   2.05315
   A34        2.19348   0.00633   0.00000   0.02266   0.02266   2.21614
   A35        2.09552  -0.00096   0.00000  -0.00375  -0.00375   2.09177
   A36        2.04533   0.00180   0.00000   0.00691   0.00691   2.05224
   A37        2.14234  -0.00084   0.00000  -0.00315  -0.00316   2.13918
   A38        2.06694   0.00101   0.00000   0.00222   0.00221   2.06915
   A39        2.09170  -0.00050   0.00000  -0.00107  -0.00107   2.09063
   A40        2.12455  -0.00051   0.00000  -0.00115  -0.00115   2.12340
   A41        2.07335   0.00055   0.00000  -0.00006  -0.00006   2.07329
   A42        2.10262  -0.00030   0.00000  -0.00012  -0.00012   2.10250
   A43        2.10722  -0.00025   0.00000   0.00018   0.00018   2.10739
   A44        2.06164   0.00018   0.00000   0.00042   0.00043   2.06206
   A45        2.11467   0.00037   0.00000   0.00253   0.00253   2.11721
   A46        2.10687  -0.00055   0.00000  -0.00296  -0.00296   2.10391
   A47        2.15785  -0.00124   0.00000  -0.00356  -0.00355   2.15430
   A48        2.11206  -0.00184   0.00000  -0.01276  -0.01276   2.09930
   A49        2.01327   0.00308   0.00000   0.01632   0.01631   2.02959
   A50        2.06425   0.00034   0.00000   0.00413   0.00413   2.06839
   A51        1.89670  -0.00355   0.00000  -0.01445  -0.01435   1.88235
    D1        1.00627   0.00028   0.00000   0.02319   0.02332   1.02959
    D2       -1.12800  -0.00038   0.00000  -0.00516  -0.00529  -1.13329
    D3        3.10097  -0.00010   0.00000   0.00837   0.00833   3.10930
    D4       -1.08829   0.00088   0.00000   0.03240   0.03257  -1.05573
    D5        3.06062   0.00023   0.00000   0.00404   0.00396   3.06458
    D6        1.00640   0.00051   0.00000   0.01757   0.01758   1.02399
    D7        3.09033   0.00035   0.00000   0.02434   0.02445   3.11479
    D8        0.95606  -0.00030   0.00000  -0.00402  -0.00415   0.95191
    D9       -1.09816  -0.00002   0.00000   0.00951   0.00947  -1.08869
   D10        3.13039  -0.00136   0.00000  -0.02000  -0.01995   3.11044
   D11        1.03203  -0.00141   0.00000  -0.02078  -0.02077   1.01126
   D12       -1.05137  -0.00131   0.00000  -0.01930  -0.01926  -1.07064
   D13       -1.02884   0.00181   0.00000   0.02542   0.02539  -1.00346
   D14       -3.12721   0.00175   0.00000   0.02463   0.02457  -3.10264
   D15        1.07257   0.00185   0.00000   0.02612   0.02607   1.09865
   D16        1.04232  -0.00051   0.00000  -0.01020  -0.01017   1.03215
   D17       -1.05605  -0.00056   0.00000  -0.01098  -0.01099  -1.06704
   D18       -3.13945  -0.00046   0.00000  -0.00950  -0.00949   3.13425
   D19       -2.97320  -0.00124   0.00000  -0.03307  -0.03296  -3.00616
   D20       -0.94378   0.00063   0.00000  -0.00447  -0.00426  -0.94804
   D21        1.12603   0.00079   0.00000   0.00406   0.00406   1.13008
   D22        1.17612  -0.00241   0.00000  -0.06677  -0.06678   1.10934
   D23       -3.07765  -0.00054   0.00000  -0.03817  -0.03807  -3.11572
   D24       -1.00784  -0.00039   0.00000  -0.02964  -0.02976  -1.03760
   D25       -0.91021  -0.00107   0.00000  -0.03646  -0.03656  -0.94678
   D26        1.11920   0.00080   0.00000  -0.00787  -0.00786   1.11135
   D27       -3.09418   0.00095   0.00000   0.00067   0.00046  -3.09372
   D28        2.11589   0.00184   0.00000   0.03159   0.03151   2.14740
   D29        0.06935   0.00150   0.00000   0.03072   0.03069   0.10004
   D30       -2.10525   0.00175   0.00000   0.03063   0.03058  -2.07467
   D31        0.01024  -0.00043   0.00000  -0.00502  -0.00507   0.00517
   D32       -2.03630  -0.00076   0.00000  -0.00589  -0.00590  -2.04220
   D33        2.07229  -0.00051   0.00000  -0.00598  -0.00601   2.06628
   D34       -2.01386  -0.00052   0.00000  -0.00887  -0.00888  -2.02274
   D35        2.22279  -0.00086   0.00000  -0.00974  -0.00971   2.21308
   D36        0.04820  -0.00061   0.00000  -0.00983  -0.00982   0.03838
   D37       -2.14031  -0.00017   0.00000  -0.01165  -0.01178  -2.15209
   D38        0.00127   0.00041   0.00000   0.00702   0.00706   0.00833
   D39        2.06951   0.00020   0.00000  -0.00443  -0.00456   2.06496
   D40       -0.01739   0.00025   0.00000   0.00145   0.00147  -0.01592
   D41        2.07767   0.00086   0.00000   0.00542   0.00541   2.08309
   D42       -2.13089  -0.00070   0.00000  -0.00436  -0.00437  -2.13527
   D43       -3.12876   0.00012   0.00000   0.00482   0.00484  -3.12392
   D44        0.02092   0.00001   0.00000   0.00359   0.00365   0.02456
   D45       -0.04889   0.00007   0.00000   0.00456   0.00457  -0.04431
   D46        3.09289   0.00009   0.00000   0.00527   0.00529   3.09818
   D47        3.08386   0.00015   0.00000   0.00580   0.00578   3.08964
   D48       -0.05755   0.00017   0.00000   0.00652   0.00650  -0.05105
   D49       -0.01390  -0.00029   0.00000  -0.00702  -0.00705  -0.02095
   D50        3.13655  -0.00033   0.00000  -0.00809  -0.00811   3.12844
   D51       -3.13940   0.00003   0.00000   0.00112   0.00112  -3.13828
   D52        0.00151   0.00003   0.00000   0.00107   0.00107   0.00258
   D53        0.00200   0.00001   0.00000   0.00036   0.00036   0.00236
   D54       -3.14028   0.00001   0.00000   0.00031   0.00031  -3.13997
   D55        3.13946  -0.00003   0.00000  -0.00087  -0.00087   3.13859
   D56       -0.00194  -0.00001   0.00000  -0.00013  -0.00013  -0.00207
   D57       -0.00049  -0.00002   0.00000  -0.00057  -0.00057  -0.00105
   D58        3.14107  -0.00001   0.00000  -0.00025  -0.00025   3.14081
   D59       -3.14138  -0.00002   0.00000  -0.00052  -0.00052   3.14129
   D60        0.00018  -0.00001   0.00000  -0.00020  -0.00020  -0.00003
   D61       -0.00092   0.00002   0.00000   0.00055   0.00055  -0.00037
   D62        3.14132   0.00002   0.00000   0.00056   0.00056  -3.14130
   D63        3.14071   0.00001   0.00000   0.00023   0.00023   3.14094
   D64       -0.00023   0.00001   0.00000   0.00025   0.00025   0.00002
   D65        0.00103  -0.00001   0.00000  -0.00033  -0.00033   0.00070
   D66       -3.13994  -0.00000   0.00000  -0.00004  -0.00004  -3.13998
[...]
 .28838788,0.00069062,-0.00091530,-0.00009133,0.00540699,-0.00172002,-0
 .02208646,0.00165067,0.00015216,-0.00111804,-0.06713989,0.01440319,0.0
 7198451,-0.00024300,0.00117410,0.00628979,0.00052175,0.00182756,-0.000
 08315,-0.00156490,-0.00630760,0.00153696,-0.00019500,0.00063868,-0.002
 01258,-0.00031622,-0.00014018,0.00005397,0.00007878,-0.00001029,0.0002
 1351,-0.00011710,-0.00016042,-0.00000079,-0.00013876,0.00022737,0.0001
 1295,-0.00008567,-0.00009017,-0.00006576,-0.02259804,0.00086964,0.0279
 5037,-0.00001643,0.00010208,0.00041101,-0.00002559,-0.00023774,0.00014
 556,-0.00003801,0.00005416,0.00002700,-0.00266763,0.00155779,-0.003248
 10,-0.00004444,-0.00012451,0.00004604,0.00025799,0.00006139,0.00018706
 ,-0.00022418,0.00004001,0.00052749,0.08598771,-0.00057458,0.00076386,0
 .00116650,-0.00171836,0.00131422,0.01156874,-0.00040223,0.00002953,-0.
 00062866,0.01217434,-0.05591157,-0.03538719,0.00561967,-0.00640070,-0.
 02781007,0.00441986,0.00099731,-0.00047845,-0.00236721,-0.00407302,0.0
 0161094,0.00041773,0.00043945,-0.00118509,-0.00024809,-0.00007973,0.00
 004357,0.00010273,0.00003548,0.00005376,-0.00010722,-0.00011996,0.0000
 0213,-0.00004659,0.00016722,0.00001332,-0.00005392,-0.00009325,0.00002
 533,-0.00879805,0.00487387,0.01647410,0.00027889,-0.00007826,-0.000251
 68,-0.00005148,0.00010173,-0.00024827,-0.00000066,-0.00003167,0.000020
 60,0.00144551,-0.00017140,0.00149867,0.00009806,0.00003763,-0.00003594
 ,-0.00013652,-0.00012446,0.00001134,-0.00009587,0.00016081,-0.00017496
 ,-0.01172471,0.06120189,0.00076725,-0.00127009,0.00081441,0.00498102,-
 0.00221869,-0.02519740,0.00173895,0.00003593,0.00099248,0.07224929,-0.
 03658926,-0.26247119,-0.00013054,0.00021329,-0.00153821,-0.00022626,-0
 .00057759,-0.00114319,-0.00183134,0.00248735,0.00037841,0.00036524,-0.
 00004532,-0.00018441,0.00000460,0.00009177,0.00004940,0.00001440,0.000
 02346,0.00002314,0.00000877,0.00004229,0.00000038,0.00007603,-0.000092
 87,-0.00001088,-0.00000404,-0.00006907,-0.00000365,0.00695686,0.001382
 92,0.00276241,-0.00043053,0.00090925,0.00055177,-0.00016286,-0.0000260
 3,0.00046693,-0.00002251,-0.00000278,-0.00001268,-0.00332882,0.0016740
 0,-0.00208921,0.00001028,0.00001144,-0.00006513,-0.00004509,0.00011650
 ,0.00047960,-0.00111708,-0.00015337,0.00051538,-0.07988769,0.03487040,
 0.28335464,-0.00011996,0.00002434,0.00014556,-0.00004949,0.00060440,0.
 00020806,-0.00022801,0.00063211,0.00042173,0.00400523,0.00142675,0.006
 74728,-0.06467942,-0.02577985,-0.06206442,-0.03205370,-0.01852079,-0.0
 2812186,-0.00222759,0.00837536,-0.00272312,0.00002541,-0.00088771,0.00
 041665,-0.00007742,-0.00005173,-0.00002714,0.00010105,0.00003090,0.000
 01475,0.00000137,-0.00014251,-0.00001084,-0.00022350,0.00003535,-0.000
 04973,-0.00018066,-0.00000972,0.00024217,0.00162231,-0.00059449,0.0009
 3118,-0.00000225,0.00004031,-0.00007901,0.00002492,0.00000546,0.000011
 61,-0.00001862,0.00000910,-0.00003208,0.00008679,-0.00013284,0.0000006
 3,-0.00095121,0.00034022,0.00011704,0.00015030,-0.00013567,-0.00009837
 ,0.00005179,0.00000796,0.00006067,0.00026816,0.00187248,0.00019609,0.0
 8864140,-0.00022821,0.00003430,0.00024669,-0.00093481,0.00138633,-0.00
 221919,0.00033879,-0.00009908,0.00010943,-0.00509406,-0.00733636,-0.02
 554044,-0.02794311,-0.08299769,-0.07527442,-0.00106067,0.00507561,0.00
 032279,0.00022407,-0.00216236,0.00084845,0.00013719,0.00002135,-0.0002
 2847,-0.00003350,0.00003462,0.00000850,-0.00001039,-0.00001547,0.00000
 728,-0.00003877,0.00001042,-0.00000395,0.00004246,0.00003622,-0.000020
 35,-0.00016960,-0.00011838,0.00007267,-0.00165820,-0.00133011,0.000211
 22,-0.00009757,0.00020619,0.00015426,0.00003881,0.00005615,0.00007033,
 0.00002701,0.00006560,-0.00005682,-0.00009889,-0.00032183,0.00102829,0
 .00043838,0.00024022,-0.00011551,0.00002116,0.00013003,0.00003934,-0.0
 0023176,0.00007868,0.00009563,0.00057375,-0.00459590,-0.00061001,0.029
 56167,0.08325175,0.00005288,0.00015500,0.00042012,-0.00183654,0.001013
 08,0.00072682,-0.00027413,-0.00048029,0.00009085,0.00199486,-0.0015260
 7,-0.00255318,-0.06830697,-0.07671889,-0.25896240,-0.00347142,0.001614
 25,0.01206917,0.00134711,0.00113616,-0.00043951,0.00006783,0.00002073,
 -0.00031617,-0.00005916,0.00002292,0.00001786,0.00003923,-0.00001087,0
 .00000868,-0.00002893,-0.00003032,-0.00000094,0.00000385,0.00004348,0.
 00003215,-0.00007092,-0.00003704,0.00001262,-0.00070810,-0.00024741,-0
 .00042986,-0.00008018,0.00018227,-0.00010568,0.00003142,-0.00010674,0.
 00002365,-0.00000049,0.00008564,-0.00005430,0.00048662,-0.00036747,0.0
 0074582,0.00042331,0.00056776,0.00008098,0.00005953,0.00029050,0.00004
 620,-0.00008688,0.00020185,0.00007437,-0.00033458,-0.00108713,0.000745
 32,0.07704591,0.08393721,0.26638230,-0.00030047,0.00002123,0.00015521,
 0.00022961,0.00121331,-0.00014416,0.00005232,-0.00028918,0.00001043,0.
 00524849,0.00347298,-0.00679098,-0.06269573,-0.04001861,0.04706802,-0.
 02644079,-0.02783187,0.02358439,-0.00432803,0.00720351,0.00371508,0.00
 014342,-0.00126559,-0.00061308,-0.00003786,-0.00005163,0.00004731,0.00
 007363,0.00003007,-0.00002811,0.00000108,-0.00011458,-0.00000171,-0.00
 017738,-0.00001842,0.00009263,-0.00043340,-0.00011275,-0.00016363,0.00
 114254,0.00042970,-0.00050119,-0.00000889,0.00008503,0.00000209,-0.000
 03190,0.00005258,-0.00002213,0.00000136,0.00000254,-0.00001861,-0.0000
 1252,-0.00001561,0.00030272,-0.00007104,0.00006058,-0.00023301,-0.0000
 2333,-0.00001403,0.00002614,-0.00004828,0.00005708,0.00005933,0.000646
 24,-0.00001173,-0.00019508,0.00580249,0.00618712,-0.00631854,0.0812460
 7,0.00069082,0.00006697,0.00056471,-0.00041288,-0.00312455,-0.00138854
 ,-0.00014893,-0.00011063,0.00010006,-0.00646850,-0.01147979,0.01955738
 ,-0.04684005,-0.15090400,0.12264656,-0.00015011,0.00498671,-0.00292515
 ,0.00062695,-0.00282581,-0.00054036,0.00022850,0.00004896,0.00020578,-
 0.00008299,0.00000078,0.00002788,0.00000522,-0.00000127,-0.00001166,-0
 .00004833,-0.00001525,0.00001378,0.00002975,0.00007782,0.00001186,-0.0
 0021138,-0.00009147,-0.00004264,-0.00169054,-0.00303156,0.00045665,0.0
 0002286,-0.00001942,-0.00006225,0.00010763,-0.00031907,-0.00002462,-0.
 00008613,0.00013164,-0.00003153,-0.00017106,0.00009934,-0.00006622,0.0
 0019084,0.00014414,0.00010492,0.00010339,0.00010602,-0.00006087,0.0001
 1226,-0.00006245,-0.00006999,-0.00019432,0.00153610,-0.00023745,0.0033
 7683,0.00836535,-0.00859564,0.05101538,0.15644062,-0.00014377,-0.00008
 137,0.00030152,-0.00015795,-0.00016107,-0.00023457,0.00028808,0.000443
 27,0.00028611,-0.00162814,-0.00589016,0.00606481,0.05479881,0.12473648
 ,-0.20522200,0.00297832,-0.00132776,0.00793179,-0.00110828,-0.00307882
 ,-0.00055525,0.00007396,-0.00001661,-0.00006689,0.00004865,0.00001052,
 -0.00001854,-0.00005183,-0.00000492,0.00001183,0.00000026,0.00005173,0
 .00000301,0.00005332,-0.00003392,-0.00000379,-0.00005943,-0.00006249,0
 .00002090,-0.00130050,-0.00146804,-0.00016739,-0.00001278,0.00011220,-
 0.00000558,0.00002016,-0.00000651,-0.00002083,0.00000795,-0.00003895,-
 0.00000966,-0.00005473,-0.00011174,0.00049567,0.00014330,-0.00022954,-
 0.00027102,0.00000637,-0.00018139,-0.00000216,-0.00008329,0.00007241,0
 .00004746,-0.00044700,-0.00007005,0.00160811,0.00673315,0.01690917,-0.
 01859597,-0.06009178,-0.12962145,0.20840129,0.00003837,0.00000604,0.00
 004625,-0.00003176,-0.00003700,-0.00008246,0.00000120,-0.00000928,0.00
 002793,0.00003861,0.00008271,0.00012664,-0.00106305,-0.00040422,-0.000
 06418,-0.00281166,-0.00045790,0.00032982,0.00096810,0.00196511,-0.0002
 6937,0.01348337,0.01658690,-0.00053350,-0.09439314,-0.09751353,0.00153
 898,-0.00526661,-0.02868772,-0.00028725,-0.00494870,0.00010764,0.00139
 169,-0.00175851,0.00008630,0.00015367,-0.00201194,0.00554923,0.0012678
 8,0.00031269,-0.00090513,-0.00008817,0.00000051,-0.00000175,-0.0000083
 9,0.00002082,-0.00002844,0.00000809,-0.00000872,0.00001656,-0.00000928
 ,0.00000525,0.00000535,-0.00000298,-0.00002047,-0.00001724,-0.00000774
 ,0.00002429,-0.00000906,0.00000771,-0.00000142,-0.00000098,-0.00000981
 ,0.00001444,-0.00004630,-0.00002856,0.00010798,0.00003402,0.00005858,0
 .00010067,0.00003022,-0.00002714,0.09576220,-0.00003472,-0.00000391,-0
 .00003199,0.00002282,0.00003193,0.00006541,-0.00000005,0.00001038,-0.0
 0001400,-0.00020307,0.00007882,-0.00004533,0.00058156,0.00060284,0.000
 07417,-0.00235544,0.00086250,0.00024329,-0.00086177,-0.00239207,0.0000
 7949,-0.01136633,-0.01550325,0.00047030,-0.09470253,-0.31111095,-0.002
 14258,0.00060686,0.00130776,-0.00017636,-0.00031525,0.00183587,-0.0002
 5101,0.00140133,0.00084502,-0.00009764,0.00336681,-0.00335061,-0.00085
 018,-0.00012491,0.00050842,0.00003167,-0.00000043,0.00000168,0.0000057
 3,-0.00001228,0.00002210,-0.00000628,0.00000430,-0.00001053,0.00000409
 ,-0.00000231,-0.00000298,0.00000056,0.00001364,0.00001003,0.00000424,-
 0.00001547,0.00000397,-0.00000551,-0.00000018,-0.00000008,0.00000632,-
 0.00002328,0.00003381,0.00001877,-0.00007199,-0.00000783,-0.00005216,-
 0.00007198,-0.00001031,0.00004388,0.10444158,0.32561190,-0.00000605,0.
 00000496,-0.00000702,0.00004785,0.00003968,-0.00001371,0.00000276,-0.0
 0001104,0.00000953,0.00006847,-0.00007324,0.00057044,0.00011461,0.0001
 5778,-0.00022535,0.00021600,0.00003124,-0.00025375,-0.00038359,-0.0001
 9825,-0.00240707,-0.00174873,-0.00259865,0.00185134,0.00163776,-0.0017
 8598,-0.03939333,0.00103244,0.00295499,0.00404332,0.00137966,-0.000301
 22,0.00791180,0.00019725,0.00005135,-0.00037098,0.00118038,-0.00106833
 ,0.00733807,-0.00008775,0.00013219,-0.00029505,0.00000348,-0.00000387,
 -0.00000296,-0.00000564,0.00000132,-0.00000218,0.00000096,-0.00000760,
 0.00000626,-0.00000086,0.00000608,-0.00001964,0.00000248,0.00000282,0.
 00000464,0.00000101,0.00000694,-0.00000328,0.00000604,-0.00000190,-0.0
 0000598,-0.00009826,-0.00000545,-0.00001112,-0.00007884,0.00000214,-0.
 00001316,0.00003876,-0.00001043,0.00000635,-0.00273002,0.00230516,0.02
 701452,-0.00000099,-0.00000411,-0.00001332,-0.00001449,-0.00004455,0.0
 0004724,-0.00001309,0.00002546,-0.00002601,0.00002418,0.00008885,-0.00
 000734,0.00005906,0.00001699,0.00001587,-0.00012509,-0.00019608,0.0000
 0530,0.00030325,0.00170130,0.00002012,-0.00459627,-0.00314502,0.001269
 43,-0.01440008,0.02484362,0.00319378,-0.17676649,0.13612396,0.02054409
 ,0.01097402,-0.00897056,-0.00100577,0.00034784,-0.00259359,0.00077632,
 -0.00019543,-0.00054025,-0.00043082,-0.00072511,-0.00012097,0.00004817
 ,0.00000038,-0.00000104,0.00000408,-0.00001188,0.00000728,-0.00000494,
 0.00000697,-0.00001578,0.00000780,0.00000378,0.00000272,-0.00000451,0.
 00000496,-0.00000288,0.00000214,-0.00001880,-0.00000183,-0.00000309,0.
 00000133,-0.00000064,0.00000309,-0.00004791,-0.00002572,0.00001440,-0.
 00002691,-0.00000910,-0.00001504,-0.00002470,-0.00001459,0.00000768,0.
 00141763,-0.00033009,-0.00062349,0.18280612,-0.00000045,0.00000069,0.0
 0000572,-0.00000722,0.00000839,-0.00001406,0.00000114,-0.00000531,0.00
 000613,-0.00005707,-0.00001290,0.00000431,-0.00005028,-0.00001342,-0.0
 0000294,0.00013000,0.00002796,-0.00001097,-0.00037191,0.00027463,0.000
 05980,-0.00213130,0.00108137,-0.00010628,-0.00524088,0.00897649,0.0007
 3680,0.13625358,-0.21797773,-0.02243522,0.02147919,-0.01641319,-0.0032
 6450,-0.00384416,-0.00425855,-0.00016004,-0.00048534,0.00006350,0.0002
 3079,-0.00003758,0.00000176,0.00002077,-0.00000008,0.00000042,-0.00000
 232,0.00000558,-0.00000298,0.00000279,-0.00000346,0.00000610,-0.000003
 18,-0.00000097,-0.00000082,-0.00000008,-0.00000202,0.00000060,-0.00000
 113,0.00000591,-0.00000084,0.00000120,0.00000020,0.00000025,-0.0000019
 4,0.00001323,0.00000710,-0.00000396,0.00000771,0.00000308,0.00000469,0
 .00000634,0.00000457,-0.00000230,0.00043769,0.00068053,0.00017312,-0.1
 4696092,0.22701108,-0.00000056,0.00000205,0.00000051,0.00000507,0.0000
 1563,-0.00000459,0.00000168,-0.00000529,0.00000561,0.00000089,-0.00001
 185,0.00004793,0.00000264,-0.00000474,0.00004095,0.00001594,0.00002347
 ,0.00002206,-0.00006392,-0.00016269,-0.00021902,0.00130820,0.00000414,
 0.00851655,0.00185735,-0.00248865,0.00472754,0.02054444,-0.02243318,-0
 .04447635,0.00034615,0.00001550,0.00525423,0.00072901,-0.00030164,0.00
 856189,-0.00043018,0.00023724,-0.00392843,0.00005374,0.00001774,-0.000
 13278,0.00000110,-0.00000081,-0.00000222,0.00000012,-0.00000038,0.0000
 0043,-0.00000007,0.00000146,0.00000022,0.00000010,-0.00000010,-0.00000
 381,-0.00000096,-0.00000032,0.00000105,0.00000214,0.00000131,-0.000000
 46,0.00000151,-0.00000051,-0.00000237,0.00000302,-0.00000547,-0.000007
 71,0.00000159,-0.00000173,-0.00000469,0.00000180,0.00000513,-0.0000035
 4,-0.00058831,0.00025893,-0.00420538,-0.02323282,0.02462687,0.03031457
 ,0.00000076,0.00000148,-0.00001205,0.00000697,-0.00001334,0.00002462,-
 0.00000379,0.00001014,-0.00001279,0.00006937,-0.00001313,-0.00001280,0
 .00007525,0.00000716,0.00001007,-0.00019958,-0.00005448,0.00001757,0.0
 0009955,-0.00000572,-0.00021708,0.00120536,0.00116710,-0.00009307,0.00
 161766,-0.00160700,0.00061710,-0.00401247,0.00053794,0.00082588,-0.322
 89740,-0.06181240,0.02782607,-0.01402647,-0.00983150,0.00122796,-0.002
 22630,0.00368007,0.00118990,-0.00018977,0.00001218,0.00003695,-0.00000
 012,-0.00000089,0.00000418,-0.00001204,0.00000509,-0.00000524,0.000008
 65,-0.00001362,0.00000735,0.00000084,0.00000142,-0.00000014,0.00000433
 ,0.00000032,0.00000212,-0.00001175,0.00000115,-0.00000338,0.00000042,-
 0.00000050,0.00000344,-0.00002310,-0.00000396,0.00001138,-0.00001588,-
 0.00000812,-0.00001055,-0.00001567,-0.00001235,0.00000367,-0.00017268,
 0.00023211,0.00005598,0.00066578,-0.00018994,-0.00053114,0.33946432,-0
 .00000476,-0.00000299,-0.00000258,0.00000175,-0.00000046,0.00000772,-0
 .00000093,0.00000158,-0.00000253,-0.00004207,0.00002018,0.00000053,0.0
 0008602,0.00006507,-0.00000043,-0.00008428,0.00013365,0.00001058,0.000
 14132,-0.00008468,0.00006507,-0.00009482,-0.00208704,-0.00007701,-0.00
 084223,-0.00519830,-0.00049537,-0.03003032,-0.00101873,0.00301487,-0.0
 6192293,-0.07399018,0.00501591,0.02202069,0.01174620,-0.00190357,0.004
 49366,-0.00277166,-0.00093225,-0.00003393,0.00008218,-0.00000554,0.000
 00005,0.00000051,0.00000068,-0.00000019,0.00000316,-0.00000056,-0.0000
 0100,0.00000027,-0.00000054,-0.00000024,-0.00000041,0.00000018,0.00000
 193,0.00000136,0.00000055,-0.00000228,0.00000066,-0.00000059,-0.000000
 03,0.00000008,0.00000087,-0.00000481,0.00000039,0.00000187,-0.00000465
 ,-0.00000002,-0.00000325,-0.00000187,0.00000122,0.00000322,-0.00126917
 ,0.00005106,0.00012625,0.00064915,0.00134879,0.00017708,0.06765397,0.0
 7107432,0.00000044,0.00000147,0.00000345,0.00000900,-0.00000205,-0.000
 00970,0.00000222,-0.00000363,0.00000444,0.00000382,-0.00001954,0.00006
 789,-0.00001275,0.00001422,0.00002297,0.00003657,0.00000453,0.00003159
 ,-0.00023743,0.00009667,-0.00191905,-0.00014014,-0.00020166,-0.0001376
 9,0.00063877,-0.00041393,0.00796765,-0.00051340,-0.00025471,0.00355489
 ,0.02781093,0.00500756,-0.04019218,0.00264254,0.00149270,0.00129363,0.
 00123851,-0.00084315,0.00722895,0.00004614,-0.00001942,0.00022294,0.00
 000288,-0.00000031,-0.00000288,-0.00000058,-0.00000147,-0.00000030,0.0
 0000021,0.00000197,0.00000104,-0.00000064,-0.00000067,-0.00000451,-0.0
 0000009,0.00000016,0.00000043,0.00000228,0.00000125,-0.00000058,0.0000
 0192,-0.00000028,-0.00000264,-0.00001922,0.00001114,-0.00000520,0.0000
 0677,0.00000404,-0.00000523,-0.00000367,-0.00000213,-0.00000132,-0.000
 01016,-0.00003526,0.00024568,-0.00049584,0.00026715,-0.00415528,-0.030
 59485,-0.00523615,0.02872955,-0.00001580,-0.00000585,-0.00001631,0.000
 01270,-0.00003827,0.00003767,-0.00001276,0.00002178,-0.00001972,0.0000
 4250,-0.00000264,-0.00001158,0.00009323,-0.00005808,0.00000883,-0.0005
 8602,-0.00010741,0.00002716,0.00081128,-0.00079407,-0.00006408,-0.0032
 4790,-0.00205922,0.00147243,-0.00078011,-0.00021938,0.00002336,-0.0028
 4479,0.00278881,0.00114694,0.00974647,0.02077114,0.00064187,-0.0689799
 8,-0.06078556,0.00018773,-0.02068055,-0.03513174,0.00020441,-0.0002470
 3,0.00013018,0.00002016,-0.00000191,0.00000062,0.00000494,-0.00001163,
 0.00001120,-0.00000302,0.00000975,-0.00001888,0.00000460,0.00000078,0.
 00000256,-0.00000044,0.00000870,0.00000824,0.00000300,-0.00001632,-0.0
 0000058,-0.00000334,0.00000092,-0.00000176,0.00000354,-0.00003750,-0.0
 0001606,0.00001586,-0.00003460,-0.00000770,-0.00000874,-0.00003792,-0.
 00000849,0.00000291,0.00019254,-0.00017889,-0.00022265,0.00035192,0.00
 104300,-0.00002854,0.00058775,-0.00070799,-0.00041423,0.08567628,-0.00
 000142,-0.00000154,-0.00001871,0.00001083,-0.00003778,0.00004395,-0.00
 000925,0.00002082,-0.00002264,0.00009599,0.00001234,-0.00001894,0.0000
 9435,0.00000205,0.00001368,-0.00026483,-0.00009499,0.00002013,0.000404
 55,0.00014263,-0.00006302,0.00119975,0.00270968,-0.00049482,0.00045991
 ,0.00044638,-0.00000918,0.00395382,-0.00155115,-0.00078641,-0.00832088
 ,-0.01641427,-0.00014955,-0.06091114,-0.31294921,-0.00537645,-0.011481
 23,0.00043700,0.00144112,-0.00031298,-0.00002162,0.00000902,-0.0000008
 2,-0.00000082,0.00000646,-0.00001775,0.00000859,-0.00000671,0.00001297
 ,-0.00002084,0.00001093,0.00000184,0.00000242,-0.00000135,0.00000661,0
 .00000128,0.00000289,-0.00001914,-0.00000001,-0.00000416,0.00000051,-0
 .00000113,0.00000510,-0.00004175,-0.00002048,0.00001725,-0.00001900,-0
 .00001090,-0.00001225,-0.00001961,-0.00001466,0.00000419,0.00003838,-0
 .00010612,0.00006996,-0.00048158,-0.00081157,0.00003080,0.00025682,0.0
 0062380,0.00013149,0.07536504,0.32765010,0.00000152,0.00000056,0.00000
 226,0.00000216,0.00000375,-0.00000069,-0.00000002,-0.00000150,0.000001
 56,0.00000248,0.00000547,0.00002168,-0.00000957,0.00000435,-0.00007939
 ,0.00003997,0.00001675,-0.00008909,-0.00000364,0.00007093,0.00051144,0
 .00159404,-0.00017016,0.01102072,0.00004764,0.00005667,-0.00047819,0.0
 0119776,-0.00065989,0.00656076,-0.00063672,-0.00327233,0.00710851,0.00
 017172,-0.00539231,-0.04251827,0.00126128,0.00399719,-0.00431015,0.000
 00922,-0.00001327,0.00003040,0.00000193,0.00000064,-0.00000234,-0.0000
 0231,-0.00000091,-0.00000058,0.00000178,-0.00000013,0.00000254,0.00000
 098,-0.00000141,-0.00000233,-0.00000036,0.00000005,0.00000011,-0.00000
 013,0.00000053,0.00000015,0.00000053,0.00000018,-0.00000116,0.00000372
 ,-0.00000215,-0.00000240,-0.00001542,0.00000344,0.00000421,0.00002178,
 -0.00000375,-0.00000033,-0.00020992,0.00009630,-0.00177198,-0.00009650
 ,-0.00013121,-0.00034691,-0.00037114,0.00023498,-0.00293853,-0.0030127
 7,0.00515722,0.02727801\\0.00000352,-0.00000873,-0.00000247,-0.0000085
 1,0.00000266,0.00000087,0.00000861,0.00000255,-0.00000139,0.00000429,0
 .00000877,0.00000144,0.00001814,-0.00000430,-0.00000228,-0.00001856,-0
 .00001283,0.00000010,0.00000201,0.00003347,0.00000569,0.00000441,-0.00
 000414,-0.00000231,0.00000274,-0.00000057,-0.00000147,-0.00000128,-0.0
 0000195,-0.00000008,-0.00000282,0.00000235,-0.00000010,0.00001283,-0.0
 0000010,-0.00000182,-0.00000935,-0.00000008,0.00000149,0.00000038,-0.0
 0001739,-0.00000295,-0.00000031,0.00000192,0.00000058,-0.00000083,0.00
 000150,0.00000035,-0.00000057,0.00000159,0.00000018,0.00000033,-0.0000
 0128,-0.00000002,-0.00000112,-0.00000045,0.00000071,-0.00000245,-0.000
 00053,0.00000138,-0.00000203,-0.00000084,0.00000110,-0.00000121,0.0000
 0013,-0.00000025,-0.00000247,-0.00000324,0.00000149,-0.00000420,-0.000
 00021,0.00000073,-0.00000092,0.00000055,0.00000073,0.00000042,0.000000
 52,-0.00000015,0.00000047,0.00000035,-0.00000091,-0.00000150,0.0000003
 0,-0.00000065\\\@
 The archive entry for this job was punched.


 THE RARE EARTHS PERPLEX US IN OUR RESEARCHES,
 BAFFLE US IN OUR SPECULATIONS, AND HAUNT US IN OUR
 VERY DREAMS.  THEY STRETCH LIKE AN UNKNOWN BEFORE US,
 MOCKING, MYSTIFYING, AND MURMURING STRANGE REVELATIONS
 AND POSSIBILITIES.  -- SIR WILLIAM CROOKE, 1832-1919
 Job cpu time:       0 days  0 hours 22 minutes 43.4 seconds.
 Elapsed time:       0 days  0 hours  0 minutes 34.5 seconds.
 File lengths (MBytes):  RWF=    174 Int=      0 D2E=      0 Chk=      6 Scr=      1
 Normal termination of Gaussian 16 at Sun Feb 25 23:10:13 2024.
