 Entering Gaussian System, Link 0=g16
 Initial command:
 /public/apps/g16-C01//g16/l1.exe "/public/home/ljq/tmp/Gau-17599.inp" -scrdir="/public/home/ljq/tmp/"
 Entering Link 1 = /public/apps/g16-C01//g16/l1.exe PID=     17639.
  
 Copyright (c) 1988-2019, Gaussian, Inc.  All Rights Reserved.
  
 This is part of the Gaussian(R) 16 program.  It is based on
 the Gaussian(R) 09 system (copyright 2009, Gaussian, Inc.),
 the Gaussian(R) 03 system (copyright 2003, Gaussian, Inc.),
 the Gaussian(R) 98 system (copyright 1998, Gaussian, Inc.),
 the Gaussian(R) 94 system (copyright 1995, Gaussian, Inc.),
 the Gaussian 92(TM) system (copyright 1992, Gaussian, Inc.),
 the Gaussian 90(TM) system (copyright 1990, Gaussian, Inc.),
 the Gaussian 88(TM) system (copyright 1988, Gaussian, Inc.),
 the Gaussian 86(TM) system (copyright 1986, Carnegie Mellon
 University), and the Gaussian 82(TM) system (copyright 1983,
 Carnegie Mellon University). Gaussian is a federally registered
 trademark of Gaussian, Inc.
  
 This software contains proprietary and confidential information,
 including trade secrets, belonging to Gaussian, Inc.
  
 This software is provided under written license and may be
 used, copied, transmitted, or stored only in accord with that
 written license.
  
 The following legend is applicable only to US Government
 contracts under FAR:
  
                    RESTRICTED RIGHTS LEGEND
  
 Use, reproduction and disclosure by the US Government is
 subject to restrictions as set forth in subparagraphs (a)
 and (c) of the Commercial Computer Software - Restricted
 Rights clause in FAR 52.227-19.
  
 Gaussian, Inc.
 340 Quinnipiac St., Bldg. 40, Wallingford CT 06492
  
  
 ---------------------------------------------------------------
 Warning -- This program may not be used in any manner that
 competes with the business of Gaussian, Inc. or will provide
 assistance to any competitor of Gaussian, Inc.  The licensee
 of this program is prohibited from giving any competitor of
 Gaussian, Inc. access to this program.  By using this program,
 the user acknowledges that Gaussian, Inc. is engaged in the
 business of creating and licensing software in the field of
 computational chemistry and represents and warrants to the
 licensee that it is not a competitor of Gaussian, Inc. and that
 it will not use this program in any manner prohibited above.
 ---------------------------------------------------------------
  

 Cite this work as:
 Gaussian 16, Revision C.01,
 M. J. Frisch, G. W. Trucks, H. B. Schlegel, G. E. Scuseria, 
 M. A. Robb, J. R. Cheeseman, G. Scalmani, V. Barone, 
 G. A. Petersson, H. Nakatsuji, X. Li, M. Caricato, A. V. Marenich, 
 J. Bloino, B. G. Janesko, R. Gomperts, B. Mennucci, H. P. Hratchian, 
 J. V. Ortiz, A. F. Izmaylov, J. L. Sonnenberg, D. Williams-Young, 
 F. Ding, F. Lipparini, F. Egidi, J. Goings, B. Peng, A. Petrone, 
 T. Henderson, D. Ranasinghe, V. G. Zakrzewski, J. Gao, N. Rega, 
 G. Zheng, W. Liang, M. Hada, M. Ehara, K. Toyota, R. Fukuda, 
 J. Hasegawa, M. Ishida, T. Nakajima, Y. Honda, O. Kitao, H. Nakai, 
 T. Vreven, K. Throssell, J. A. Montgomery, Jr., J. E. Peralta, 
 F. Ogliaro, M. J. Bearpark, J. J. Heyd, E. N. Brothers, K. N. Kudin, 
 V. N. Staroverov, T. A. Keith, R. Kobayashi, J. Normand, 
 K. Raghavachari, A. P. Rendell, J. C. Burant, S. S. Iyengar, 
 J. Tomasi, M. Cossi, J. M. Millam, M. Klene, C. Adamo, R. Cammi, 
 J. W. Ochterski, R. L. Martin, K. Morokuma, O. Farkas, 
 J. B. Foresman, and D. J. Fox, Gaussian, Inc., Wallingford CT, 2019.
 
 ******************************************
 Gaussian 16:  ES64L-G16RevC.01  3-Jul-2019
                25-Feb-2024 
 ******************************************
 %nproc=40
 Will use up to   40 processors via shared memory.
 %mem=56GB
 ------------------------------------------
 #p opt freq b3lyp/def2svpp em=gd3bj nosymm
 ------------------------------------------
 1/18=20,19=15,26=3,38=1/1,3;
 2/9=110,12=2,15=1,17=6,18=5,40=1/2;
 3/5=43,7=202,11=2,25=1,30=1,71=1,74=-5,124=41/1,2,3;
 4//1;
 5/5=2,38=5/2;
 6/7=2,8=2,9=2,10=2,28=1/1;
 7/30=1/1,2,3,16;
 1/18=20,19=15,26=3/3(2);
 2/9=110,15=1/2;
 99//99;
 2/9=110,15=1/2;
 3/5=43,7=202,11=2,25=1,30=1,71=1,74=-5,124=41/1,2,3;
 4/5=5,16=3,69=1/1;
 5/5=2,38=5/2;
 7/30=1/1,2,3,16;
 1/18=20,19=15,26=3/3(-5);
 2/9=110,15=1/2;
 6/7=2,8=2,9=2,10=2,19=2,28=1/1;
 99/9=1/99;
 Leave Link    1 at Sun Feb 25 23:16:19 2024, MaxMem=  7516192768 cpu:               2.1 elap:               0.2
 (Enter /public/apps/g16-C01//g16/l101.exe)
 ----------------------
 $$$$Singlemol####0????
 ----------------------
 Symbolic Z-matrix:
 Charge =  0 Multiplicity = 1
 C                    -4.09027  -1.39048   1.24724 
 C                    -4.59411  -0.95849  -0.12748 
 C                    -6.04808  -0.49975  -0.06557 
 C                    -3.70841   0.13351  -0.75723 
 C                    -3.54232   1.43399   0.07645 
 O                    -2.14418   1.5103    0.33562 
 C                    -1.58522   0.45394  -0.28043 
 C                    -0.13555   0.27173  -0.1982 
 C                     0.4573   -0.81957  -0.83898 
 C                     1.82654  -0.97172  -0.74572 
 C                     2.54765  -0.02709  -0.02032 
 C                     4.03407  -0.16516   0.13658 
 F                     4.3566   -0.9537    1.18058 
 F                     4.64665   1.00746   0.34788 
 F                     4.61636  -0.71582  -0.94002 
 C                     1.86215   1.02411   0.58383 
 N                     0.55835   1.16719   0.49452 
 N                    -2.35148  -0.33946  -0.91134 
 H                    -4.67764  -2.23162   1.60725 
 H                    -4.1735   -0.58584   1.9743 
 H                    -3.04875  -1.69799   1.18634 
 H                    -4.5239   -1.82078  -0.79842 
 H                    -6.67381  -1.29956   0.32263 
 H                    -6.15689   0.36446   0.58586 
 H                    -6.40985  -0.23065  -1.05528 
 H                    -4.10685   0.35148  -1.75505 
 H                    -3.84501   2.32789  -0.47486 
 H                    -4.07099   1.40545   1.03126 
 H                    -0.16373  -1.50925  -1.38548 
 H                     2.33392  -1.79601  -1.22469 
 H                     2.38611   1.77838   1.1552 
 
 ITRead=  0  0  0  0  0  0  0  0  0  0  0  0  0  0  0  0  0  0  0  0
 ITRead=  0  0  0  0  0  0  0  0  0  0  0
 MicOpt= -1 -1 -1 -1 -1 -1 -1 -1 -1 -1 -1 -1 -1 -1 -1 -1 -1 -1 -1 -1
 MicOpt= -1 -1 -1 -1 -1 -1 -1 -1 -1 -1 -1
 NAtoms=     31 NQM=       31 NQMF=       0 NMMI=      0 NMMIF=      0
                NMic=       0 NMicF=      0.
                    Isotopes and Nuclear Properties:
 (Nuclear quadrupole moments (NQMom) in fm**2, nuclear magnetic moments (NMagM)
  in nuclear magnetons)

  Atom         1           2           3           4           5           6           7           8           9          10
 IAtWgt=          12          12          12          12          12          16          12          12          12          12
 AtmWgt=  12.0000000  12.0000000  12.0000000  12.0000000  12.0000000  15.9949146  12.0000000  12.0000000  12.0000000  12.0000000
 NucSpn=           0           0           0           0           0           0           0           0           0           0
 AtZEff=  -0.0000000  -0.0000000  -0.0000000  -0.0000000  -0.0000000  -0.0000000  -0.0000000  -0.0000000  -0.0000000  -0.0000000
 NQMom=    0.0000000   0.0000000   0.0000000   0.0000000   0.0000000   0.0000000   0.0000000   0.0000000   0.0000000   0.0000000
 NMagM=    0.0000000   0.0000000   0.0000000   0.0000000   0.0000000   0.0000000   0.0000000   0.0000000   0.0000000   0.0000000
 AtZNuc=   6.0000000   6.0000000   6.0000000   6.0000000   6.0000000   8.0000000   6.0000000   6.0000000   6.0000000   6.0000000

  Atom        11          12          13          14          15          16          17          18          19          20
 IAtWgt=          12          12          19          19          19          12          14          14           1           1
 AtmWgt=  12.0000000  12.0000000  18.9984032  18.9984032  18.9984032  12.0000000  14.0030740  14.0030740   1.0078250   1.0078250
 NucSpn=           0           0           1           1           1           0           2           2           1           1
 AtZEff=  -0.0000000  -0.0000000  -0.0000000  -0.0000000  -0.0000000  -0.0000000  -0.0000000  -0.0000000  -0.0000000  -0.0000000
 NQMom=    0.0000000   0.0000000   0.0000000   0.0000000   0.0000000   0.0000000   2.0440000   2.0440000   0.0000000   0.0000000
 NMagM=    0.0000000   0.0000000   2.6288670   2.6288670   2.6288670   0.0000000   0.4037610   0.4037610   2.7928460   2.7928460
 AtZNuc=   6.0000000   6.0000000   9.0000000   9.0000000   9.0000000   6.0000000   7.0000000   7.0000000   1.0000000   1.0000000

  Atom        21          22          23          24          25          26          27          28          29          30
 IAtWgt=           1           1           1           1           1           1           1           1           1           1
 AtmWgt=   1.0078250   1.0078250   1.0078250   1.0078250   1.0078250   1.0078250   1.0078250   1.0078250   1.0078250   1.0078250
 NucSpn=           1           1           1           1           1           1           1           1           1           1
 AtZEff=  -0.0000000  -0.0000000  -0.0000000  -0.0000000  -0.0000000  -0.0000000  -0.0000000  -0.0000000  -0.0000000  -0.0000000
 NQMom=    0.0000000   0.0000000   0.0000000   0.0000000   0.0000000   0.0000000   0.0000000   0.0000000   0.0000000   0.0000000
 NMagM=    2.7928460   2.7928460   2.7928460   2.7928460   2.7928460   2.7928460   2.7928460   2.7928460   2.7928460   2.7928460
 AtZNuc=   1.0000000   1.0000000   1.0000000   1.0000000   1.0000000   1.0000000   1.0000000   1.0000000   1.0000000   1.0000000

  Atom        31
 IAtWgt=           1
 AtmWgt=   1.0078250
 NucSpn=           1
 AtZEff=  -0.0000000
 NQMom=    0.0000000
 NMagM=    2.7928460
 AtZNuc=   1.0000000
 Leave Link  101 at Sun Feb 25 23:16:19 2024, MaxMem=  7516192768 cpu:               4.7 elap:               0.1
 (Enter /public/apps/g16-C01//g16/l103.exe)

 GradGradGradGradGradGradGradGradGradGradGradGradGradGradGradGradGradGrad
 Berny optimization.
 Initialization pass.
                           ----------------------------
                           !    Initial Parameters    !
                           ! (Angstroms and Degrees)  !
 --------------------------                            --------------------------
 ! Name  Definition              Value          Derivative Info.                !
 --------------------------------------------------------------------------------
 ! R1    R(1,2)                  1.5265         estimate D2E/DX2                !
 ! R2    R(1,19)                 1.0873         estimate D2E/DX2                !
 ! R3    R(1,20)                 1.0877         estimate D2E/DX2                !
 ! R4    R(1,21)                 1.0877         estimate D2E/DX2                !
 ! R5    R(2,3)                  1.5259         estimate D2E/DX2                !
 ! R6    R(2,4)                  1.5406         estimate D2E/DX2                !
 ! R7    R(2,22)                 1.0948         estimate D2E/DX2                !
 ! R8    R(3,23)                 1.0872         estimate D2E/DX2                !
 ! R9    R(3,24)                 1.0877         estimate D2E/DX2                !
 ! R10   R(3,25)                 1.0876         estimate D2E/DX2                !
 ! R11   R(4,5)                  1.5537         estimate D2E/DX2                !
 ! R12   R(4,18)                 1.4452         estimate D2E/DX2                !
 ! R13   R(4,26)                 1.0963         estimate D2E/DX2                !
 ! R14   R(5,6)                  1.424          estimate D2E/DX2                !
 ! R15   R(5,27)                 1.093          estimate D2E/DX2                !
 ! R16   R(5,28)                 1.0918         estimate D2E/DX2                !
 ! R17   R(6,7)                  1.3446         estimate D2E/DX2                !
 ! R18   R(7,8)                  1.4634         estimate D2E/DX2                !
 ! R19   R(7,18)                 1.2707         estimate D2E/DX2                !
 ! R20   R(8,9)                  1.3975         estimate D2E/DX2                !
 ! R21   R(8,17)                 1.3279         estimate D2E/DX2                !
 ! R22   R(9,10)                 1.3808         estimate D2E/DX2                !
 ! R23   R(9,29)                 1.077          estimate D2E/DX2                !
 ! R24   R(10,11)                1.3923         estimate D2E/DX2                !
 ! R25   R(10,30)                1.0799         estimate D2E/DX2                !
 ! R26   R(11,12)                1.501          estimate D2E/DX2                !
 ! R27   R(11,16)                1.3928         estimate D2E/DX2                !
 ! R28   R(12,13)                1.3475         estimate D2E/DX2                !
 ! R29   R(12,14)                1.3398         estimate D2E/DX2                !
 ! R30   R(12,15)                1.3421         estimate D2E/DX2                !
 ! R31   R(16,17)                1.3147         estimate D2E/DX2                !
 ! R32   R(16,31)                1.0816         estimate D2E/DX2                !
 ! A1    A(2,1,19)             109.8045         estimate D2E/DX2                !
 ! A2    A(2,1,20)             111.5542         estimate D2E/DX2                !
 ! A3    A(2,1,21)             110.2208         estimate D2E/DX2                !
 ! A4    A(19,1,20)            108.0379         estimate D2E/DX2                !
 ! A5    A(19,1,21)            108.4886         estimate D2E/DX2                !
 ! A6    A(20,1,21)            108.6543         estimate D2E/DX2                !
 ! A7    A(1,2,3)              111.2871         estimate D2E/DX2                !
 ! A8    A(1,2,4)              112.268          estimate D2E/DX2                !
 ! A9    A(1,2,22)             107.929          estimate D2E/DX2                !
 ! A10   A(3,2,4)              110.5664         estimate D2E/DX2                !
 ! A11   A(3,2,22)             108.8301         estimate D2E/DX2                !
 ! A12   A(4,2,22)             105.717          estimate D2E/DX2                !
 ! A13   A(2,3,23)             109.9832         estimate D2E/DX2                !
 ! A14   A(2,3,24)             111.0084         estimate D2E/DX2                !
 ! A15   A(2,3,25)             110.7583         estimate D2E/DX2                !
 ! A16   A(23,3,24)            108.2463         estimate D2E/DX2                !
 ! A17   A(23,3,25)            108.3916         estimate D2E/DX2                !
 ! A18   A(24,3,25)            108.3698         estimate D2E/DX2                !
 ! A19   A(2,4,5)              115.812          estimate D2E/DX2                !
 ! A20   A(2,4,18)             110.5726         estimate D2E/DX2                !
 ! A21   A(2,4,26)             107.6994         estimate D2E/DX2                !
 ! A22   A(5,4,18)             103.3436         estimate D2E/DX2                !
 ! A23   A(5,4,26)             111.1498         estimate D2E/DX2                !
 ! A24   A(18,4,26)            108.0135         estimate D2E/DX2                !
 ! A25   A(4,5,6)              104.3279         estimate D2E/DX2                !
 ! A26   A(4,5,27)             112.6014         estimate D2E/DX2                !
 ! A27   A(4,5,28)             113.3058         estimate D2E/DX2                !
 ! A28   A(6,5,27)             108.6554         estimate D2E/DX2                !
 ! A29   A(6,5,28)             108.5219         estimate D2E/DX2                !
 ! A30   A(27,5,28)            109.1719         estimate D2E/DX2                !
 ! A31   A(5,6,7)              106.4201         estimate D2E/DX2                !
 ! A32   A(6,7,8)              118.9403         estimate D2E/DX2                !
 ! A33   A(6,7,18)             117.8623         estimate D2E/DX2                !
 ! A34   A(8,7,18)             123.1973         estimate D2E/DX2                !
 ! A35   A(7,8,9)              119.4531         estimate D2E/DX2                !
 ! A36   A(7,8,17)             117.5821         estimate D2E/DX2                !
 ! A37   A(9,8,17)             122.9647         estimate D2E/DX2                !
 ! A38   A(8,9,10)             118.4079         estimate D2E/DX2                !
 ! A39   A(8,9,29)             119.2157         estimate D2E/DX2                !
 ! A40   A(10,9,29)            122.3764         estimate D2E/DX2                !
 ! A41   A(9,10,11)            118.2947         estimate D2E/DX2                !
 ! A42   A(9,10,30)            121.3342         estimate D2E/DX2                !
 ! A43   A(11,10,30)           120.3702         estimate D2E/DX2                !
 ! A44   A(10,11,12)           120.3268         estimate D2E/DX2                !
 ! A45   A(10,11,16)           118.8909         estimate D2E/DX2                !
 ! A46   A(12,11,16)           120.7609         estimate D2E/DX2                !
 ! A47   A(11,12,13)           111.8287         estimate D2E/DX2                !
 ! A48   A(11,12,14)           112.8774         estimate D2E/DX2                !
 ! A49   A(11,12,15)           112.5517         estimate D2E/DX2                !
 ! A50   A(13,12,14)           106.293          estimate D2E/DX2                !
 ! A51   A(13,12,15)           106.1134         estimate D2E/DX2                !
 ! A52   A(14,12,15)           106.693          estimate D2E/DX2                !
 ! A53   A(11,16,17)           122.7365         estimate D2E/DX2                !
 ! A54   A(11,16,31)           121.1331         estimate D2E/DX2                !
 ! A55   A(17,16,31)           116.1297         estimate D2E/DX2                !
 ! A56   A(8,17,16)            118.7048         estimate D2E/DX2                !
 ! A57   A(4,18,7)             107.9923         estimate D2E/DX2                !
 ! D1    D(19,1,2,3)            61.477          estimate D2E/DX2                !
 ! D2    D(19,1,2,4)          -173.9858         estimate D2E/DX2                !
 ! D3    D(19,1,2,22)          -57.8728         estimate D2E/DX2                !
 ! D4    D(20,1,2,3)           -58.2654         estimate D2E/DX2                !
 ! D5    D(20,1,2,4)            66.2718         estimate D2E/DX2                !
 ! D6    D(20,1,2,22)         -177.6152         estimate D2E/DX2                !
 ! D7    D(21,1,2,3)          -179.0619         estimate D2E/DX2                !
 ! D8    D(21,1,2,4)           -54.5247         estimate D2E/DX2                !
 ! D9    D(21,1,2,22)           61.5883         estimate D2E/DX2                !
 ! D10   D(1,2,3,23)           -58.015          estimate D2E/DX2                !
 ! D11   D(1,2,3,24)            61.7558         estimate D2E/DX2                !
 ! D12   D(1,2,3,25)          -177.8075         estimate D2E/DX2                !
 ! D13   D(4,2,3,23)           176.495          estimate D2E/DX2                !
 ! D14   D(4,2,3,24)           -63.7341         estimate D2E/DX2                !
 ! D15   D(4,2,3,25)            56.7026         estimate D2E/DX2                !
 ! D16   D(22,2,3,23)           60.7964         estimate D2E/DX2                !
 ! D17   D(22,2,3,24)         -179.4328         estimate D2E/DX2                !
 ! D18   D(22,2,3,25)          -58.9961         estimate D2E/DX2                !
 ! D19   D(1,2,4,5)            -57.5804         estimate D2E/DX2                !
 ! D20   D(1,2,4,18)            59.5083         estimate D2E/DX2                !
 ! D21   D(1,2,4,26)           177.3154         estimate D2E/DX2                !
 ! D22   D(3,2,4,5)             67.3543         estimate D2E/DX2                !
 ! D23   D(3,2,4,18)          -175.557          estimate D2E/DX2                !
 ! D24   D(3,2,4,26)           -57.75           estimate D2E/DX2                !
 ! D25   D(22,2,4,5)          -175.019          estimate D2E/DX2                !
 ! D26   D(22,2,4,18)          -57.9302         estimate D2E/DX2                !
 ! D27   D(22,2,4,26)           59.8768         estimate D2E/DX2                !
 ! D28   D(2,4,5,6)            118.8073         estimate D2E/DX2                !
 ! D29   D(2,4,5,27)          -123.5514         estimate D2E/DX2                !
 ! D30   D(2,4,5,28)             0.9661         estimate D2E/DX2                !
 ! D31   D(18,4,5,6)            -2.2499         estimate D2E/DX2                !
 ! D32   D(18,4,5,27)          115.3914         estimate D2E/DX2                !
 ! D33   D(18,4,5,28)         -120.0911         estimate D2E/DX2                !
 ! D34   D(26,4,5,6)          -117.8786         estimate D2E/DX2                !
 ! D35   D(26,4,5,27)           -0.2373         estimate D2E/DX2                !
 ! D36   D(26,4,5,28)          124.2802         estimate D2E/DX2                !
 ! D37   D(2,4,18,7)          -122.4477         estimate D2E/DX2                !
 ! D38   D(5,4,18,7)             2.0942         estimate D2E/DX2                !
 ! D39   D(26,4,18,7)          119.9379         estimate D2E/DX2                !
 ! D40   D(4,5,6,7)              1.6445         estimate D2E/DX2                !
 ! D41   D(27,5,6,7)          -118.6791         estimate D2E/DX2                !
 ! D42   D(28,5,6,7)           122.7232         estimate D2E/DX2                !
 ! D43   D(5,6,7,8)            179.5023         estimate D2E/DX2                !
 ! D44   D(5,6,7,18)            -0.3708         estimate D2E/DX2                !
 ! D45   D(6,7,8,9)           -179.7464         estimate D2E/DX2                !
 ! D46   D(6,7,8,17)             0.3175         estimate D2E/DX2                !
 ! D47   D(18,7,8,9)             0.1195         estimate D2E/DX2                !
 ! D48   D(18,7,8,17)         -179.8166         estimate D2E/DX2                !
 ! D49   D(6,7,18,4)            -1.2181         estimate D2E/DX2                !
 ! D50   D(8,7,18,4)           178.9146         estimate D2E/DX2                !
 ! D51   D(7,8,9,10)          -179.908          estimate D2E/DX2                !
 ! D52   D(7,8,9,29)             0.1039         estimate D2E/DX2                !
 ! D53   D(17,8,9,10)            0.0244         estimate D2E/DX2                !
 ! D54   D(17,8,9,29)         -179.9637         estimate D2E/DX2                !
 ! D55   D(7,8,17,16)          179.9372         estimate D2E/DX2                !
 ! D56   D(9,8,17,16)            0.0035         estimate D2E/DX2                !
 ! D57   D(8,9,10,11)           -0.1713         estimate D2E/DX2                !
 ! D58   D(8,9,10,30)         -179.823          estimate D2E/DX2                !
 ! D59   D(29,9,10,11)         179.8164         estimate D2E/DX2                !
 ! D60   D(29,9,10,30)           0.1647         estimate D2E/DX2                !
 ! D61   D(9,10,11,12)         178.6152         estimate D2E/DX2                !
 ! D62   D(9,10,11,16)           0.2878         estimate D2E/DX2                !
 ! D63   D(30,10,11,12)         -1.7296         estimate D2E/DX2                !
 ! D64   D(30,10,11,16)        179.943          estimate D2E/DX2                !
 ! D65   D(10,11,12,13)        -85.9094         estimate D2E/DX2                !
 ! D66   D(10,11,12,14)        154.2865         estimate D2E/DX2                !
 ! D67   D(10,11,12,15)         33.4356         estimate D2E/DX2                !
 ! D68   D(16,11,12,13)         92.3864         estimate D2E/DX2                !
 ! D69   D(16,11,12,14)        -27.4177         estimate D2E/DX2                !
 ! D70   D(16,11,12,15)       -148.2685         estimate D2E/DX2                !
 ! D71   D(10,11,16,17)         -0.272          estimate D2E/DX2                !
 ! D72   D(10,11,16,31)       -179.9607         estimate D2E/DX2                !
 ! D73   D(12,11,16,17)       -178.5919         estimate D2E/DX2                !
 ! D74   D(12,11,16,31)          1.7193         estimate D2E/DX2                !
 ! D75   D(11,16,17,8)           0.1224         estimate D2E/DX2                !
 ! D76   D(31,16,17,8)         179.8257         estimate D2E/DX2                !
 --------------------------------------------------------------------------------
 Trust Radius=3.00D-01 FncErr=1.00D-07 GrdErr=1.00D-06 EigMax=2.50D+02 EigMin=1.00D-04
 Number of steps in this run=    175 maximum allowed number of steps=    186.
 GradGradGradGradGradGradGradGradGradGradGradGradGradGradGradGradGradGrad

 Leave Link  103 at Sun Feb 25 23:16:19 2024, MaxMem=  7516192768 cpu:               0.2 elap:               0.0
 (Enter /public/apps/g16-C01//g16/l202.exe)
                          Input orientation:                          
 ---------------------------------------------------------------------
 Center     Atomic      Atomic             Coordinates (Angstroms)
 Number     Number       Type             X           Y           Z
 ---------------------------------------------------------------------
      1          6           0       -4.090269   -1.390481    1.247235
      2          6           0       -4.594113   -0.958494   -0.127478
      3          6           0       -6.048078   -0.499747   -0.065566
      4          6           0       -3.708406    0.133510   -0.757226
      5          6           0       -3.542324    1.433985    0.076449
      6          8           0       -2.144178    1.510297    0.335615
      7          6           0       -1.585221    0.453943   -0.280434
      8          6           0       -0.135550    0.271733   -0.198202
      9          6           0        0.457300   -0.819571   -0.838975
     10          6           0        1.826542   -0.971724   -0.745719
     11          6           0        2.547653   -0.027089   -0.020324
     12          6           0        4.034069   -0.165157    0.136576
     13          9           0        4.356596   -0.953695    1.180575
     14          9           0        4.646653    1.007462    0.347877
     15          9           0        4.616359   -0.715823   -0.940021
     16          6           0        1.862151    1.024109    0.583832
     17          7           0        0.558348    1.167191    0.494521
     18          7           0       -2.351483   -0.339464   -0.911342
     19          1           0       -4.677635   -2.231621    1.607250
     20          1           0       -4.173497   -0.585842    1.974300
     21          1           0       -3.048752   -1.697993    1.186338
     22          1           0       -4.523902   -1.820780   -0.798423
     23          1           0       -6.673809   -1.299560    0.322625
     24          1           0       -6.156894    0.364463    0.585857
     25          1           0       -6.409848   -0.230653   -1.055277
     26          1           0       -4.106848    0.351484   -1.755045
     27          1           0       -3.845009    2.327892   -0.474861
     28          1           0       -4.070991    1.405452    1.031263
     29          1           0       -0.163725   -1.509254   -1.385478
     30          1           0        2.333924   -1.796005   -1.224693
     31          1           0        2.386112    1.778379    1.155204
 ---------------------------------------------------------------------
                    Distance matrix (angstroms):
                    1          2          3          4          5
     1  C    0.000000
     2  C    1.526534   0.000000
     3  C    2.519895   1.525876   0.000000
     4  C    2.546808   1.540627   2.520610   0.000000
     5  C    3.106218   2.621412   3.168326   1.553651   0.000000
     6  O    3.610102   3.508784   4.409270   2.353009   1.424009
     7  C    3.465680   3.327432   4.568674   2.199528   2.217679
     8  C    4.526814   4.625716   5.964123   3.618966   3.610038
     9  C    5.035732   5.103166   6.558993   4.274126   4.681187
    10  C    6.257466   6.450365   7.918018   5.644229   5.940380
    11  C    6.894023   7.203042   8.608835   6.301356   6.263539
    12  C    8.290950   8.668600  10.089722   7.799616   7.743552
    13  F    8.458413   9.045785  10.488860   8.365485   8.325446
    14  F    9.104547   9.459530  10.808325   8.473019   8.204568
    15  F    9.002479   9.249428  10.702410   8.369976   8.498176
    16  C    6.457682   6.791172   8.081805   5.798509   5.443692
    17  N    5.358909   5.608322   6.836464   4.565146   4.130554
    18  N    2.964366   2.455001   3.795503   1.445232   2.353498
    19  H    1.087256   2.153395   2.770526   3.481953   4.131459
    20  H    1.087655   2.175605   2.771736   2.862693   2.842520
    21  H    1.087672   2.158961   3.463959   2.750816   3.359279
    22  H    2.134927   1.094821   2.146001   2.118013   3.510326
    23  H    2.745514   2.155007   1.087167   3.466033   4.164021
    24  H    2.790733   2.168259   1.087682   2.802196   2.870427
    25  H    3.468027   2.165054   1.087574   2.742123   3.503501
    26  H    3.471081   2.145331   2.710592   1.096317   2.201106
    27  H    4.105127   3.388534   3.607849   2.216687   1.092992
    28  H    2.804328   2.684135   2.956635   2.224409   1.091775
    29  H    4.728957   4.638344   6.114481   3.957036   4.713260
    30  H    6.895298   7.064206   8.560480   6.360134   6.830527
    31  H    7.210663   7.606529   8.821321   6.595918   6.035617
                    6          7          8          9         10
     6  O    0.000000
     7  C    1.344557   0.000000
     8  C    2.419419   1.463389   0.000000
     9  C    3.684513   2.470971   1.397500   0.000000
    10  C    4.805864   3.726814   2.386580   1.380823   0.000000
    11  C    4.950104   4.168896   2.705645   2.380713   1.392313
    12  C    6.404491   5.668651   4.205790   3.764736   2.510412
    13  F    7.003233   6.278629   4.856138   4.393300   3.179954
    14  F    6.809433   6.287878   4.869185   4.722007   3.614714
    15  F    7.231025   6.345313   4.909807   4.161580   2.808259
    16  C    4.043348   3.599503   2.273424   2.719769   2.398400
    17  N    2.728850   2.388340   1.327857   2.394921   2.778753
    18  N    2.240422   1.270707   2.406759   2.850439   4.228839
    19  H    4.694402   4.509837   5.491537   5.860500   7.030514
    20  H    3.346225   3.586663   4.664785   5.423415   6.599081
    21  H    3.440219   2.987335   3.779354   4.143177   5.294224
    22  H    4.247965   3.752136   4.898623   5.080988   6.407169
    23  H    5.330387   5.415919   6.744557   7.241023   8.573494
    24  H    4.180604   4.653887   6.072885   6.868744   8.203276
    25  H    4.812632   4.934175   6.352463   6.895747   8.275454
    26  H    3.092860   2.922940   4.266301   4.800208   6.162364
    27  H    2.053816   2.942130   4.250225   5.343123   6.567139
    28  H    2.051226   2.967317   4.276049   5.380886   6.602236
    29  H    4.000255   2.663816   2.140638   1.077033   2.158563
    30  H    5.780968   4.616664   3.380462   2.150330   1.079950
    31  H    4.611629   4.425683   3.234265   3.800843   3.389645
                   11         12         13         14         15
    11  C    0.000000
    12  C    1.501037   0.000000
    13  F    2.360727   1.347498   0.000000
    14  F    2.368896   1.339755   2.150269   0.000000
    15  F    2.366377   1.342146   2.149648   2.151583   0.000000
    16  C    1.392815   2.516271   3.238837   2.794531   3.596547
    17  N    2.376700   3.739507   4.404034   4.094051   4.697990
    18  N    4.989291   6.473314   7.053490   7.236971   6.978058
    19  H    7.727467   9.073420   9.134138   9.950881   9.755232
    20  H    7.033107   8.421303   8.574835   9.109276   9.261303
    21  H    5.963866   7.322427   7.442660   8.200107   8.014985
    22  H    7.336870   8.766651   9.139558   9.664990   9.207896
    23  H    9.315157  10.769407  11.069125  11.553175  11.375540
    24  H    8.734409  10.214601  10.612479  10.825281  10.934272
    25  H    9.019390  10.511908  11.019897  11.213741  11.037478
    26  H    6.887304   8.373749   9.052692   9.026426   8.825970
    27  H    6.827786   8.286677   8.987525   8.633004   9.004184
    28  H    6.853062   8.304172   8.752833   8.753441   9.157282
    29  H    3.378170   4.663123   5.227483   5.698957   4.865919
    30  H    2.150639   2.720884   3.253614   3.959939   2.541130
    31  H    2.160481   2.744212   3.368632   2.521138   3.947786
                   16         17         18         19         20
    16  C    0.000000
    17  N    1.314668   0.000000
    18  N    4.674354   3.565610   0.000000
    19  H    7.376718   6.340789   3.915935   0.000000
    20  H    6.399562   5.258634   3.421603   1.759963   0.000000
    21  H    5.647107   4.658225   2.594619   1.764989   1.767149
    22  H    7.126408   6.035639   2.631815   2.445340   3.055462
    23  H    8.850440   7.643200   4.596407   2.550237   3.080419
    24  H    8.046131   6.763667   4.149490   3.157705   2.600907
    25  H    8.525671   7.274036   4.062374   3.754129   3.782296
    26  H    6.446062   5.243089   2.066531   4.278231   3.845912
    27  H    5.949148   4.655801   3.088029   5.081103   3.820489
    28  H    5.962197   4.666438   3.126524   3.732034   2.205692
    29  H    3.794771   3.349499   2.525767   5.463846   5.312162
    30  H    3.383249   3.858613   4.916578   7.574406   7.351502
    31  H    1.081630   2.037345   5.585757   8.135169   7.020607
                   21         22         23         24         25
    21  H    0.000000
    22  H    2.475969   0.000000
    23  H    3.747771   2.480024   0.000000
    24  H    3.778207   3.059114   1.762233   0.000000
    25  H    4.298243   2.480175   1.763761   1.763936   0.000000
    26  H    3.737868   2.409936   3.692147   3.111700   2.476362
    27  H    4.427342   4.216286   4.668672   3.213252   3.668983
    28  H    3.271145   3.736503   3.820199   2.373402   3.535639
    29  H    3.869527   4.410536   6.733705   6.581417   6.384192
    30  H    5.898803   6.871106   9.153136   8.946491   8.884401
    31  H    6.451657   8.032366   9.604638   8.677918   9.289314
                   26         27         28         29         30
    26  H    0.000000
    27  H    2.369308   0.000000
    28  H    2.979202   1.780554   0.000000
    29  H    4.375745   5.394883   5.440852   0.000000
    30  H    6.810031   7.466457   7.507436   2.519192   0.000000
    31  H    7.257004   6.464205   6.469051   4.874963   4.294514
                   31
    31  H    0.000000
 Symmetry turned off by external request.
 Stoichiometry    C12H13F3N2O
 Framework group  C1[X(C12H13F3N2O)]
 Deg. of freedom    87
 Full point group                 C1      NOp   1
 Rotational constants (GHZ):           1.4079297           0.1529048           0.1478807
 Leave Link  202 at Sun Feb 25 23:16:19 2024, MaxMem=  7516192768 cpu:               0.5 elap:               0.0
 (Enter /public/apps/g16-C01//g16/l301.exe)
 Standard basis: def2SVPP (5D, 7F)
 Ernie: Thresh=  0.10000D-02 Tol=  0.10000D-05 Strict=F.
   278 basis functions,   502 primitive gaussians,   296 cartesian basis functions
    67 alpha electrons       67 beta electrons
       nuclear repulsion energy      1324.6587569486 Hartrees.
 IExCor=  402 DFT=T Ex+Corr=B3LYP ExCW=0 ScaHFX=  0.200000
 ScaDFX=  0.800000  0.720000  1.000000  0.810000 ScalE2=  1.000000  1.000000
 IRadAn=      5 IRanWt=     -1 IRanGd=            0 ICorTp=0 IEmpDi=141
 NAtoms=   31 NActive=   31 NUniq=   31 SFac= 1.00D+00 NAtFMM=   60 NAOKFM=F Big=F
 Integral buffers will be    131072 words long.
 Raffenetti 2 integral format.
 Two-electron integral symmetry is turned off.
 R6Disp:  Grimme-D3(BJ) Dispersion energy=       -0.0588961074 Hartrees.
 Nuclear repulsion after empirical dispersion term =     1324.5998608413 Hartrees.
 Leave Link  301 at Sun Feb 25 23:16:19 2024, MaxMem=  7516192768 cpu:               0.8 elap:               0.0
 (Enter /public/apps/g16-C01//g16/l302.exe)
 NPDir=0 NMtPBC=     1 NCelOv=     1 NCel=       1 NClECP=     1 NCelD=      1
         NCelK=      1 NCelE2=     1 NClLst=     1 CellRange=     0.0.
 One-electron integrals computed using PRISM.
   1 Symmetry operations used in ECPInt.
 ECPInt:  NShTT=    9045 NPrTT=   36319 LenC2=    7990 LenP2D=   22131.
 LDataN:  DoStor=T MaxTD1= 4 Len=   56
 NBasis=   278 RedAO= T EigKep=  5.27D-04  NBF=   278
 NBsUse=   278 1.00D-06 EigRej= -1.00D+00 NBFU=   278
 Precomputing XC quadrature grid using
 IXCGrd= 4 IRadAn=           5 IRanWt=          -1 IRanGd=           0 AccXCQ= 0.00D+00.
 Generated NRdTot=       0 NPtTot=           0 NUsed=           0 NTot=          32
 NSgBfM=   292   292   292   292   292 MxSgAt=    31 MxSgA2=    31.
 Leave Link  302 at Sun Feb 25 23:16:20 2024, MaxMem=  7516192768 cpu:              15.9 elap:               0.5
 (Enter /public/apps/g16-C01//g16/l303.exe)
 DipDrv:  MaxL=1.
 Leave Link  303 at Sun Feb 25 23:16:20 2024, MaxMem=  7516192768 cpu:               5.5 elap:               0.2
 (Enter /public/apps/g16-C01//g16/l401.exe)
 ExpMin= 1.22D-01 ExpMax= 2.89D+03 ExpMxC= 4.35D+02 IAcc=3 IRadAn=         5 AccDes= 0.00D+00
 Harris functional with IExCor=  402 and IRadAn=       5 diagonalized for initial guess.
 HarFok:  IExCor=  402 AccDes= 0.00D+00 IRadAn=         5 IDoV= 1 UseB2=F ITyADJ=14
 ICtDFT=  3500011 ScaDFX=  1.000000  1.000000  1.000000  1.000000
 FoFCou: FMM=F IPFlag=           0 FMFlag=      100000 FMFlg1=           0
         NFxFlg=           0 DoJE=T BraDBF=F KetDBF=T FulRan=T
         wScrn=  0.000000 ICntrl=       500 IOpCl=  0 I1Cent=   200000004 NGrid=           0
         NMat0=    1 NMatS0=      1 NMatT0=    0 NMatD0=    1 NMtDS0=    0 NMtDT0=    0
 Symmetry not used in FoFCou.
 Harris En= -948.630496777011    
 JPrj=0 DoOrth=F DoCkMO=F.
 Leave Link  401 at Sun Feb 25 23:16:21 2024, MaxMem=  7516192768 cpu:              17.5 elap:               0.5
 (Enter /public/apps/g16-C01//g16/l502.exe)
 Two-electron integral symmetry not used.
 Closed shell SCF:
 Using DIIS extrapolation, IDIIS=  1040.
 NGot=  7516192768 LenX=  7516002376 LenY=  7515914319
 Requested convergence on RMS density matrix=1.00D-08 within 128 cycles.
 Requested convergence on MAX density matrix=1.00D-06.
 Requested convergence on             energy=1.00D-06.
 No special actions if energy rises.
 Fock matrices will be formed incrementally for  20 cycles.
 Integral accuracy reduced to 1.0D-05 until final iterations.

 Cycle   1  Pass 0  IDiag  1:
 FoFJK:  IHMeth= 1 ICntrl=       0 DoSepK=F KAlg= 0 I1Cent=           0 FoldK=F
 IRaf= 820000000 NMat=       1 IRICut=       1 DoRegI=T DoRafI=F ISym2E= 0 IDoP0=0 IntGTp=1.
 FoFCou: FMM=F IPFlag=           0 FMFlag=      100000 FMFlg1=           0
         NFxFlg=           0 DoJE=F BraDBF=F KetDBF=F FulRan=T
         wScrn=  0.000000 ICntrl=         0 IOpCl=  0 I1Cent=           0 NGrid=           0
         NMat0=    1 NMatS0=      1 NMatT0=    0 NMatD0=    1 NMtDS0=    0 NMtDT0=    0
 Symmetry not used in FoFCou.
 E= -948.336448930392    
 DIIS: error= 3.36D-02 at cycle   1 NSaved=   1.
 NSaved= 1 IEnMin= 1 EnMin= -948.336448930392     IErMin= 1 ErrMin= 3.36D-02
 ErrMax= 3.36D-02  0.00D+00 EMaxC= 1.00D-01 BMatC= 3.59D-01 BMatP= 3.59D-01
 IDIUse=3 WtCom= 6.64D-01 WtEn= 3.36D-01
 Coeff-Com:  0.100D+01
 Coeff-En:   0.100D+01
 Coeff:      0.100D+01
 Gap=     0.145 Goal=   None    Shift=    0.000
 GapD=    0.145 DampG=1.000 DampE=0.500 DampFc=0.5000 IDamp=-1.
 Damping current iteration by 5.00D-01
 RMSDP=5.63D-03 MaxDP=1.76D-01              OVMax= 2.22D-01

 Cycle   2  Pass 0  IDiag  1:
 RMSU=  2.80D-03    CP:  9.86D-01
 E= -948.471484793505     Delta-E=       -0.135035863113 Rises=F Damp=T
 DIIS: error= 4.57D-03 at cycle   2 NSaved=   2.
 NSaved= 2 IEnMin= 2 EnMin= -948.471484793505     IErMin= 2 ErrMin= 4.57D-03
 ErrMax= 4.57D-03  0.00D+00 EMaxC= 1.00D-01 BMatC= 2.79D-02 BMatP= 3.59D-01
 IDIUse=3 WtCom= 9.54D-01 WtEn= 4.57D-02
 Coeff-Com:  0.129D+00 0.871D+00
 Coeff-En:   0.213D+00 0.787D+00
 Coeff:      0.133D+00 0.867D+00
 Gap=     0.230 Goal=   None    Shift=    0.000
 RMSDP=1.77D-03 MaxDP=4.76D-02 DE=-1.35D-01 OVMax= 2.16D-01

 Cycle   3  Pass 0  IDiag  1:
 RMSU=  1.70D-03    CP:  9.76D-01  8.51D-01
 E= -948.659226122781     Delta-E=       -0.187741329275 Rises=F Damp=F
 DIIS: error= 9.62D-03 at cycle   3 NSaved=   3.
 NSaved= 3 IEnMin= 3 EnMin= -948.659226122781     IErMin= 2 ErrMin= 4.57D-03
 ErrMax= 9.62D-03  0.00D+00 EMaxC= 1.00D-01 BMatC= 2.81D-02 BMatP= 2.79D-02
 IDIUse=3 WtCom= 9.04D-01 WtEn= 9.62D-02
 Coeff-Com:  0.268D-01 0.501D+00 0.472D+00
 Coeff-En:   0.000D+00 0.000D+00 0.100D+01
 Coeff:      0.242D-01 0.453D+00 0.523D+00
 Gap=     0.171 Goal=   None    Shift=    0.000
 RMSDP=1.02D-03 MaxDP=4.70D-02 DE=-1.88D-01 OVMax= 1.13D-01

 Cycle   4  Pass 0  IDiag  1:
 RMSU=  7.13D-04    CP:  9.79D-01  9.46D-01  6.03D-01
 E= -948.676788960134     Delta-E=       -0.017562837354 Rises=F Damp=F
 DIIS: error= 7.93D-03 at cycle   4 NSaved=   4.
 NSaved= 4 IEnMin= 4 EnMin= -948.676788960134     IErMin= 2 ErrMin= 4.57D-03
 ErrMax= 7.93D-03  0.00D+00 EMaxC= 1.00D-01 BMatC= 9.54D-03 BMatP= 2.79D-02
 IDIUse=3 WtCom= 9.21D-01 WtEn= 7.93D-02
 Coeff-Com: -0.338D-02 0.165D+00 0.369D+00 0.470D+00
 Coeff-En:   0.000D+00 0.000D+00 0.286D+00 0.714D+00
 Coeff:     -0.311D-02 0.152D+00 0.362D+00 0.489D+00
 Gap=     0.176 Goal=   None    Shift=    0.000
 RMSDP=4.64D-04 MaxDP=2.10D-02 DE=-1.76D-02 OVMax= 4.70D-02

 Cycle   5  Pass 0  IDiag  1:
 RMSU=  2.18D-04    CP:  9.78D-01  9.02D-01  7.13D-01  5.22D-01
 E= -948.684761356093     Delta-E=       -0.007972395959 Rises=F Damp=F
 DIIS: error= 1.65D-03 at cycle   5 NSaved=   5.
 NSaved= 5 IEnMin= 5 EnMin= -948.684761356093     IErMin= 5 ErrMin= 1.65D-03
 ErrMax= 1.65D-03  0.00D+00 EMaxC= 1.00D-01 BMatC= 5.67D-04 BMatP= 9.54D-03
 IDIUse=3 WtCom= 9.84D-01 WtEn= 1.65D-02
 Coeff-Com: -0.374D-02 0.369D-01 0.151D+00 0.281D+00 0.534D+00
 Coeff-En:   0.000D+00 0.000D+00 0.000D+00 0.000D+00 0.100D+01
 Coeff:     -0.368D-02 0.363D-01 0.149D+00 0.277D+00 0.542D+00
 Gap=     0.176 Goal=   None    Shift=    0.000
 RMSDP=1.21D-04 MaxDP=3.42D-03 DE=-7.97D-03 OVMax= 6.95D-03

 Cycle   6  Pass 0  IDiag  1:
 RMSU=  8.17D-05    CP:  9.78D-01  9.07D-01  7.02D-01  5.74D-01  6.47D-01
 E= -948.685206053904     Delta-E=       -0.000444697811 Rises=F Damp=F
 DIIS: error= 4.65D-04 at cycle   6 NSaved=   6.
 NSaved= 6 IEnMin= 6 EnMin= -948.685206053904     IErMin= 6 ErrMin= 4.65D-04
 ErrMax= 4.65D-04  0.00D+00 EMaxC= 1.00D-01 BMatC= 4.93D-05 BMatP= 5.67D-04
 IDIUse=3 WtCom= 9.95D-01 WtEn= 4.65D-03
 Coeff-Com: -0.182D-02 0.232D-02 0.396D-01 0.944D-01 0.297D+00 0.568D+00
 Coeff-En:   0.000D+00 0.000D+00 0.000D+00 0.000D+00 0.294D-01 0.971D+00
 Coeff:     -0.181D-02 0.231D-02 0.394D-01 0.940D-01 0.296D+00 0.570D+00
 Gap=     0.176 Goal=   None    Shift=    0.000
 RMSDP=3.50D-05 MaxDP=1.33D-03 DE=-4.45D-04 OVMax= 2.50D-03

 Cycle   7  Pass 0  IDiag  1:
 RMSU=  2.13D-05    CP:  9.78D-01  9.09D-01  7.08D-01  5.76D-01  6.55D-01
                    CP:  6.86D-01
 E= -948.685244023773     Delta-E=       -0.000037969868 Rises=F Damp=F
 DIIS: error= 2.19D-04 at cycle   7 NSaved=   7.
 NSaved= 7 IEnMin= 7 EnMin= -948.685244023773     IErMin= 7 ErrMin= 2.19D-04
 ErrMax= 2.19D-04  0.00D+00 EMaxC= 1.00D-01 BMatC= 5.25D-06 BMatP= 4.93D-05
 IDIUse=3 WtCom= 9.98D-01 WtEn= 2.19D-03
 Coeff-Com: -0.909D-03-0.546D-03 0.159D-01 0.419D-01 0.154D+00 0.351D+00
 Coeff-Com:  0.439D+00
 Coeff-En:   0.000D+00 0.000D+00 0.000D+00 0.000D+00 0.000D+00 0.357D-01
 Coeff-En:   0.964D+00
 Coeff:     -0.907D-03-0.544D-03 0.159D-01 0.418D-01 0.153D+00 0.350D+00
 Coeff:      0.440D+00
 Gap=     0.176 Goal=   None    Shift=    0.000
 RMSDP=1.28D-05 MaxDP=4.11D-04 DE=-3.80D-05 OVMax= 1.04D-03

 Cycle   8  Pass 0  IDiag  1:
 RMSU=  5.74D-06    CP:  9.78D-01  9.08D-01  7.08D-01  5.77D-01  6.65D-01
                    CP:  6.91D-01  4.89D-01
 E= -948.685249654888     Delta-E=       -0.000005631116 Rises=F Damp=F
 DIIS: error= 4.95D-05 at cycle   8 NSaved=   8.
 NSaved= 8 IEnMin= 8 EnMin= -948.685249654888     IErMin= 8 ErrMin= 4.95D-05
 ErrMax= 4.95D-05  0.00D+00 EMaxC= 1.00D-01 BMatC= 2.72D-07 BMatP= 5.25D-06
 IDIUse=1 WtCom= 1.00D+00 WtEn= 0.00D+00
 Coeff-Com: -0.259D-03-0.619D-03 0.354D-02 0.103D-01 0.463D-01 0.113D+00
 Coeff-Com:  0.222D+00 0.606D+00
 Coeff:     -0.259D-03-0.619D-03 0.354D-02 0.103D-01 0.463D-01 0.113D+00
 Coeff:      0.222D+00 0.606D+00
 Gap=     0.176 Goal=   None    Shift=    0.000
 RMSDP=2.69D-06 MaxDP=8.59D-05 DE=-5.63D-06 OVMax= 2.22D-04

 Initial convergence to 1.0D-05 achieved.  Increase integral accuracy.
 Cycle   9  Pass 1  IDiag  1:
 E= -948.685220500486     Delta-E=        0.000029154402 Rises=F Damp=F
 DIIS: error= 8.29D-05 at cycle   1 NSaved=   1.
 NSaved= 1 IEnMin= 1 EnMin= -948.685220500486     IErMin= 1 ErrMin= 8.29D-05
 ErrMax= 8.29D-05  0.00D+00 EMaxC= 1.00D-01 BMatC= 8.14D-07 BMatP= 8.14D-07
 IDIUse=1 WtCom= 1.00D+00 WtEn= 0.00D+00
 Coeff-Com:  0.100D+01
 Coeff:      0.100D+01
 Gap=     0.176 Goal=   None    Shift=    0.000
 RMSDP=2.69D-06 MaxDP=8.59D-05 DE= 2.92D-05 OVMax= 2.04D-04

 Cycle  10  Pass 1  IDiag  1:
 RMSU=  6.16D-05    CP:  1.00D+00
 E= -948.685221398687     Delta-E=       -0.000000898201 Rises=F Damp=F
 DIIS: error= 1.63D-05 at cycle   2 NSaved=   2.
 NSaved= 2 IEnMin= 2 EnMin= -948.685221398687     IErMin= 2 ErrMin= 1.63D-05
 ErrMax= 1.63D-05  0.00D+00 EMaxC= 1.00D-01 BMatC= 7.60D-08 BMatP= 8.14D-07
 IDIUse=1 WtCom= 1.00D+00 WtEn= 0.00D+00
 Coeff-Com:  0.117D+00 0.883D+00
 Coeff:      0.117D+00 0.883D+00
 Gap=     0.176 Goal=   None    Shift=    0.000
 RMSDP=2.61D-06 MaxDP=8.93D-05 DE=-8.98D-07 OVMax= 1.81D-04

 Cycle  11  Pass 1  IDiag  1:
 RMSU=  2.50D-06    CP:  1.00D+00  1.01D+00
 E= -948.685221321480     Delta-E=        0.000000077207 Rises=F Damp=F
 DIIS: error= 2.51D-05 at cycle   3 NSaved=   3.
 NSaved= 3 IEnMin= 2 EnMin= -948.685221398687     IErMin= 2 ErrMin= 1.63D-05
 ErrMax= 2.51D-05  0.00D+00 EMaxC= 1.00D-01 BMatC= 1.55D-07 BMatP= 7.60D-08
 IDIUse=1 WtCom= 1.00D+00 WtEn= 0.00D+00
 Coeff-Com: -0.400D-02 0.591D+00 0.413D+00
 Coeff:     -0.400D-02 0.591D+00 0.413D+00
 Gap=     0.176 Goal=   None    Shift=    0.000
 RMSDP=1.64D-06 MaxDP=5.51D-05 DE= 7.72D-08 OVMax= 1.25D-04

 Cycle  12  Pass 1  IDiag  1:
 RMSU=  4.86D-07    CP:  1.00D+00  1.02D+00  3.78D-01
 E= -948.685221467364     Delta-E=       -0.000000145884 Rises=F Damp=F
 DIIS: error= 3.26D-06 at cycle   4 NSaved=   4.
 NSaved= 4 IEnMin= 4 EnMin= -948.685221467364     IErMin= 4 ErrMin= 3.26D-06
 ErrMax= 3.26D-06  0.00D+00 EMaxC= 1.00D-01 BMatC= 2.80D-09 BMatP= 7.60D-08
 IDIUse=1 WtCom= 1.00D+00 WtEn= 0.00D+00
 Coeff-Com: -0.455D-02 0.353D+00 0.258D+00 0.394D+00
 Coeff:     -0.455D-02 0.353D+00 0.258D+00 0.394D+00
 Gap=     0.176 Goal=   None    Shift=    0.000
 RMSDP=2.61D-07 MaxDP=8.14D-06 DE=-1.46D-07 OVMax= 1.65D-05

 Cycle  13  Pass 1  IDiag  1:
 RMSU=  1.27D-07    CP:  1.00D+00  1.02D+00  4.12D-01  5.65D-01
 E= -948.685221470250     Delta-E=       -0.000000002886 Rises=F Damp=F
 DIIS: error= 2.77D-07 at cycle   5 NSaved=   5.
 NSaved= 5 IEnMin= 5 EnMin= -948.685221470250     IErMin= 5 ErrMin= 2.77D-07
 ErrMax= 2.77D-07  0.00D+00 EMaxC= 1.00D-01 BMatC= 4.13D-11 BMatP= 2.80D-09
 IDIUse=1 WtCom= 1.00D+00 WtEn= 0.00D+00
 Coeff-Com: -0.224D-02 0.164D+00 0.120D+00 0.204D+00 0.514D+00
 Coeff:     -0.224D-02 0.164D+00 0.120D+00 0.204D+00 0.514D+00
 Gap=     0.176 Goal=   None    Shift=    0.000
 RMSDP=3.46D-08 MaxDP=1.35D-06 DE=-2.89D-09 OVMax= 1.71D-06

 Cycle  14  Pass 1  IDiag  1:
 RMSU=  3.26D-08    CP:  1.00D+00  1.02D+00  4.11D-01  5.65D-01  9.23D-01
 E= -948.685221470294     Delta-E=       -0.000000000044 Rises=F Damp=F
 DIIS: error= 6.88D-08 at cycle   6 NSaved=   6.
 NSaved= 6 IEnMin= 6 EnMin= -948.685221470294     IErMin= 6 ErrMin= 6.88D-08
 ErrMax= 6.88D-08  0.00D+00 EMaxC= 1.00D-01 BMatC= 3.02D-12 BMatP= 4.13D-11
 IDIUse=1 WtCom= 1.00D+00 WtEn= 0.00D+00
 Coeff-Com: -0.445D-03 0.305D-01 0.222D-01 0.450D-01 0.236D+00 0.666D+00
 Coeff:     -0.445D-03 0.305D-01 0.222D-01 0.450D-01 0.236D+00 0.666D+00
 Gap=     0.176 Goal=   None    Shift=    0.000
 RMSDP=1.00D-08 MaxDP=3.95D-07 DE=-4.41D-11 OVMax= 8.82D-07

 Cycle  15  Pass 1  IDiag  1:
 RMSU=  8.31D-09    CP:  1.00D+00  1.02D+00  4.11D-01  5.68D-01  9.42D-01
                    CP:  8.61D-01
 E= -948.685221470296     Delta-E=       -0.000000000001 Rises=F Damp=F
 DIIS: error= 4.55D-08 at cycle   7 NSaved=   7.
 NSaved= 7 IEnMin= 7 EnMin= -948.685221470296     IErMin= 7 ErrMin= 4.55D-08
 ErrMax= 4.55D-08  0.00D+00 EMaxC= 1.00D-01 BMatC= 8.46D-13 BMatP= 3.02D-12
 IDIUse=1 WtCom= 1.00D+00 WtEn= 0.00D+00
 Coeff-Com: -0.364D-04 0.129D-02 0.765D-03 0.642D-02 0.916D-01 0.417D+00
 Coeff-Com:  0.483D+00
 Coeff:     -0.364D-04 0.129D-02 0.765D-03 0.642D-02 0.916D-01 0.417D+00
 Coeff:      0.483D+00
 Gap=     0.176 Goal=   None    Shift=    0.000
 RMSDP=5.33D-09 MaxDP=2.07D-07 DE=-1.36D-12 OVMax= 4.11D-07

 SCF Done:  E(RB3LYP) =  -948.685221470     A.U. after   15 cycles
            NFock= 15  Conv=0.53D-08     -V/T= 2.0079
 KE= 9.412455787493D+02 PE=-4.870142484869D+03 EE= 1.655611823808D+03
 Leave Link  502 at Sun Feb 25 23:16:27 2024, MaxMem=  7516192768 cpu:             251.9 elap:               6.4
 (Enter /public/apps/g16-C01//g16/l601.exe)
 Copying SCF densities to generalized density rwf, IOpCl= 0 IROHF=0.

 **********************************************************************

            Population analysis using the SCF Density.

 **********************************************************************

 Alpha  occ. eigenvalues --  -24.72373 -24.72335 -24.71681 -19.17321 -14.33994
 Alpha  occ. eigenvalues --  -14.31219 -10.44037 -10.28061 -10.25132 -10.24216
 Alpha  occ. eigenvalues --  -10.24064 -10.22980 -10.22829 -10.21979 -10.21447
 Alpha  occ. eigenvalues --  -10.19205 -10.17572 -10.16992  -1.30471  -1.21198
 Alpha  occ. eigenvalues --   -1.20586  -1.09659  -0.96998  -0.91215  -0.84023
 Alpha  occ. eigenvalues --   -0.82131  -0.79499  -0.75322  -0.71096  -0.68835
 Alpha  occ. eigenvalues --   -0.66864  -0.65920  -0.64459  -0.59738  -0.59588
 Alpha  occ. eigenvalues --   -0.59035  -0.58620  -0.56939  -0.52919  -0.51943
 Alpha  occ. eigenvalues --   -0.51119  -0.48141  -0.47250  -0.47191  -0.46932
 Alpha  occ. eigenvalues --   -0.46357  -0.45542  -0.44274  -0.43819  -0.43352
 Alpha  occ. eigenvalues --   -0.42771  -0.42607  -0.42502  -0.41141  -0.39982
 Alpha  occ. eigenvalues --   -0.39355  -0.38665  -0.38125  -0.37412  -0.35211
 Alpha  occ. eigenvalues --   -0.34488  -0.33022  -0.31713  -0.29582  -0.28673
 Alpha  occ. eigenvalues --   -0.27318  -0.25114
 Alpha virt. eigenvalues --   -0.07477  -0.04420   0.03297   0.04749   0.07110
 Alpha virt. eigenvalues --    0.07347   0.08259   0.09100   0.10830   0.11553
 Alpha virt. eigenvalues --    0.12471   0.12825   0.13119   0.13310   0.13914
 Alpha virt. eigenvalues --    0.15040   0.15638   0.16663   0.17607   0.18661
 Alpha virt. eigenvalues --    0.19724   0.20228   0.21594   0.21857   0.23397
 Alpha virt. eigenvalues --    0.23513   0.24056   0.25468   0.26445   0.28150
 Alpha virt. eigenvalues --    0.30449   0.31720   0.33188   0.35592   0.35784
 Alpha virt. eigenvalues --    0.37183   0.38346   0.39128   0.39675   0.40539
 Alpha virt. eigenvalues --    0.42341   0.43254   0.43721   0.43964   0.47181
 Alpha virt. eigenvalues --    0.47518   0.49125   0.50863   0.51278   0.52279
 Alpha virt. eigenvalues --    0.53977   0.54885   0.56001   0.56961   0.57766
 Alpha virt. eigenvalues --    0.59534   0.60857   0.61654   0.62668   0.63462
 Alpha virt. eigenvalues --    0.63739   0.64318   0.64896   0.65283   0.65585
 Alpha virt. eigenvalues --    0.65802   0.67047   0.67445   0.68432   0.68710
 Alpha virt. eigenvalues --    0.69767   0.70111   0.70629   0.71280   0.71741
 Alpha virt. eigenvalues --    0.71980   0.72405   0.73440   0.74283   0.74920
 Alpha virt. eigenvalues --    0.75455   0.76283   0.76852   0.79075   0.81234
 Alpha virt. eigenvalues --    0.83505   0.85252   0.86193   0.89515   0.90375
 Alpha virt. eigenvalues --    0.94259   0.96734   0.98854   1.01461   1.04842
 Alpha virt. eigenvalues --    1.07041   1.07798   1.09589   1.09756   1.10560
 Alpha virt. eigenvalues --    1.11559   1.12427   1.13425   1.13948   1.16135
 Alpha virt. eigenvalues --    1.18145   1.22812   1.23669   1.24653   1.30003
 Alpha virt. eigenvalues --    1.32096   1.33915   1.35390   1.36128   1.37721
 Alpha virt. eigenvalues --    1.40375   1.43094   1.44812   1.45527   1.46443
 Alpha virt. eigenvalues --    1.47847   1.49338   1.50306   1.53425   1.58056
 Alpha virt. eigenvalues --    1.59613   1.63003   1.63479   1.65494   1.70087
 Alpha virt. eigenvalues --    1.72124   1.72506   1.73185   1.77051   1.77692
 Alpha virt. eigenvalues --    1.79617   1.83451   1.84151   1.86195   1.87746
 Alpha virt. eigenvalues --    1.88354   1.89652   1.90891   1.92119   1.92495
 Alpha virt. eigenvalues --    1.93955   1.96085   1.97370   1.98339   1.99793
 Alpha virt. eigenvalues --    2.01632   2.02425   2.04871   2.06748   2.07490
 Alpha virt. eigenvalues --    2.09222   2.12723   2.15384   2.15953   2.17731
 Alpha virt. eigenvalues --    2.18736   2.20646   2.22057   2.22744   2.24564
 Alpha virt. eigenvalues --    2.26215   2.29533   2.33781   2.34875   2.39270
 Alpha virt. eigenvalues --    2.39959   2.46197   2.51295   2.51668   2.54101
 Alpha virt. eigenvalues --    2.55668   2.58106   2.64468   2.66719   2.68780
 Alpha virt. eigenvalues --    2.72544   2.73636   2.76751   2.81389   2.82543
 Alpha virt. eigenvalues --    2.85345   2.87366   2.93265   2.97170   2.99794
 Alpha virt. eigenvalues --    3.00247   3.03329   3.04102   3.04605   3.05677
 Alpha virt. eigenvalues --    3.06024   3.11418   3.12828   3.16606   3.19522
 Alpha virt. eigenvalues --    3.23728   3.29847   3.34314   3.43369   3.51537
 Alpha virt. eigenvalues --    3.53948   3.57008   3.63290   3.65486   3.83425
 Alpha virt. eigenvalues --    3.86154
          Condensed to atoms (all electrons):
               1          2          3          4          5          6
     1  C    4.873431   0.410321  -0.064331  -0.044958  -0.021970   0.001461
     2  C    0.410321   4.850036   0.415528   0.345842  -0.031541   0.001213
     3  C   -0.064331   0.415528   4.833458  -0.056767  -0.003483   0.000189
     4  C   -0.044958   0.345842  -0.056767   4.957119   0.312394  -0.065521
     5  C   -0.021970  -0.031541  -0.003483   0.312394   4.803201   0.330727
     6  O    0.001461   0.001213   0.000189  -0.065521   0.330727   7.827131
     7  C    0.008294  -0.004129   0.000191  -0.069637  -0.110558   0.431747
     8  C   -0.000321  -0.000900   0.000006   0.023254   0.002836  -0.099318
     9  C   -0.000139   0.000166   0.000002  -0.002584   0.000703   0.004916
    10  C   -0.000006   0.000002  -0.000000  -0.000082   0.000029  -0.000025
    11  C    0.000000  -0.000000   0.000000   0.000006   0.000001  -0.000043
    12  C    0.000000  -0.000000   0.000000   0.000000   0.000000  -0.000000
    13  F   -0.000000   0.000000  -0.000000  -0.000000   0.000000   0.000000
    14  F    0.000000  -0.000000   0.000000   0.000000  -0.000000   0.000000
    15  F    0.000000  -0.000000   0.000000   0.000000  -0.000000   0.000000
    16  C    0.000000  -0.000000   0.000000   0.000014   0.000016   0.000084
    17  N   -0.000010   0.000005  -0.000000  -0.000175  -0.000214   0.003319
    18  N   -0.010419  -0.072295   0.006318   0.384260  -0.064936  -0.102381
    19  H    0.369624  -0.016584  -0.003973   0.009149   0.000049   0.000007
    20  H    0.372584  -0.022003  -0.006611  -0.012838   0.010838  -0.000377
    21  H    0.363895  -0.017269   0.009051  -0.011859   0.001462  -0.000893
    22  H   -0.035197   0.339412  -0.022838  -0.028847   0.012521  -0.000060
    23  H   -0.002945  -0.015987   0.370390   0.008443  -0.000176   0.000002
    24  H   -0.008729  -0.018596   0.372842  -0.013283   0.007947  -0.000135
    25  H    0.009896  -0.021896   0.367828  -0.002439  -0.002139  -0.000003
    26  H    0.011181  -0.033504  -0.004960   0.338528  -0.026000   0.003484
    27  H    0.000670   0.004417   0.000765   0.003922   0.341518  -0.029092
    28  H    0.003329  -0.009384  -0.003270  -0.017607   0.357709  -0.028619
    29  H   -0.000128  -0.000017   0.000004  -0.000579   0.000316   0.000544
    30  H    0.000000   0.000000  -0.000000   0.000000  -0.000000   0.000000
    31  H   -0.000000  -0.000000  -0.000000  -0.000000  -0.000001   0.000013
               7          8          9         10         11         12
     1  C    0.008294  -0.000321  -0.000139  -0.000006   0.000000   0.000000
     2  C   -0.004129  -0.000900   0.000166   0.000002  -0.000000  -0.000000
     3  C    0.000191   0.000006   0.000002  -0.000000   0.000000   0.000000
     4  C   -0.069637   0.023254  -0.002584  -0.000082   0.000006   0.000000
     5  C   -0.110558   0.002836   0.000703   0.000029   0.000001   0.000000
     6  O    0.431747  -0.099318   0.004916  -0.000025  -0.000043  -0.000000
     7  C    5.203179  -0.021850  -0.096558   0.012995   0.002443   0.000089
     8  C   -0.021850   5.447137   0.351898   0.053745  -0.096763   0.001417
     9  C   -0.096558   0.351898   5.255334   0.231108   0.093793   0.007670
    10  C    0.012995   0.053745   0.231108   5.261907   0.222502  -0.043587
    11  C    0.002443  -0.096763   0.093793   0.222502   5.692404   0.228665
    12  C    0.000089   0.001417   0.007670  -0.043587   0.228665   4.155757
    13  F   -0.000000  -0.000020  -0.000126  -0.002584  -0.066172   0.383563
    14  F   -0.000000   0.000016  -0.000115   0.004647  -0.081610   0.382838
    15  F   -0.000000  -0.000050   0.001096   0.002581  -0.076907   0.378005
    16  C    0.006872  -0.040893  -0.077492  -0.025992   0.325511  -0.031445
    17  N   -0.104491   0.542870  -0.055567  -0.054805  -0.024005   0.004313
    18  N    0.639691  -0.147612   0.016330   0.001971  -0.000109  -0.000000
    19  H   -0.000154   0.000028  -0.000002   0.000000  -0.000000   0.000000
    20  H   -0.000244  -0.000031   0.000006   0.000000  -0.000000  -0.000000
    21  H    0.005536  -0.001173   0.000645   0.000011   0.000001  -0.000000
    22  H   -0.000619  -0.000198   0.000031   0.000002  -0.000000   0.000000
    23  H   -0.000003  -0.000001   0.000000   0.000000  -0.000000  -0.000000
    24  H    0.000054   0.000004  -0.000000   0.000000  -0.000000   0.000000
    25  H   -0.000006   0.000000  -0.000000  -0.000000  -0.000000   0.000000
    26  H    0.002816  -0.000823   0.000079   0.000000  -0.000000  -0.000000
    27  H    0.007632   0.000051  -0.000014  -0.000001   0.000000  -0.000000
    28  H    0.007217   0.000175  -0.000024  -0.000001   0.000000  -0.000000
    29  H   -0.016119  -0.048066   0.424533  -0.081708   0.014537  -0.000159
    30  H   -0.000727   0.013750  -0.069077   0.444676  -0.085242  -0.008652
    31  H   -0.000321   0.005990   0.001458   0.005311  -0.085680  -0.003499
              13         14         15         16         17         18
     1  C   -0.000000   0.000000   0.000000   0.000000  -0.000010  -0.010419
     2  C    0.000000  -0.000000  -0.000000  -0.000000   0.000005  -0.072295
     3  C   -0.000000   0.000000   0.000000   0.000000  -0.000000   0.006318
     4  C   -0.000000   0.000000   0.000000   0.000014  -0.000175   0.384260
     5  C    0.000000  -0.000000  -0.000000   0.000016  -0.000214  -0.064936
     6  O    0.000000   0.000000   0.000000   0.000084   0.003319  -0.102381
     7  C   -0.000000  -0.000000  -0.000000   0.006872  -0.104491   0.639691
     8  C   -0.000020   0.000016  -0.000050  -0.040893   0.542870  -0.147612
     9  C   -0.000126  -0.000115   0.001096  -0.077492  -0.055567   0.016330
    10  C   -0.002584   0.004647   0.002581  -0.025992  -0.054805   0.001971
    11  C   -0.066172  -0.081610  -0.076907   0.325511  -0.024005  -0.000109
    12  C    0.383563   0.382838   0.378005  -0.031445   0.004313  -0.000000
    13  F    8.956793  -0.048375  -0.048655  -0.002633  -0.000011  -0.000000
    14  F   -0.048375   8.938712  -0.045959   0.006894   0.000206   0.000000
    15  F   -0.048655  -0.045959   8.949182   0.003156  -0.000008  -0.000000
    16  C   -0.002633   0.006894   0.003156   4.947970   0.530388  -0.000006
    17  N   -0.000011   0.000206  -0.000008   0.530388   6.224005   0.001949
    18  N   -0.000000   0.000000  -0.000000  -0.000006   0.001949   6.482877
    19  H    0.000000   0.000000  -0.000000   0.000000   0.000000   0.000125
    20  H    0.000000  -0.000000   0.000000   0.000000   0.000000  -0.000334
    21  H   -0.000000   0.000000   0.000000  -0.000003  -0.000035   0.013176
    22  H   -0.000000  -0.000000   0.000000   0.000000  -0.000000   0.006376
    23  H    0.000000  -0.000000  -0.000000  -0.000000   0.000000  -0.000200
    24  H    0.000000   0.000000  -0.000000   0.000000   0.000000   0.000068
    25  H   -0.000000   0.000000   0.000000  -0.000000   0.000000   0.000102
    26  H   -0.000000   0.000000   0.000000  -0.000001   0.000005  -0.024388
    27  H   -0.000000   0.000000   0.000000   0.000000   0.000024   0.001872
    28  H    0.000000  -0.000000  -0.000000  -0.000000   0.000009   0.003156
    29  H    0.000000   0.000000  -0.000007  -0.000102   0.005513   0.021698
    30  H    0.000214   0.000186   0.007348   0.010344  -0.000216  -0.000013
    31  H    0.000016   0.007469   0.000112   0.417345  -0.038697   0.000002
              19         20         21         22         23         24
     1  C    0.369624   0.372584   0.363895  -0.035197  -0.002945  -0.008729
     2  C   -0.016584  -0.022003  -0.017269   0.339412  -0.015987  -0.018596
     3  C   -0.003973  -0.006611   0.009051  -0.022838   0.370390   0.372842
     4  C    0.009149  -0.012838  -0.011859  -0.028847   0.008443  -0.013283
     5  C    0.000049   0.010838   0.001462   0.012521  -0.000176   0.007947
     6  O    0.000007  -0.000377  -0.000893  -0.000060   0.000002  -0.000135
     7  C   -0.000154  -0.000244   0.005536  -0.000619  -0.000003   0.000054
     8  C    0.000028  -0.000031  -0.001173  -0.000198  -0.000001   0.000004
     9  C   -0.000002   0.000006   0.000645   0.000031   0.000000  -0.000000
    10  C    0.000000   0.000000   0.000011   0.000002   0.000000   0.000000
    11  C   -0.000000  -0.000000   0.000001  -0.000000  -0.000000  -0.000000
    12  C    0.000000  -0.000000  -0.000000   0.000000  -0.000000   0.000000
    13  F    0.000000   0.000000  -0.000000  -0.000000   0.000000   0.000000
    14  F    0.000000  -0.000000   0.000000  -0.000000  -0.000000   0.000000
    15  F   -0.000000   0.000000   0.000000   0.000000  -0.000000  -0.000000
    16  C    0.000000   0.000000  -0.000003   0.000000  -0.000000   0.000000
    17  N    0.000000   0.000000  -0.000035  -0.000000   0.000000   0.000000
    18  N    0.000125  -0.000334   0.013176   0.006376  -0.000200   0.000068
    19  H    0.597241  -0.023177  -0.019380  -0.007254   0.005674  -0.000747
    20  H   -0.023177   0.602492  -0.023310   0.008709  -0.000918   0.006746
    21  H   -0.019380  -0.023310   0.578676  -0.003538  -0.000124  -0.000015
    22  H   -0.007254   0.008709  -0.003538   0.678919  -0.007580   0.008580
    23  H    0.005674  -0.000918  -0.000124  -0.007580   0.595068  -0.023709
    24  H   -0.000747   0.006746  -0.000015   0.008580  -0.023709   0.608270
    25  H   -0.000065  -0.000118  -0.000443  -0.006653  -0.020914  -0.024801
    26  H   -0.000382  -0.000187   0.000333  -0.007522  -0.000099  -0.000766
    27  H    0.000005  -0.000237  -0.000167  -0.000478   0.000011  -0.001320
    28  H   -0.000556   0.005482   0.000392   0.000215  -0.000236   0.006426
    29  H    0.000000   0.000005   0.000308   0.000164  -0.000000   0.000000
    30  H    0.000000  -0.000000  -0.000000  -0.000000   0.000000   0.000000
    31  H    0.000000   0.000000  -0.000000   0.000000   0.000000   0.000000
              25         26         27         28         29         30
     1  C    0.009896   0.011181   0.000670   0.003329  -0.000128   0.000000
     2  C   -0.021896  -0.033504   0.004417  -0.009384  -0.000017   0.000000
     3  C    0.367828  -0.004960   0.000765  -0.003270   0.000004  -0.000000
     4  C   -0.002439   0.338528   0.003922  -0.017607  -0.000579   0.000000
     5  C   -0.002139  -0.026000   0.341518   0.357709   0.000316  -0.000000
     6  O   -0.000003   0.003484  -0.029092  -0.028619   0.000544   0.000000
     7  C   -0.000006   0.002816   0.007632   0.007217  -0.016119  -0.000727
     8  C    0.000000  -0.000823   0.000051   0.000175  -0.048066   0.013750
     9  C   -0.000000   0.000079  -0.000014  -0.000024   0.424533  -0.069077
    10  C   -0.000000   0.000000  -0.000001  -0.000001  -0.081708   0.444676
    11  C   -0.000000  -0.000000   0.000000   0.000000   0.014537  -0.085242
    12  C    0.000000  -0.000000  -0.000000  -0.000000  -0.000159  -0.008652
    13  F   -0.000000  -0.000000  -0.000000   0.000000   0.000000   0.000214
    14  F    0.000000   0.000000   0.000000  -0.000000   0.000000   0.000186
    15  F    0.000000   0.000000   0.000000  -0.000000  -0.000007   0.007348
    16  C   -0.000000  -0.000001   0.000000  -0.000000  -0.000102   0.010344
    17  N    0.000000   0.000005   0.000024   0.000009   0.005513  -0.000216
    18  N    0.000102  -0.024388   0.001872   0.003156   0.021698  -0.000013
    19  H   -0.000065  -0.000382   0.000005  -0.000556   0.000000   0.000000
    20  H   -0.000118  -0.000187  -0.000237   0.005482   0.000005  -0.000000
    21  H   -0.000443   0.000333  -0.000167   0.000392   0.000308  -0.000000
    22  H   -0.006653  -0.007522  -0.000478   0.000215   0.000164  -0.000000
    23  H   -0.020914  -0.000099   0.000011  -0.000236  -0.000000   0.000000
    24  H   -0.024801  -0.000766  -0.001320   0.006426   0.000000   0.000000
    25  H    0.605381   0.008664   0.000014   0.000441  -0.000000   0.000000
    26  H    0.008664   0.672142  -0.013731   0.007061  -0.000054   0.000000
    27  H    0.000014  -0.013731   0.630121  -0.036740  -0.000009   0.000000
    28  H    0.000441   0.007061  -0.036740   0.606545  -0.000011   0.000000
    29  H   -0.000000  -0.000054  -0.000009  -0.000011   0.610461  -0.009504
    30  H    0.000000   0.000000   0.000000   0.000000  -0.009504   0.619705
    31  H   -0.000000   0.000000  -0.000000  -0.000000   0.000072  -0.000276
              31
     1  C   -0.000000
     2  C   -0.000000
     3  C   -0.000000
     4  C   -0.000000
     5  C   -0.000001
     6  O    0.000013
     7  C   -0.000321
     8  C    0.005990
     9  C    0.001458
    10  C    0.005311
    11  C   -0.085680
    12  C   -0.003499
    13  F    0.000016
    14  F    0.007469
    15  F    0.000112
    16  C    0.417345
    17  N   -0.038697
    18  N    0.000002
    19  H    0.000000
    20  H    0.000000
    21  H   -0.000000
    22  H    0.000000
    23  H    0.000000
    24  H    0.000000
    25  H   -0.000000
    26  H    0.000000
    27  H   -0.000000
    28  H   -0.000000
    29  H    0.000072
    30  H   -0.000276
    31  H    0.609607
 Mulliken charges:
               1
     1  C   -0.235534
     2  C   -0.102835
     3  C   -0.210338
     4  C   -0.055754
     5  C    0.078751
     6  O   -0.278369
     7  C    0.096659
     8  C    0.014842
     9  C   -0.088070
    10  C   -0.032696
    11  C   -0.063331
    12  C    0.545025
    13  F   -0.172010
    14  F   -0.164909
    15  F   -0.169893
    16  C   -0.070029
    17  N   -0.034373
    18  N   -0.157278
    19  H    0.090372
    20  H    0.083521
    21  H    0.104723
    22  H    0.065854
    23  H    0.093305
    24  H    0.081164
    25  H    0.087151
    26  H    0.068123
    27  H    0.090767
    28  H    0.098291
    29  H    0.078307
    30  H    0.077483
    31  H    0.081078
 Sum of Mulliken charges =  -0.00000
 Mulliken charges with hydrogens summed into heavy atoms:
               1
     1  C    0.043083
     2  C   -0.036981
     3  C    0.051282
     4  C    0.012368
     5  C    0.267810
     6  O   -0.278369
     7  C    0.096659
     8  C    0.014842
     9  C   -0.009763
    10  C    0.044787
    11  C   -0.063331
    12  C    0.545025
    13  F   -0.172010
    14  F   -0.164909
    15  F   -0.169893
    16  C    0.011049
    17  N   -0.034373
    18  N   -0.157278
 Electronic spatial extent (au):  <R**2>=           6965.4259
 Charge=              0.0000 electrons
 Dipole moment (field-independent basis, Debye):
    X=             -2.9084    Y=             -0.6972    Z=             -0.7843  Tot=              3.0919
 Quadrupole moment (field-independent basis, Debye-Ang):
   XX=           -100.6431   YY=           -103.6213   ZZ=           -104.1211
   XY=             -1.5575   XZ=             -1.0810   YZ=             -0.4261
 Traceless Quadrupole moment (field-independent basis, Debye-Ang):
   XX=              2.1521   YY=             -0.8261   ZZ=             -1.3259
   XY=             -1.5575   XZ=             -1.0810   YZ=             -0.4261
 Octapole moment (field-independent basis, Debye-Ang**2):
  XXX=             38.2172  YYY=              0.2730  ZZZ=              4.7494  XYY=             48.4242
  XXY=             15.8367  XXZ=             -1.3278  XZZ=             48.7502  YZZ=              4.2686
  YYZ=             -4.1367  XYZ=              9.6127
 Hexadecapole moment (field-independent basis, Debye-Ang**3):
 XXXX=          -7626.4682 YYYY=           -663.1141 ZZZZ=           -414.6245 XXXY=            -61.0230
 XXXZ=            -22.7481 YYYX=            -64.4624 YYYZ=            -24.5542 ZZZX=            -16.6668
 ZZZY=            -21.3142 XXYY=          -1333.0798 XXZZ=          -1325.5435 YYZZ=           -175.7832
 XXYZ=             -7.8274 YYXZ=             -8.0222 ZZXY=            -23.4920
 N-N= 1.324599860841D+03 E-N=-4.870142491777D+03  KE= 9.412455787493D+02
 No NMR shielding tensors so no spin-rotation constants.
 Leave Link  601 at Sun Feb 25 23:16:28 2024, MaxMem=  7516192768 cpu:               6.3 elap:               0.2
 (Enter /public/apps/g16-C01//g16/l701.exe)
 ... and contract with generalized density number  0.
 Compute integral first derivatives.
 R6Disp: Adding Grimme-D3(BJ) dispersion energy 1st derivatives to the gradient.
   1 Symmetry operations used in ECPInt.
 ECPInt:  NShTT=    9045 NPrTT=   36319 LenC2=    7990 LenP2D=   22131.
 LDataN:  DoStor=T MaxTD1= 5 Len=  102
 Leave Link  701 at Sun Feb 25 23:16:29 2024, MaxMem=  7516192768 cpu:              14.2 elap:               0.4
 (Enter /public/apps/g16-C01//g16/l702.exe)
 L702 exits ... SP integral derivatives will be done elsewhere.
 Leave Link  702 at Sun Feb 25 23:16:29 2024, MaxMem=  7516192768 cpu:               0.7 elap:               0.0
 (Enter /public/apps/g16-C01//g16/l703.exe)
 Integral derivatives from FoFJK, PRISM(SPDF).
 Compute integral first derivatives, UseDBF=F ICtDFT=           0.
 Calling FoFJK, ICntrl=      2127 FMM=F ISym2X=0 I1Cent= 0 IOpClX= 0 NMat=1 NMatS=1 NMatT=0.
 FoFJK:  IHMeth= 1 ICntrl=    2127 DoSepK=F KAlg= 0 I1Cent=           0 FoldK=F
 IRaf=         0 NMat=       1 IRICut=       1 DoRegI=T DoRafI=F ISym2E= 0 IDoP0=0 IntGTp=1.
 FoFCou: FMM=F IPFlag=           0 FMFlag=      100000 FMFlg1=         800
         NFxFlg=           0 DoJE=F BraDBF=F KetDBF=F FulRan=T
         wScrn=  0.000000 ICntrl=      2127 IOpCl=  0 I1Cent=           0 NGrid=           0
         NMat0=    1 NMatS0=      1 NMatT0=    0 NMatD0=    1 NMtDS0=    0 NMtDT0=    0
 Symmetry not used in FoFCou.
 Leave Link  703 at Sun Feb 25 23:16:30 2024, MaxMem=  7516192768 cpu:              62.4 elap:               1.6
 (Enter /public/apps/g16-C01//g16/l716.exe)
 Dipole        =-1.14424104D+00-2.74317325D-01-3.08550457D-01
 -------------------------------------------------------------------
 Center     Atomic                   Forces (Hartrees/Bohr)
 Number     Number              X              Y              Z
 -------------------------------------------------------------------
      1        6          -0.001320744    0.000953673   -0.011017639
      2        6          -0.000984023    0.007078503    0.004079536
      3        6           0.009762731   -0.005139916   -0.002598836
      4        6          -0.002266014   -0.002043765    0.003534093
      5        6          -0.005421295   -0.002472438   -0.003966626
      6        8           0.008274706    0.005083930    0.005319652
      7        6          -0.005896768   -0.001144412   -0.002800090
      8        6           0.001619701    0.001382627    0.001704367
      9        6          -0.000943196    0.000275967    0.000521672
     10        6           0.001075562    0.002618955    0.001637727
     11        6           0.009691599   -0.000694117   -0.000259440
     12        6           0.010657154   -0.002515943    0.003712624
     13        9          -0.003389613   -0.001741549    0.002236382
     14        9          -0.003006434    0.005840630    0.000706058
     15        9          -0.003190374   -0.002223780   -0.005180226
     16        6           0.005845479   -0.001906529   -0.000813479
     17        7          -0.010463814    0.008609759    0.004577790
     18        7           0.005152630   -0.009965775   -0.007697535
     19        1          -0.005466702   -0.008547281    0.005194746
     20        1          -0.000665007    0.007798977    0.008600334
     21        1           0.009899906   -0.003547820    0.001082979
     22        1           0.000452488   -0.004705244   -0.004300473
     23        1          -0.008175910   -0.007026815    0.004225098
     24        1          -0.002549747    0.009201305    0.007305247
     25        1          -0.005389807    0.003279053   -0.010105427
     26        1          -0.003592402    0.001753372   -0.004791526
     27        1          -0.001670363    0.005609842   -0.001996535
     28        1          -0.003127822    0.001342981    0.005955460
     29        1          -0.005803878   -0.006394423   -0.005139976
     30        1           0.003911895   -0.006924166   -0.004432642
     31        1           0.006980062    0.006164396    0.004706682
 -------------------------------------------------------------------
 Cartesian Forces:  Max     0.011017639 RMS     0.005283312
 Leave Link  716 at Sun Feb 25 23:16:31 2024, MaxMem=  7516192768 cpu:               0.9 elap:               0.0
 (Enter /public/apps/g16-C01//g16/l103.exe)

 GradGradGradGradGradGradGradGradGradGradGradGradGradGradGradGradGradGrad
 Berny optimization.
 FormGI is forming the generalized inverse of G from B-inverse, IUseBI=4.
 Internal  Forces:  Max     0.017902120 RMS     0.004287512
 Search for a local minimum.
 Step number   1 out of a maximum of  175
 All quantities printed in internal units (Hartrees-Bohrs-Radians)
 RMS Force = .42875D-02 SwitMx=.10000D-02 MixMth= 1
 Mixed Optimization -- RFO/linear search
 Second derivative matrix not updated -- first step.
 ITU=  0
     Eigenvalues ---    0.00230   0.00415   0.00424   0.00605   0.00752
     Eigenvalues ---    0.01250   0.01606   0.01871   0.01941   0.02195
     Eigenvalues ---    0.02226   0.02263   0.02276   0.02383   0.02538
     Eigenvalues ---    0.02612   0.03413   0.03988   0.04625   0.04759
     Eigenvalues ---    0.04924   0.05023   0.05551   0.05585   0.05621
     Eigenvalues ---    0.05690   0.05731   0.07895   0.10485   0.10723
     Eigenvalues ---    0.10809   0.11231   0.15682   0.16000   0.16000
     Eigenvalues ---    0.16000   0.16000   0.16000   0.16000   0.16000
     Eigenvalues ---    0.16000   0.16000   0.16851   0.17128   0.20254
     Eigenvalues ---    0.22339   0.23398   0.24587   0.24649   0.24989
     Eigenvalues ---    0.25000   0.25000   0.25000   0.25000   0.25000
     Eigenvalues ---    0.26781   0.28463   0.29746   0.29808   0.32269
     Eigenvalues ---    0.34093   0.34261   0.34469   0.34608   0.35082
     Eigenvalues ---    0.35083   0.35085   0.35095   0.35132   0.35142
     Eigenvalues ---    0.35798   0.36000   0.36355   0.36543   0.37225
     Eigenvalues ---    0.40862   0.42710   0.45297   0.46444   0.48018
     Eigenvalues ---    0.52752   0.55557   0.56727   0.57260   0.58172
     Eigenvalues ---    0.61592   0.71897
 RFO step:  Lambda=-8.24729626D-03 EMin= 2.30000000D-03
 Linear search not attempted -- first point.
 Iteration  1 RMS(Cart)=  0.03932890 RMS(Int)=  0.00026989
 Iteration  2 RMS(Cart)=  0.00047472 RMS(Int)=  0.00005951
 Iteration  3 RMS(Cart)=  0.00000018 RMS(Int)=  0.00005951
 ITry= 1 IFail=0 DXMaxC= 1.41D-01 DCOld= 1.00D+10 DXMaxT= 3.00D-01 DXLimC= 3.00D+00 Rises=F
 Variable       Old X    -DE/DX   Delta X   Delta X   Delta X     New X
                                 (Linear)    (Quad)   (Total)
    R1        2.88473   0.00523   0.00000   0.01711   0.01711   2.90184
    R2        2.05462   0.01129   0.00000   0.03139   0.03139   2.08600
    R3        2.05537   0.01157   0.00000   0.03222   0.03222   2.08759
    R4        2.05540   0.01042   0.00000   0.02902   0.02902   2.08443
    R5        2.88349   0.00610   0.00000   0.01991   0.01991   2.90340
    R6        2.91136   0.00402   0.00000   0.01373   0.01373   2.92509
    R7        2.06891   0.00637   0.00000   0.01816   0.01816   2.08707
    R8        2.05445   0.01138   0.00000   0.03165   0.03165   2.08610
    R9        2.05542   0.01194   0.00000   0.03326   0.03326   2.08868
   R10        2.05522   0.01180   0.00000   0.03285   0.03285   2.08807
   R11        2.93598   0.00519   0.00000   0.01493   0.01492   2.95090
   R12        2.73109   0.01282   0.00000   0.03158   0.03160   2.76269
   R13        2.07174   0.00602   0.00000   0.01723   0.01723   2.08897
   R14        2.69099   0.00891   0.00000   0.02045   0.02043   2.71142
   R15        2.06545   0.00606   0.00000   0.01716   0.01716   2.08262
   R16        2.06316   0.00669   0.00000   0.01887   0.01887   2.08203
   R17        2.54084   0.00518   0.00000   0.01062   0.01062   2.55146
   R18        2.76541   0.01278   0.00000   0.03419   0.03419   2.79960
   R19        2.40129   0.00988   0.00000   0.01391   0.01392   2.41521
   R20        2.64089   0.00820   0.00000   0.01739   0.01739   2.65829
   R21        2.50929   0.01184   0.00000   0.02009   0.02010   2.52938
   R22        2.60938   0.01074   0.00000   0.02068   0.02068   2.63006
   R23        2.03530   0.01005   0.00000   0.02703   0.02703   2.06233
   R24        2.63109   0.00783   0.00000   0.01562   0.01561   2.64670
   R25        2.04081   0.00909   0.00000   0.02468   0.02468   2.06549
   R26        2.83655   0.00127   0.00000   0.00385   0.00385   2.84040
   R27        2.63204   0.00777   0.00000   0.01649   0.01649   2.64853
   R28        2.54640   0.00194   0.00000   0.00344   0.00344   2.54984
   R29        2.53177   0.00385   0.00000   0.00663   0.00663   2.53840
   R30        2.53629   0.00368   0.00000   0.00640   0.00640   2.54269
   R31        2.48436   0.01790   0.00000   0.02863   0.02863   2.51299
   R32        2.04399   0.01017   0.00000   0.02776   0.02776   2.07174
    A1        1.91645   0.00155   0.00000   0.00855   0.00851   1.92497
    A2        1.94699   0.00085   0.00000   0.00452   0.00449   1.95148
    A3        1.92372   0.00202   0.00000   0.01317   0.01311   1.93683
    A4        1.88562  -0.00154   0.00000  -0.01138  -0.01138   1.87424
    A5        1.89348  -0.00166   0.00000  -0.00886  -0.00893   1.88455
    A6        1.89638  -0.00138   0.00000  -0.00701  -0.00706   1.88932
    A7        1.94233   0.00057   0.00000   0.01068   0.01054   1.95286
    A8        1.95945   0.00050   0.00000   0.00966   0.00951   1.96895
    A9        1.88372  -0.00036   0.00000  -0.00760  -0.00752   1.87620
   A10        1.92975   0.00008   0.00000   0.00688   0.00669   1.93644
   A11        1.89944  -0.00039   0.00000  -0.00981  -0.00976   1.88968
   A12        1.84511  -0.00051   0.00000  -0.01216  -0.01211   1.83300
   A13        1.91957   0.00231   0.00000   0.01361   0.01355   1.93311
   A14        1.93746   0.00094   0.00000   0.00462   0.00459   1.94206
   A15        1.93310   0.00171   0.00000   0.01124   0.01117   1.94427
[...]
 00000414,-0.00000265,-0.00002065,-0.00001055,-0.00000276,-0.00002305,0
 .00000566,0.00001396,0.00000250,0.00001058,0.00001328,-0.00001459,-0.0
 0000917,0.00000160,-0.00016308,-0.00019515,0.00041181,0.00016648,-0.00
 018765,0.00006287,0.00027500,0.00000032,0.00021854,0.00015162,0.000027
 93,-0.00005469,-0.00038058,0.00022874,0.00068764,-0.00312555,0.0012696
 5,-0.00816468,-0.00543550,0.00567160,-0.01460633,0.08907393,-0.0649910
 0,0.27784310,-0.00238952,-0.00278847,0.00109883,0.00613633,-0.00477925
 ,0.01702134,0.00109138,-0.00064132,0.00138602,-0.07889910,0.01701828,-
 0.08788469,0.00107475,0.00012282,-0.00215895,0.00068654,-0.00078756,-0
 .00124083,-0.00364091,0.00526649,0.00169772,0.00003699,-0.00177518,0.0
 0120067,-0.00041930,0.00011967,-0.00013973,0.00030612,0.00006267,0.000
 09975,-0.00028153,-0.00026127,-0.00018040,0.00057491,-0.00009994,0.000
 06548,-0.00016451,0.00009231,-0.00007869,-0.00013989,-0.00005031,-0.00
 003680,-0.00017519,0.00006436,0.00007587,-0.00022081,0.00038647,-0.000
 13733,-0.00033539,-0.00013539,0.00014024,-0.02467999,0.00698047,-0.027
 17139,0.00046295,-0.00037650,0.00103546,-0.00009559,0.00015291,-0.0000
 3084,-0.00000315,-0.00005281,-0.00013578,0.00065110,0.00051120,-0.0004
 8939,0.00024605,0.00010742,-0.00008555,-0.00008704,0.00014992,-0.00001
 414,-0.00027134,0.00000260,-0.00020440,0.09988284,-0.00354635,-0.00260
 287,0.00084228,0.00662951,-0.00698673,0.02346512,0.00129513,0.00070625
 ,-0.00048831,0.01934370,-0.05673043,0.04058899,-0.00833596,0.00319829,
 -0.02379753,-0.00495369,-0.00062112,-0.00166258,0.00258184,-0.00436615
 ,-0.00133678,-0.00050371,0.00070747,-0.00047701,0.00027603,-0.00011707
 ,0.00000342,-0.00025395,-0.00002237,-0.00008301,0.00017084,0.00018294,
 0.00011168,-0.00029154,0.00003769,-0.00001508,0.00008980,-0.00004844,0
 .00004127,0.00006564,0.00002802,0.00002076,0.00007368,-0.00002925,-0.0
 0003272,0.00012074,-0.00012980,-0.00002319,0.00003332,0.00004615,0.000
 04661,0.00671433,0.00035778,0.01025611,0.00036982,-0.00033564,0.001270
 45,-0.00006124,0.00006119,0.00015522,0.00005583,0.00013134,-0.00033100
 ,0.00050140,0.00043222,0.00017046,0.00022864,-0.00008511,-0.00026281,-
 0.00007460,0.00001787,-0.00002411,-0.00050042,0.00027555,-0.00029391,-
 0.01892968,0.06696429,0.00277477,0.00267759,0.00066754,-0.00568596,0.0
 0453024,-0.01575810,-0.00134088,-0.00060259,0.00030125,-0.08841470,0.0
 4043379,-0.25945948,-0.00420574,0.00272054,-0.01119360,-0.00089643,0.0
 0034213,-0.00106786,0.00264843,-0.00039853,0.00039973,-0.00043105,0.00
 046417,-0.00052893,0.00006838,-0.00007235,-0.00005001,-0.00007221,-0.0
 0002728,-0.00002866,0.00003357,0.00003354,0.00001337,0.00004104,0.0000
 0973,-0.00002094,-0.00000937,-0.00000361,0.00000354,-0.00001808,-0.000
 00567,0.00000133,-0.00001931,0.00000162,0.00001429,-0.00001904,-0.0000
 2341,0.00006259,0.00003348,0.00005657,0.00010487,-0.00031121,-0.001910
 83,0.01095069,-0.00043230,0.00035494,-0.00093149,0.00007607,-0.0003067
 8,0.00026930,-0.00003634,-0.00007591,0.00014237,0.00000424,0.00007743,
 0.00109437,0.00005293,-0.00011325,0.00046099,-0.00005127,0.00003306,-0
 .00002614,0.00107008,-0.00007847,0.00041744,0.09556349,-0.04594716,0.2
 7307211,-0.00012546,0.00005915,0.00019921,0.00045117,-0.00093523,-0.00
 000319,0.00008220,0.00022417,-0.00009542,0.00298617,-0.00239866,0.0022
 8463,-0.05461158,0.03746666,-0.02036213,-0.02694145,0.03273279,-0.0186
 1390,-0.00108785,-0.00522889,-0.00734647,-0.00030701,0.00051322,0.0010
 1418,-0.00024081,-0.00020278,-0.00005268,-0.00007694,0.00009998,-0.000
 01506,-0.00007314,0.00000998,0.00000836,0.00024074,-0.00000307,0.00003
 677,-0.00006897,0.00002889,-0.00003534,-0.00006968,-0.00003498,-0.0000
 1902,-0.00007367,0.00001657,0.00002505,0.00003690,0.00008903,0.0000241
 2,-0.00002427,-0.00005762,0.00003819,0.00116252,0.00014377,0.00167357,
 0.00000821,-0.00011301,-0.00012785,-0.00002902,-0.00010121,-0.00031911
 ,0.00001328,-0.00010604,0.00001139,-0.00016883,-0.00022802,-0.00007903
 ,0.00002426,0.00001790,-0.00000253,0.00011081,0.00000298,0.00014479,-0
 .00004687,-0.00007081,-0.00008680,0.00069207,-0.00062425,0.00009003,0.
 07175722,-0.00005839,0.00024340,-0.00051646,0.00112781,-0.00216251,-0.
 00303376,0.00033830,-0.00013876,0.00002380,0.00160693,-0.01618152,0.01
 349169,0.04464142,-0.23009518,0.11821831,0.00232019,0.00878051,-0.0029
 3551,-0.00071525,-0.00049090,-0.00119280,-0.00014173,-0.00014734,0.000
 25471,0.00011947,-0.00006561,-0.00003272,-0.00005103,-0.00000285,-0.00
 002009,0.00005868,0.00004132,0.00003887,-0.00012599,-0.00000499,0.0000
 0223,0.00003298,-0.00000906,0.00000928,0.00003842,0.00002181,0.0000082
 0,0.00003858,-0.00000782,-0.00001958,0.00002184,-0.00003828,-0.0000247
 2,0.00005944,0.00005669,0.00000683,0.00133562,-0.00161073,-0.00000684,
 -0.00003041,-0.00001423,0.00006210,0.00002698,0.00014769,0.00000775,0.
 00000850,0.00001128,-0.00001644,-0.00066491,-0.00090620,0.00031891,-0.
 00012143,0.00009592,0.00000039,-0.00007081,0.00007225,0.00015899,-0.00
 010933,-0.00003049,-0.00011292,-0.00015834,0.00153859,-0.00015166,-0.0
 4878372,0.23877257,0.00005741,-0.00008626,-0.00055480,0.00079507,-0.00
 181082,-0.00147674,-0.00004068,0.00008885,0.00013287,0.00203957,-0.015
 00146,0.01050383,-0.02492755,0.11850321,-0.13044408,-0.00941472,0.0035
 7370,0.00323283,0.00107506,-0.00298553,-0.00358293,-0.00010862,0.00011
 473,0.00011332,0.00000329,-0.00008415,-0.00002369,-0.00001697,0.000000
 56,0.00001386,-0.00004479,0.00000030,0.00000275,0.00013668,0.00001181,
 0.00001542,-0.00003989,0.00001318,-0.00001728,-0.00003940,-0.00002387,
 -0.00001125,-0.00003981,0.00000736,0.00001214,0.00003112,0.00004773,0.
 00002465,-0.00002954,-0.00001160,0.00001834,0.00155579,-0.00054154,-0.
 00049808,0.00002866,0.00014065,0.00020496,0.00001171,0.00015833,0.0004
 3461,0.,0.00004549,0.00007317,-0.00034391,-0.00055702,0.00018624,-0.00
 002778,-0.00002929,-0.00001351,-0.00022845,-0.00000630,-0.00009927,0.0
 0001005,0.00006363,0.00009085,0.00030786,-0.00025779,0.00174905,0.0339
 7010,-0.12394782,0.13274682,-0.00017407,-0.00005554,0.00068094,-0.0001
 2121,-0.00066359,0.00046672,-0.00010473,-0.00055995,-0.00044840,0.0056
 5808,0.00211484,-0.00356692,-0.10247709,0.00271896,0.10631210,-0.03345
 061,0.00645512,0.02559398,-0.00313689,-0.00736961,-0.00172205,-0.00003
 725,0.00133732,0.00025068,-0.00035033,-0.00007707,-0.00020627,-0.00005
 457,0.00008341,0.00008939,-0.00008005,-0.00000990,-0.00000531,0.000257
 47,-0.00001921,0.00006340,-0.00007783,0.00004320,-0.00005154,-0.000073
 18,-0.00003136,-0.00002492,-0.00007603,0.00001741,0.00001519,0.0000276
 8,0.00006206,0.00007192,0.00000371,-0.00004051,-0.00006356,0.00082467,
 0.00008090,-0.00018015,-0.00002727,-0.00013566,-0.00013264,0.00030613,
 -0.00020802,-0.00036701,-0.00001282,-0.00005138,-0.00002991,-0.0000328
 1,0.00022543,-0.00014283,0.00016985,0.00006855,0.00013126,-0.00075896,
 -0.00057928,-0.00018227,-0.00000040,0.00006605,-0.00006729,0.00001119,
 -0.00051584,-0.00054605,0.00642145,-0.00072267,-0.00471336,0.12741730,
 0.00010551,-0.00102655,-0.00032893,0.00025222,0.00125227,-0.00018930,-
 0.00034764,-0.00036230,-0.00004656,0.01157696,0.00366797,-0.02062371,0
 .00239438,-0.05240715,-0.00061401,-0.00198334,0.00417642,-0.00031485,0
 .00046141,-0.00352916,-0.00137294,-0.00017425,0.00005436,-0.00007284,0
 .00018363,-0.00010079,-0.00005783,-0.00005898,0.00000443,-0.00002085,0
 .00005752,0.00005464,0.00003284,-0.00009988,0.00002993,-0.00001236,0.0
 0003144,-0.00002459,0.00002127,0.00002487,0.00000403,0.00000642,0.0000
 2752,-0.00001079,-0.00000973,0.00004495,-0.00002592,-0.00000422,0.0000
 4827,0.00002980,0.00002442,0.00274289,-0.00257660,-0.00127553,-0.00007
 440,0.00041563,0.00019959,0.00000685,-0.00103740,0.00118440,-0.0000208
 0,0.00016231,-0.00000853,0.00029722,0.00044513,0.00015265,0.00000970,0
 .00009427,0.00012042,-0.00071332,-0.00006299,-0.00009638,0.00016166,0.
 00008330,0.00010115,-0.00021914,-0.00260015,-0.00197290,-0.01248900,0.
 00209465,0.02256520,-0.00222120,0.05114633,-0.00015525,0.00044069,0.00
 003343,0.00143501,0.00110508,-0.00045192,0.00048488,-0.00024981,-0.000
 48179,0.00317479,-0.00014112,-0.00895256,0.11687928,-0.00211445,-0.261
 05950,-0.00682437,0.00008454,0.01557405,-0.00224439,-0.00114988,-0.000
 54619,-0.00009325,0.00056092,-0.00015523,0.00003819,-0.00009148,-0.000
 04233,-0.00008441,0.00000080,0.00002849,0.00007743,0.00005570,0.000035
 44,-0.00015133,0.00002956,-0.00003861,0.00004647,-0.00003032,0.0000317
 7,0.00004120,0.00001342,0.00001482,0.00004155,-0.00001392,-0.00000926,
 0.00001685,-0.00005250,-0.00002057,0.00008711,0.00001838,0.00003482,0.
 00112760,-0.00020147,-0.00076684,0.00010878,-0.00000604,0.00026658,0.0
 0016130,0.00090772,0.00029661,-0.00008510,0.00013843,0.00000904,-0.000
 19622,-0.00001997,0.00010374,-0.00013465,0.00030100,0.00020584,-0.0005
 8340,0.00033888,0.00055017,0.00004815,0.00004924,0.00011510,0.00037102
 ,-0.00198294,-0.00064901,0.00764167,-0.00062513,-0.01282448,-0.1212010
 3,0.00257899,0.26869612,-0.00000129,0.00001675,-0.00002592,-0.00003163
 ,0.00003512,0.00007073,-0.00000952,0.00001426,-0.00003338,-0.00060874,
 -0.00039184,-0.00022953,-0.00007325,-0.00004648,-0.00012070,0.00049850
 ,-0.00113277,-0.00071203,-0.00000564,0.00071826,0.00091784,0.01375170,
 0.00719020,0.00667715,-0.14831220,-0.10409086,-0.08773096,-0.01085703,
 -0.01928349,-0.01560720,-0.00449735,0.00224828,-0.00057284,0.00055518,
 -0.00112666,-0.00072949,-0.00010835,0.00020405,-0.00005582,-0.00053866
 ,-0.00023307,-0.00008732,-0.00003198,0.00011649,0.00017993,-0.00125267
 ,0.00056883,0.00029254,-0.00038895,0.00466860,0.00196874,-0.00139852,0
 .00103104,0.00038860,0.00002648,0.00001474,-0.00001656,0.00000716,-0.0
 0001611,-0.00000444,0.00001159,-0.00001862,0.00008296,-0.00004211,-0.0
 0001505,-0.00001974,0.00002416,0.00001306,-0.00000945,0.00000383,-0.00
 001041,0.00000039,-0.00000442,-0.00000411,0.00000701,0.00001241,0.0000
 2483,0.00003924,0.00001737,-0.00003104,0.00001237,0.00001740,-0.000033
 15,-0.00003087,0.15172499,-0.00003925,-0.00003262,0.00000369,-0.000010
 35,0.00009923,-0.00001579,-0.00000876,-0.00005253,0.00002922,0.0005047
 0,0.00028406,0.00052960,-0.00007066,0.00017064,0.00000060,-0.00027264,
 0.00064896,0.00039945,-0.00091710,-0.00201449,0.00019423,-0.01559020,-
 0.00964285,-0.01067390,-0.10211367,-0.17193170,-0.10561967,0.00418697,
 0.00792886,0.00313998,0.00208444,0.00329970,-0.00312390,0.00026790,0.0
 0037411,-0.00000601,-0.00001948,-0.00001923,0.00002406,0.00022854,0.00
 008500,0.00011754,-0.00006168,-0.00002220,0.00000520,0.00151032,-0.000
 12050,0.00043269,0.00271450,-0.00155950,-0.00554639,-0.00122092,0.0001
 5379,-0.00002349,-0.00002322,-0.00001397,0.00002411,0.00000950,-0.0000
 0066,-0.00000930,0.00000773,0.00003562,-0.00001132,0.00000706,-0.00001
 444,-0.00001027,-0.00003076,-0.00000728,0.00001036,0.00000826,0.000002
 95,-0.00000445,0.00001251,0.00000442,-0.00000088,0.00001039,-0.0000039
 3,-0.00004305,-0.00003193,0.00003128,0.00000781,-0.00000440,0.00004773
 ,0.00005332,0.10999620,0.17376391,0.00008040,-0.00003479,0.00000267,0.
 00005093,-0.00001403,0.00001347,0.00000690,0.00000114,-0.00000986,0.00
 023728,0.00043970,-0.00011594,-0.00010248,-0.00000928,0.00019354,-0.00
 008457,0.00026100,0.00019270,-0.00040170,0.00042275,-0.00222636,-0.008
 95594,-0.00689578,-0.00377084,-0.08642016,-0.10614542,-0.12681996,0.00
 044531,-0.00058126,0.00394710,-0.00032676,-0.00299693,0.00623588,0.000
 05818,-0.00009899,0.00052148,0.00002166,-0.00002120,-0.00005869,-0.000
 01890,0.00005770,-0.00011178,-0.00000716,0.00001186,-0.00004901,0.0010
 9034,0.00031211,-0.00007508,0.00060074,-0.00536966,0.00360981,-0.00093
 880,0.00028136,0.00010447,-0.00002474,0.00000105,0.00000460,-0.0000227
 1,0.00001618,0.00000323,-0.00000257,0.00000352,-0.00005968,0.00001333,
 -0.00000696,0.00000711,-0.00000520,-0.00000376,0.00000555,-0.00000135,
 0.00000348,0.00000086,-0.00001405,0.00000860,-0.00001003,-0.00005671,0
 .00003735,-0.00000915,0.00001611,0.00002845,-0.00000369,-0.00002133,0.
 00003349,0.00000244,0.09444203,0.11705886,0.12245242,-0.00001318,-0.00
 000841,0.00000418,-0.00000294,0.00003463,-0.00000511,-0.00000456,-0.00
 001554,0.00001304,0.00001028,0.00001358,-0.00000766,0.00006403,0.00005
 833,0.00007164,-0.00065438,0.00003371,-0.00006851,0.00056469,0.0012616
 3,0.00101774,-0.00522860,-0.00023689,-0.00223599,-0.00885716,0.0244220
 7,0.01451192,-0.12095781,0.10243793,0.05781074,0.01212674,-0.01232745,
 -0.00692025,0.00083295,-0.00153234,-0.00123390,0.00002063,0.00004198,0
 .00035619,0.00027632,0.00048316,0.00040776,-0.00156396,0.00018388,0.00
 041122,-0.00162543,-0.00204182,-0.00279288,-0.00052258,-0.00047317,0.0
 0013951,-0.00010579,-0.00020049,-0.00015289,-0.00000801,-0.00000456,0.
 00000612,0.00000619,-0.00000323,-0.00000741,0.00000451,0.00001516,-0.0
 0000479,-0.00000323,-0.00001119,-0.00000348,-0.00000927,-0.00000250,0.
 00000194,0.00000482,-0.00000234,-0.00000499,0.00000316,0.00000185,-0.0
 0000058,-0.00002741,0.00000431,-0.00000551,-0.00003511,0.00000064,-0.0
 0000787,-0.00004280,0.00000337,-0.00000515,0.00144006,-0.00083076,0.00
 029417,0.12376787,-0.00000371,0.00000255,0.00000121,0.00001067,-0.0000
 1476,0.00000029,0.00000103,0.00000843,-0.00000339,-0.00001690,0.000038
 86,-0.00004646,-0.00004177,-0.00000656,0.00000372,0.00004710,-0.000038
 10,0.00008068,-0.00025610,-0.00010355,0.00009607,0.00041154,0.00397549
 ,-0.00343201,0.00010961,0.00315450,-0.00179253,0.10160748,-0.21620272,
 -0.10498608,0.01025582,-0.01023468,-0.00901007,0.00210683,-0.00244519,
 -0.00048777,0.00012168,-0.00011920,0.00031144,-0.00024655,0.00039647,0
 .00023283,-0.00048220,0.00145162,0.00187816,-0.00305385,0.00121872,-0.
 00501901,-0.00039780,-0.00086166,0.00195479,0.00007564,0.00000770,0.00
 002238,0.00000195,0.00000168,-0.00000020,0.00000009,-0.00000197,0.0000
 0030,0.00000067,-0.00000410,0.00000497,-0.00000146,0.00000074,-0.00000
 103,0.00000409,0.00000035,-0.00000039,-0.00000056,-0.00000113,-0.00000
 057,0.00000111,-0.00000118,0.00000218,0.00000467,-0.00000234,0.0000035
 5,0.00001250,-0.00000348,0.00000318,-0.00000232,-0.00000249,-0.0000015
 9,-0.00027387,-0.00097203,0.00245781,-0.11063214,0.22131948,0.00001026
 ,0.00000205,-0.00000468,-0.00001504,-0.00000378,0.00000907,-0.00000150
 ,0.00000058,-0.00000514,-0.00002474,-0.00004340,0.00006833,-0.00000961
 ,0.00003050,-0.00001264,-0.00005758,0.00007730,-0.00009333,-0.00005540
 ,0.00034768,-0.00008150,-0.00196469,-0.00342354,0.00627128,-0.00214177
 ,0.00216585,0.00680148,0.05749786,-0.10552026,-0.10582026,0.00849760,-
 0.01244726,-0.00219712,0.00165489,-0.00019121,-0.00234516,-0.00080146,
 0.00106222,-0.00052422,0.00019140,0.00042155,0.00024913,0.00042579,0.0
 0052869,0.00025325,-0.00347945,-0.00465735,0.00393230,0.00018610,0.001
 85670,-0.00244341,0.00004831,-0.00001326,-0.00001507,0.00000163,0.0000
 0226,-0.00000286,-0.00000148,-0.00000020,-0.00000027,-0.00000356,-0.00
 000358,0.00000929,-0.00000117,-0.00000146,-0.00000068,0.00000230,0.000
 00111,-0.00000068,0.00000040,-0.00000117,0.00000052,-0.00000359,0.0000
 0103,-0.00000178,0.00001197,-0.00000280,-0.00000394,-0.00001421,0.0000
 0079,-0.00000272,0.00000706,-0.00000234,-0.00000220,0.00073884,0.00230
 656,-0.00281600,-0.06121038,0.11794658,0.09907170,-0.00000436,-0.00001
 638,-0.00000281,-0.00001417,0.00005194,-0.00000963,-0.00000357,-0.0000
 2815,0.00001437,0.00001285,-0.00005006,-0.00002682,0.00004889,-0.00003
 029,0.00000002,-0.00018925,0.00014148,0.00006345,0.00055115,-0.0008138
 1,-0.00055460,-0.00318051,0.00060148,-0.00160952,-0.00058655,-0.000069
 85,-0.00002320,-0.00189717,0.00288345,0.00073215,0.01102578,0.01019886
 ,0.00782039,0.00095247,0.00152360,0.00099382,0.00000282,-0.00038426,0.
 00000594,-0.00261014,0.00001286,0.00009449,0.00009190,-0.00040774,-0.0
 0029536,-0.10920546,-0.08731634,-0.06920224,-0.02744488,-0.02126307,-0
 .01802961,-0.00049192,0.00004616,-0.00001959,-0.00000682,-0.00000487,0
 .00000699,-0.00000145,0.00000670,-0.00000009,-0.00000035,0.00001082,-0
 .00001197,0.00000375,-0.00000272,0.00000286,-0.00001416,-0.00000161,0.
 00000278,0.00000124,0.00000419,0.00000027,0.00000301,0.00000157,-0.000
 00140,-0.00003497,0.00001185,-0.00000031,-0.00002371,0.00000926,-0.000
 01141,-0.00002604,0.00000473,0.00000814,0.00007149,-0.00030325,0.00004
 770,0.00053997,0.00063677,0.00051122,0.13243017,-0.00000423,-0.0000031
 9,0.00000407,-0.00000694,0.00002362,-0.00000762,-0.00000125,-0.0000103
 0,0.00000812,0.00001961,-0.00003886,0.00005414,0.00007022,-0.00001378,
 -0.00000737,-0.00011334,-0.00002260,-0.00005228,0.00009870,0.00039325,
 -0.00005978,0.00316975,0.00478636,-0.00342513,0.00047652,-0.00001226,0
 .00052237,0.00376205,-0.00042158,-0.00377593,-0.01100320,-0.00984973,-
 0.01311278,-0.00246244,-0.00324595,-0.00075162,0.00055790,-0.00005925,
 0.00037962,-0.00032260,0.00200975,0.00118316,0.00013865,0.00047892,0.0
 0044232,-0.08721381,-0.19331658,-0.11424734,-0.00088261,0.00773949,0.0
 0744861,0.00001498,-0.00003721,-0.00000749,-0.00000467,-0.00000489,0.0
 0000183,0.00000169,0.00000247,-0.00000323,-0.00000006,0.00000534,-0.00
 000645,0.00000040,-0.00000319,0.00000120,-0.00000686,-0.00000193,0.000
 00088,0.00000170,0.00000112,-0.00000138,0.00000128,0.00000108,-0.00000
 118,0.00000251,-0.00000423,-0.00000543,-0.00000834,0.00000196,-0.00000
 228,-0.00000571,0.00000368,0.00000391,-0.00015318,-0.00052233,0.000741
 67,-0.00067340,-0.00056146,-0.00043983,0.09454669,0.19268228,-0.000001
 80,-0.00000362,0.00000106,0.00001776,0.00000555,-0.00000332,0.00000184
 ,-0.00000377,0.00000300,0.00002228,0.00004678,-0.00008129,0.00004551,-
 0.00003016,0.00001693,-0.00010290,-0.00001800,0.00000201,0.00006385,-0
 .00022196,0.00037698,-0.00009444,-0.00385534,0.00818646,0.00036608,0.0
 0044994,-0.00032136,0.00129436,-0.00411253,0.00363081,-0.00626471,-0.0
 1025125,-0.00042192,-0.00159167,-0.00106551,-0.00251168,-0.00020206,0.
 00056377,-0.00018968,0.00011859,0.00197114,0.00080639,0.00027914,0.000
 15359,0.00017317,-0.06887110,-0.11346400,-0.12902705,-0.00425163,0.004
 17267,-0.00149434,-0.00006352,-0.00000274,-0.00002939,-0.00000281,-0.0
 0000258,0.00000239,0.00000127,0.00000046,-0.00000137,-0.00000031,0.000
 00542,-0.00000454,0.00000022,-0.00000268,0.00000028,-0.00000300,-0.000
 00156,0.00000141,0.00000108,0.00000063,-0.00000037,0.00000031,0.000001
 29,-0.00000180,-0.00003010,0.00000900,0.00000249,-0.00000545,0.0000051
 8,-0.00000318,-0.00000981,0.00000297,0.00000201,0.00016787,0.00075116,
 -0.00116126,-0.00037881,-0.00021906,-0.00029271,0.07949396,0.12511520,
 0.12233985\\0.00000187,-0.00000026,0.00000576,0.00000036,-0.00000475,-
 0.00000522,-0.00000735,0.00000344,0.00000169,-0.00001065,0.00000924,0.
 00000017,-0.00000449,-0.00000391,-0.00000307,0.00000141,-0.00000600,0.
 00000856,0.00000756,0.00001399,-0.00002041,-0.00000615,-0.00000126,0.0
 0000844,0.00000089,-0.00000440,0.00000338,0.00000117,-0.00000247,-0.00
 000437,-0.00000261,-0.00000067,0.00000397,-0.00000509,-0.00000099,0.00
 000492,0.00000168,-0.00000014,-0.00000074,0.00000300,0.00000025,-0.000
 00051,0.00000384,-0.00000031,-0.00000121,0.00000445,0.00000913,-0.0000
 0612,0.00000154,-0.00000562,-0.00000176,0.00000529,-0.00000498,0.00000
 702,-0.00000016,0.00000180,-0.00000120,0.00000054,0.00000003,-0.000001
 58,-0.00000161,0.00000087,-0.00000008,0.00000118,0.00000188,0.00000031
 ,0.00000119,0.00000036,-0.00000129,0.00000117,-0.00000102,-0.00000153,
 0.00000141,-0.00000036,0.00000063,0.00000046,-0.00000119,0.00000003,0.
 00000077,-0.00000045,0.00000076,-0.00000141,-0.00000154,-0.00000022,-0
 .00000021,0.00000046,-0.00000071,0.00000050,0.00000002,0.00000185,-0.0
 0000053,-0.00000116,0.00000252\\\@
 The archive entry for this job was punched.


 IN THE WOODS WE RETURN TO REASON AND FAITH.

                                 -- EMERSON
 Job cpu time:       0 days  0 hours 35 minutes  9.3 seconds.
 Elapsed time:       0 days  0 hours  0 minutes 54.2 seconds.
 File lengths (MBytes):  RWF=    299 Int=      0 D2E=      0 Chk=      8 Scr=      1
 Normal termination of Gaussian 16 at Sun Feb 25 23:20:04 2024.
