 Entering Gaussian System, Link 0=g16
 Initial command:
 /public/apps/g16-C01//g16/l1.exe "/public/home/ljq/tmp/Gau-77332.inp" -scrdir="/public/home/ljq/tmp/"
 Entering Link 1 = /public/apps/g16-C01//g16/l1.exe PID=     77372.
  
 Copyright (c) 1988-2019, Gaussian, Inc.  All Rights Reserved.
  
 This is part of the Gaussian(R) 16 program.  It is based on
 the Gaussian(R) 09 system (copyright 2009, Gaussian, Inc.),
 the Gaussian(R) 03 system (copyright 2003, Gaussian, Inc.),
 the Gaussian(R) 98 system (copyright 1998, Gaussian, Inc.),
 the Gaussian(R) 94 system (copyright 1995, Gaussian, Inc.),
 the Gaussian 92(TM) system (copyright 1992, Gaussian, Inc.),
 the Gaussian 90(TM) system (copyright 1990, Gaussian, Inc.),
 the Gaussian 88(TM) system (copyright 1988, Gaussian, Inc.),
 the Gaussian 86(TM) system (copyright 1986, Carnegie Mellon
 University), and the Gaussian 82(TM) system (copyright 1983,
 Carnegie Mellon University). Gaussian is a federally registered
 trademark of Gaussian, Inc.
  
 This software contains proprietary and confidential information,
 including trade secrets, belonging to Gaussian, Inc.
  
 This software is provided under written license and may be
 used, copied, transmitted, or stored only in accord with that
 written license.
  
 The following legend is applicable only to US Government
 contracts under FAR:
  
                    RESTRICTED RIGHTS LEGEND
  
 Use, reproduction and disclosure by the US Government is
 subject to restrictions as set forth in subparagraphs (a)
 and (c) of the Commercial Computer Software - Restricted
 Rights clause in FAR 52.227-19.
  
 Gaussian, Inc.
 340 Quinnipiac St., Bldg. 40, Wallingford CT 06492
  
  
 ---------------------------------------------------------------
 Warning -- This program may not be used in any manner that
 competes with the business of Gaussian, Inc. or will provide
 assistance to any competitor of Gaussian, Inc.  The licensee
 of this program is prohibited from giving any competitor of
 Gaussian, Inc. access to this program.  By using this program,
 the user acknowledges that Gaussian, Inc. is engaged in the
 business of creating and licensing software in the field of
 computational chemistry and represents and warrants to the
 licensee that it is not a competitor of Gaussian, Inc. and that
 it will not use this program in any manner prohibited above.
 ---------------------------------------------------------------
  

 Cite this work as:
 Gaussian 16, Revision C.01,
 M. J. Frisch, G. W. Trucks, H. B. Schlegel, G. E. Scuseria, 
 M. A. Robb, J. R. Cheeseman, G. Scalmani, V. Barone, 
 G. A. Petersson, H. Nakatsuji, X. Li, M. Caricato, A. V. Marenich, 
 J. Bloino, B. G. Janesko, R. Gomperts, B. Mennucci, H. P. Hratchian, 
 J. V. Ortiz, A. F. Izmaylov, J. L. Sonnenberg, D. Williams-Young, 
 F. Ding, F. Lipparini, F. Egidi, J. Goings, B. Peng, A. Petrone, 
 T. Henderson, D. Ranasinghe, V. G. Zakrzewski, J. Gao, N. Rega, 
 G. Zheng, W. Liang, M. Hada, M. Ehara, K. Toyota, R. Fukuda, 
 J. Hasegawa, M. Ishida, T. Nakajima, Y. Honda, O. Kitao, H. Nakai, 
 T. Vreven, K. Throssell, J. A. Montgomery, Jr., J. E. Peralta, 
 F. Ogliaro, M. J. Bearpark, J. J. Heyd, E. N. Brothers, K. N. Kudin, 
 V. N. Staroverov, T. A. Keith, R. Kobayashi, J. Normand, 
 K. Raghavachari, A. P. Rendell, J. C. Burant, S. S. Iyengar, 
 J. Tomasi, M. Cossi, J. M. Millam, M. Klene, C. Adamo, R. Cammi, 
 J. W. Ochterski, R. L. Martin, K. Morokuma, O. Farkas, 
 J. B. Foresman, and D. J. Fox, Gaussian, Inc., Wallingford CT, 2019.
 
 ******************************************
 Gaussian 16:  ES64L-G16RevC.01  3-Jul-2019
                26-Feb-2024 
 ******************************************
 %nproc=40
 Will use up to   40 processors via shared memory.
 %mem=56GB
 ------------------------------------------
 #p opt freq b3lyp/def2svpp em=gd3bj nosymm
 ------------------------------------------
 1/18=20,19=15,26=3,38=1/1,3;
 2/9=110,12=2,15=1,17=6,18=5,40=1/2;
 3/5=43,7=202,11=2,25=1,30=1,71=1,74=-5,124=41/1,2,3;
 4//1;
 5/5=2,38=5/2;
 6/7=2,8=2,9=2,10=2,28=1/1;
 7/30=1/1,2,3,16;
 1/18=20,19=15,26=3/3(2);
 2/9=110,15=1/2;
 99//99;
 2/9=110,15=1/2;
 3/5=43,7=202,11=2,25=1,30=1,71=1,74=-5,124=41/1,2,3;
 4/5=5,16=3,69=1/1;
 5/5=2,38=5/2;
 7/30=1/1,2,3,16;
 1/18=20,19=15,26=3/3(-5);
 2/9=110,15=1/2;
 6/7=2,8=2,9=2,10=2,19=2,28=1/1;
 99/9=1/99;
 Leave Link    1 at Mon Feb 26 00:51:34 2024, MaxMem=  7516192768 cpu:               1.4 elap:               0.1
 (Enter /public/apps/g16-C01//g16/l101.exe)
 ----------------------
 $$$$Singlemol####0????
 ----------------------
 Symbolic Z-matrix:
 Charge =  0 Multiplicity = 1
 C                     5.86963   2.22071   0.37753 
 C                     4.42584   1.78744   0.61644 
 C                     3.51555   3.00587   0.74016 
 C                     3.93516   0.88646  -0.52735 
 C                     4.64369  -0.49609  -0.59047 
 O                     3.59007  -1.44162  -0.46607 
 C                     2.44199  -0.72349  -0.32735 
 C                     1.19279  -1.45627  -0.16304 
 C                     1.18937  -2.85078  -0.16638 
 C                    -0.00001  -3.53946  -0.01047 
 C                    -1.189    -2.85119   0.14978 
 C                    -1.19182  -1.45664   0.15482 
 C                    -2.44076  -0.72441   0.32388 
 N                    -2.54228   0.53783   0.35862 
 C                    -3.93385   0.88472   0.53147 
 C                    -4.42553   1.79119  -0.60745 
 C                    -5.87249   2.21532  -0.37134 
 C                    -3.5211    3.01523  -0.71874 
 C                    -4.64222  -0.49807   0.5892 
 O                    -3.58829  -1.44307   0.46287 
 C                     0.00061  -0.75943  -0.00219 
 N                     2.54345   0.53883  -0.35826 
 H                     6.5353    1.36452   0.29581 
 H                     5.94149   2.79884  -0.54145 
 H                     6.21227   2.84297   1.20091 
 H                     4.36944   1.21116   1.54726 
 H                     3.57311   3.61118  -0.1615 
 H                     3.81456   3.61644   1.58888 
 H                     2.48646   2.68655   0.87426 
 H                     4.03788   1.43652  -1.47045 
 H                     5.34103  -0.64578   0.23929 
 H                     5.16259  -0.66944  -1.5364 
 H                     2.12149  -3.37982  -0.29197 
 H                    -0.00023  -4.61948  -0.01382 
 H                    -2.12134  -3.38055   0.27241 
 H                    -4.03507   1.43029   1.47736 
 H                    -4.36238   1.22183  -1.54209 
 H                    -6.21314   2.84559  -1.18943 
 H                    -6.53517   1.35562  -0.30327 
 H                    -5.9519    2.78253   0.5538 
 H                    -3.59059   3.61733   0.18428 
 H                    -2.48901   2.70215  -0.84444 
 H                    -3.8157    3.62692  -1.56818 
 H                    -5.33816  -0.64505  -0.24226 
 H                    -5.16255  -0.67472   1.53365 
 H                     0.00083   0.31772   0.00077 
 
 ITRead=  0  0  0  0  0  0  0  0  0  0  0  0  0  0  0  0  0  0  0  0
 ITRead=  0  0  0  0  0  0  0  0  0  0  0  0  0  0  0  0  0  0  0  0
 ITRead=  0  0  0  0  0  0
 MicOpt= -1 -1 -1 -1 -1 -1 -1 -1 -1 -1 -1 -1 -1 -1 -1 -1 -1 -1 -1 -1
 MicOpt= -1 -1 -1 -1 -1 -1 -1 -1 -1 -1 -1 -1 -1 -1 -1 -1 -1 -1 -1 -1
 MicOpt= -1 -1 -1 -1 -1 -1
 NAtoms=     46 NQM=       46 NQMF=       0 NMMI=      0 NMMIF=      0
                NMic=       0 NMicF=      0.
                    Isotopes and Nuclear Properties:
 (Nuclear quadrupole moments (NQMom) in fm**2, nuclear magnetic moments (NMagM)
  in nuclear magnetons)

  Atom         1           2           3           4           5           6           7           8           9          10
 IAtWgt=          12          12          12          12          12          16          12          12          12          12
 AtmWgt=  12.0000000  12.0000000  12.0000000  12.0000000  12.0000000  15.9949146  12.0000000  12.0000000  12.0000000  12.0000000
 NucSpn=           0           0           0           0           0           0           0           0           0           0
 AtZEff=  -0.0000000  -0.0000000  -0.0000000  -0.0000000  -0.0000000  -0.0000000  -0.0000000  -0.0000000  -0.0000000  -0.0000000
 NQMom=    0.0000000   0.0000000   0.0000000   0.0000000   0.0000000   0.0000000   0.0000000   0.0000000   0.0000000   0.0000000
 NMagM=    0.0000000   0.0000000   0.0000000   0.0000000   0.0000000   0.0000000   0.0000000   0.0000000   0.0000000   0.0000000
 AtZNuc=   6.0000000   6.0000000   6.0000000   6.0000000   6.0000000   8.0000000   6.0000000   6.0000000   6.0000000   6.0000000

  Atom        11          12          13          14          15          16          17          18          19          20
 IAtWgt=          12          12          12          14          12          12          12          12          12          16
 AtmWgt=  12.0000000  12.0000000  12.0000000  14.0030740  12.0000000  12.0000000  12.0000000  12.0000000  12.0000000  15.9949146
 NucSpn=           0           0           0           2           0           0           0           0           0           0
 AtZEff=  -0.0000000  -0.0000000  -0.0000000  -0.0000000  -0.0000000  -0.0000000  -0.0000000  -0.0000000  -0.0000000  -0.0000000
 NQMom=    0.0000000   0.0000000   0.0000000   2.0440000   0.0000000   0.0000000   0.0000000   0.0000000   0.0000000   0.0000000
 NMagM=    0.0000000   0.0000000   0.0000000   0.4037610   0.0000000   0.0000000   0.0000000   0.0000000   0.0000000   0.0000000
 AtZNuc=   6.0000000   6.0000000   6.0000000   7.0000000   6.0000000   6.0000000   6.0000000   6.0000000   6.0000000   8.0000000

  Atom        21          22          23          24          25          26          27          28          29          30
 IAtWgt=          12          14           1           1           1           1           1           1           1           1
 AtmWgt=  12.0000000  14.0030740   1.0078250   1.0078250   1.0078250   1.0078250   1.0078250   1.0078250   1.0078250   1.0078250
 NucSpn=           0           2           1           1           1           1           1           1           1           1
 AtZEff=  -0.0000000  -0.0000000  -0.0000000  -0.0000000  -0.0000000  -0.0000000  -0.0000000  -0.0000000  -0.0000000  -0.0000000
 NQMom=    0.0000000   2.0440000   0.0000000   0.0000000   0.0000000   0.0000000   0.0000000   0.0000000   0.0000000   0.0000000
 NMagM=    0.0000000   0.4037610   2.7928460   2.7928460   2.7928460   2.7928460   2.7928460   2.7928460   2.7928460   2.7928460
 AtZNuc=   6.0000000   7.0000000   1.0000000   1.0000000   1.0000000   1.0000000   1.0000000   1.0000000   1.0000000   1.0000000

  Atom        31          32          33          34          35          36          37          38          39          40
 IAtWgt=           1           1           1           1           1           1           1           1           1           1
 AtmWgt=   1.0078250   1.0078250   1.0078250   1.0078250   1.0078250   1.0078250   1.0078250   1.0078250   1.0078250   1.0078250
 NucSpn=           1           1           1           1           1           1           1           1           1           1
 AtZEff=  -0.0000000  -0.0000000  -0.0000000  -0.0000000  -0.0000000  -0.0000000  -0.0000000  -0.0000000  -0.0000000  -0.0000000
 NQMom=    0.0000000   0.0000000   0.0000000   0.0000000   0.0000000   0.0000000   0.0000000   0.0000000   0.0000000   0.0000000
 NMagM=    2.7928460   2.7928460   2.7928460   2.7928460   2.7928460   2.7928460   2.7928460   2.7928460   2.7928460   2.7928460
 AtZNuc=   1.0000000   1.0000000   1.0000000   1.0000000   1.0000000   1.0000000   1.0000000   1.0000000   1.0000000   1.0000000

  Atom        41          42          43          44          45          46
 IAtWgt=           1           1           1           1           1           1
 AtmWgt=   1.0078250   1.0078250   1.0078250   1.0078250   1.0078250   1.0078250
 NucSpn=           1           1           1           1           1           1
 AtZEff=  -0.0000000  -0.0000000  -0.0000000  -0.0000000  -0.0000000  -0.0000000
 NQMom=    0.0000000   0.0000000   0.0000000   0.0000000   0.0000000   0.0000000
 NMagM=    2.7928460   2.7928460   2.7928460   2.7928460   2.7928460   2.7928460
 AtZNuc=   1.0000000   1.0000000   1.0000000   1.0000000   1.0000000   1.0000000
 Leave Link  101 at Mon Feb 26 00:51:34 2024, MaxMem=  7516192768 cpu:               4.7 elap:               0.2
 (Enter /public/apps/g16-C01//g16/l103.exe)

 GradGradGradGradGradGradGradGradGradGradGradGradGradGradGradGradGradGrad
 Berny optimization.
 Initialization pass.
                           ----------------------------
                           !    Initial Parameters    !
                           ! (Angstroms and Degrees)  !
 --------------------------                            --------------------------
 ! Name  Definition              Value          Derivative Info.                !
 --------------------------------------------------------------------------------
 ! R1    R(1,2)                  1.5262         estimate D2E/DX2                !
 ! R2    R(1,23)                 1.0876         estimate D2E/DX2                !
 ! R3    R(1,24)                 1.0881         estimate D2E/DX2                !
 ! R4    R(1,25)                 1.0875         estimate D2E/DX2                !
 ! R5    R(2,3)                  1.5259         estimate D2E/DX2                !
 ! R6    R(2,4)                  1.5365         estimate D2E/DX2                !
 ! R7    R(2,26)                 1.0962         estimate D2E/DX2                !
 ! R8    R(3,27)                 1.0875         estimate D2E/DX2                !
 ! R9    R(3,28)                 1.0874         estimate D2E/DX2                !
 ! R10   R(3,29)                 1.0858         estimate D2E/DX2                !
 ! R11   R(4,5)                  1.5548         estimate D2E/DX2                !
 ! R12   R(4,22)                 1.4444         estimate D2E/DX2                !
 ! R13   R(4,30)                 1.0966         estimate D2E/DX2                !
 ! R14   R(5,6)                  1.4211         estimate D2E/DX2                !
 ! R15   R(5,31)                 1.0942         estimate D2E/DX2                !
 ! R16   R(5,32)                 1.0927         estimate D2E/DX2                !
 ! R17   R(6,7)                  1.3613         estimate D2E/DX2                !
 ! R18   R(7,8)                  1.4575         estimate D2E/DX2                !
 ! R19   R(7,22)                 1.2668         estimate D2E/DX2                !
 ! R20   R(8,9)                  1.3945         estimate D2E/DX2                !
 ! R21   R(8,21)                 1.3902         estimate D2E/DX2                !
 ! R22   R(9,10)                 1.3832         estimate D2E/DX2                !
 ! R23   R(9,33)                 1.0791         estimate D2E/DX2                !
 ! R24   R(10,11)                1.3831         estimate D2E/DX2                !
 ! R25   R(10,34)                1.08           estimate D2E/DX2                !
 ! R26   R(11,12)                1.3946         estimate D2E/DX2                !
 ! R27   R(11,35)                1.0791         estimate D2E/DX2                !
 ! R28   R(12,13)                1.4576         estimate D2E/DX2                !
 ! R29   R(12,21)                1.3902         estimate D2E/DX2                !
 ! R30   R(13,14)                1.2668         estimate D2E/DX2                !
 ! R31   R(13,20)                1.3611         estimate D2E/DX2                !
 ! R32   R(14,15)                1.4445         estimate D2E/DX2                !
 ! R33   R(15,16)                1.5364         estimate D2E/DX2                !
 ! R34   R(15,19)                1.5547         estimate D2E/DX2                !
 ! R35   R(15,36)                1.0966         estimate D2E/DX2                !
 ! R36   R(16,17)                1.5262         estimate D2E/DX2                !
 ! R37   R(16,18)                1.526          estimate D2E/DX2                !
 ! R38   R(16,37)                1.0962         estimate D2E/DX2                !
 ! R39   R(17,38)                1.0875         estimate D2E/DX2                !
 ! R40   R(17,39)                1.0876         estimate D2E/DX2                !
 ! R41   R(17,40)                1.0881         estimate D2E/DX2                !
 ! R42   R(18,41)                1.0876         estimate D2E/DX2                !
 ! R43   R(18,42)                1.0858         estimate D2E/DX2                !
 ! R44   R(18,43)                1.0874         estimate D2E/DX2                !
 ! R45   R(19,20)                1.4212         estimate D2E/DX2                !
 ! R46   R(19,44)                1.0942         estimate D2E/DX2                !
 ! R47   R(19,45)                1.0927         estimate D2E/DX2                !
 ! R48   R(21,46)                1.0772         estimate D2E/DX2                !
 ! A1    A(2,1,23)             111.5487         estimate D2E/DX2                !
 ! A2    A(2,1,24)             110.2138         estimate D2E/DX2                !
 ! A3    A(2,1,25)             109.998          estimate D2E/DX2                !
 ! A4    A(23,1,24)            108.3242         estimate D2E/DX2                !
 ! A5    A(23,1,25)            108.3311         estimate D2E/DX2                !
 ! A6    A(24,1,25)            108.3389         estimate D2E/DX2                !
 ! A7    A(1,2,3)              110.5086         estimate D2E/DX2                !
 ! A8    A(1,2,4)              110.612          estimate D2E/DX2                !
 ! A9    A(1,2,26)             109.3187         estimate D2E/DX2                !
 ! A10   A(3,2,4)              109.7593         estimate D2E/DX2                !
 ! A11   A(3,2,26)             108.6766         estimate D2E/DX2                !
 ! A12   A(4,2,26)             107.9025         estimate D2E/DX2                !
 ! A13   A(2,3,27)             110.2203         estimate D2E/DX2                !
 ! A14   A(2,3,28)             110.339          estimate D2E/DX2                !
 ! A15   A(2,3,29)             109.9122         estimate D2E/DX2                !
 ! A16   A(27,3,28)            108.6638         estimate D2E/DX2                !
 ! A17   A(27,3,29)            108.4362         estimate D2E/DX2                !
 ! A18   A(28,3,29)            109.2284         estimate D2E/DX2                !
 ! A19   A(2,4,5)              113.9612         estimate D2E/DX2                !
 ! A20   A(2,4,22)             111.2039         estimate D2E/DX2                !
 ! A21   A(2,4,30)             108.431          estimate D2E/DX2                !
 ! A22   A(5,4,22)             103.2863         estimate D2E/DX2                !
 ! A23   A(5,4,30)             111.6186         estimate D2E/DX2                !
 ! A24   A(22,4,30)            108.1589         estimate D2E/DX2                !
 ! A25   A(4,5,6)              104.4897         estimate D2E/DX2                !
 ! A26   A(4,5,31)             112.4137         estimate D2E/DX2                !
 ! A27   A(4,5,32)             113.1159         estimate D2E/DX2                !
 ! A28   A(6,5,31)             108.3674         estimate D2E/DX2                !
 ! A29   A(6,5,32)             108.8016         estimate D2E/DX2                !
 ! A30   A(31,5,32)            109.3978         estimate D2E/DX2                !
 ! A31   A(5,6,7)              106.4525         estimate D2E/DX2                !
 ! A32   A(6,7,8)              117.9761         estimate D2E/DX2                !
 ! A33   A(6,7,22)             117.1068         estimate D2E/DX2                !
 ! A34   A(8,7,22)             124.9161         estimate D2E/DX2                !
 ! A35   A(7,8,9)              120.3031         estimate D2E/DX2                !
 ! A36   A(7,8,21)             119.7363         estimate D2E/DX2                !
 ! A37   A(9,8,21)             119.9606         estimate D2E/DX2                !
 ! A38   A(8,9,10)             119.9823         estimate D2E/DX2                !
 ! A39   A(8,9,33)             119.2357         estimate D2E/DX2                !
 ! A40   A(10,9,33)            120.782          estimate D2E/DX2                !
 ! A41   A(9,10,11)            120.2968         estimate D2E/DX2                !
 ! A42   A(9,10,34)            119.8492         estimate D2E/DX2                !
 ! A43   A(11,10,34)           119.854          estimate D2E/DX2                !
 ! A44   A(10,11,12)           119.9846         estimate D2E/DX2                !
 ! A45   A(10,11,35)           120.7814         estimate D2E/DX2                !
 ! A46   A(12,11,35)           119.234          estimate D2E/DX2                !
 ! A47   A(11,12,13)           120.2988         estimate D2E/DX2                !
 ! A48   A(11,12,21)           119.9584         estimate D2E/DX2                !
 ! A49   A(13,12,21)           119.7428         estimate D2E/DX2                !
 ! A50   A(12,13,14)           124.9178         estimate D2E/DX2                !
 ! A51   A(12,13,20)           117.969          estimate D2E/DX2                !
 ! A52   A(14,13,20)           117.1121         estimate D2E/DX2                !
 ! A53   A(13,14,15)           108.6482         estimate D2E/DX2                !
 ! A54   A(14,15,16)           111.1778         estimate D2E/DX2                !
 ! A55   A(14,15,19)           103.2844         estimate D2E/DX2                !
 ! A56   A(14,15,36)           108.1554         estimate D2E/DX2                !
 ! A57   A(16,15,19)           113.9821         estimate D2E/DX2                !
 ! A58   A(16,15,36)           108.4411         estimate D2E/DX2                !
 ! A59   A(19,15,36)           111.6165         estimate D2E/DX2                !
 ! A60   A(15,16,17)           110.6512         estimate D2E/DX2                !
 ! A61   A(15,16,18)           109.7329         estimate D2E/DX2                !
 ! A62   A(15,16,37)           107.8879         estimate D2E/DX2                !
 ! A63   A(17,16,18)           110.5042         estimate D2E/DX2                !
 ! A64   A(17,16,37)           109.3205         estimate D2E/DX2                !
 ! A65   A(18,16,37)           108.6803         estimate D2E/DX2                !
 ! A66   A(16,17,38)           109.9781         estimate D2E/DX2                !
 ! A67   A(16,17,39)           111.5725         estimate D2E/DX2                !
 ! A68   A(16,17,40)           110.2182         estimate D2E/DX2                !
 ! A69   A(38,17,39)           108.3216         estimate D2E/DX2                !
 ! A70   A(38,17,40)           108.3401         estimate D2E/DX2                !
 ! A71   A(39,17,40)           108.3237         estimate D2E/DX2                !
 ! A72   A(16,18,41)           110.2217         estimate D2E/DX2                !
 ! A73   A(16,18,42)           109.9078         estimate D2E/DX2                !
 ! A74   A(16,18,43)           110.3407         estimate D2E/DX2                !
 ! A75   A(41,18,42)           108.4504         estimate D2E/DX2                !
 ! A76   A(41,18,43)           108.6556         estimate D2E/DX2                !
 ! A77   A(42,18,43)           109.2239         estimate D2E/DX2                !
 ! A78   A(15,19,20)           104.4901         estimate D2E/DX2                !
 ! A79   A(15,19,44)           112.3981         estimate D2E/DX2                !
 ! A80   A(15,19,45)           113.1318         estimate D2E/DX2                !
 ! A81   A(20,19,44)           108.3488         estimate D2E/DX2                !
 ! A82   A(20,19,45)           108.8131         estimate D2E/DX2                !
 ! A83   A(44,19,45)           109.4033         estimate D2E/DX2                !
 ! A84   A(13,20,19)           106.4521         estimate D2E/DX2                !
 ! A85   A(8,21,12)            119.8172         estimate D2E/DX2                !
 ! A86   A(8,21,46)            120.0909         estimate D2E/DX2                !
 ! A87   A(12,21,46)           120.0919         estimate D2E/DX2                !
 ! A88   A(4,22,7)             108.6548         estimate D2E/DX2                !
 ! D1    D(23,1,2,3)           179.4753         estimate D2E/DX2                !
 ! D2    D(23,1,2,4)           -58.7675         estimate D2E/DX2                !
 ! D3    D(23,1,2,26)           59.9093         estimate D2E/DX2                !
 ! D4    D(24,1,2,3)           -60.1533         estimate D2E/DX2                !
 ! D5    D(24,1,2,4)            61.6039         estimate D2E/DX2                !
 ! D6    D(24,1,2,26)         -179.7193         estimate D2E/DX2                !
 ! D7    D(25,1,2,3)            59.24           estimate D2E/DX2                !
 ! D8    D(25,1,2,4)          -179.0028         estimate D2E/DX2                !
 ! D9    D(25,1,2,26)          -60.326          estimate D2E/DX2                !
 ! D10   D(1,2,3,27)            58.5203         estimate D2E/DX2                !
 ! D11   D(1,2,3,28)           -61.4958         estimate D2E/DX2                !
 ! D12   D(1,2,3,29)           177.984          estimate D2E/DX2                !
 ! D13   D(4,2,3,27)           -63.7384         estimate D2E/DX2                !
 ! D14   D(4,2,3,28)           176.2454         estimate D2E/DX2                !
 ! D15   D(4,2,3,29)            55.7252         estimate D2E/DX2                !
 ! D16   D(26,2,3,27)          178.4729         estimate D2E/DX2                !
 ! D17   D(26,2,3,28)           58.4568         estimate D2E/DX2                !
 ! D18   D(26,2,3,29)          -62.0634         estimate D2E/DX2                !
 ! D19   D(1,2,4,5)             67.4514         estimate D2E/DX2                !
 ! D20   D(1,2,4,22)          -176.3065         estimate D2E/DX2                !
 ! D21   D(1,2,4,30)           -57.5135         estimate D2E/DX2                !
 ! D22   D(3,2,4,5)           -170.3513         estimate D2E/DX2                !
 ! D23   D(3,2,4,22)           -54.1092         estimate D2E/DX2                !
 ! D24   D(3,2,4,30)            64.6837         estimate D2E/DX2                !
 ! D25   D(26,2,4,5)           -52.0821         estimate D2E/DX2                !
 ! D26   D(26,2,4,22)           64.16           estimate D2E/DX2                !
 ! D27   D(26,2,4,30)         -177.047          estimate D2E/DX2                !
 ! D28   D(2,4,5,6)            121.3367         estimate D2E/DX2                !
 ! D29   D(2,4,5,31)             4.037          estimate D2E/DX2                !
 ! D30   D(2,4,5,32)          -120.4827         estimate D2E/DX2                !
 ! D31   D(22,4,5,6)             0.5645         estimate D2E/DX2                !
 ! D32   D(22,4,5,31)         -116.7352         estimate D2E/DX2                !
 ! D33   D(22,4,5,32)          118.7451         estimate D2E/DX2                !
 ! D34   D(30,4,5,6)          -115.4142         estimate D2E/DX2                !
 ! D35   D(30,4,5,31)          127.2861         estimate D2E/DX2                !
 ! D36   D(30,4,5,32)            2.7665         estimate D2E/DX2                !
 ! D37   D(2,4,22,7)          -122.6114         estimate D2E/DX2                !
 ! D38   D(5,4,22,7)             0.0177         estimate D2E/DX2                !
 ! D39   D(30,4,22,7)          118.4325         estimate D2E/DX2                !
 ! D40   D(4,5,6,7)             -0.9139         estimate D2E/DX2                !
 ! D41   D(31,5,6,7)           119.1365         estimate D2E/DX2                !
 ! D42   D(32,5,6,7)          -122.0003         estimate D2E/DX2                !
 ! D43   D(5,6,7,8)           -179.2878         estimate D2E/DX2                !
 ! D44   D(5,6,7,22)             1.0619         estimate D2E/DX2                !
 ! D45   D(6,7,8,9)             -0.7598         estimate D2E/DX2                !
 ! D46   D(6,7,8,21)           179.229          estimate D2E/DX2                !
 ! D47   D(22,7,8,9)           178.8606         estimate D2E/DX2                !
 ! D48   D(22,7,8,21)           -1.1506         estimate D2E/DX2                !
 ! D49   D(6,7,22,4)            -0.6728         estimate D2E/DX2                !
 ! D50   D(8,7,22,4)           179.7039         estimate D2E/DX2                !
 ! D51   D(7,8,9,10)          -179.9735         estimate D2E/DX2                !
 ! D52   D(7,8,9,33)            -0.0038         estimate D2E/DX2                !
 ! D53   D(21,8,9,10)            0.0377         estimate D2E/DX2                !
 ! D54   D(21,8,9,33)         -179.9926         estimate D2E/DX2                !
 ! D55   D(7,8,21,12)         -179.9927         estimate D2E/DX2                !
 ! D56   D(7,8,21,46)            0.0077         estimate D2E/DX2                !
 ! D57   D(9,8,21,12)           -0.0038         estimate D2E/DX2                !
 ! D58   D(9,8,21,46)          179.9965         estimate D2E/DX2                !
 ! D59   D(8,9,10,11)           -0.0309         estimate D2E/DX2                !
 ! D60   D(8,9,10,34)          179.9733         estimate D2E/DX2                !
 ! D61   D(33,9,10,11)         179.9999         estimate D2E/DX2                !
 ! D62   D(33,9,10,34)           0.0041         estimate D2E/DX2                !
 ! D63   D(9,10,11,12)          -0.0097         estimate D2E/DX2                !
 ! D64   D(9,10,11,35)        -179.9772         estimate D2E/DX2                !
 ! D65   D(34,10,11,12)        179.9861         estimate D2E/DX2                !
 ! D66   D(34,10,11,35)          0.0186         estimate D2E/DX2                !
 ! D67   D(10,11,12,13)       -179.9684         estimate D2E/DX2                !
 ! D68   D(10,11,12,21)          0.0436         estimate D2E/DX2                !
 ! D69   D(35,11,12,13)         -0.0004         estimate D2E/DX2                !
 ! D70   D(35,11,12,21)       -179.9884         estimate D2E/DX2                !
 ! D71   D(11,12,13,14)        179.0714         estimate D2E/DX2                !
 ! D72   D(11,12,13,20)         -0.5531         estimate D2E/DX2                !
 ! D73   D(21,12,13,14)         -0.9406         estimate D2E/DX2                !
 ! D74   D(21,12,13,20)        179.4349         estimate D2E/DX2                !
 ! D75   D(11,12,21,8)          -0.0367         estimate D2E/DX2                !
 ! D76   D(11,12,21,46)        179.963          estimate D2E/DX2                !
 ! D77   D(13,12,21,8)         179.9753         estimate D2E/DX2                !
 ! D78   D(13,12,21,46)         -0.0251         estimate D2E/DX2                !
 ! D79   D(12,13,14,15)        179.6955         estimate D2E/DX2                !
 ! D80   D(20,13,14,15)         -0.6772         estimate D2E/DX2                !
 ! D81   D(12,13,20,19)       -179.1589         estimate D2E/DX2                !
 ! D82   D(14,13,20,19)          1.1871         estimate D2E/DX2                !
 ! D83   D(13,14,15,16)       -122.7279         estimate D2E/DX2                !
 ! D84   D(13,14,15,19)         -0.0887         estimate D2E/DX2                !
 ! D85   D(13,14,15,36)        118.3212         estimate D2E/DX2                !
 ! D86   D(14,15,16,17)       -176.7522         estimate D2E/DX2                !
 ! D87   D(14,15,16,18)        -54.5522         estimate D2E/DX2                !
 ! D88   D(14,15,16,37)         63.6982         estimate D2E/DX2                !
 ! D89   D(19,15,16,17)         67.0124         estimate D2E/DX2                !
 ! D90   D(19,15,16,18)       -170.7877         estimate D2E/DX2                !
 ! D91   D(19,15,16,37)        -52.5373         estimate D2E/DX2                !
 ! D92   D(36,15,16,17)        -57.9726         estimate D2E/DX2                !
 ! D93   D(36,15,16,18)         64.2273         estimate D2E/DX2                !
 ! D94   D(36,15,16,37)       -177.5223         estimate D2E/DX2                !
 ! D95   D(14,15,19,20)          0.7365         estimate D2E/DX2                !
 ! D96   D(14,15,19,44)       -116.5334         estimate D2E/DX2                !
 ! D97   D(14,15,19,45)        118.9394         estimate D2E/DX2                !
 ! D98   D(16,15,19,20)        121.4869         estimate D2E/DX2                !
 ! D99   D(16,15,19,44)          4.217          estimate D2E/DX2                !
 ! D100  D(16,15,19,45)       -120.3101         estimate D2E/DX2                !
 ! D101  D(36,15,19,20)       -115.2361         estimate D2E/DX2                !
 ! D102  D(36,15,19,44)        127.494          estimate D2E/DX2                !
 ! D103  D(36,15,19,45)          2.9668         estimate D2E/DX2                !
 ! D104  D(15,16,17,38)       -179.2832         estimate D2E/DX2                !
 ! D105  D(15,16,17,39)        -59.0576         estimate D2E/DX2                !
 ! D106  D(15,16,17,40)         61.3319         estimate D2E/DX2                !
 ! D107  D(18,16,17,38)         58.9696         estimate D2E/DX2                !
 ! D108  D(18,16,17,39)        179.1951         estimate D2E/DX2                !
 ! D109  D(18,16,17,40)        -60.4154         estimate D2E/DX2                !
 ! D110  D(37,16,17,38)        -60.5994         estimate D2E/DX2                !
 ! D111  D(37,16,17,39)         59.6261         estimate D2E/DX2                !
 ! D112  D(37,16,17,40)       -179.9844         estimate D2E/DX2                !
 ! D113  D(15,16,18,41)        -64.1492         estimate D2E/DX2                !
 ! D114  D(15,16,18,42)         55.3301         estimate D2E/DX2                !
 ! D115  D(15,16,18,43)        175.843          estimate D2E/DX2                !
 ! D116  D(17,16,18,41)         58.1382         estimate D2E/DX2                !
 ! D117  D(17,16,18,42)        177.6175         estimate D2E/DX2                !
 ! D118  D(17,16,18,43)        -61.8696         estimate D2E/DX2                !
 ! D119  D(37,16,18,41)        178.0928         estimate D2E/DX2                !
 ! D120  D(37,16,18,42)        -62.428          estimate D2E/DX2                !
 ! D121  D(37,16,18,43)         58.0849         estimate D2E/DX2                !
 ! D122  D(15,19,20,13)         -1.0897         estimate D2E/DX2                !
 ! D123  D(44,19,20,13)        118.9336         estimate D2E/DX2                !
 ! D124  D(45,19,20,13)       -122.2008         estimate D2E/DX2                !
 --------------------------------------------------------------------------------
 Trust Radius=3.00D-01 FncErr=1.00D-07 GrdErr=1.00D-06 EigMax=2.50D+02 EigMin=1.00D-04
 Number of steps in this run=    270 maximum allowed number of steps=    276.
 GradGradGradGradGradGradGradGradGradGradGradGradGradGradGradGradGradGrad

 Leave Link  103 at Mon Feb 26 00:51:35 2024, MaxMem=  7516192768 cpu:               1.4 elap:               0.1
 (Enter /public/apps/g16-C01//g16/l202.exe)
                          Input orientation:                          
 ---------------------------------------------------------------------
 Center     Atomic      Atomic             Coordinates (Angstroms)
 Number     Number       Type             X           Y           Z
 ---------------------------------------------------------------------
      1          6           0        5.869627    2.220705    0.377531
      2          6           0        4.425836    1.787444    0.616441
      3          6           0        3.515546    3.005870    0.740161
      4          6           0        3.935161    0.886462   -0.527348
      5          6           0        4.643693   -0.496092   -0.590471
      6          8           0        3.590067   -1.441616   -0.466066
      7          6           0        2.441988   -0.723492   -0.327351
      8          6           0        1.192791   -1.456265   -0.163039
      9          6           0        1.189367   -2.850778   -0.166377
     10          6           0       -0.000008   -3.539458   -0.010468
     11          6           0       -1.188995   -2.851191    0.149784
     12          6           0       -1.191822   -1.456641    0.154817
     13          6           0       -2.440756   -0.724406    0.323880
     14          7           0       -2.542277    0.537834    0.358622
     15          6           0       -3.933846    0.884717    0.531472
     16          6           0       -4.425531    1.791187   -0.607449
     17          6           0       -5.872492    2.215321   -0.371335
     18          6           0       -3.521098    3.015233   -0.718735
     19          6           0       -4.642223   -0.498070    0.589201
     20          8           0       -3.588294   -1.443070    0.462865
     21          6           0        0.000605   -0.759428   -0.002190
     22          7           0        2.543453    0.538826   -0.358263
     23          1           0        6.535301    1.364519    0.295813
     24          1           0        5.941493    2.798835   -0.541452
     25          1           0        6.212270    2.842971    1.200908
     26          1           0        4.369439    1.211155    1.547258
     27          1           0        3.573111    3.611182   -0.161498
     28          1           0        3.814558    3.616444    1.588882
     29          1           0        2.486457    2.686554    0.874261
     30          1           0        4.037881    1.436523   -1.470448
     31          1           0        5.341035   -0.645779    0.239289
     32          1           0        5.162588   -0.669436   -1.536404
     33          1           0        2.121491   -3.379818   -0.291973
     34          1           0       -0.000230   -4.619475   -0.013816
     35          1           0       -2.121342   -3.380553    0.272407
     36          1           0       -4.035067    1.430289    1.477359
     37          1           0       -4.362380    1.221831   -1.542092
     38          1           0       -6.213135    2.845587   -1.189430
     39          1           0       -6.535169    1.355620   -0.303274
     40          1           0       -5.951900    2.782526    0.553803
     41          1           0       -3.590585    3.617328    0.184284
     42          1           0       -2.489007    2.702148   -0.844441
     43          1           0       -3.815696    3.626916   -1.568181
     44          1           0       -5.338159   -0.645046   -0.242263
     45          1           0       -5.162553   -0.674719    1.533648
     46          1           0        0.000829    0.317720    0.000768
 ---------------------------------------------------------------------
                    Distance matrix (angstroms):
                    1          2          3          4          5
     1  C    0.000000
     2  C    1.526213   0.000000
     3  C    2.507924   1.525941   0.000000
     4  C    2.518168   1.536484   2.504904   0.000000
     5  C    3.133836   2.592033   3.912421   1.554818   0.000000
     6  O    4.395526   3.506731   4.608760   2.354314   1.421133
     7  C    4.573168   3.336345   4.024953   2.204885   2.229002
     8  C    5.973702   4.645623   5.110930   3.625146   3.607403
     9  C    6.922471   5.709697   6.366573   4.651521   4.201996
    10  C    8.233021   6.953919   7.467522   5.944871   5.582333
    11  C    8.694834   7.298016   7.535676   6.378521   6.333618
    12  C    7.964706   6.503481   6.512753   5.678154   5.960817
    13  C    8.816974   7.317450   7.040297   6.631124   7.146858
    14  N    8.578610   7.083967   6.552404   6.547037   7.321745
    15  C    9.895284   8.408711   7.748308   7.939923   8.760112
    16  C   10.351084   8.935582   8.145687   8.409882   9.353222
    17  C   11.765976  10.354436   9.486604   9.898498  10.862317
    18  C    9.487823   8.151314   7.186294   7.756552   8.888738
    19  C   10.859813   9.351685   8.879729   8.759859   9.360548
    20  O   10.143116   8.642111   8.386567   7.937860   8.352957
    21  C    6.593239   5.143144   5.204168   4.297147   4.687610
    22  N    3.799150   2.460175   2.870158   1.444400   2.352867
    23  H    1.087591   2.175204   3.465602   2.768910   2.797419
    24  H    1.088085   2.158899   2.751475   2.771775   3.541643
    25  H    1.087460   2.155710   2.740647   3.464105   4.101075
    26  H    2.153605   1.096225   2.145120   2.144298   2.749508
    27  H    2.738241   2.158321   1.087523   2.772909   4.266130
    28  H    2.763832   2.159755   1.087445   3.456266   4.727578
    29  H    3.451028   2.153151   1.085804   2.702514   4.114407
    30  H    2.717584   2.151455   2.760883   1.096611   2.208250
    31  H    2.918090   2.626863   4.113128   2.216298   1.094163
    32  H    3.537791   3.348702   4.626378   2.223868   1.092744
    33  H    6.772194   5.730255   6.617076   4.641761   3.842718
    34  H    9.021997   7.812547   8.430602   6.787220   6.237054
    35  H    9.759136   8.348179   8.531102   7.451728   7.404753
    36  H    9.996867   8.512087   7.748398   8.236451   9.127307
    37  H   10.458330   9.067079   8.393640   8.366084   9.217711
    38  H   12.199958  10.842903   9.919488  10.356854  11.375249
    39  H   12.453547  11.007996  10.238601  10.483231  11.334826
    40  H   11.836182  10.425522   9.471914  10.125113  11.150125
    41  H    9.564701   8.233969   7.154018   8.037469   9.237088
    42  H    8.461192   7.126424   6.217545   6.683352   7.821039
    43  H    9.978412   8.722332   7.711112   8.286688   9.461309
    44  H   11.584953  10.099009   9.627172   9.403258   9.989034
    45  H   11.464252   9.941867   9.459691   9.457980  10.035250
    46  H    6.181108   4.703172   4.486211   4.010155   4.750583
                    6          7          8          9         10
     6  O    0.000000
     7  C    1.361260   0.000000
     8  C    2.416397   1.457549   0.000000
     9  C    2.799806   2.473928   1.394521   0.000000
    10  C    4.182959   3.740779   2.405357   1.383185   0.000000
    11  C    5.020519   4.235422   2.777874   2.399284   1.383142
    12  C    4.822052   3.738257   2.405704   2.777921   2.405383
    13  C    6.124478   4.925981   3.738365   4.235517   3.740796
    14  N    6.496459   5.186945   4.266063   5.067887   4.819094
    15  C    7.938273   6.631378   5.678464   6.378732   5.944923
    16  C    8.644120   7.318803   6.504536   7.298593   6.953950
    17  C   10.145057   8.818681   7.965058   8.693516   8.230053
    18  C    8.396190   7.049088   6.521031   7.543452   7.474202
    19  C    8.353111   7.146812   5.960821   6.333528   5.582097
    20  O    7.238217   6.124258   4.821898   5.020322   4.182665
    21  C    3.683042   2.463204   1.390238   2.411194   2.780042
    22  N    2.242582   1.266767   2.417186   3.655104   4.818979
    23  H    4.138751   4.637169   6.058860   6.823588   8.176372
    24  H    4.849362   4.969825   6.387429   7.391990   8.703869
    25  H    5.292678   5.410200   6.748255   7.714778   8.988617
    26  H    3.420247   3.312414   4.486796   5.435872   6.639797
    27  H    5.061997   4.482895   5.598656   6.887611   7.995101
    28  H    5.464172   4.938719   5.972878   7.197050   8.265335
    29  H    4.478417   3.615835   4.462344   5.781645   6.762284
    30  H    3.081072   2.918769   4.262872   5.309951   6.572403
    31  H    2.048602   2.954927   4.245784   4.718361   6.079679
    32  H    2.052975   2.977649   4.273701   4.735157   6.100648
    33  H    2.437960   2.675825   2.139898   1.079126   2.146040
    34  H    4.815968   4.608841   3.384001   2.136985   1.080022
    35  H    6.076595   5.314477   3.856939   3.381418   2.146003
    36  H    8.376599   7.060311   6.193028   6.951555   6.572193
    37  H    8.455365   7.180481   6.319328   7.021441   6.636719
    38  H   10.724091   9.401737   8.625958   9.396395   8.986751
    39  H   10.505781   9.214805   8.224824   8.796646   8.170426
    40  H   10.484877   9.139253   8.338334   9.124169   8.701201
    41  H    8.807817   7.449592   6.981595   8.050298   8.009354
    42  H    7.366756   6.026367   5.595743   6.695162   6.771135
    43  H    9.041571   7.721678   7.273108   8.305193   8.266974
    44  H    8.966484   7.781008   6.581615   6.890545   6.076776
    45  H    9.010846   7.829096   6.624195   6.926197   6.102696
    46  H    4.024404   2.674143   2.143509   3.388206   3.857194
                   11         12         13         14         15
    11  C    0.000000
    12  C    1.394562   0.000000
    13  C    2.473950   1.457596   0.000000
    14  N    3.655198   2.417270   1.266793   0.000000
    15  C    4.651548   3.625262   2.204924   1.444531   0.000000
    16  C    5.709662   4.646107   3.336902   2.459844   1.536419
    17  C    6.919267   5.972337   4.571885   3.799623   2.518713
    18  C    6.372438   5.117253   4.029775   2.873377   2.504491
    19  C    4.201791   3.607328   2.228919   2.352878   1.554745
    20  O    2.799546   2.416228   1.361117   2.242543   2.354295
    21  C    2.411165   1.390194   2.463289   2.877381   4.297431
    22  N    5.067691   4.265843   5.186850   5.136008   6.547264
    23  H    8.801039   8.227226   9.215964   9.115359  10.482785
    24  H    9.123840   8.335349   9.133681   8.825906  10.116192
    25  H    9.397184   8.625633   9.400543   9.092040  10.355026
    26  H    7.025082   6.323263   7.184832   7.045427   8.371555
    27  H    8.033481   6.963295   7.429637   6.863961   8.016746
    28  H    8.302822   7.270253   7.718300   7.169430   8.283611
    29  H    6.685838   5.586895   6.017890   5.492818   6.677156
    30  H    6.951969   6.193680   7.061300   6.888514   8.237755
    31  H    6.892978   6.583529   7.782648   7.972565   9.404850
    32  H    6.924297   6.622571   7.827804   8.025806   9.457093
    33  H    3.381407   3.856977   5.314564   6.125521   7.451941
    34  H    2.136997   3.384058   4.608879   5.761818   6.787253
    35  H    1.079135   2.139923   2.675779   3.941875   4.641639
    36  H    5.309770   4.262338   2.918056   2.067963   1.096630
    37  H    5.433445   4.483988   3.310941   2.719070   2.144051
    38  H    7.712895   6.747574   5.409787   4.604062   3.464343
    39  H    6.817925   6.055577   4.635089   4.129173   2.772261
    40  H    7.388319   6.386554   4.967854   4.086841   2.770328
    41  H    6.900041   5.612494   4.493579   3.257703   2.775884
    42  H    5.789481   4.469534   3.620577   2.476783   2.698843
    43  H    7.198391   5.974612   4.940077   3.857019   3.455743
    44  H    4.715542   4.243639   2.953263   3.094709   2.216063
    45  H    4.737222   4.275428   2.978957   3.117181   2.223942
    46  H    3.388198   2.143480   2.674278   2.577576   4.010586
                   16         17         18         19         20
    16  C    0.000000
    17  C    1.526216   0.000000
    18  C    1.525999   2.507907   0.000000
    19  C    2.592224   3.130285   3.912917   0.000000
    20  O    3.508127   4.392866   4.612717   1.421180   0.000000
    21  C    5.144187   6.593836   5.211899   4.687633   3.682912
    22  N    7.085001   8.581313   6.560588   7.321665   6.496190
    23  H   11.006260  12.454809  10.241354  11.335447  10.507028
    24  H   10.416088  11.829610   9.466725  11.142845  10.479468
    25  H   10.841550  12.202761   9.922356  11.373511  10.722216
    26  H    9.073626  10.468357   8.405355   9.222222   8.458507
    27  H    8.215201   9.550491   7.140971   9.216356   8.787549
    28  H    8.720923   9.982211   7.713521   9.457575   9.037080
    29  H    7.125498   8.464372   6.223856   7.812885   7.357013
    30  H    8.514687  10.001503   7.758580   9.128472   8.377846
    31  H   10.101563  11.588872   9.636297   9.990480   8.967640
    32  H    9.942316  11.465261   9.468462  10.034036   9.009635
    33  H    8.348791   9.757850   8.539181   7.404645   6.076382
    34  H    7.812316   9.018077   8.436954   6.236803   4.815701
    35  H    5.729776   6.767521   6.621764   3.842383   2.437635
    36  H    2.151542   2.722145   2.756636   2.208174   3.079772
    37  H    1.096226   2.153632   2.145219   2.752959   3.423559
    38  H    2.155456   1.087452   2.738137   4.100163   5.292679
    39  H    2.175503   1.087593   3.465768   2.795697   4.135663
    40  H    2.158949   1.088075   2.753598   3.532537   4.842578
    41  H    2.158418   2.735221   1.087562   4.266896   5.068061
    42  H    2.153170   3.450913   1.085834   4.114980   4.483337
    43  H    2.159816   2.766848   1.087429   4.727891   5.466408
    44  H    2.627067   2.912708   4.114168   1.094194   2.048432
    45  H    3.347864   3.533455   4.624213   1.092670   2.053103
    46  H    4.704646   6.183466   4.494244   4.750758   4.024391
                   21         22         23         24         25
    21  C    0.000000
    22  N    2.877208   0.000000
    23  H    6.877660   4.128491   0.000000
    24  H    6.945948   4.085080   1.763770   0.000000
    25  H    7.280763   4.604380   1.763340   1.763827   0.000000
    26  H    5.036933   2.723465   2.506111   3.058560   2.485721
    27  H    5.647159   3.246272   3.745824   2.532490   3.067810
    28  H    6.018804   3.857307   3.761068   3.119401   2.549080
    29  H    4.338481   2.476913   4.298316   3.735522   3.743374
    30  H    4.824684   2.067881   3.059734   2.518465   3.720512
    31  H    5.347095   3.096259   2.338967   3.582663   3.722249
    32  H    5.385906   3.115731   3.062406   3.691277   4.575119
    33  H    3.383574   3.941855   6.506608   7.268453   7.595148
    34  H    3.860065   5.761687   8.866635   9.519128   9.785643
    35  H    3.383542   6.125324   9.871865  10.191001  10.442387
    36  H    4.823958   6.887753  10.636402  10.270359  10.347947
    37  H    5.033123   7.039778  11.052498  10.471773  11.044246
    38  H    7.281225   9.093394  12.919835  12.171978  12.653237
    39  H    6.876076   9.115457  13.084195  12.562113  12.921764
    40  H    6.948876   8.833860  12.570103  11.943728  12.181520
    41  H    5.664575   6.884617  10.374062   9.594641   9.885804
    42  H    4.346270   5.499271   9.193887   8.436497   8.939547
    43  H    6.021337   7.172097  10.758069   9.845945  10.432762
    44  H    5.345383   7.970873  12.054332  11.797473  12.151601
    45  H    5.387409   8.027113  11.938614  11.818268  11.910981
    46  H    1.077152   2.577349   6.624361   6.460760   6.811698
                   26         27         28         29         30
    26  H    0.000000
    27  H    3.051903   0.000000
    28  H    2.468814   1.766962   0.000000
    29  H    2.485025   1.763108   1.771787   0.000000
    30  H    3.044219   2.580408   3.763167   3.076874   0.000000
    31  H    2.470422   4.626867   4.724201   4.433537   2.992890
    32  H    3.697929   4.768699   5.472967   4.922972   2.388384
    33  H    5.432594   7.141310   7.439877   6.188228   5.315872
    34  H    7.451658   8.974090   9.216920   7.768549   7.423155
    35  H    8.052283   9.027703   9.269627   7.642240   8.011104
    36  H    8.407653   8.082482   8.149130   6.668748   8.594306
    37  H    9.262228   8.401610   9.077416   7.408829   8.403309
    38  H   11.052226   9.869822  10.433976   8.942428  10.351220
    39  H   11.061456  10.357847  10.761432   9.194983  10.637586
    40  H   10.487430   9.587709   9.856496   8.444985  10.281296
    41  H    8.426704   7.172039   7.537177   6.186505   8.104785
    42  H    7.414956   6.167822   6.818499   5.263974   6.677871
    43  H    9.085059   7.521534   8.257598   6.823997   8.153898
    44  H   10.044169   9.875866  10.260878   8.577342   9.682536
    45  H    9.716768   9.876958   9.950158   8.380949   9.906055
    46  H    4.719599   4.861525   5.286607   3.542981   4.440043
                   31         32         33         34         35
    31  H    0.000000
    32  H    1.784794   0.000000
    33  H    4.257073   4.259466   0.000000
    34  H    6.662089   6.676509   2.473019   0.000000
    35  H    7.947777   7.979824   4.280205   2.473048   0.000000
    36  H    9.682673   9.903962   8.010672   7.423150   5.315868
    37  H   10.040794   9.710919   8.048513   7.448814   5.431077
    38  H   12.154412  11.911459  10.441604   9.783118   7.592401
    39  H   12.055878  11.935618   9.867232   8.859513   6.499586
    40  H   11.806040  11.824418  10.191637   9.514945   7.261949
    41  H    9.897017   9.897229   9.045147   8.987481   7.150998
    42  H    8.584442   8.390071   7.651942   7.777539   6.195303
    43  H   10.264921   9.953353   9.272174   9.218286   7.440647
    44  H   10.690046  10.580221   7.945302   6.658961   4.253915
    45  H   10.583079  10.771898   7.981713   6.678722   4.261600
    46  H    5.431669   5.475503   4.272551   4.937217   4.272543
                   36         37         38         39         40
    36  H    0.000000
    37  H    3.044285   0.000000
    38  H    3.722743   2.487217   0.000000
    39  H    3.070300   2.504712   1.763230   0.000000
    40  H    2.521061   3.058614   1.763826   1.763759   0.000000
    41  H    2.579292   3.051958   3.059484   3.744811   2.531649
    42  H    3.065727   2.487485   3.742823   4.298538   3.735395
    43  H    3.761464   2.466572   2.549832   3.762221   3.127168
    44  H    2.993687   2.475264   3.721186   2.332213   3.571925
    45  H    2.388609   3.700994   4.572902   3.062782   3.679091
    46  H    4.439210   4.715446   6.813225   6.624873   6.466537
                   41         42         43         44         45
    41  H    0.000000
    42  H    1.763322   0.000000
    43  H    1.766890   1.771750   0.000000
    44  H    4.626423   4.436665   4.724999   0.000000
    45  H    4.765872   4.919999   5.471694   1.784819   0.000000
    46  H    4.880507   3.549529   5.289446   5.430541   5.476785
                   46
    46  H    0.000000
 Symmetry turned off by external request.
 Stoichiometry    C18H24N2O2
 Framework group  C1[X(C18H24N2O2)]
 Deg. of freedom   132
 Full point group                 C1      NOp   1
 Rotational constants (GHZ):           0.4345477           0.1308971           0.1038478
 Leave Link  202 at Mon Feb 26 00:51:35 2024, MaxMem=  7516192768 cpu:               7.1 elap:               0.2
 (Enter /public/apps/g16-C01//g16/l301.exe)
 Standard basis: def2SVPP (5D, 7F)
 Ernie: Thresh=  0.10000D-02 Tol=  0.10000D-05 Strict=F.
   356 basis functions,   646 primitive gaussians,   378 cartesian basis functions
    81 alpha electrons       81 beta electrons
       nuclear repulsion energy      1753.9748949915 Hartrees.
 IExCor=  402 DFT=T Ex+Corr=B3LYP ExCW=0 ScaHFX=  0.200000
 ScaDFX=  0.800000  0.720000  1.000000  0.810000 ScalE2=  1.000000  1.000000
 IRadAn=      5 IRanWt=     -1 IRanGd=            0 ICorTp=0 IEmpDi=141
 NAtoms=   46 NActive=   46 NUniq=   46 SFac= 1.00D+00 NAtFMM=   60 NAOKFM=F Big=F
 Integral buffers will be    131072 words long.
 Raffenetti 2 integral format.
 Two-electron integral symmetry is turned off.
 R6Disp:  Grimme-D3(BJ) Dispersion energy=       -0.0886059421 Hartrees.
 Nuclear repulsion after empirical dispersion term =     1753.8862890494 Hartrees.
 Leave Link  301 at Mon Feb 26 00:51:35 2024, MaxMem=  7516192768 cpu:               0.8 elap:               0.0
 (Enter /public/apps/g16-C01//g16/l302.exe)
 NPDir=0 NMtPBC=     1 NCelOv=     1 NCel=       1 NClECP=     1 NCelD=      1
         NCelK=      1 NCelE2=     1 NClLst=     1 CellRange=     0.0.
 One-electron integrals computed using PRISM.
   1 Symmetry operations used in ECPInt.
 ECPInt:  NShTT=   16290 NPrTT=   65338 LenC2=   14189 LenP2D=   37533.
 LDataN:  DoStor=T MaxTD1= 4 Len=   56
 NBasis=   356 RedAO= T EigKep=  2.65D-04  NBF=   356
 NBsUse=   356 1.00D-06 EigRej= -1.00D+00 NBFU=   356
 Precomputing XC quadrature grid using
 IXCGrd= 4 IRadAn=           5 IRanWt=          -1 IRanGd=           0 AccXCQ= 0.00D+00.
 Generated NRdTot=       0 NPtTot=           0 NUsed=           0 NTot=          32
 NSgBfM=   376   376   376   376   376 MxSgAt=    46 MxSgA2=    46.
 Leave Link  302 at Mon Feb 26 00:51:35 2024, MaxMem=  7516192768 cpu:              20.0 elap:               0.5
 (Enter /public/apps/g16-C01//g16/l303.exe)
 DipDrv:  MaxL=1.
 Leave Link  303 at Mon Feb 26 00:51:36 2024, MaxMem=  7516192768 cpu:              13.5 elap:               0.4
 (Enter /public/apps/g16-C01//g16/l401.exe)
 ExpMin= 1.22D-01 ExpMax= 2.27D+03 ExpMxC= 3.41D+02 IAcc=3 IRadAn=         5 AccDes= 0.00D+00
 Harris functional with IExCor=  402 and IRadAn=       5 diagonalized for initial guess.
 HarFok:  IExCor=  402 AccDes= 0.00D+00 IRadAn=         5 IDoV= 1 UseB2=F ITyADJ=14
 ICtDFT=  3500011 ScaDFX=  1.000000  1.000000  1.000000  1.000000
 FoFCou: FMM=F IPFlag=           0 FMFlag=      100000 FMFlg1=           0
         NFxFlg=           0 DoJE=T BraDBF=F KetDBF=T FulRan=T
         wScrn=  0.000000 ICntrl=       500 IOpCl=  0 I1Cent=   200000004 NGrid=           0
         NMat0=    1 NMatS0=      1 NMatT0=    0 NMatD0=    1 NMtDS0=    0 NMtDT0=    0
 Symmetry not used in FoFCou.
 Harris En= -959.641121309425    
 JPrj=0 DoOrth=F DoCkMO=F.
 Leave Link  401 at Mon Feb 26 00:51:38 2024, MaxMem=  7516192768 cpu:              22.0 elap:               0.6
 (Enter /public/apps/g16-C01//g16/l502.exe)
 Two-electron integral symmetry not used.
 Closed shell SCF:
 Using DIIS extrapolation, IDIIS=  1040.
 NGot=  7516192768 LenX=  7515887340 LenY=  7515744015
 Requested convergence on RMS density matrix=1.00D-08 within 128 cycles.
 Requested convergence on MAX density matrix=1.00D-06.
 Requested convergence on             energy=1.00D-06.
 No special actions if energy rises.
 Fock matrices will be formed incrementally for  20 cycles.
 Integral accuracy reduced to 1.0D-05 until final iterations.

 Cycle   1  Pass 0  IDiag  1:
 FoFJK:  IHMeth= 1 ICntrl=       0 DoSepK=F KAlg= 0 I1Cent=           0 FoldK=F
 IRaf= 790000000 NMat=       1 IRICut=       1 DoRegI=T DoRafI=F ISym2E= 0 IDoP0=0 IntGTp=1.
 FoFCou: FMM=F IPFlag=           0 FMFlag=      100000 FMFlg1=           0
         NFxFlg=           0 DoJE=F BraDBF=F KetDBF=F FulRan=T
         wScrn=  0.000000 ICntrl=         0 IOpCl=  0 I1Cent=           0 NGrid=           0
         NMat0=    1 NMatS0=      1 NMatT0=    0 NMatD0=    1 NMtDS0=    0 NMtDT0=    0
 Symmetry not used in FoFCou.
 E= -959.128573815877    
 DIIS: error= 3.88D-02 at cycle   1 NSaved=   1.
 NSaved= 1 IEnMin= 1 EnMin= -959.128573815877     IErMin= 1 ErrMin= 3.88D-02
 ErrMax= 3.88D-02  0.00D+00 EMaxC= 1.00D-01 BMatC= 4.86D-01 BMatP= 4.86D-01
 IDIUse=3 WtCom= 6.12D-01 WtEn= 3.88D-01
 Coeff-Com:  0.100D+01
 Coeff-En:   0.100D+01
 Coeff:      0.100D+01
 Gap=     0.185 Goal=   None    Shift=    0.000
 GapD=    0.185 DampG=1.000 DampE=0.500 DampFc=0.5000 IDamp=-1.
 Damping current iteration by 5.00D-01
 RMSDP=5.77D-03 MaxDP=1.77D-01              OVMax= 1.96D-01

 Cycle   2  Pass 0  IDiag  1:
 RMSU=  2.81D-03    CP:  9.68D-01
 E= -959.341083897970     Delta-E=       -0.212510082093 Rises=F Damp=T
 DIIS: error= 6.13D-03 at cycle   2 NSaved=   2.
 NSaved= 2 IEnMin= 2 EnMin= -959.341083897970     IErMin= 2 ErrMin= 6.13D-03
 ErrMax= 6.13D-03  0.00D+00 EMaxC= 1.00D-01 BMatC= 3.89D-02 BMatP= 4.86D-01
 IDIUse=3 WtCom= 9.39D-01 WtEn= 6.13D-02
 Coeff-Com:  0.116D+00 0.884D+00
 Coeff-En:   0.185D+00 0.815D+00
 Coeff:      0.121D+00 0.879D+00
 Gap=     0.243 Goal=   None    Shift=    0.000
 RMSDP=1.90D-03 MaxDP=6.50D-02 DE=-2.13D-01 OVMax= 1.71D-01

 Cycle   3  Pass 0  IDiag  1:
 RMSU=  1.80D-03    CP:  9.48D-01  8.41D-01
 E= -959.606365475880     Delta-E=       -0.265281577911 Rises=F Damp=F
 DIIS: error= 1.10D-02 at cycle   3 NSaved=   3.
 NSaved= 3 IEnMin= 3 EnMin= -959.606365475880     IErMin= 2 ErrMin= 6.13D-03
 ErrMax= 1.10D-02  0.00D+00 EMaxC= 1.00D-01 BMatC= 5.40D-02 BMatP= 3.89D-02
 IDIUse=2 WtCom= 0.00D+00 WtEn= 1.00D+00
 Coeff-En:   0.000D+00 0.000D+00 0.100D+01
 Coeff:      0.000D+00 0.000D+00 0.100D+01
 Gap=     0.175 Goal=   None    Shift=    0.000
 RMSDP=2.59D-03 MaxDP=1.19D-01 DE=-2.65D-01 OVMax= 2.59D-01

 Cycle   4  Pass 0  IDiag  1:
 RMSU=  1.56D-03    CP:  9.59D-01  1.22D+00  2.28D-02
 E= -959.382768464170     Delta-E=        0.223597011710 Rises=F Damp=F
 DIIS: error= 2.83D-02 at cycle   4 NSaved=   4.
 NSaved= 4 IEnMin= 3 EnMin= -959.606365475880     IErMin= 2 ErrMin= 6.13D-03
 ErrMax= 2.83D-02  0.00D+00 EMaxC= 1.00D-01 BMatC= 2.97D-01 BMatP= 3.89D-02
 IDIUse=2 WtCom= 0.00D+00 WtEn= 1.00D+00
 Coeff-En:   0.000D+00 0.000D+00 0.789D+00 0.211D+00
 Coeff:      0.000D+00 0.000D+00 0.789D+00 0.211D+00
 Gap=     0.201 Goal=   None    Shift=    0.000
 RMSDP=1.40D-03 MaxDP=6.06D-02 DE= 2.24D-01 OVMax= 1.35D-01

 Cycle   5  Pass 0  IDiag  1:
 RMSU=  2.42D-04    CP:  9.53D-01  9.87D-01  5.18D-01  4.74D-01
 E= -959.636455237600     Delta-E=       -0.253686773430 Rises=F Damp=F
 DIIS: error= 7.66D-03 at cycle   5 NSaved=   5.
 NSaved= 5 IEnMin= 5 EnMin= -959.636455237600     IErMin= 2 ErrMin= 6.13D-03
 ErrMax= 7.66D-03  0.00D+00 EMaxC= 1.00D-01 BMatC= 2.22D-02 BMatP= 3.89D-02
 IDIUse=3 WtCom= 9.23D-01 WtEn= 7.66D-02
 Coeff-Com:  0.248D-02 0.132D-01 0.313D+00-0.747D-01 0.746D+00
 Coeff-En:   0.000D+00 0.000D+00 0.335D+00 0.000D+00 0.665D+00
 Coeff:      0.229D-02 0.122D-01 0.314D+00-0.689D-01 0.740D+00
 Gap=     0.188 Goal=   None    Shift=    0.000
 RMSDP=4.94D-04 MaxDP=2.26D-02 DE=-2.54D-01 OVMax= 4.42D-02

 Cycle   6  Pass 0  IDiag  1:
 RMSU=  8.39D-05    CP:  9.51D-01  9.24D-01  7.04D-01  2.83D-01  8.04D-01
 E= -959.656715221580     Delta-E=       -0.020259983980 Rises=F Damp=F
 DIIS: error= 4.82D-04 at cycle   6 NSaved=   6.
 NSaved= 6 IEnMin= 6 EnMin= -959.656715221580     IErMin= 6 ErrMin= 4.82D-04
 ErrMax= 4.82D-04  0.00D+00 EMaxC= 1.00D-01 BMatC= 8.69D-05 BMatP= 2.22D-02
 IDIUse=3 WtCom= 9.95D-01 WtEn= 4.82D-03
 Coeff-Com: -0.270D-03 0.356D-02 0.134D+00-0.595D-01 0.427D+00 0.496D+00
 Coeff-En:   0.000D+00 0.000D+00 0.000D+00 0.000D+00 0.000D+00 0.100D+01
 Coeff:     -0.269D-03 0.355D-02 0.133D+00-0.592D-01 0.425D+00 0.498D+00
 Gap=     0.189 Goal=   None    Shift=    0.000
 RMSDP=3.97D-05 MaxDP=1.39D-03 DE=-2.03D-02 OVMax= 4.22D-03

 Cycle   7  Pass 0  IDiag  1:
 RMSU=  2.06D-05    CP:  9.51D-01  9.26D-01  7.02D-01  2.86D-01  8.47D-01
                    CP:  6.26D-01
 E= -959.656806421547     Delta-E=       -0.000091199967 Rises=F Damp=F
 DIIS: error= 1.38D-04 at cycle   7 NSaved=   7.
 NSaved= 7 IEnMin= 7 EnMin= -959.656806421547     IErMin= 7 ErrMin= 1.38D-04
 ErrMax= 1.38D-04  0.00D+00 EMaxC= 1.00D-01 BMatC= 7.45D-06 BMatP= 8.69D-05
 IDIUse=3 WtCom= 9.99D-01 WtEn= 1.38D-03
 Coeff-Com: -0.226D-03 0.895D-03 0.553D-01-0.291D-01 0.191D+00 0.282D+00
 Coeff-Com:  0.500D+00
 Coeff-En:   0.000D+00 0.000D+00 0.000D+00 0.000D+00 0.000D+00 0.000D+00
 Coeff-En:   0.100D+01
 Coeff:     -0.226D-03 0.894D-03 0.552D-01-0.291D-01 0.191D+00 0.282D+00
 Coeff:      0.500D+00
 Gap=     0.189 Goal=   None    Shift=    0.000
 RMSDP=1.01D-05 MaxDP=5.68D-04 DE=-9.12D-05 OVMax= 1.01D-03

 Cycle   8  Pass 0  IDiag  1:
 RMSU=  5.74D-06    CP:  9.51D-01  9.25D-01  7.02D-01  2.86D-01  8.45D-01
                    CP:  6.45D-01  6.16D-01
 E= -959.656814878299     Delta-E=       -0.000008456751 Rises=F Damp=F
 DIIS: error= 3.35D-05 at cycle   8 NSaved=   8.
 NSaved= 8 IEnMin= 8 EnMin= -959.656814878299     IErMin= 8 ErrMin= 3.35D-05
 ErrMax= 3.35D-05  0.00D+00 EMaxC= 1.00D-01 BMatC= 5.68D-07 BMatP= 7.45D-06
 IDIUse=1 WtCom= 1.00D+00 WtEn= 0.00D+00
 Coeff-Com:  0.355D-04-0.258D-03 0.804D-02-0.500D-02 0.285D-01 0.592D-01
 Coeff-Com:  0.229D+00 0.680D+00
 Coeff:      0.355D-04-0.258D-03 0.804D-02-0.500D-02 0.285D-01 0.592D-01
 Coeff:      0.229D+00 0.680D+00
 Gap=     0.189 Goal=   None    Shift=    0.000
 RMSDP=3.22D-06 MaxDP=1.77D-04 DE=-8.46D-06 OVMax= 3.20D-04

 Initial convergence to 1.0D-05 achieved.  Increase integral accuracy.
 Cycle   9  Pass 1  IDiag  1:
 E= -959.656832248048     Delta-E=       -0.000017369749 Rises=F Damp=F
 DIIS: error= 1.41D-04 at cycle   1 NSaved=   1.
 NSaved= 1 IEnMin= 1 EnMin= -959.656832248048     IErMin= 1 ErrMin= 1.41D-04
 ErrMax= 1.41D-04  0.00D+00 EMaxC= 1.00D-01 BMatC= 2.01D-06 BMatP= 2.01D-06
 IDIUse=3 WtCom= 9.99D-01 WtEn= 1.41D-03
 Coeff-Com:  0.100D+01
 Coeff-En:   0.100D+01
 Coeff:      0.100D+01
 Gap=     0.189 Goal=   None    Shift=    0.000
 RMSDP=3.22D-06 MaxDP=1.77D-04 DE=-1.74D-05 OVMax= 3.36D-04

 Cycle  10  Pass 1  IDiag  1:
 RMSU=  9.37D-05    CP:  1.00D+00
 E= -959.656834501060     Delta-E=       -0.000002253012 Rises=F Damp=F
 DIIS: error= 1.74D-05 at cycle   2 NSaved=   2.
 NSaved= 2 IEnMin= 2 EnMin= -959.656834501060     IErMin= 2 ErrMin= 1.74D-05
 ErrMax= 1.74D-05  0.00D+00 EMaxC= 1.00D-01 BMatC= 1.18D-07 BMatP= 2.01D-06
 IDIUse=1 WtCom= 1.00D+00 WtEn= 0.00D+00
 Coeff-Com:  0.755D-01 0.925D+00
 Coeff:      0.755D-01 0.925D+00
 Gap=     0.189 Goal=   None    Shift=    0.000
 RMSDP=3.19D-06 MaxDP=2.07D-04 DE=-2.25D-06 OVMax= 3.08D-04

 Cycle  11  Pass 1  IDiag  1:
 RMSU=  2.98D-06    CP:  1.00D+00  1.01D+00
 E= -959.656834353872     Delta-E=        0.000000147188 Rises=F Damp=F
 DIIS: error= 2.77D-05 at cycle   3 NSaved=   3.
 NSaved= 3 IEnMin= 2 EnMin= -959.656834501060     IErMin= 2 ErrMin= 1.74D-05
 ErrMax= 2.77D-05  0.00D+00 EMaxC= 1.00D-01 BMatC= 2.59D-07 BMatP= 1.18D-07
 IDIUse=1 WtCom= 1.00D+00 WtEn= 0.00D+00
 Coeff-Com: -0.448D-02 0.600D+00 0.404D+00
 Coeff:     -0.448D-02 0.600D+00 0.404D+00
 Gap=     0.189 Goal=   None    Shift=    0.000
 RMSDP=1.82D-06 MaxDP=1.26D-04 DE= 1.47D-07 OVMax= 1.97D-04

 Cycle  12  Pass 1  IDiag  1:
 RMSU=  4.33D-07    CP:  1.00D+00  1.01D+00  4.12D-01
 E= -959.656834617977     Delta-E=       -0.000000264105 Rises=F Damp=F
 DIIS: error= 3.35D-06 at cycle   4 NSaved=   4.
 NSaved= 4 IEnMin= 4 EnMin= -959.656834617977     IErMin= 4 ErrMin= 3.35D-06
 ErrMax= 3.35D-06  0.00D+00 EMaxC= 1.00D-01 BMatC= 3.91D-09 BMatP= 1.18D-07
 IDIUse=1 WtCom= 1.00D+00 WtEn= 0.00D+00
 Coeff-Com: -0.409D-02 0.346D+00 0.243D+00 0.415D+00
 Coeff:     -0.409D-02 0.346D+00 0.243D+00 0.415D+00
 Gap=     0.189 Goal=   None    Shift=    0.000
 RMSDP=2.10D-07 MaxDP=9.54D-06 DE=-2.64D-07 OVMax= 2.45D-05

 Cycle  13  Pass 1  IDiag  1:
 RMSU=  1.43D-07    CP:  1.00D+00  1.01D+00  4.27D-01  6.63D-01
 E= -959.656834622155     Delta-E=       -0.000000004179 Rises=F Damp=F
 DIIS: error= 4.95D-07 at cycle   5 NSaved=   5.
 NSaved= 5 IEnMin= 5 EnMin= -959.656834622155     IErMin= 5 ErrMin= 4.95D-07
 ErrMax= 4.95D-07  0.00D+00 EMaxC= 1.00D-01 BMatC= 7.33D-11 BMatP= 3.91D-09
 IDIUse=1 WtCom= 1.00D+00 WtEn= 0.00D+00
 Coeff-Com: -0.198D-02 0.159D+00 0.112D+00 0.217D+00 0.514D+00
 Coeff:     -0.198D-02 0.159D+00 0.112D+00 0.217D+00 0.514D+00
 Gap=     0.189 Goal=   None    Shift=    0.000
 RMSDP=5.02D-08 MaxDP=1.56D-06 DE=-4.18D-09 OVMax= 4.59D-06

 Cycle  14  Pass 1  IDiag  1:
 RMSU=  4.07D-08    CP:  1.00D+00  1.01D+00  4.22D-01  6.58D-01  8.34D-01
 E= -959.656834622219     Delta-E=       -0.000000000063 Rises=F Damp=F
 DIIS: error= 1.16D-07 at cycle   6 NSaved=   6.
 NSaved= 6 IEnMin= 6 EnMin= -959.656834622219     IErMin= 6 ErrMin= 1.16D-07
 ErrMax= 1.16D-07  0.00D+00 EMaxC= 1.00D-01 BMatC= 9.68D-12 BMatP= 7.33D-11
 IDIUse=1 WtCom= 1.00D+00 WtEn= 0.00D+00
 Coeff-Com: -0.618D-03 0.481D-01 0.338D-01 0.723D-01 0.291D+00 0.555D+00
 Coeff:     -0.618D-03 0.481D-01 0.338D-01 0.723D-01 0.291D+00 0.555D+00
 Gap=     0.189 Goal=   None    Shift=    0.000
 RMSDP=1.54D-08 MaxDP=8.37D-07 DE=-6.32D-11 OVMax= 1.51D-06

 Cycle  15  Pass 1  IDiag  1:
 RMSU=  1.08D-08    CP:  1.00D+00  1.01D+00  4.22D-01  6.66D-01  8.76D-01
                    CP:  7.99D-01
 E= -959.656834622245     Delta-E=       -0.000000000026 Rises=F Damp=F
 DIIS: error= 1.05D-07 at cycle   7 NSaved=   7.
 NSaved= 7 IEnMin= 7 EnMin= -959.656834622245     IErMin= 7 ErrMin= 1.05D-07
 ErrMax= 1.05D-07  0.00D+00 EMaxC= 1.00D-01 BMatC= 2.94D-12 BMatP= 9.68D-12
 IDIUse=1 WtCom= 1.00D+00 WtEn= 0.00D+00
 Coeff-Com: -0.853D-04 0.578D-02 0.413D-02 0.127D-01 0.117D+00 0.387D+00
 Coeff-Com:  0.474D+00
 Coeff:     -0.853D-04 0.578D-02 0.413D-02 0.127D-01 0.117D+00 0.387D+00
 Coeff:      0.474D+00
 Gap=     0.189 Goal=   None    Shift=    0.000
 RMSDP=6.26D-09 MaxDP=2.94D-07 DE=-2.64D-11 OVMax= 5.20D-07

 SCF Done:  E(RB3LYP) =  -959.656834622     A.U. after   15 cycles
            NFock= 15  Conv=0.63D-08     -V/T= 2.0092
 KE= 9.509274305391D+02 PE=-5.736240965036D+03 EE= 2.071770410826D+03
 Leave Link  502 at Mon Feb 26 00:51:50 2024, MaxMem=  7516192768 cpu:             457.0 elap:              11.5
 (Enter /public/apps/g16-C01//g16/l601.exe)
 Copying SCF densities to generalized density rwf, IOpCl= 0 IROHF=0.

 **********************************************************************

            Population analysis using the SCF Density.

 **********************************************************************

 Alpha  occ. eigenvalues --  -19.16654 -19.16652 -14.29823 -14.29821 -10.27120
 Alpha  occ. eigenvalues --  -10.27120 -10.23490 -10.23489 -10.21139 -10.21138
 Alpha  occ. eigenvalues --  -10.20184 -10.20180 -10.19387 -10.19382 -10.19099
 Alpha  occ. eigenvalues --  -10.19067 -10.18424 -10.18423 -10.16955 -10.16953
 Alpha  occ. eigenvalues --  -10.15537 -10.15534  -1.08533  -1.08525  -0.90317
 Alpha  occ. eigenvalues --   -0.90143  -0.86833  -0.81366  -0.80428  -0.77756
 Alpha  occ. eigenvalues --   -0.76114  -0.73265  -0.72073  -0.67916  -0.67861
 Alpha  occ. eigenvalues --   -0.64654  -0.64536  -0.62755  -0.61932  -0.58326
 Alpha  occ. eigenvalues --   -0.56767  -0.56344  -0.54816  -0.53050  -0.50395
 Alpha  occ. eigenvalues --   -0.49946  -0.49207  -0.48785  -0.47998  -0.46652
 Alpha  occ. eigenvalues --   -0.45331  -0.45309  -0.43532  -0.43248  -0.43033
 Alpha  occ. eigenvalues --   -0.42689  -0.41954  -0.41580  -0.40774  -0.39454
 Alpha  occ. eigenvalues --   -0.39016  -0.38676  -0.38572  -0.38271  -0.37385
 Alpha  occ. eigenvalues --   -0.37102  -0.36707  -0.35426  -0.35335  -0.33887
 Alpha  occ. eigenvalues --   -0.33866  -0.33627  -0.33602  -0.32537  -0.32431
 Alpha  occ. eigenvalues --   -0.27537  -0.27456  -0.27032  -0.26858  -0.23862
 Alpha  occ. eigenvalues --   -0.23776
 Alpha virt. eigenvalues --   -0.04855  -0.03640   0.03817   0.05649   0.05861
 Alpha virt. eigenvalues --    0.07287   0.07504   0.08107   0.08164   0.08486
 Alpha virt. eigenvalues --    0.09340   0.09874   0.09909   0.11515   0.12168
 Alpha virt. eigenvalues --    0.12576   0.12778   0.13234   0.13738   0.14175
 Alpha virt. eigenvalues --    0.14207   0.15277   0.15902   0.16222   0.16260
 Alpha virt. eigenvalues --    0.16337   0.16576   0.17822   0.18169   0.18581
 Alpha virt. eigenvalues --    0.19164   0.20358   0.20818   0.22926   0.23254
 Alpha virt. eigenvalues --    0.23659   0.23686   0.24352   0.24425   0.25870
 Alpha virt. eigenvalues --    0.25965   0.26725   0.27172   0.28562   0.30013
 Alpha virt. eigenvalues --    0.30350   0.30932   0.33764   0.35388   0.36056
 Alpha virt. eigenvalues --    0.37277   0.37810   0.39801   0.39972   0.41091
 Alpha virt. eigenvalues --    0.41892   0.42759   0.43149   0.43223   0.43771
 Alpha virt. eigenvalues --    0.44375   0.45091   0.45375   0.46521   0.46551
 Alpha virt. eigenvalues --    0.46999   0.47950   0.51076   0.51425   0.51777
 Alpha virt. eigenvalues --    0.52458   0.52505   0.53671   0.55087   0.55385
 Alpha virt. eigenvalues --    0.57690   0.57997   0.58426   0.59054   0.59338
 Alpha virt. eigenvalues --    0.59401   0.60971   0.62252   0.62976   0.63676
 Alpha virt. eigenvalues --    0.64792   0.64847   0.65251   0.65549   0.65813
 Alpha virt. eigenvalues --    0.65838   0.66834   0.67373   0.67480   0.67892
 Alpha virt. eigenvalues --    0.68143   0.68923   0.69166   0.69451   0.69827
 Alpha virt. eigenvalues --    0.69966   0.70587   0.70637   0.71107   0.71286
 Alpha virt. eigenvalues --    0.71720   0.71802   0.71990   0.72160   0.72409
 Alpha virt. eigenvalues --    0.73021   0.73290   0.73675   0.73797   0.74451
 Alpha virt. eigenvalues --    0.74525   0.74985   0.75301   0.76060   0.77012
 Alpha virt. eigenvalues --    0.77793   0.77864   0.79275   0.79702   0.79985
 Alpha virt. eigenvalues --    0.82378   0.83428   0.83801   0.84506   0.86126
 Alpha virt. eigenvalues --    0.86947   0.87258   0.91296   0.91927   0.93663
 Alpha virt. eigenvalues --    0.94140   0.95535   0.97062   0.97529   1.03735
 Alpha virt. eigenvalues --    1.05643   1.06276   1.06965   1.11352   1.11694
 Alpha virt. eigenvalues --    1.12264   1.12967   1.13994   1.14330   1.15378
 Alpha virt. eigenvalues --    1.16225   1.18636   1.19091   1.20978   1.21717
 Alpha virt. eigenvalues --    1.24502   1.27520   1.28886   1.35153   1.35902
 Alpha virt. eigenvalues --    1.36916   1.38438   1.40959   1.43332   1.43865
 Alpha virt. eigenvalues --    1.44903   1.47021   1.47349   1.47441   1.48983
 Alpha virt. eigenvalues --    1.53054   1.56823   1.58724   1.58842   1.61342
 Alpha virt. eigenvalues --    1.62938   1.64534   1.66557   1.69307   1.69722
 Alpha virt. eigenvalues --    1.71918   1.74419   1.76794   1.76871   1.79184
 Alpha virt. eigenvalues --    1.80733   1.80968   1.81862   1.82133   1.84647
 Alpha virt. eigenvalues --    1.85066   1.86377   1.86453   1.87588   1.89679
 Alpha virt. eigenvalues --    1.90035   1.92534   1.93117   1.94096   1.94191
 Alpha virt. eigenvalues --    1.96174   1.96372   1.96470   1.96946   1.99495
 Alpha virt. eigenvalues --    2.01437   2.02381   2.03668   2.05456   2.05757
 Alpha virt. eigenvalues --    2.06554   2.06693   2.09183   2.09760   2.11779
 Alpha virt. eigenvalues --    2.12985   2.15105   2.15269   2.16045   2.17037
 Alpha virt. eigenvalues --    2.17056   2.18017   2.18174   2.21392   2.22393
 Alpha virt. eigenvalues --    2.22949   2.23564   2.23707   2.28661   2.29628
 Alpha virt. eigenvalues --    2.30545   2.32154   2.32902   2.36268   2.40457
 Alpha virt. eigenvalues --    2.42185   2.42397   2.45384   2.45475   2.50609
 Alpha virt. eigenvalues --    2.52122   2.53472   2.54126   2.58023   2.58851
 Alpha virt. eigenvalues --    2.61028   2.62915   2.67831   2.67885   2.70162
 Alpha virt. eigenvalues --    2.70593   2.73379   2.73478   2.74521   2.74717
 Alpha virt. eigenvalues --    2.77560   2.78772   2.87238   2.87263   2.87619
 Alpha virt. eigenvalues --    2.92513   2.93243   2.97946   2.98464   3.02753
 Alpha virt. eigenvalues --    3.09087   3.12131   3.14749   3.25336   3.27608
 Alpha virt. eigenvalues --    3.29082   3.41812   3.48928   3.61244   3.62153
          Condensed to atoms (all electrons):
               1          2          3          4          5          6
     1  C    4.850061   0.400172  -0.052803  -0.053668  -0.001896   0.000120
     2  C    0.400172   4.874642   0.424555   0.359903  -0.045968   0.000897
     3  C   -0.052803   0.424555   4.820162  -0.058083   0.010757  -0.000157
     4  C   -0.053668   0.359903  -0.058083   4.931982   0.334590  -0.063161
     5  C   -0.001896  -0.045968   0.010757   0.334590   4.758289   0.329062
     6  O    0.000120   0.000897  -0.000157  -0.063161   0.329062   7.887016
     7  C   -0.000103   0.000142  -0.001521  -0.070602  -0.107474   0.406982
     8  C    0.000010   0.000129   0.000205   0.020935   0.003740  -0.116445
     9  C   -0.000000   0.000016   0.000004  -0.000069  -0.000431   0.009813
    10  C    0.000000  -0.000000   0.000000   0.000018   0.000005   0.000542
    11  C    0.000000  -0.000000  -0.000000   0.000001   0.000002   0.000011
    12  C    0.000000  -0.000001  -0.000002  -0.000034   0.000028  -0.000037
    13  C   -0.000000   0.000000   0.000000  -0.000000  -0.000000   0.000000
    14  N    0.000000  -0.000000   0.000000  -0.000000   0.000000   0.000000
    15  C   -0.000000   0.000000  -0.000000   0.000000  -0.000000   0.000000
    16  C   -0.000000   0.000000   0.000000   0.000000  -0.000000  -0.000000
    17  C    0.000000  -0.000000  -0.000000  -0.000000   0.000000   0.000000
    18  C   -0.000000   0.000000  -0.000000  -0.000000   0.000000   0.000000
    19  C    0.000000  -0.000000   0.000000  -0.000000   0.000000   0.000000
    20  O    0.000000  -0.000000   0.000000   0.000000   0.000000  -0.000000
    21  C    0.000001  -0.000033  -0.000084  -0.001177   0.000388   0.004879
    22  N    0.006812  -0.076453  -0.008612   0.382018  -0.055946  -0.102928
    23  H    0.368982  -0.020866   0.009339  -0.008074   0.007178  -0.000075
    24  H    0.371122  -0.020908  -0.008120  -0.008199  -0.002107  -0.000008
    25  H    0.368084  -0.013928  -0.004802   0.008376  -0.000144   0.000003
    26  H   -0.031064   0.327759  -0.033837  -0.015804  -0.012721  -0.000007
    27  H   -0.007879  -0.025415   0.372938  -0.005586   0.000081   0.000002
    28  H   -0.004408  -0.021727   0.369120   0.008950  -0.000307   0.000007
    29  H    0.008946  -0.016390   0.370849  -0.016503   0.001660   0.000106
    30  H   -0.007751  -0.030913  -0.010146   0.334825  -0.026120   0.003132
    31  H   -0.003454  -0.008469   0.000627  -0.015185   0.353928  -0.029406
    32  H    0.000736   0.003807  -0.000489   0.005487   0.340184  -0.028728
    33  H    0.000000  -0.000002   0.000001   0.000062  -0.000090   0.014427
    34  H   -0.000000   0.000000  -0.000000  -0.000000  -0.000000  -0.000019
    35  H    0.000000  -0.000000   0.000000   0.000000   0.000000   0.000000
    36  H   -0.000000   0.000000  -0.000000   0.000000  -0.000000   0.000000
    37  H    0.000000  -0.000000  -0.000000  -0.000000  -0.000000   0.000000
    38  H   -0.000000   0.000000  -0.000000  -0.000000  -0.000000  -0.000000
    39  H   -0.000000  -0.000000   0.000000   0.000000   0.000000  -0.000000
    40  H   -0.000000   0.000000  -0.000000   0.000000  -0.000000  -0.000000
    41  H    0.000000   0.000000  -0.000000  -0.000000  -0.000000  -0.000000
    42  H    0.000000  -0.000000   0.000000   0.000000  -0.000000  -0.000000
    43  H    0.000000   0.000000   0.000000  -0.000000  -0.000000  -0.000000
    44  H   -0.000000   0.000000   0.000000   0.000000  -0.000000  -0.000000
    45  H    0.000000  -0.000000  -0.000000   0.000000  -0.000000  -0.000000
    46  H    0.000003  -0.000084  -0.000021  -0.000718   0.000231   0.000418
               7          8          9         10         11         12
     1  C   -0.000103   0.000010  -0.000000   0.000000   0.000000   0.000000
     2  C    0.000142   0.000129   0.000016  -0.000000  -0.000000  -0.000001
     3  C   -0.001521   0.000205   0.000004   0.000000  -0.000000  -0.000002
     4  C   -0.070602   0.020935  -0.000069   0.000018   0.000001  -0.000034
     5  C   -0.107474   0.003740  -0.000431   0.000005   0.000002   0.000028
     6  O    0.406982  -0.116445   0.009813   0.000542   0.000011  -0.000037
     7  C    5.104782   0.111691  -0.107640   0.019950  -0.001386   0.025340
     8  C    0.111691   5.667154   0.143658   0.171724  -0.203333   0.158003
     9  C   -0.107640   0.143658   5.451791   0.132931   0.182265  -0.203327
    10  C    0.019950   0.171724   0.132931   5.276641   0.132925   0.171716
    11  C   -0.001386  -0.203333   0.182265   0.132925   5.451831   0.143675
    12  C    0.025340   0.158003  -0.203327   0.171716   0.143675   5.667320
    13  C   -0.001345   0.025333  -0.001387   0.019958  -0.107650   0.111635
    14  N   -0.000076   0.001042   0.000042  -0.000102   0.007648  -0.140419
    15  C   -0.000000  -0.000035   0.000001   0.000018  -0.000063   0.020991
    16  C    0.000000  -0.000001  -0.000000  -0.000000   0.000016   0.000101
    17  C   -0.000000   0.000000   0.000000   0.000000  -0.000000   0.000010
    18  C    0.000000  -0.000002  -0.000000   0.000000   0.000004   0.000213
    19  C   -0.000000   0.000028   0.000002   0.000005  -0.000434   0.003745
    20  O    0.000000  -0.000037   0.000011   0.000542   0.009815  -0.116489
    21  C   -0.090105   0.152591   0.097803  -0.185854   0.097776   0.152497
    22  N    0.649352  -0.140373   0.007649  -0.000102   0.000042   0.001044
    23  H    0.000049   0.000002   0.000000   0.000000  -0.000000   0.000000
    24  H    0.000032  -0.000001  -0.000000  -0.000000  -0.000000  -0.000000
    25  H   -0.000001  -0.000001   0.000000  -0.000000  -0.000000  -0.000000
[...]
 0000071,0.00000169,0.00000624,-0.00000414,-0.00012113,0.00009680,-0.00
 010717,0.00054118,0.00073489,-0.00018736,-0.00030031,0.00000520,-0.000
 24908,0.00024854,0.00020139,-0.00013157,-0.00007662,0.00000717,0.00003
 429,0.00027085,-0.00266099,0.00259447,-0.00608392,0.01678633,-0.022644
 63,0.07843578,-0.00000176,0.00000575,0.00000801,0.00000517,-0.00001063
 ,-0.00001169,-0.00000068,-0.00000196,0.00000760,-0.00002963,-0.0000140
 4,0.00001066,-0.00002896,-0.00002031,0.00000204,0.00007507,0.00003666,
 -0.00000901,-0.00012132,-0.00007755,0.00001624,0.00001368,0.00000019,-
 0.00000177,0.00002531,-0.00004708,-0.00000332,0.00005061,0.00001534,-0
 .00000477,0.00003116,0.00002110,-0.00000372,-0.00000138,-0.00000497,-0
 .00000335,-0.00046075,0.00032398,0.00002512,-0.00004075,-0.00000068,0.
 00001451,-0.00414830,-0.00377049,-0.00176323,0.00983404,-0.01727492,0.
 02061913,0.00149729,0.00091095,0.00001106,0.05280532,-0.14516277,0.114
 05634,0.00090796,-0.00002697,0.00122763,0.00019259,-0.00087476,-0.0000
 1457,0.00002694,-0.00004890,-0.00000389,0.00006397,0.00006905,-0.00000
 875,-0.00000254,-0.00000021,-0.00000059,0.00000086,0.00000033,-0.00000
 316,0.00000461,0.00000312,0.00000155,-0.00000217,0.00000260,-0.0000025
 2,0.00000328,0.00000194,-0.00000530,0.00000186,0.00000494,0.00000209,0
 .00000087,-0.00000866,-0.00000121,0.00001615,0.00000588,-0.00000912,0.
 00000574,0.00000219,0.00000247,0.00000709,0.00000048,-0.00000266,0.000
 00189,-0.00000602,0.00000025,0.00000746,-0.00001156,0.00000050,-0.0000
 1250,0.00003550,0.00000156,-0.00004601,0.00017260,0.00012457,0.0006223
 9,0.00067622,-0.00034920,-0.00079449,0.00046703,-0.00019418,0.00009707
 ,0.00017059,-0.00041997,-0.00007859,0.00000786,-0.00006760,-0.00602299
 ,0.01092898,-0.01062560,0.00110676,-0.00364355,0.00339880,-0.05541713,
 0.15741299,0.00000111,-0.00000122,-0.00000449,-0.00000195,0.00000366,0
 .00000578,0.00000532,0.00000303,-0.00000457,0.00002059,0.00000956,-0.0
 0000613,0.00001948,0.00001327,-0.00000078,-0.00005203,-0.00001160,0.00
 000590,0.00007084,0.00002142,-0.00000937,-0.00000305,0.00000401,0.0000
 0254,-0.00001006,0.00001987,0.00000107,-0.00002251,-0.00000634,0.00000
 345,-0.00001620,-0.00001398,0.00000123,0.00000641,0.00000417,0.0000003
 3,0.00010053,-0.00020109,0.00003676,-0.00003644,0.00000360,0.00009346,
 0.00037400,0.00003201,0.00088238,0.00023525,-0.00155863,0.00002848,-0.
 00039161,-0.00027353,-0.00006181,-0.06142644,0.11568191,-0.18252805,-0
 .00027161,-0.00016170,0.00014295,-0.00003217,0.00024384,-0.00002930,-0
 .00000833,0.00000979,0.00000296,-0.00004070,-0.00002724,0.00000550,0.0
 0000008,0.00000076,0.00000069,-0.00000049,-0.00000023,0.00000282,-0.00
 000260,-0.00000233,-0.00000185,0.00000155,-0.00000257,0.00000180,-0.00
 000297,-0.00000013,0.00000551,-0.00000132,-0.00000204,-0.00000318,-0.0
 0000052,0.00000364,-0.00000036,-0.00000737,-0.00000257,0.00000518,-0.0
 0000364,-0.00000127,-0.00000248,-0.00000409,0.00000008,0.00000243,-0.0
 0000098,0.00000342,-0.00000072,-0.00000324,0.00000606,0.00000005,0.000
 00390,-0.00001262,-0.00000123,-0.00000352,-0.00025612,0.00049842,0.000
 45233,0.00015631,0.00081206,0.00055711,0.00003511,0.00023385,0.0001679
 0,-0.00023042,0.00017753,-0.00004808,0.00008025,-0.00008416,-0.0090875
 3,0.01725941,-0.01718795,0.00124400,-0.00495956,0.00537669,0.06816085,
 -0.12594686,0.19159863,0.00000200,-0.00000553,-0.00000899,-0.00000451,
 0.00000921,0.00001443,0.00000188,0.00000285,-0.00000675,0.00003777,0.0
 0001532,-0.00001020,0.00003813,0.00002602,0.00000012,-0.00011489,-0.00
 003491,0.00001657,0.00015882,0.00009729,-0.00003917,-0.00014102,0.0000
 2720,-0.00002689,-0.00004633,-0.00000536,0.00000351,-0.00002478,-0.000
 01785,0.00002307,-0.00001347,-0.00009663,-0.00002460,-0.00066541,-0.00
 045047,0.00039925,0.00223768,0.00462713,-0.00229365,-0.00070066,-0.000
 98857,0.00102400,-0.00322348,-0.00399055,-0.01088283,0.00025941,0.0014
 3782,-0.00138311,0.00029392,0.00033038,0.00034246,-0.00013106,0.000223
 95,0.00028139,-0.11249099,-0.02504068,-0.10362638,-0.02778223,0.005895
 47,-0.01948750,0.00000508,0.00021041,0.00010816,-0.00008407,-0.0000754
 8,0.00000893,0.00000133,0.00000182,0.00000103,-0.00000044,-0.00000055,
 0.00000324,-0.00000533,-0.00000472,-0.00000214,0.00000203,-0.00000138,
 0.00000160,-0.00000165,-0.00000086,0.00000457,-0.00000278,-0.00000572,
 -0.00000368,-0.00000169,0.00000818,0.00000311,-0.00001775,-0.00000660,
 0.00000922,-0.00000855,-0.00000292,-0.00000449,-0.00001031,-0.00000143
 ,0.00000423,-0.00000623,0.00000711,0.00000273,-0.00001766,0.00002375,-
 0.00000308,0.00004664,-0.00010352,-0.00004668,-0.00061933,-0.00158068,
 0.00002203,-0.00014487,-0.00020008,0.00073323,0.00009440,-0.00008952,-
 0.00004364,0.00002230,0.00059738,-0.00003059,-0.00003622,0.00013885,0.
 00010049,0.00006100,0.00018154,0.00000869,0.00003481,0.00002856,-0.000
 06904,0.00006033,0.00000469,0.00005072,0.13105275,-0.00000044,0.000002
 31,0.00000239,0.00000101,-0.00000322,-0.00000492,0.00000155,0.00000033
 ,0.00000122,-0.00001031,-0.00000236,-0.00000062,-0.00001194,-0.0000078
 8,-0.00000234,0.00003592,0.00001274,-0.00000590,-0.00004411,-0.0000476
 9,0.00001932,0.00013522,-0.00005102,0.00002171,0.00003332,0.00007575,-
 0.00001589,-0.00005131,0.00001471,0.00000574,0.00003319,0.00008834,0.0
 0000278,0.00059146,0.00035421,-0.00055809,-0.00297889,-0.00616307,0.00
 328586,-0.00226103,0.00104377,-0.00040592,-0.01060935,-0.00367494,-0.0
 2305931,-0.00027950,0.00093999,-0.00184671,-0.00005452,-0.00066294,-0.
 00010052,-0.00003891,0.00009626,0.00013438,-0.02799852,-0.05464126,-0.
 03769736,0.02644191,0.00167515,0.01793875,-0.00017037,-0.00015370,-0.0
 0008682,0.00002159,0.00002424,0.00000487,-0.00000074,-0.00000056,-0.00
 000035,-0.00000020,-0.00000017,-0.00000025,0.00000170,0.00000157,0.000
 00062,0.00000006,-0.00000063,0.00000073,-0.00000134,-0.00000048,0.0000
 0042,0.00000146,0.00000220,0.00000130,0.00000046,-0.00000212,-0.000002
 96,0.00000410,0.00000110,-0.00000137,0.00000294,0.00000073,0.00000193,
 0.00000291,0.00000128,-0.00000109,0.00000257,0.00000088,0.00000268,0.0
 0000618,-0.00000852,-0.00000018,-0.00001336,0.00004655,0.00004226,-0.0
 0293043,-0.00383533,0.00010601,-0.00014598,-0.00003202,0.00087298,0.00
 008971,0.00022109,0.00006803,0.00073169,-0.00067046,-0.00014340,-0.000
 11619,0.00020157,0.00002703,0.00004501,0.00018329,0.00013469,0.0000568
 8,0.00001790,-0.00003413,0.00003327,0.00001465,0.00004537,0.01674679,0
 .06194978,0.00000136,-0.00000239,-0.00000487,-0.00000164,0.00000482,0.
 00000599,0.00000217,0.00000234,-0.00000351,0.00002291,0.00000858,-0.00
 000727,0.00002346,0.00001476,-0.00000336,-0.00006527,-0.00001360,0.000
 00867,0.00009546,0.00003331,-0.00001106,-0.00001885,0.00000522,0.00003
 609,-0.00001697,0.00002479,0.00000025,-0.00002669,-0.00002281,0.000017
 09,-0.00000332,-0.00001760,0.00000372,-0.00007055,-0.00000189,-0.00024
 892,0.00200060,0.00031465,-0.00073640,-0.00047276,0.00018043,-0.000418
 93,0.00179090,-0.00205468,0.00093335,-0.00069579,0.00182585,0.00087833
 ,-0.00052569,-0.00012006,0.00013380,0.00018273,0.00010756,0.00036584,-
 0.10911376,-0.03491775,-0.23984814,-0.00186329,0.00417963,0.01104895,0
 .00001579,0.00002574,-0.00000196,-0.00004922,-0.00003544,0.00000779,0.
 00000004,0.00000161,0.00000048,-0.00000036,-0.00000076,0.00000263,-0.0
 0000275,-0.00000270,-0.00000150,0.00000136,-0.00000166,0.00000192,-0.0
 0000131,-0.00000061,0.00000368,-0.00000093,-0.00000245,-0.00000249,-0.
 00000173,0.00000415,0.00000070,-0.00000973,-0.00000380,0.00000583,-0.0
 0000448,-0.00000192,-0.00000257,-0.00000569,-0.00000014,0.00000329,-0.
 00000376,0.00000313,-0.00000376,-0.00000925,0.00001183,-0.00000453,0.0
 0000978,-0.00006953,-0.00001027,-0.00054485,-0.00000723,0.00086782,0.0
 0021560,-0.00050143,0.00065804,0.00021904,0.00017159,0.00000581,0.0006
 2315,0.00019065,0.00003648,0.00008299,0.00018739,0.00003710,0.00003984
 ,0.00014791,-0.00014625,0.00004467,0.00005294,-0.00005460,-0.00005091,
 -0.00010000,0.00002919,0.12091869,0.03531605,0.24560488,0.00000147,-0.
 00000609,-0.00000903,-0.00000424,0.00000857,0.00001779,0.00000004,0.00
 000166,-0.00000631,0.00003734,0.00001435,-0.00000446,0.00003739,0.0000
 2573,0.00000174,-0.00011608,-0.00003556,0.00000944,0.00015361,0.000098
 02,0.00000204,-0.00013268,-0.00000553,0.00005813,-0.00004106,0.0000020
 0,0.00000619,-0.00002958,-0.00000735,-0.00001579,-0.00000900,-0.000117
 11,0.00005037,-0.00086541,-0.00079578,-0.00027488,0.00027319,0.0048000
 1,0.00198316,-0.00137259,-0.00113664,0.00010510,-0.00299337,-0.0028173
 7,0.00834981,-0.00084436,-0.00088136,-0.00085703,-0.00019046,-0.000162
 29,0.00011559,0.00022414,-0.00003679,0.00049167,-0.12685136,-0.0311537
 5,0.11403572,-0.02583391,0.00096715,0.01844040,-0.00015789,0.00028498,
 -0.00008919,-0.00008478,-0.00007133,-0.00000752,0.00000170,0.00000178,
 0.00000143,0.00000022,0.00000026,0.00000181,-0.00000572,-0.00000538,-0
 .00000218,0.00000093,0.00000085,-0.00000116,0.00000104,0.00000060,0.00
 000160,-0.00000448,-0.00000707,-0.00000414,-0.00000092,0.00000762,0.00
 000704,-0.00001546,-0.00000472,0.00000660,-0.00001032,-0.00000288,-0.0
 0000570,-0.00000885,-0.00000145,0.00000334,-0.00000590,0.00000829,-0.0
 0000182,-0.00001763,0.00002413,0.00000469,0.00005037,-0.00008617,0.000
 02623,0.00086325,0.00049270,-0.00031147,-0.00004947,0.00013746,0.00020
 935,0.00006283,0.00000247,-0.00002434,0.00012626,0.00003411,-0.0001486
 3,0.00002831,-0.00001446,0.00000403,0.00004095,0.00003732,-0.00004497,
 0.00001060,0.00009020,-0.00004488,-0.00007310,-0.00015634,-0.00001273,
 0.01183104,0.00267902,-0.01276073,0.14592791,-0.00000037,0.00000201,0.
 00000138,0.00000142,-0.00000326,-0.00000162,0.00000150,0.00000047,0.00
 000102,-0.00000341,0.,0.00000206,-0.00000435,-0.00000459,0.00000235,0.
 00001915,0.00001560,0.00000027,-0.00001862,-0.00005503,-0.00001432,0.0
 0014049,0.00001551,-0.00004843,0.00001550,0.00007109,0.00001080,-0.000
 04806,0.00001569,0.00000467,-0.00001374,0.00008219,-0.00000122,0.00088
 141,0.00071429,0.00040303,-0.00233753,-0.00773008,-0.00188171,-0.00343
 154,-0.00063643,0.00092256,-0.01261016,-0.00111715,0.02095692,-0.00243
 638,-0.00217390,-0.00057704,0.00002078,0.00020536,0.00007944,0.0005767
 8,-0.00039010,0.00036122,-0.03690734,-0.05927335,0.04928905,0.02590546
 ,0.00339620,-0.01883179,-0.00005976,-0.00023810,0.00009288,0.00000634,
 0.00002191,-0.00000209,-0.00000093,0.00000017,0.00000002,0.00000032,0.
 00000004,-0.00000059,0.00000074,0.00000028,0.00000012,-0.00000065,0.00
 000102,-0.00000080,0.00000135,0.00000074,-0.00000145,-0.00000093,0.000
 00046,-0.00000009,0.00000068,-0.00000177,0.00000164,0.00000382,0.00000
 108,-0.00000206,0.00000140,0.00000127,0.00000013,0.00000142,0.00000064
 ,-0.00000049,0.00000211,0.00000310,-0.00000462,0.00000427,-0.00000476,
 0.00000015,-0.00002456,0.00005350,-0.00003214,0.00026822,0.00127267,-0
 .00004019,-0.00006349,0.00011323,-0.00019910,0.00011198,-0.00001497,-0
 .00007026,0.00020730,-0.00007408,0.00019438,0.00002818,-0.00014034,-0.
 00007242,-0.00002321,-0.00006129,-0.00004112,0.00000965,0.00010957,-0.
 00002536,-0.00009585,-0.00027672,0.00003103,0.00204819,0.00297338,-0.0
 0494002,0.02776543,0.06309914,-0.00000075,0.00000183,0.00000338,0.0000
 0047,-0.00000281,-0.00000615,-0.00000088,-0.00000116,0.00000189,-0.000
 01704,-0.00000533,0.00000091,-0.00001913,-0.00001110,-0.00000158,0.000
 04866,0.00000809,-0.00000497,-0.00006806,-0.00002078,0.00000737,0.0000
 2354,-0.00003206,0.00000402,0.00002295,0.00000252,-0.00000019,0.000004
 26,0.00002266,0.00000533,0.00002646,0.00002350,-0.00002004,0.00005139,
 -0.00011422,-0.00010333,-0.00266479,-0.00114547,-0.00007448,-0.0015070
 6,-0.00017483,-0.00010173,-0.00309464,-0.00247839,0.00391805,0.0000882
 7,0.00025083,-0.00010612,0.00054231,0.00017180,0.00022068,-0.00021904,
 0.00011048,0.00023766,0.12202999,0.04544145,-0.23314523,0.00079415,-0.
 00244403,0.00893708,-0.00008467,-0.00001662,0.00002613,0.00003584,0.00
 002245,0.00000405,0.00000002,-0.00000147,-0.00000075,-0.00000018,0.,-0
 .00000105,0.00000224,0.00000267,0.00000134,-0.00000033,-0.00000018,0.0
 0000046,-0.00000084,-0.00000068,-0.00000085,0.00000175,0.00000264,0.00
 000245,0.00000099,-0.00000246,-0.00000293,0.00000517,0.00000126,-0.000
 00240,0.00000423,0.00000108,0.00000330,0.00000334,0.00000051,-0.000002
 16,0.00000167,-0.00000121,-0.00000113,0.00000549,-0.00000838,-0.000003
 54,0.00000474,0.00004611,0.00000230,-0.00037161,0.00023458,0.00162635,
 -0.00006976,-0.00001423,0.00051299,-0.00012984,-0.00014397,0.00003073,
 -0.00009623,-0.00029227,-0.00025653,-0.00001901,0.00012780,0.00004383,
 0.00006175,0.00009724,-0.00001307,-0.00002206,-0.00005273,0.00000093,0
 .00002590,0.00001961,-0.00002181,0.01389682,0.00594479,-0.01916072,-0.
 12928249,-0.04556896,0.23744467,-0.00001030,0.00002123,0.00005013,-0.0
 0003102,-0.00000442,-0.00007612,-0.00008108,0.00002224,0.00008768,-0.0
 0022527,-0.00090590,0.00010614,0.00012924,-0.00011935,-0.00004259,0.00
 121587,-0.00093749,-0.00020149,-0.00020220,0.00203867,-0.00039465,0.00
 505671,0.02661280,0.00012321,-0.00461863,0.00145655,0.00126650,-0.0008
 0067,-0.00000031,0.00001085,-0.00461721,-0.00146576,0.00125829,0.00506
 731,-0.02660722,-0.00002527,-0.00020162,-0.00203601,-0.00040623,-0.000
 12403,-0.00042213,0.00001451,-0.00022560,0.00090508,0.00011133,-0.0000
 3103,0.00000483,-0.00007608,-0.00001029,-0.00002153,0.00005000,-0.0000
 8106,-0.00002278,0.00008752,0.00012912,0.00011966,-0.00004200,0.001215
 60,0.00093913,-0.00019625,-0.05680667,0.00005520,0.00160388,-0.0001233
 7,0.00042096,0.00001695,-0.00000080,-0.00001125,-0.00000795,-0.0000004
 6,-0.00000011,-0.00001343,0.00003027,0.00002654,0.00001423,-0.00000637
 ,0.00000660,0.00000250,0.00001044,0.00000130,-0.00001927,0.00004900,0.
 00004346,0.00002045,-0.00000117,-0.00017764,-0.00011149,0.00000352,0.0
 0003483,-0.00005027,0.00005442,-0.00001772,0.00002962,0.00004602,-0.00
 005687,-0.00001436,0.00016948,0.00140297,-0.00000163,0.00003370,0.0000
 0032,-0.00010992,0.00016998,-0.00140272,-0.00000942,0.00000356,-0.0000
 3455,-0.00005047,-0.00000635,-0.00000662,0.00000247,0.00003028,-0.0000
 2660,0.00001408,-0.00000081,0.00001129,-0.00000788,-0.00000045,0.00000
 019,-0.00001343,0.00001044,-0.00000119,-0.00001927,-0.00000144,0.00017
 854,-0.00011027,0.00004901,-0.00004355,0.00002019,0.00005440,0.0000175
 2,0.00002975,0.00004601,0.00005700,-0.00001402,0.05463351,0.00001225,-
 0.00004205,-0.00001332,0.00000102,0.00008067,0.00001279,-0.00005891,-0
 .00000112,0.00002164,0.00006645,0.00027369,-0.00000101,-0.00012530,-0.
 00000345,0.00001142,0.00012853,-0.00006968,-0.00002315,-0.00069190,-0.
 00099812,0.00009232,-0.00046532,-0.00941472,0.00002532,0.00199365,0.00
 074116,-0.00024379,-0.00000047,0.00059631,0.00000365,-0.00200281,0.000
 73729,0.00021252,0.00047089,-0.00944162,-0.00010823,0.00069482,-0.0010
 0005,-0.00007586,0.00149232,-0.00008844,-0.00017276,-0.00006671,0.0002
 7465,0.00000398,-0.00000099,0.00008084,-0.00001257,-0.00001222,-0.0000
 4222,0.00001314,0.00005919,-0.00000111,-0.00002158,0.00012543,-0.00000
 326,-0.00001247,-0.00012741,-0.00006886,0.00002230,0.00005497,-0.34741
 699,-0.00084822,-0.00149269,-0.00008985,0.00017153,0.00001678,-0.00000
 212,-0.00000094,-0.00000371,0.00000265,0.00000342,-0.00001381,-0.00000
 403,-0.00000242,0.00000677,-0.00001325,0.00000390,-0.00000189,-0.00000
 621,0.00000614,0.00002582,-0.00000812,-0.00000044,-0.00002151,-0.00001
 298,-0.00005448,-0.00003278,0.00000140,0.00002310,-0.00001415,0.000014
 56,-0.00000331,-0.00002053,0.00002528,0.00000075,-0.00018250,-0.000348
 22,0.00000883,0.00000033,-0.00005885,0.00000239,0.00018270,-0.00034955
 ,-0.00001165,0.00003257,0.00000150,-0.00002303,-0.00000669,-0.00001316
 ,-0.00000384,0.00001385,-0.00000407,0.00000242,-0.00001683,-0.00000213
 ,0.00000091,0.00000366,0.00000271,-0.00000338,0.00000169,-0.00000604,-
 0.00000607,0.00002160,-0.00001363,0.00005400,-0.00002575,-0.00000819,0
 .00000046,0.00001409,0.00001461,0.00000355,0.00002069,0.00002531,-0.00
 000058,-0.00005519,0.36665948,-0.00000087,-0.00001504,-0.00001132,-0.0
 0001320,0.00001788,0.00004020,-0.00004940,-0.00002178,-0.00000283,0.00
 000980,0.00012127,-0.00024319,-0.00001504,0.00000347,0.00017985,-0.000
 10802,0.00011669,0.00006159,-0.00049481,-0.00033341,-0.00399388,0.0000
 6347,-0.00306323,0.00539385,0.00125228,-0.00021590,0.00641463,0.000054
 10,0.00000363,-0.00070616,0.00124119,0.00018479,0.00641700,0.00006508,
 0.00298096,0.00541067,-0.00049101,0.00035006,-0.00399267,-0.00002243,-
 0.00002729,0.00012988,0.00000942,-0.00011841,-0.00024391,-0.00001319,-
 0.00001763,0.00004004,-0.00000095,0.00001484,-0.00001116,-0.00004902,0
 .00002175,-0.00000286,-0.00001439,-0.00000454,0.00017977,-0.00010878,-
 0.00011750,0.00006108,0.00162068,-0.00084848,-0.04349487,-0.00003062,0
 .00002510,0.00013123,0.00000922,0.00000033,0.00000074,0.00000776,0.000
 00705,-0.00000596,-0.00000496,-0.00000419,-0.00000339,-0.00001249,0.00
 001274,-0.00002365,0.00003134,0.00002125,-0.00001895,-0.00000620,-0.00
 000627,-0.00000946,0.00000270,-0.00003619,0.00003883,0.00003933,-0.000
 00339,-0.00001337,0.00001103,0.00001404,-0.00002656,-0.00002394,-0.000
 00265,-0.00000513,0.00000209,-0.00016162,0.00015714,-0.00011061,0.0000
 0238,-0.00092276,0.00000305,0.00015882,0.00015799,0.00003952,0.0000035
 1,-0.00001351,-0.00001251,-0.00001269,-0.00002375,-0.00000488,0.000004
 19,-0.00000335,0.00000912,-0.00000034,0.00000074,0.00000779,-0.0000069
 9,-0.00000602,0.00003135,-0.00002114,-0.00001910,0.00000261,0.00003609
 ,0.00003948,-0.00000637,0.00000628,-0.00000942,0.00001111,-0.00001379,
 -0.00002662,-0.00002383,0.00000280,-0.00000511,-0.00290654,0.00094256,
 0.02898424\\0.00001234,0.00000332,-0.00000688,-0.00000661,-0.00001805,
 -0.00000247,-0.00000503,0.00001503,-0.00000738,-0.00002073,-0.00000948
 ,0.00001170,0.00003558,-0.00000082,-0.00000470,-0.00002391,0.00002049,
 -0.00000069,0.00002900,-0.00003477,0.00000958,-0.00000555,0.00001325,-
 0.00000201,-0.00000221,-0.00000814,-0.00000279,0.00000017,0.00000004,0
 .00000011,0.00000237,-0.00000827,0.00000343,0.00000514,0.00001294,0.00
 000217,-0.00002718,-0.00003571,-0.00001204,0.00000048,0.00002331,0.000
 00867,0.00001772,-0.00000782,-0.00001377,0.00000557,-0.00001776,0.0000
 0416,-0.00001092,0.00000260,0.00000569,0.00000628,0.00001722,0.0000061
 0,-0.00003281,0.00000128,0.00000714,0.00002307,0.00001953,0.00000244,0
 .00000019,-0.00000273,-0.00000060,0.00000025,0.00002652,-0.00000683,-0
 .00000043,-0.00000165,0.00000050,-0.00000270,-0.00000010,-0.00000117,-
 0.00000445,-0.00000278,0.00000253,-0.00000160,-0.00000226,0.00000079,0
 .00000182,-0.00000004,0.00000042,0.00000041,-0.00000391,0.00000143,-0.
 00000102,-0.00000335,0.00000123,0.00000072,0.00000575,0.00000119,-0.00
 000241,0.00000227,0.00000223,-0.00000305,-0.00000278,0.00000257,0.0000
 0134,0.00000239,0.00000085,0.00000002,0.00000009,0.00000010,-0.0000013
 7,0.00000241,-0.00000093,-0.00000029,0.00000488,-0.00000011,0.00000115
 ,-0.00000172,-0.00000079,0.00000420,-0.00000246,-0.00000277,0.00000055
 ,-0.00000333,-0.00000037,0.00000296,-0.00000049,0.00000089,-0.00000232
 ,-0.00000018,-0.00000033,-0.00000029,-0.00000310,-0.00000100,-0.000000
 78,-0.00000344,-0.00000161,0.00000156,0.00000388,-0.00000373,0.0000026
 6,-0.00000269,-0.00000307,0.00000012,0.00000059,0.00000012\\\@
 The archive entry for this job was punched.


 OLD HORSE! OLD HORSE! WHAT BROUGHT YOU HERE?
 FROM SACARAP' TO PORTLAND PIER
 I'VE CARTED STONE THIS MANY A YEAR;
 TILL, KILLED BY BLOWS AND SORE ABUSE,
 THEY SALTED ME DOWN FOR SAILORS' USE.
 THE SAILORS THEY DO ME DESPISE;
 THEY TURN ME OVER AND DAMN MY EYES;
 CUT OFF MY MEAT, AND SCRAPE MY BONES,
 AND PITCH ME OVER TO DAVY JONES.

    SAILORS' COMPLAINT ABOUT THE BEEF
    SERVED ON SHIPBOARD, CIRCA 1835.
 Job cpu time:       0 days  1 hours 24 minutes  5.1 seconds.
 Elapsed time:       0 days  0 hours  2 minutes  8.0 seconds.
 File lengths (MBytes):  RWF=    706 Int=      0 D2E=      0 Chk=     13 Scr=      1
 Normal termination of Gaussian 16 at Mon Feb 26 00:56:40 2024.
