 Entering Gaussian System, Link 0=g16
 Initial command:
 /public/apps/g16-C01//g16/l1.exe "/public/home/ljq/tmp/Gau-37036.inp" -scrdir="/public/home/ljq/tmp/"
 Entering Link 1 = /public/apps/g16-C01//g16/l1.exe PID=     37037.
  
 Copyright (c) 1988-2019, Gaussian, Inc.  All Rights Reserved.
  
 This is part of the Gaussian(R) 16 program.  It is based on
 the Gaussian(R) 09 system (copyright 2009, Gaussian, Inc.),
 the Gaussian(R) 03 system (copyright 2003, Gaussian, Inc.),
 the Gaussian(R) 98 system (copyright 1998, Gaussian, Inc.),
 the Gaussian(R) 94 system (copyright 1995, Gaussian, Inc.),
 the Gaussian 92(TM) system (copyright 1992, Gaussian, Inc.),
 the Gaussian 90(TM) system (copyright 1990, Gaussian, Inc.),
 the Gaussian 88(TM) system (copyright 1988, Gaussian, Inc.),
 the Gaussian 86(TM) system (copyright 1986, Carnegie Mellon
 University), and the Gaussian 82(TM) system (copyright 1983,
 Carnegie Mellon University). Gaussian is a federally registered
 trademark of Gaussian, Inc.
  
 This software contains proprietary and confidential information,
 including trade secrets, belonging to Gaussian, Inc.
  
 This software is provided under written license and may be
 used, copied, transmitted, or stored only in accord with that
 written license.
  
 The following legend is applicable only to US Government
 contracts under FAR:
  
                    RESTRICTED RIGHTS LEGEND
  
 Use, reproduction and disclosure by the US Government is
 subject to restrictions as set forth in subparagraphs (a)
 and (c) of the Commercial Computer Software - Restricted
 Rights clause in FAR 52.227-19.
  
 Gaussian, Inc.
 340 Quinnipiac St., Bldg. 40, Wallingford CT 06492
  
  
 ---------------------------------------------------------------
 Warning -- This program may not be used in any manner that
 competes with the business of Gaussian, Inc. or will provide
 assistance to any competitor of Gaussian, Inc.  The licensee
 of this program is prohibited from giving any competitor of
 Gaussian, Inc. access to this program.  By using this program,
 the user acknowledges that Gaussian, Inc. is engaged in the
 business of creating and licensing software in the field of
 computational chemistry and represents and warrants to the
 licensee that it is not a competitor of Gaussian, Inc. and that
 it will not use this program in any manner prohibited above.
 ---------------------------------------------------------------
  

 Cite this work as:
 Gaussian 16, Revision C.01,
 M. J. Frisch, G. W. Trucks, H. B. Schlegel, G. E. Scuseria, 
 M. A. Robb, J. R. Cheeseman, G. Scalmani, V. Barone, 
 G. A. Petersson, H. Nakatsuji, X. Li, M. Caricato, A. V. Marenich, 
 J. Bloino, B. G. Janesko, R. Gomperts, B. Mennucci, H. P. Hratchian, 
 J. V. Ortiz, A. F. Izmaylov, J. L. Sonnenberg, D. Williams-Young, 
 F. Ding, F. Lipparini, F. Egidi, J. Goings, B. Peng, A. Petrone, 
 T. Henderson, D. Ranasinghe, V. G. Zakrzewski, J. Gao, N. Rega, 
 G. Zheng, W. Liang, M. Hada, M. Ehara, K. Toyota, R. Fukuda, 
 J. Hasegawa, M. Ishida, T. Nakajima, Y. Honda, O. Kitao, H. Nakai, 
 T. Vreven, K. Throssell, J. A. Montgomery, Jr., J. E. Peralta, 
 F. Ogliaro, M. J. Bearpark, J. J. Heyd, E. N. Brothers, K. N. Kudin, 
 V. N. Staroverov, T. A. Keith, R. Kobayashi, J. Normand, 
 K. Raghavachari, A. P. Rendell, J. C. Burant, S. S. Iyengar, 
 J. Tomasi, M. Cossi, J. M. Millam, M. Klene, C. Adamo, R. Cammi, 
 J. W. Ochterski, R. L. Martin, K. Morokuma, O. Farkas, 
 J. B. Foresman, and D. J. Fox, Gaussian, Inc., Wallingford CT, 2019.
 
 ******************************************
 Gaussian 16:  ES64L-G16RevC.01  3-Jul-2019
                25-Feb-2024 
 ******************************************
 %nproc=40
 Will use up to   40 processors via shared memory.
 %mem=56GB
 ------------------------------------------
 #p opt freq b3lyp/def2svpp em=gd3bj nosymm
 ------------------------------------------
 1/18=20,19=15,26=3,38=1/1,3;
 2/9=110,12=2,15=1,17=6,18=5,40=1/2;
 3/5=43,7=202,11=2,25=1,30=1,71=1,74=-5,124=41/1,2,3;
 4//1;
 5/5=2,38=5/2;
 6/7=2,8=2,9=2,10=2,28=1/1;
 7/30=1/1,2,3,16;
 1/18=20,19=15,26=3/3(2);
 2/9=110,15=1/2;
 99//99;
 2/9=110,15=1/2;
 3/5=43,7=202,11=2,25=1,30=1,71=1,74=-5,124=41/1,2,3;
 4/5=5,16=3,69=1/1;
 5/5=2,38=5/2;
 7/30=1/1,2,3,16;
 1/18=20,19=15,26=3/3(-5);
 2/9=110,15=1/2;
 6/7=2,8=2,9=2,10=2,19=2,28=1/1;
 99/9=1/99;
 Leave Link    1 at Sun Feb 25 08:52:17 2024, MaxMem=  7516192768 cpu:               2.4 elap:               0.1
 (Enter /public/apps/g16-C01//g16/l101.exe)
 ----------------------
 $$$$Singlemol####0????
 ----------------------
 Symbolic Z-matrix:
 Charge =  0 Multiplicity = 1
 C                    -3.93231  -1.52343  -0.88006 
 C                    -2.7847   -0.99331  -1.44397 
 C                    -1.54716  -1.27106  -0.89376 
 C                    -1.44747  -2.08579   0.2279 
 C                    -0.08914  -2.40088   0.80724 
 C                     0.78526  -3.2347   -0.17544 
 O                     1.83569  -2.35045  -0.54346 
 C                     1.65231  -1.21704   0.17189 
 C                     2.60629  -0.07554  -0.01538 
 C                     1.7291    1.14414  -0.0374 
 N                     0.81487   1.31413  -0.89328 
 C                     0.09483   2.52498  -0.55327 
 C                    -1.32179   2.19003  -0.15344 
 C                    -1.55042   1.31199   0.89955 
 C                    -2.84327   1.01197   1.28675 
 C                    -3.91829   1.57701   0.62272 
 C                    -3.69568   2.44228  -0.43403 
 C                    -2.40221   2.74851  -0.82009 
 C                     0.92285   3.10511   0.62989 
 O                     1.90038   2.10678   0.89515 
 C                     3.40986  -0.18411  -1.32927 
 C                     4.79676   0.33554  -0.96741 
 C                     5.01468  -0.24771   0.42437 
 C                     3.66544  -0.03874   1.1145 
 N                     0.67498  -1.18265   0.97181 
 C                    -2.60057  -2.61125   0.79191 
 C                    -3.83844  -2.33131   0.23963 
 H                    -4.89875  -1.30352  -1.30931 
 H                    -2.85201  -0.35275  -2.31036 
 H                    -0.65682  -0.8318   -1.32004 
 H                    -0.20256  -2.89449   1.77742 
 H                     1.21988  -4.12267   0.29281 
 H                     0.23507  -3.52479  -1.07383 
 H                     0.08807   3.19514  -1.41886 
 H                    -0.71529   0.8414    1.39755 
 H                    -3.01079   0.32584   2.10332 
 H                    -4.92769   1.33885   0.92446 
 H                    -4.53105   2.88143  -0.96016 
 H                    -2.23182   3.42553  -1.64549 
 H                     0.31655   3.25583   1.52592 
 H                     1.43461   4.03689   0.37108 
 H                     2.92848   0.3761   -2.12863 
 H                     3.47096  -1.23103  -1.6249 
 H                     4.79139   1.42576  -0.91871 
 H                     5.55617   0.02242  -1.68237 
 H                     5.23716  -1.313     0.34313 
 H                     5.82845   0.23405   0.96462 
 H                     3.46184  -0.79879   1.86766 
 H                     3.6319    0.93412   1.6019 
 H                    -2.53047  -3.24102   1.66791 
 H                    -4.73132  -2.74398   0.68677 
 
 ITRead=  0  0  0  0  0  0  0  0  0  0  0  0  0  0  0  0  0  0  0  0
 ITRead=  0  0  0  0  0  0  0  0  0  0  0  0  0  0  0  0  0  0  0  0
 ITRead=  0  0  0  0  0  0  0  0  0  0  0
 MicOpt= -1 -1 -1 -1 -1 -1 -1 -1 -1 -1 -1 -1 -1 -1 -1 -1 -1 -1 -1 -1
 MicOpt= -1 -1 -1 -1 -1 -1 -1 -1 -1 -1 -1 -1 -1 -1 -1 -1 -1 -1 -1 -1
 MicOpt= -1 -1 -1 -1 -1 -1 -1 -1 -1 -1 -1
 NAtoms=     51 NQM=       51 NQMF=       0 NMMI=      0 NMMIF=      0
                NMic=       0 NMicF=      0.
                    Isotopes and Nuclear Properties:
 (Nuclear quadrupole moments (NQMom) in fm**2, nuclear magnetic moments (NMagM)
  in nuclear magnetons)

  Atom         1           2           3           4           5           6           7           8           9          10
 IAtWgt=          12          12          12          12          12          12          16          12          12          12
 AtmWgt=  12.0000000  12.0000000  12.0000000  12.0000000  12.0000000  12.0000000  15.9949146  12.0000000  12.0000000  12.0000000
 NucSpn=           0           0           0           0           0           0           0           0           0           0
 AtZEff=  -0.0000000  -0.0000000  -0.0000000  -0.0000000  -0.0000000  -0.0000000  -0.0000000  -0.0000000  -0.0000000  -0.0000000
 NQMom=    0.0000000   0.0000000   0.0000000   0.0000000   0.0000000   0.0000000   0.0000000   0.0000000   0.0000000   0.0000000
 NMagM=    0.0000000   0.0000000   0.0000000   0.0000000   0.0000000   0.0000000   0.0000000   0.0000000   0.0000000   0.0000000
 AtZNuc=   6.0000000   6.0000000   6.0000000   6.0000000   6.0000000   6.0000000   8.0000000   6.0000000   6.0000000   6.0000000

  Atom        11          12          13          14          15          16          17          18          19          20
 IAtWgt=          14          12          12          12          12          12          12          12          12          16
 AtmWgt=  14.0030740  12.0000000  12.0000000  12.0000000  12.0000000  12.0000000  12.0000000  12.0000000  12.0000000  15.9949146
 NucSpn=           2           0           0           0           0           0           0           0           0           0
 AtZEff=  -0.0000000  -0.0000000  -0.0000000  -0.0000000  -0.0000000  -0.0000000  -0.0000000  -0.0000000  -0.0000000  -0.0000000
 NQMom=    2.0440000   0.0000000   0.0000000   0.0000000   0.0000000   0.0000000   0.0000000   0.0000000   0.0000000   0.0000000
 NMagM=    0.4037610   0.0000000   0.0000000   0.0000000   0.0000000   0.0000000   0.0000000   0.0000000   0.0000000   0.0000000
 AtZNuc=   7.0000000   6.0000000   6.0000000   6.0000000   6.0000000   6.0000000   6.0000000   6.0000000   6.0000000   8.0000000

  Atom        21          22          23          24          25          26          27          28          29          30
 IAtWgt=          12          12          12          12          14          12          12           1           1           1
 AtmWgt=  12.0000000  12.0000000  12.0000000  12.0000000  14.0030740  12.0000000  12.0000000   1.0078250   1.0078250   1.0078250
 NucSpn=           0           0           0           0           2           0           0           1           1           1
 AtZEff=  -0.0000000  -0.0000000  -0.0000000  -0.0000000  -0.0000000  -0.0000000  -0.0000000  -0.0000000  -0.0000000  -0.0000000
 NQMom=    0.0000000   0.0000000   0.0000000   0.0000000   2.0440000   0.0000000   0.0000000   0.0000000   0.0000000   0.0000000
 NMagM=    0.0000000   0.0000000   0.0000000   0.0000000   0.4037610   0.0000000   0.0000000   2.7928460   2.7928460   2.7928460
 AtZNuc=   6.0000000   6.0000000   6.0000000   6.0000000   7.0000000   6.0000000   6.0000000   1.0000000   1.0000000   1.0000000

  Atom        31          32          33          34          35          36          37          38          39          40
 IAtWgt=           1           1           1           1           1           1           1           1           1           1
 AtmWgt=   1.0078250   1.0078250   1.0078250   1.0078250   1.0078250   1.0078250   1.0078250   1.0078250   1.0078250   1.0078250
 NucSpn=           1           1           1           1           1           1           1           1           1           1
 AtZEff=  -0.0000000  -0.0000000  -0.0000000  -0.0000000  -0.0000000  -0.0000000  -0.0000000  -0.0000000  -0.0000000  -0.0000000
 NQMom=    0.0000000   0.0000000   0.0000000   0.0000000   0.0000000   0.0000000   0.0000000   0.0000000   0.0000000   0.0000000
 NMagM=    2.7928460   2.7928460   2.7928460   2.7928460   2.7928460   2.7928460   2.7928460   2.7928460   2.7928460   2.7928460
 AtZNuc=   1.0000000   1.0000000   1.0000000   1.0000000   1.0000000   1.0000000   1.0000000   1.0000000   1.0000000   1.0000000

  Atom        41          42          43          44          45          46          47          48          49          50
 IAtWgt=           1           1           1           1           1           1           1           1           1           1
 AtmWgt=   1.0078250   1.0078250   1.0078250   1.0078250   1.0078250   1.0078250   1.0078250   1.0078250   1.0078250   1.0078250
 NucSpn=           1           1           1           1           1           1           1           1           1           1
 AtZEff=  -0.0000000  -0.0000000  -0.0000000  -0.0000000  -0.0000000  -0.0000000  -0.0000000  -0.0000000  -0.0000000  -0.0000000
 NQMom=    0.0000000   0.0000000   0.0000000   0.0000000   0.0000000   0.0000000   0.0000000   0.0000000   0.0000000   0.0000000
 NMagM=    2.7928460   2.7928460   2.7928460   2.7928460   2.7928460   2.7928460   2.7928460   2.7928460   2.7928460   2.7928460
 AtZNuc=   1.0000000   1.0000000   1.0000000   1.0000000   1.0000000   1.0000000   1.0000000   1.0000000   1.0000000   1.0000000

  Atom        51
 IAtWgt=           1
 AtmWgt=   1.0078250
 NucSpn=           1
 AtZEff=  -0.0000000
 NQMom=    0.0000000
 NMagM=    2.7928460
 AtZNuc=   1.0000000
 Leave Link  101 at Sun Feb 25 08:52:18 2024, MaxMem=  7516192768 cpu:              14.2 elap:               0.4
 (Enter /public/apps/g16-C01//g16/l103.exe)

 GradGradGradGradGradGradGradGradGradGradGradGradGradGradGradGradGradGrad
 Berny optimization.
 Initialization pass.
                           ----------------------------
                           !    Initial Parameters    !
                           ! (Angstroms and Degrees)  !
 --------------------------                            --------------------------
 ! Name  Definition              Value          Derivative Info.                !
 --------------------------------------------------------------------------------
 ! R1    R(1,2)                  1.3842         estimate D2E/DX2                !
 ! R2    R(1,27)                 1.3839         estimate D2E/DX2                !
 ! R3    R(1,28)                 1.0801         estimate D2E/DX2                !
 ! R4    R(2,3)                  1.3825         estimate D2E/DX2                !
 ! R5    R(2,29)                 1.0796         estimate D2E/DX2                !
 ! R6    R(3,4)                  1.3899         estimate D2E/DX2                !
 ! R7    R(3,30)                 1.0804         estimate D2E/DX2                !
 ! R8    R(4,5)                  1.51           estimate D2E/DX2                !
 ! R9    R(4,26)                 1.387          estimate D2E/DX2                !
 ! R10   R(5,6)                  1.5574         estimate D2E/DX2                !
 ! R11   R(5,25)                 1.4474         estimate D2E/DX2                !
 ! R12   R(5,31)                 1.0944         estimate D2E/DX2                !
 ! R13   R(6,7)                  1.4215         estimate D2E/DX2                !
 ! R14   R(6,32)                 1.0939         estimate D2E/DX2                !
 ! R15   R(6,33)                 1.0927         estimate D2E/DX2                !
 ! R16   R(7,8)                  1.3528         estimate D2E/DX2                !
 ! R17   R(8,9)                  1.4994         estimate D2E/DX2                !
 ! R18   R(8,25)                 1.2634         estimate D2E/DX2                !
 ! R19   R(9,10)                 1.5025         estimate D2E/DX2                !
 ! R20   R(9,21)                 1.544          estimate D2E/DX2                !
 ! R21   R(9,24)                 1.5491         estimate D2E/DX2                !
 ! R22   R(10,11)                1.2638         estimate D2E/DX2                !
 ! R23   R(10,20)                1.3512         estimate D2E/DX2                !
 ! R24   R(11,12)                1.4492         estimate D2E/DX2                !
 ! R25   R(12,13)                1.5096         estimate D2E/DX2                !
 ! R26   R(12,19)                1.5563         estimate D2E/DX2                !
 ! R27   R(12,34)                1.0947         estimate D2E/DX2                !
 ! R28   R(13,14)                1.39           estimate D2E/DX2                !
 ! R29   R(13,18)                1.3869         estimate D2E/DX2                !
 ! R30   R(14,15)                1.3825         estimate D2E/DX2                !
 ! R31   R(14,35)                1.0802         estimate D2E/DX2                !
 ! R32   R(15,16)                1.3842         estimate D2E/DX2                !
 ! R33   R(15,36)                1.0796         estimate D2E/DX2                !
 ! R34   R(16,17)                1.3838         estimate D2E/DX2                !
 ! R35   R(16,37)                1.0801         estimate D2E/DX2                !
 ! R36   R(17,18)                1.3842         estimate D2E/DX2                !
 ! R37   R(17,38)                1.0805         estimate D2E/DX2                !
 ! R38   R(18,39)                1.0811         estimate D2E/DX2                !
 ! R39   R(19,20)                1.4222         estimate D2E/DX2                !
 ! R40   R(19,40)                1.0923         estimate D2E/DX2                !
 ! R41   R(19,41)                1.0941         estimate D2E/DX2                !
 ! R42   R(21,22)                1.5246         estimate D2E/DX2                !
 ! R43   R(21,42)                1.0884         estimate D2E/DX2                !
 ! R44   R(21,43)                1.0896         estimate D2E/DX2                !
 ! R45   R(22,23)                1.5247         estimate D2E/DX2                !
 ! R46   R(22,44)                1.0913         estimate D2E/DX2                !
 ! R47   R(22,45)                1.089          estimate D2E/DX2                !
 ! R48   R(23,24)                1.5298         estimate D2E/DX2                !
 ! R49   R(23,46)                1.0913         estimate D2E/DX2                !
 ! R50   R(23,47)                1.0891         estimate D2E/DX2                !
 ! R51   R(24,48)                1.0892         estimate D2E/DX2                !
 ! R52   R(24,49)                1.0886         estimate D2E/DX2                !
 ! R53   R(26,27)                1.3841         estimate D2E/DX2                !
 ! R54   R(26,50)                1.0812         estimate D2E/DX2                !
 ! R55   R(27,51)                1.0805         estimate D2E/DX2                !
 ! A1    A(2,1,27)             119.7981         estimate D2E/DX2                !
 ! A2    A(2,1,28)             120.1292         estimate D2E/DX2                !
 ! A3    A(27,1,28)            120.072          estimate D2E/DX2                !
 ! A4    A(1,2,3)              120.2022         estimate D2E/DX2                !
 ! A5    A(1,2,29)             120.1644         estimate D2E/DX2                !
 ! A6    A(3,2,29)             119.6307         estimate D2E/DX2                !
 ! A7    A(2,3,4)              120.2078         estimate D2E/DX2                !
 ! A8    A(2,3,30)             119.9296         estimate D2E/DX2                !
 ! A9    A(4,3,30)             119.841          estimate D2E/DX2                !
 ! A10   A(3,4,5)              119.7671         estimate D2E/DX2                !
 ! A11   A(3,4,26)             119.3791         estimate D2E/DX2                !
 ! A12   A(5,4,26)             120.85           estimate D2E/DX2                !
 ! A13   A(4,5,6)              112.006          estimate D2E/DX2                !
 ! A14   A(4,5,25)             110.0534         estimate D2E/DX2                !
 ! A15   A(4,5,31)             109.9387         estimate D2E/DX2                !
 ! A16   A(6,5,25)             103.059          estimate D2E/DX2                !
 ! A17   A(6,5,31)             112.0894         estimate D2E/DX2                !
 ! A18   A(25,5,31)            109.4826         estimate D2E/DX2                !
 ! A19   A(5,6,7)              104.1934         estimate D2E/DX2                !
 ! A20   A(5,6,32)             112.8041         estimate D2E/DX2                !
 ! A21   A(5,6,33)             112.223          estimate D2E/DX2                !
 ! A22   A(7,6,32)             108.7942         estimate D2E/DX2                !
 ! A23   A(7,6,33)             108.9262         estimate D2E/DX2                !
 ! A24   A(32,6,33)            109.6632         estimate D2E/DX2                !
 ! A25   A(6,7,8)              106.5052         estimate D2E/DX2                !
 ! A26   A(7,8,9)              119.0494         estimate D2E/DX2                !
 ! A27   A(7,8,25)             117.547          estimate D2E/DX2                !
 ! A28   A(9,8,25)             123.4035         estimate D2E/DX2                !
 ! A29   A(8,9,10)             104.3816         estimate D2E/DX2                !
 ! A30   A(8,9,21)             112.5749         estimate D2E/DX2                !
 ! A31   A(8,9,24)             111.223          estimate D2E/DX2                !
 ! A32   A(10,9,21)            110.3931         estimate D2E/DX2                !
 ! A33   A(10,9,24)            112.9894         estimate D2E/DX2                !
 ! A34   A(21,9,24)            105.4568         estimate D2E/DX2                !
 ! A35   A(9,10,11)            122.7812         estimate D2E/DX2                !
 ! A36   A(9,10,20)            119.6182         estimate D2E/DX2                !
 ! A37   A(11,10,20)           117.5981         estimate D2E/DX2                !
 ! A38   A(10,11,12)           108.2349         estimate D2E/DX2                !
 ! A39   A(11,12,13)           110.0602         estimate D2E/DX2                !
 ! A40   A(11,12,19)           103.0305         estimate D2E/DX2                !
 ! A41   A(11,12,34)           109.2109         estimate D2E/DX2                !
 ! A42   A(13,12,19)           112.3728         estimate D2E/DX2                !
 ! A43   A(13,12,34)           109.8441         estimate D2E/DX2                !
 ! A44   A(19,12,34)           112.0987         estimate D2E/DX2                !
 ! A45   A(12,13,14)           119.6805         estimate D2E/DX2                !
 ! A46   A(12,13,18)           120.955          estimate D2E/DX2                !
 ! A47   A(14,13,18)           119.3644         estimate D2E/DX2                !
 ! A48   A(13,14,15)           120.2031         estimate D2E/DX2                !
 ! A49   A(13,14,35)           119.8196         estimate D2E/DX2                !
 ! A50   A(15,14,35)           119.9539         estimate D2E/DX2                !
 ! A51   A(14,15,16)           120.2208         estimate D2E/DX2                !
 ! A52   A(14,15,36)           119.6589         estimate D2E/DX2                !
 ! A53   A(16,15,36)           120.1169         estimate D2E/DX2                !
 ! A54   A(15,16,17)           119.7793         estimate D2E/DX2                !
 ! A55   A(15,16,37)           120.1179         estimate D2E/DX2                !
 ! A56   A(17,16,37)           120.1018         estimate D2E/DX2                !
 ! A57   A(16,17,18)           120.1095         estimate D2E/DX2                !
 ! A58   A(16,17,38)           120.1053         estimate D2E/DX2                !
 ! A59   A(18,17,38)           119.7851         estimate D2E/DX2                !
 ! A60   A(13,18,17)           120.3185         estimate D2E/DX2                !
 ! A61   A(13,18,39)           119.7612         estimate D2E/DX2                !
 ! A62   A(17,18,39)           119.9203         estimate D2E/DX2                !
 ! A63   A(12,19,20)           104.2309         estimate D2E/DX2                !
 ! A64   A(12,19,40)           112.3177         estimate D2E/DX2                !
 ! A65   A(12,19,41)           112.7363         estimate D2E/DX2                !
 ! A66   A(20,19,40)           108.9883         estimate D2E/DX2                !
 ! A67   A(20,19,41)           108.6891         estimate D2E/DX2                !
 ! A68   A(40,19,41)           109.6421         estimate D2E/DX2                !
 ! A69   A(10,20,19)           106.5147         estimate D2E/DX2                !
 ! A70   A(9,21,22)            104.3295         estimate D2E/DX2                !
 ! A71   A(9,21,42)            111.0161         estimate D2E/DX2                !
 ! A72   A(9,21,43)            109.1261         estimate D2E/DX2                !
 ! A73   A(22,21,42)           113.6547         estimate D2E/DX2                !
 ! A74   A(22,21,43)           109.9303         estimate D2E/DX2                !
 ! A75   A(42,21,43)           108.6689         estimate D2E/DX2                !
 ! A76   A(21,22,23)           102.491          estimate D2E/DX2                !
 ! A77   A(21,22,44)           110.2798         estimate D2E/DX2                !
 ! A78   A(21,22,45)           112.3665         estimate D2E/DX2                !
 ! A79   A(23,22,44)           110.006          estimate D2E/DX2                !
 ! A80   A(23,22,45)           112.9319         estimate D2E/DX2                !
 ! A81   A(44,22,45)           108.6612         estimate D2E/DX2                !
 ! A82   A(22,23,24)           103.5019         estimate D2E/DX2                !
 ! A83   A(22,23,46)           109.5481         estimate D2E/DX2                !
 ! A84   A(22,23,47)           112.9781         estimate D2E/DX2                !
 ! A85   A(24,23,46)           110.2875         estimate D2E/DX2                !
 ! A86   A(24,23,47)           112.0108         estimate D2E/DX2                !
 ! A87   A(46,23,47)           108.445          estimate D2E/DX2                !
 ! A88   A(9,24,23)            105.7075         estimate D2E/DX2                !
 ! A89   A(9,24,48)            111.0975         estimate D2E/DX2                !
 ! A90   A(9,24,49)            109.0696         estimate D2E/DX2                !
 ! A91   A(23,24,48)           112.4248         estimate D2E/DX2                !
 ! A92   A(23,24,49)           110.5619         estimate D2E/DX2                !
 ! A93   A(48,24,49)           107.9531         estimate D2E/DX2                !
 ! A94   A(5,25,8)             108.2692         estimate D2E/DX2                !
 ! A95   A(4,26,27)            120.3075         estimate D2E/DX2                !
 ! A96   A(4,26,50)            119.7515         estimate D2E/DX2                !
 ! A97   A(27,26,50)           119.9409         estimate D2E/DX2                !
 ! A98   A(1,27,26)            120.1045         estimate D2E/DX2                !
 ! A99   A(1,27,51)            120.1144         estimate D2E/DX2                !
 ! A100  A(26,27,51)           119.7809         estimate D2E/DX2                !
 ! D1    D(27,1,2,3)             0.1414         estimate D2E/DX2                !
 ! D2    D(27,1,2,29)         -179.2645         estimate D2E/DX2                !
 ! D3    D(28,1,2,3)           179.8362         estimate D2E/DX2                !
 ! D4    D(28,1,2,29)            0.4303         estimate D2E/DX2                !
 ! D5    D(2,1,27,26)           -0.1687         estimate D2E/DX2                !
 ! D6    D(2,1,27,51)          179.7078         estimate D2E/DX2                !
 ! D7    D(28,1,27,26)        -179.8636         estimate D2E/DX2                !
 ! D8    D(28,1,27,51)           0.0129         estimate D2E/DX2                !
 ! D9    D(1,2,3,4)              0.0886         estimate D2E/DX2                !
 ! D10   D(1,2,3,30)          -178.2191         estimate D2E/DX2                !
 ! D11   D(29,2,3,4)           179.4976         estimate D2E/DX2                !
 ! D12   D(29,2,3,30)            1.19           estimate D2E/DX2                !
 ! D13   D(2,3,4,5)            179.0068         estimate D2E/DX2                !
 ! D14   D(2,3,4,26)            -0.2892         estimate D2E/DX2                !
 ! D15   D(30,3,4,5)            -2.6841         estimate D2E/DX2                !
 ! D16   D(30,3,4,26)          178.02           estimate D2E/DX2                !
 ! D17   D(3,4,5,6)            -64.9218         estimate D2E/DX2                !
 ! D18   D(3,4,5,25)            49.0924         estimate D2E/DX2                !
 ! D19   D(3,4,5,31)           169.763          estimate D2E/DX2                !
 ! D20   D(26,4,5,6)           114.3636         estimate D2E/DX2                !
 ! D21   D(26,4,5,25)         -131.6222         estimate D2E/DX2                !
 ! D22   D(26,4,5,31)          -10.9516         estimate D2E/DX2                !
 ! D23   D(3,4,26,27)            0.262          estimate D2E/DX2                !
 ! D24   D(3,4,26,50)         -179.6433         estimate D2E/DX2                !
 ! D25   D(5,4,26,27)         -179.0261         estimate D2E/DX2                !
 ! D26   D(5,4,26,50)            1.0686         estimate D2E/DX2                !
 ! D27   D(4,5,6,7)            112.483          estimate D2E/DX2                !
 ! D28   D(4,5,6,32)          -129.6884         estimate D2E/DX2                !
 ! D29   D(4,5,6,33)            -5.2104         estimate D2E/DX2                !
 ! D30   D(25,5,6,7)            -5.7725         estimate D2E/DX2                !
 ! D31   D(25,5,6,32)          112.0562         estimate D2E/DX2                !
 ! D32   D(25,5,6,33)         -123.4658         estimate D2E/DX2                !
 ! D33   D(31,5,6,7)          -123.3942         estimate D2E/DX2                !
 ! D34   D(31,5,6,32)           -5.5656         estimate D2E/DX2                !
 ! D35   D(31,5,6,33)          118.9124         estimate D2E/DX2                !
 ! D36   D(4,5,25,8)          -113.1817         estimate D2E/DX2                !
 ! D37   D(6,5,25,8)             6.4317         estimate D2E/DX2                !
 ! D38   D(31,5,25,8)          125.8737         estimate D2E/DX2                !
 ! D39   D(5,6,7,8)              3.2708         estimate D2E/DX2                !
 ! D40   D(32,6,7,8)          -117.2847         estimate D2E/DX2                !
 ! D41   D(33,6,7,8)           123.2139         estimate D2E/DX2                !
 ! D42   D(6,7,8,9)           -179.2256         estimate D2E/DX2                !
 ! D43   D(6,7,8,25)             0.9065         estimate D2E/DX2                !
 ! D44   D(7,8,9,10)           138.1637         estimate D2E/DX2                !
 ! D45   D(7,8,9,21)            18.4158         estimate D2E/DX2                !
 ! D46   D(7,8,9,24)           -99.6884         estimate D2E/DX2                !
 ! D47   D(25,8,9,10)          -41.9766         estimate D2E/DX2                !
 ! D48   D(25,8,9,21)         -161.7246         estimate D2E/DX2                !
 ! D49   D(25,8,9,24)           80.1713         estimate D2E/DX2                !
 ! D50   D(7,8,25,5)            -5.0198         estimate D2E/DX2                !
 ! D51   D(9,8,25,5)           175.1186         estimate D2E/DX2                !
 ! D52   D(8,9,10,11)          -59.9548         estimate D2E/DX2                !
 ! D53   D(8,9,10,20)          119.455          estimate D2E/DX2                !
 ! D54   D(21,9,10,11)          61.2524         estimate D2E/DX2                !
 ! D55   D(21,9,10,20)        -119.3378         estimate D2E/DX2                !
 ! D56   D(24,9,10,11)         179.0653         estimate D2E/DX2                !
 ! D57   D(24,9,10,20)          -1.5249         estimate D2E/DX2                !
 ! D58   D(8,9,21,22)         -142.9044         estimate D2E/DX2                !
 ! D59   D(8,9,21,42)           94.2923         estimate D2E/DX2                !
 ! D60   D(8,9,21,43)          -25.455          estimate D2E/DX2                !
 ! D61   D(10,9,21,22)         100.8939         estimate D2E/DX2                !
 ! D62   D(10,9,21,42)         -21.9094         estimate D2E/DX2                !
 ! D63   D(10,9,21,43)        -141.6568         estimate D2E/DX2                !
 ! D64   D(24,9,21,22)         -21.4575         estimate D2E/DX2                !
 ! D65   D(24,9,21,42)        -144.2607         estimate D2E/DX2                !
 ! D66   D(24,9,21,43)          95.9919         estimate D2E/DX2                !
 ! D67   D(8,9,24,23)          117.5811         estimate D2E/DX2                !
 ! D68   D(8,9,24,48)           -4.6437         estimate D2E/DX2                !
 ! D69   D(8,9,24,49)         -123.5214         estimate D2E/DX2                !
 ! D70   D(10,9,24,23)        -125.4059         estimate D2E/DX2                !
 ! D71   D(10,9,24,48)         112.3692         estimate D2E/DX2                !
 ! D72   D(10,9,24,49)          -6.5084         estimate D2E/DX2                !
 ! D73   D(21,9,24,23)          -4.7394         estimate D2E/DX2                !
 ! D74   D(21,9,24,48)        -126.9643         estimate D2E/DX2                !
 ! D75   D(21,9,24,49)         114.1581         estimate D2E/DX2                !
 ! D76   D(9,10,11,12)         174.9692         estimate D2E/DX2                !
 ! D77   D(20,10,11,12)         -4.4518         estimate D2E/DX2                !
 ! D78   D(9,10,20,19)        -179.0408         estimate D2E/DX2                !
 ! D79   D(11,10,20,19)          0.3993         estimate D2E/DX2                !
 ! D80   D(10,11,12,13)       -113.9595         estimate D2E/DX2                !
 ! D81   D(10,11,12,19)          6.0693         estimate D2E/DX2                !
 ! D82   D(10,11,12,34)        125.3809         estimate D2E/DX2                !
 ! D83   D(11,12,13,14)         57.5252         estimate D2E/DX2                !
 ! D84   D(11,12,13,18)       -122.6229         estimate D2E/DX2                !
 ! D85   D(19,12,13,14)        -56.6719         estimate D2E/DX2                !
 ! D86   D(19,12,13,18)        123.18           estimate D2E/DX2                !
 ! D87   D(34,12,13,14)        177.8032         estimate D2E/DX2                !
 ! D88   D(34,12,13,18)         -2.3449         estimate D2E/DX2                !
 ! D89   D(11,12,19,20)         -5.6971         estimate D2E/DX2                !
 ! D90   D(11,12,19,40)       -123.5345         estimate D2E/DX2                !
 ! D91   D(11,12,19,41)        111.9942         estimate D2E/DX2                !
 ! D92   D(13,12,19,20)        112.7269         estimate D2E/DX2                !
 ! D93   D(13,12,19,40)         -5.1105         estimate D2E/DX2                !
 ! D94   D(13,12,19,41)       -129.5818         estimate D2E/DX2                !
 ! D95   D(34,12,19,20)       -122.9868         estimate D2E/DX2                !
 ! D96   D(34,12,19,40)        119.1759         estimate D2E/DX2                !
 ! D97   D(34,12,19,41)         -5.2955         estimate D2E/DX2                !
 ! D98   D(12,13,14,15)        179.1069         estimate D2E/DX2                !
 ! D99   D(12,13,14,35)         -2.6503         estimate D2E/DX2                !
 ! D100  D(18,13,14,15)         -0.7474         estimate D2E/DX2                !
 ! D101  D(18,13,14,35)        177.4954         estimate D2E/DX2                !
 ! D102  D(12,13,18,17)       -179.3687         estimate D2E/DX2                !
 ! D103  D(12,13,18,39)          0.6759         estimate D2E/DX2                !
 ! D104  D(14,13,18,17)          0.4837         estimate D2E/DX2                !
 ! D105  D(14,13,18,39)       -179.4717         estimate D2E/DX2                !
 ! D106  D(13,14,15,16)          0.4297         estimate D2E/DX2                !
 ! D107  D(13,14,15,36)        179.7637         estimate D2E/DX2                !
 ! D108  D(35,14,15,16)       -177.8107         estimate D2E/DX2                !
 ! D109  D(35,14,15,36)          1.5234         estimate D2E/DX2                !
 ! D110  D(14,15,16,17)          0.1579         estimate D2E/DX2                !
 ! D111  D(14,15,16,37)        179.7926         estimate D2E/DX2                !
 ! D112  D(36,15,16,17)       -179.1731         estimate D2E/DX2                !
 ! D113  D(36,15,16,37)          0.4616         estimate D2E/DX2                !
 ! D114  D(15,16,17,18)         -0.422          estimate D2E/DX2                !
 ! D115  D(15,16,17,38)        179.6092         estimate D2E/DX2                !
 ! D116  D(37,16,17,18)        179.9433         estimate D2E/DX2                !
 ! D117  D(37,16,17,38)         -0.0255         estimate D2E/DX2                !
 ! D118  D(16,17,18,13)          0.0991         estimate D2E/DX2                !
 ! D119  D(16,17,18,39)       -179.9455         estimate D2E/DX2                !
 ! D120  D(38,17,18,13)       -179.932          estimate D2E/DX2                !
 ! D121  D(38,17,18,39)          0.0234         estimate D2E/DX2                !
 ! D122  D(12,19,20,10)          3.4889         estimate D2E/DX2                !
 ! D123  D(40,19,20,10)        123.5933         estimate D2E/DX2                !
 ! D124  D(41,19,20,10)       -116.9561         estimate D2E/DX2                !
 ! D125  D(9,21,22,23)          39.5836         estimate D2E/DX2                !
 ! D126  D(9,21,22,44)         -77.5088         estimate D2E/DX2                !
 ! D127  D(9,21,22,45)         161.0975         estimate D2E/DX2                !
 ! D128  D(42,21,22,23)        160.6473         estimate D2E/DX2                !
 ! D129  D(42,21,22,44)         43.5549         estimate D2E/DX2                !
 ! D130  D(42,21,22,45)        -77.8388         estimate D2E/DX2                !
 ! D131  D(43,21,22,23)        -77.3101         estimate D2E/DX2                !
 ! D132  D(43,21,22,44)        165.5974         estimate D2E/DX2                !
 ! D133  D(43,21,22,45)         44.2037         estimate D2E/DX2                !
 ! D134  D(21,22,23,24)        -42.5694         estimate D2E/DX2                !
 ! D135  D(21,22,23,46)         75.0536         estimate D2E/DX2                !
 ! D136  D(21,22,23,47)       -163.933          estimate D2E/DX2                !
 ! D137  D(44,22,23,24)         74.7185         estimate D2E/DX2                !
 ! D138  D(44,22,23,46)       -167.6584         estimate D2E/DX2                !
 ! D139  D(44,22,23,47)        -46.645          estimate D2E/DX2                !
 ! D140  D(45,22,23,24)       -163.6956         estimate D2E/DX2                !
 ! D141  D(45,22,23,46)        -46.0725         estimate D2E/DX2                !
 ! D142  D(45,22,23,47)         74.9409         estimate D2E/DX2                !
 ! D143  D(22,23,24,9)          29.1345         estimate D2E/DX2                !
 ! D144  D(22,23,24,48)        150.5047         estimate D2E/DX2                !
 ! D145  D(22,23,24,49)        -88.7685         estimate D2E/DX2                !
 ! D146  D(46,23,24,9)         -87.9709         estimate D2E/DX2                !
 ! D147  D(46,23,24,48)         33.3993         estimate D2E/DX2                !
 ! D148  D(46,23,24,49)        154.1261         estimate D2E/DX2                !
 ! D149  D(47,23,24,9)         151.1469         estimate D2E/DX2                !
 ! D150  D(47,23,24,48)        -87.4829         estimate D2E/DX2                !
 ! D151  D(47,23,24,49)         33.2439         estimate D2E/DX2                !
 ! D152  D(4,26,27,1)           -0.0341         estimate D2E/DX2                !
 ! D153  D(4,26,27,51)        -179.911          estimate D2E/DX2                !
 ! D154  D(50,26,27,1)         179.871          estimate D2E/DX2                !
 ! D155  D(50,26,27,51)         -0.0058         estimate D2E/DX2                !
 --------------------------------------------------------------------------------
 Trust Radius=3.00D-01 FncErr=1.00D-07 GrdErr=1.00D-06 EigMax=2.50D+02 EigMin=1.00D-04
 Number of steps in this run=    306 maximum allowed number of steps=    306.
 GradGradGradGradGradGradGradGradGradGradGradGradGradGradGradGradGradGrad

 Leave Link  103 at Sun Feb 25 08:52:18 2024, MaxMem=  7516192768 cpu:               1.2 elap:               0.1
 (Enter /public/apps/g16-C01//g16/l202.exe)
 Symmetry turned off by external request.
 Stoichiometry    C23H24N2O2
 Framework group  C1[X(C23H24N2O2)]
 Deg. of freedom   147
 Full point group                 C1      NOp   1
                          Input orientation:                          
 ---------------------------------------------------------------------
 Center     Atomic      Atomic             Coordinates (Angstroms)
 Number     Number       Type             X           Y           Z
 ---------------------------------------------------------------------
      1          6           0       -3.932309   -1.523432   -0.880062
      2          6           0       -2.784697   -0.993306   -1.443973
      3          6           0       -1.547164   -1.271061   -0.893764
      4          6           0       -1.447469   -2.085791    0.227900
      5          6           0       -0.089143   -2.400882    0.807238
      6          6           0        0.785260   -3.234704   -0.175436
      7          8           0        1.835688   -2.350450   -0.543460
      8          6           0        1.652307   -1.217040    0.171889
      9          6           0        2.606292   -0.075541   -0.015381
     10          6           0        1.729101    1.144143   -0.037401
     11          7           0        0.814865    1.314131   -0.893275
     12          6           0        0.094826    2.524976   -0.553270
     13          6           0       -1.321791    2.190034   -0.153440
     14          6           0       -1.550421    1.311988    0.899554
     15          6           0       -2.843265    1.011965    1.286752
     16          6           0       -3.918290    1.577013    0.622718
     17          6           0       -3.695676    2.442276   -0.434032
     18          6           0       -2.402205    2.748506   -0.820089
     19          6           0        0.922847    3.105108    0.629885
     20          8           0        1.900376    2.106785    0.895145
     21          6           0        3.409857   -0.184111   -1.329271
     22          6           0        4.796759    0.335536   -0.967409
     23          6           0        5.014677   -0.247714    0.424369
     24          6           0        3.665438   -0.038738    1.114496
     25          7           0        0.674981   -1.182653    0.971807
     26          6           0       -2.600570   -2.611254    0.791905
     27          6           0       -3.838438   -2.331306    0.239625
     28          1           0       -4.898753   -1.303519   -1.309306
     29          1           0       -2.852013   -0.352754   -2.310363
     30          1           0       -0.656821   -0.831799   -1.320038
     31          1           0       -0.202560   -2.894488    1.777418
     32          1           0        1.219879   -4.122674    0.292812
     33          1           0        0.235072   -3.524788   -1.073833
     34          1           0        0.088071    3.195138   -1.418856
     35          1           0       -0.715288    0.841401    1.397554
     36          1           0       -3.010786    0.325836    2.103315
     37          1           0       -4.927694    1.338849    0.924459
     38          1           0       -4.531053    2.881430   -0.960157
     39          1           0       -2.231816    3.425525   -1.645494
     40          1           0        0.316545    3.255832    1.525918
     41          1           0        1.434613    4.036888    0.371081
     42          1           0        2.928483    0.376095   -2.128634
     43          1           0        3.470961   -1.231025   -1.624899
     44          1           0        4.791386    1.425758   -0.918710
     45          1           0        5.556166    0.022416   -1.682368
     46          1           0        5.237161   -1.313004    0.343127
     47          1           0        5.828449    0.234047    0.964622
     48          1           0        3.461836   -0.798792    1.867657
     49          1           0        3.631895    0.934116    1.601901
     50          1           0       -2.530473   -3.241017    1.667905
     51          1           0       -4.731321   -2.743976    0.686771
 ---------------------------------------------------------------------
 Rotational constants (GHZ):           0.3262136           0.1759400           0.1292732
 Leave Link  202 at Sun Feb 25 08:52:18 2024, MaxMem=  7516192768 cpu:               1.8 elap:               0.1
 (Enter /public/apps/g16-C01//g16/l301.exe)
 Standard basis: def2SVPP (5D, 7F)
 Ernie: Thresh=  0.10000D-02 Tol=  0.10000D-05 Strict=F.
   426 basis functions,   771 primitive gaussians,   453 cartesian basis functions
    96 alpha electrons       96 beta electrons
       nuclear repulsion energy      2592.1937066866 Hartrees.
 IExCor=  402 DFT=T Ex+Corr=B3LYP ExCW=0 ScaHFX=  0.200000
 ScaDFX=  0.800000  0.720000  1.000000  0.810000 ScalE2=  1.000000  1.000000
 IRadAn=      5 IRanWt=     -1 IRanGd=            0 ICorTp=0 IEmpDi=141
 NAtoms=   51 NActive=   51 NUniq=   51 SFac= 1.00D+00 NAtFMM=   60 NAOKFM=F Big=F
 Integral buffers will be    131072 words long.
 Raffenetti 2 integral format.
 Two-electron integral symmetry is turned off.
 R6Disp:  Grimme-D3(BJ) Dispersion energy=       -0.1274061740 Hartrees.
 Nuclear repulsion after empirical dispersion term =     2592.0663005126 Hartrees.
 Leave Link  301 at Sun Feb 25 08:52:18 2024, MaxMem=  7516192768 cpu:               2.4 elap:               0.1
 (Enter /public/apps/g16-C01//g16/l302.exe)
 NPDir=0 NMtPBC=     1 NCelOv=     1 NCel=       1 NClECP=     1 NCelD=      1
         NCelK=      1 NCelE2=     1 NClLst=     1 CellRange=     0.0.
 One-electron integrals computed using PRISM.
   1 Symmetry operations used in ECPInt.
 ECPInt:  NShTT=   22155 NPrTT=   88833 LenC2=   20644 LenP2D=   55498.
 LDataN:  DoStor=T MaxTD1= 4 Len=   56
 NBasis=   426 RedAO= T EigKep=  2.30D-04  NBF=   426
 NBsUse=   426 1.00D-06 EigRej= -1.00D+00 NBFU=   426
 Precomputing XC quadrature grid using
 IXCGrd= 4 IRadAn=           5 IRanWt=          -1 IRanGd=           0 AccXCQ= 0.00D+00.
 Generated NRdTot=       0 NPtTot=           0 NUsed=           0 NTot=          32
 NSgBfM=   449   449   449   449   449 MxSgAt=    51 MxSgA2=    51.
 Leave Link  302 at Sun Feb 25 08:52:19 2024, MaxMem=  7516192768 cpu:              22.0 elap:               0.6
 (Enter /public/apps/g16-C01//g16/l303.exe)
 DipDrv:  MaxL=1.
 Leave Link  303 at Sun Feb 25 08:52:19 2024, MaxMem=  7516192768 cpu:               6.5 elap:               0.3
 (Enter /public/apps/g16-C01//g16/l401.exe)
 ExpMin= 1.22D-01 ExpMax= 2.27D+03 ExpMxC= 3.41D+02 IAcc=3 IRadAn=         5 AccDes= 0.00D+00
 Harris functional with IExCor=  402 and IRadAn=       5 diagonalized for initial guess.
 HarFok:  IExCor=  402 AccDes= 0.00D+00 IRadAn=         5 IDoV= 1 UseB2=F ITyADJ=14
 ICtDFT=  3500011 ScaDFX=  1.000000  1.000000  1.000000  1.000000
 FoFCou: FMM=F IPFlag=           0 FMFlag=      100000 FMFlg1=           0
         NFxFlg=           0 DoJE=T BraDBF=F KetDBF=T FulRan=T
         wScrn=  0.000000 ICntrl=       500 IOpCl=  0 I1Cent=   200000004 NGrid=           0
         NMat0=    1 NMatS0=      1 NMatT0=    0 NMatD0=    1 NMtDS0=    0 NMtDT0=    0
 Symmetry not used in FoFCou.
 Harris En= -1150.00809620060    
 JPrj=0 DoOrth=F DoCkMO=F.
 Leave Link  401 at Sun Feb 25 08:52:21 2024, MaxMem=  7516192768 cpu:              39.7 elap:               1.1
 (Enter /public/apps/g16-C01//g16/l502.exe)
 Two-electron integral symmetry not used.
 Closed shell SCF:
 Using DIIS extrapolation, IDIIS=  1040.
 NGot=  7516192768 LenX=  7515759045 LenY=  7515553383
 Requested convergence on RMS density matrix=1.00D-08 within 128 cycles.
 Requested convergence on MAX density matrix=1.00D-06.
 Requested convergence on             energy=1.00D-06.
 No special actions if energy rises.
 Fock matrices will be formed incrementally for  20 cycles.
 Integral accuracy reduced to 1.0D-05 until final iterations.

 Cycle   1  Pass 0  IDiag  1:
 FoFJK:  IHMeth= 1 ICntrl=       0 DoSepK=F KAlg= 0 I1Cent=           0 FoldK=F
 IRaf= 870000000 NMat=       1 IRICut=       1 DoRegI=T DoRafI=F ISym2E= 0 IDoP0=0 IntGTp=1.
 FoFCou: FMM=F IPFlag=           0 FMFlag=      100000 FMFlg1=           0
         NFxFlg=           0 DoJE=F BraDBF=F KetDBF=F FulRan=T
         wScrn=  0.000000 ICntrl=         0 IOpCl=  0 I1Cent=           0 NGrid=           0
         NMat0=    1 NMatS0=      1 NMatT0=    0 NMatD0=    1 NMtDS0=    0 NMtDT0=    0
 Symmetry not used in FoFCou.
 E= -1149.49088571710    
 DIIS: error= 2.49D-02 at cycle   1 NSaved=   1.
 NSaved= 1 IEnMin= 1 EnMin= -1149.49088571710     IErMin= 1 ErrMin= 2.49D-02
 ErrMax= 2.49D-02  0.00D+00 EMaxC= 1.00D-01 BMatC= 5.06D-01 BMatP= 5.06D-01
 IDIUse=3 WtCom= 7.51D-01 WtEn= 2.49D-01
 Coeff-Com:  0.100D+01
 Coeff-En:   0.100D+01
 Coeff:      0.100D+01
 Gap=     0.283 Goal=   None    Shift=    0.000
 GapD=    0.283 DampG=1.000 DampE=0.500 DampFc=0.5000 IDamp=-1.
 Damping current iteration by 5.00D-01
 RMSDP=5.79D-03 MaxDP=1.84D-01              OVMax= 2.03D-01

 Cycle   2  Pass 0  IDiag  1:
 RMSU=  2.73D-03    CP:  9.51D-01
 E= -1149.72040146751     Delta-E=       -0.229515750409 Rises=F Damp=T
 DIIS: error= 7.51D-03 at cycle   2 NSaved=   2.
 NSaved= 2 IEnMin= 2 EnMin= -1149.72040146751     IErMin= 2 ErrMin= 7.51D-03
 ErrMax= 7.51D-03  0.00D+00 EMaxC= 1.00D-01 BMatC= 4.24D-02 BMatP= 5.06D-01
 IDIUse=3 WtCom= 9.25D-01 WtEn= 7.51D-02
 Coeff-Com:  0.107D+00 0.893D+00
 Coeff-En:   0.166D+00 0.834D+00
 Coeff:      0.112D+00 0.888D+00
 Gap=     0.248 Goal=   None    Shift=    0.000
 RMSDP=1.86D-03 MaxDP=9.02D-02 DE=-2.30D-01 OVMax= 1.68D-01

 Cycle   3  Pass 0  IDiag  1:
 RMSU=  1.77D-03    CP:  9.24D-01  9.27D-01
 E= -1150.00924671725     Delta-E=       -0.288845249736 Rises=F Damp=F
 DIIS: error= 8.36D-03 at cycle   3 NSaved=   3.
 NSaved= 3 IEnMin= 3 EnMin= -1150.00924671725     IErMin= 2 ErrMin= 7.51D-03
 ErrMax= 8.36D-03  0.00D+00 EMaxC= 1.00D-01 BMatC= 4.97D-02 BMatP= 4.24D-02
 IDIUse=3 WtCom= 9.86D-02 WtEn= 9.01D-01
 Coeff-Com:  0.727D-02 0.521D+00 0.471D+00
 Coeff-En:   0.000D+00 0.000D+00 0.100D+01
 Coeff:      0.717D-03 0.514D-01 0.948D+00
 Gap=     0.225 Goal=   None    Shift=    0.000
 RMSDP=1.89D-03 MaxDP=8.75D-02 DE=-2.89D-01 OVMax= 1.86D-01

 Cycle   4  Pass 0  IDiag  1:
 RMSU=  1.32D-03    CP:  9.25D-01  1.21D+00  3.77D-01
 E= -1149.85696840756     Delta-E=        0.152278309689 Rises=F Damp=F
 DIIS: error= 1.99D-02 at cycle   4 NSaved=   4.
 NSaved= 4 IEnMin= 3 EnMin= -1150.00924671725     IErMin= 2 ErrMin= 7.51D-03
 ErrMax= 1.99D-02  0.00D+00 EMaxC= 1.00D-01 BMatC= 2.19D-01 BMatP= 4.24D-02
 IDIUse=2 WtCom= 0.00D+00 WtEn= 1.00D+00
 Coeff-En:   0.000D+00 0.000D+00 0.757D+00 0.243D+00
 Coeff:      0.000D+00 0.000D+00 0.757D+00 0.243D+00
 Gap=     0.225 Goal=   None    Shift=    0.000
 RMSDP=9.93D-04 MaxDP=5.47D-02 DE= 1.52D-01 OVMax= 9.21D-02

 Cycle   5  Pass 0  IDiag  1:
 RMSU=  2.50D-04    CP:  9.23D-01  1.06D+00  6.81D-01  4.85D-01
 E= -1150.04310719171     Delta-E=       -0.186138784155 Rises=F Damp=F
 DIIS: error= 4.42D-03 at cycle   5 NSaved=   5.
 NSaved= 5 IEnMin= 5 EnMin= -1150.04310719171     IErMin= 5 ErrMin= 4.42D-03
 ErrMax= 4.42D-03  0.00D+00 EMaxC= 1.00D-01 BMatC= 1.29D-02 BMatP= 4.24D-02
 IDIUse=3 WtCom= 9.56D-01 WtEn= 4.42D-02
 Coeff-Com:  0.634D-02 0.412D-02 0.312D+00-0.199D-01 0.697D+00
 Coeff-En:   0.000D+00 0.000D+00 0.253D+00 0.000D+00 0.747D+00
 Coeff:      0.606D-02 0.394D-02 0.309D+00-0.190D-01 0.700D+00
 Gap=     0.225 Goal=   None    Shift=    0.000
 RMSDP=3.23D-04 MaxDP=1.74D-02 DE=-1.86D-01 OVMax= 2.78D-02

 Cycle   6  Pass 0  IDiag  1:
 RMSU=  9.07D-05    CP:  9.23D-01  1.01D+00  7.83D-01  3.25D-01  8.04D-01
 E= -1150.05460264342     Delta-E=       -0.011495451713 Rises=F Damp=F
 DIIS: error= 6.83D-04 at cycle   6 NSaved=   6.
 NSaved= 6 IEnMin= 6 EnMin= -1150.05460264342     IErMin= 6 ErrMin= 6.83D-04
 ErrMax= 6.83D-04  0.00D+00 EMaxC= 1.00D-01 BMatC= 1.44D-04 BMatP= 1.29D-02
 IDIUse=3 WtCom= 9.93D-01 WtEn= 6.83D-03
 Coeff-Com:  0.211D-02-0.566D-02 0.134D+00-0.386D-01 0.439D+00 0.469D+00
 Coeff-En:   0.000D+00 0.000D+00 0.000D+00 0.000D+00 0.000D+00 0.100D+01
 Coeff:      0.209D-02-0.562D-02 0.133D+00-0.383D-01 0.436D+00 0.473D+00
 Gap=     0.224 Goal=   None    Shift=    0.000
 RMSDP=4.52D-05 MaxDP=1.43D-03 DE=-1.15D-02 OVMax= 4.04D-03

 Cycle   7  Pass 0  IDiag  1:
 RMSU=  2.21D-05    CP:  9.23D-01  1.02D+00  7.86D-01  3.29D-01  8.31D-01
                    CP:  5.81D-01
 E= -1150.05476004771     Delta-E=       -0.000157404282 Rises=F Damp=F
 DIIS: error= 1.42D-04 at cycle   7 NSaved=   7.
 NSaved= 7 IEnMin= 7 EnMin= -1150.05476004771     IErMin= 7 ErrMin= 1.42D-04
 ErrMax= 1.42D-04  0.00D+00 EMaxC= 1.00D-01 BMatC= 8.89D-06 BMatP= 1.44D-04
 IDIUse=3 WtCom= 9.99D-01 WtEn= 1.42D-03
 Coeff-Com:  0.847D-03-0.335D-02 0.578D-01-0.226D-01 0.213D+00 0.278D+00
 Coeff-Com:  0.476D+00
 Coeff-En:   0.000D+00 0.000D+00 0.000D+00 0.000D+00 0.000D+00 0.000D+00
 Coeff-En:   0.100D+01
 Coeff:      0.845D-03-0.335D-02 0.577D-01-0.226D-01 0.213D+00 0.277D+00
 Coeff:      0.477D+00
 Gap=     0.224 Goal=   None    Shift=    0.000
 RMSDP=1.01D-05 MaxDP=4.26D-04 DE=-1.57D-04 OVMax= 8.15D-04

 Cycle   8  Pass 0  IDiag  1:
 RMSU=  5.58D-06    CP:  9.23D-01  1.02D+00  7.86D-01  3.29D-01  8.35D-01
                    CP:  5.91D-01  6.25D-01
 E= -1150.05477158107     Delta-E=       -0.000011533360 Rises=F Damp=F
 DIIS: error= 2.12D-05 at cycle   8 NSaved=   8.
 NSaved= 8 IEnMin= 8 EnMin= -1150.05477158107     IErMin= 8 ErrMin= 2.12D-05
 ErrMax= 2.12D-05  0.00D+00 EMaxC= 1.00D-01 BMatC= 3.88D-07 BMatP= 8.89D-06
 IDIUse=1 WtCom= 1.00D+00 WtEn= 0.00D+00
 Coeff-Com:  0.233D-03-0.935D-03 0.130D-01-0.696D-02 0.539D-01 0.769D-01
 Coeff-Com:  0.206D+00 0.658D+00
 Coeff:      0.233D-03-0.935D-03 0.130D-01-0.696D-02 0.539D-01 0.769D-01
 Coeff:      0.206D+00 0.658D+00
 Gap=     0.224 Goal=   None    Shift=    0.000
 RMSDP=2.43D-06 MaxDP=6.34D-05 DE=-1.15D-05 OVMax= 2.12D-04

 Initial convergence to 1.0D-05 achieved.  Increase integral accuracy.
 Cycle   9  Pass 1  IDiag  1:
 E= -1150.05478636963     Delta-E=       -0.000014788560 Rises=F Damp=F
 DIIS: error= 1.56D-04 at cycle   1 NSaved=   1.
 NSaved= 1 IEnMin= 1 EnMin= -1150.05478636963     IErMin= 1 ErrMin= 1.56D-04
 ErrMax= 1.56D-04  0.00D+00 EMaxC= 1.00D-01 BMatC= 6.42D-06 BMatP= 6.42D-06
 IDIUse=3 WtCom= 9.98D-01 WtEn= 1.56D-03
 Coeff-Com:  0.100D+01
 Coeff-En:   0.100D+01
 Coeff:      0.100D+01
 Gap=     0.224 Goal=   None    Shift=    0.000
 RMSDP=2.43D-06 MaxDP=6.34D-05 DE=-1.48D-05 OVMax= 4.12D-04

 Cycle  10  Pass 1  IDiag  1:
 RMSU=  1.60D-04    CP:  1.00D+00
 E= -1150.05479319887     Delta-E=       -0.000006829247 Rises=F Damp=F
 DIIS: error= 2.29D-05 at cycle   2 NSaved=   2.
 NSaved= 2 IEnMin= 2 EnMin= -1150.05479319887     IErMin= 2 ErrMin= 2.29D-05
 ErrMax= 2.29D-05  0.00D+00 EMaxC= 1.00D-01 BMatC= 2.65D-07 BMatP= 6.42D-06
 IDIUse=1 WtCom= 1.00D+00 WtEn= 0.00D+00
 Coeff-Com:  0.489D-01 0.951D+00
 Coeff:      0.489D-01 0.951D+00
 Gap=     0.224 Goal=   None    Shift=    0.000
 RMSDP=4.78D-06 MaxDP=1.27D-04 DE=-6.83D-06 OVMax= 3.81D-04

 Cycle  11  Pass 1  IDiag  1:
 RMSU=  4.24D-06    CP:  1.00D+00  1.01D+00
 E= -1150.05479253439     Delta-E=        0.000000664482 Rises=F Damp=F
 DIIS: error= 4.04D-05 at cycle   3 NSaved=   3.
 NSaved= 3 IEnMin= 2 EnMin= -1150.05479319887     IErMin= 2 ErrMin= 2.29D-05
 ErrMax= 4.04D-05  0.00D+00 EMaxC= 1.00D-01 BMatC= 8.95D-07 BMatP= 2.65D-07
 IDIUse=1 WtCom= 1.00D+00 WtEn= 0.00D+00
 Coeff-Com: -0.653D-02 0.651D+00 0.355D+00
 Coeff:     -0.653D-02 0.651D+00 0.355D+00
 Gap=     0.224 Goal=   None    Shift=    0.000
 RMSDP=2.73D-06 MaxDP=8.24D-05 DE= 6.64D-07 OVMax= 2.55D-04

 Cycle  12  Pass 1  IDiag  1:
 RMSU=  4.92D-07    CP:  1.00D+00  1.01D+00  3.68D-01
 E= -1150.05479347637     Delta-E=       -0.000000941975 Rises=F Damp=F
 DIIS: error= 1.81D-06 at cycle   4 NSaved=   4.
 NSaved= 4 IEnMin= 4 EnMin= -1150.05479347637     IErMin= 4 ErrMin= 1.81D-06
 ErrMax= 1.81D-06  0.00D+00 EMaxC= 1.00D-01 BMatC= 2.75D-09 BMatP= 2.65D-07
 IDIUse=1 WtCom= 1.00D+00 WtEn= 0.00D+00
 Coeff-Com: -0.408D-02 0.372D+00 0.205D+00 0.427D+00
 Coeff:     -0.408D-02 0.372D+00 0.205D+00 0.427D+00
 Gap=     0.224 Goal=   None    Shift=    0.000
 RMSDP=1.73D-07 MaxDP=5.56D-06 DE=-9.42D-07 OVMax= 1.14D-05

 Cycle  13  Pass 1  IDiag  1:
 RMSU=  1.47D-07    CP:  1.00D+00  1.01D+00  3.77D-01  8.39D-01
 E= -1150.05479347893     Delta-E=       -0.000000002559 Rises=F Damp=F
 DIIS: error= 4.35D-07 at cycle   5 NSaved=   5.
 NSaved= 5 IEnMin= 5 EnMin= -1150.05479347893     IErMin= 5 ErrMin= 4.35D-07
 ErrMax= 4.35D-07  0.00D+00 EMaxC= 1.00D-01 BMatC= 8.81D-11 BMatP= 2.75D-09
 IDIUse=1 WtCom= 1.00D+00 WtEn= 0.00D+00
 Coeff-Com: -0.143D-02 0.127D+00 0.701D-01 0.202D+00 0.603D+00
 Coeff:     -0.143D-02 0.127D+00 0.701D-01 0.202D+00 0.603D+00
 Gap=     0.224 Goal=   None    Shift=    0.000
 RMSDP=4.69D-08 MaxDP=1.57D-06 DE=-2.56D-09 OVMax= 3.44D-06

 Cycle  14  Pass 1  IDiag  1:
 RMSU=  4.48D-08    CP:  1.00D+00  1.01D+00  3.76D-01  8.47D-01  9.29D-01
 E= -1150.05479347899     Delta-E=       -0.000000000061 Rises=F Damp=F
 DIIS: error= 1.98D-07 at cycle   6 NSaved=   6.
 NSaved= 6 IEnMin= 6 EnMin= -1150.05479347899     IErMin= 6 ErrMin= 1.98D-07
 ErrMax= 1.98D-07  0.00D+00 EMaxC= 1.00D-01 BMatC= 2.06D-11 BMatP= 8.81D-11
 IDIUse=1 WtCom= 1.00D+00 WtEn= 0.00D+00
 Coeff-Com: -0.202D-03 0.163D-01 0.899D-02 0.509D-01 0.360D+00 0.564D+00
 Coeff:     -0.202D-03 0.163D-01 0.899D-02 0.509D-01 0.360D+00 0.564D+00
 Gap=     0.224 Goal=   None    Shift=    0.000
 RMSDP=1.93D-08 MaxDP=5.35D-07 DE=-6.14D-11 OVMax= 1.42D-06

 Cycle  15  Pass 1  IDiag  1:
 RMSU=  1.21D-08    CP:  1.00D+00  1.01D+00  3.76D-01  8.53D-01  9.48D-01
                    CP:  6.84D-01
 E= -1150.05479347900     Delta-E=       -0.000000000012 Rises=F Damp=F
 DIIS: error= 6.42D-08 at cycle   7 NSaved=   7.
 NSaved= 7 IEnMin= 7 EnMin= -1150.05479347900     IErMin= 7 ErrMin= 6.42D-08
 ErrMax= 6.42D-08  0.00D+00 EMaxC= 1.00D-01 BMatC= 2.68D-12 BMatP= 2.06D-11
 IDIUse=1 WtCom= 1.00D+00 WtEn= 0.00D+00
 Coeff-Com:  0.120D-04-0.212D-02-0.115D-02 0.122D-01 0.167D+00 0.346D+00
 Coeff-Com:  0.478D+00
 Coeff:      0.120D-04-0.212D-02-0.115D-02 0.122D-01 0.167D+00 0.346D+00
 Coeff:      0.478D+00
 Gap=     0.224 Goal=   None    Shift=    0.000
 RMSDP=6.44D-09 MaxDP=2.90D-07 DE=-1.18D-11 OVMax= 4.98D-07

 SCF Done:  E(RB3LYP) =  -1150.05479348     A.U. after   15 cycles
            NFock= 15  Conv=0.64D-08     -V/T= 2.0091
 KE= 1.139650626830D+03 PE=-7.854816843134D+03 EE= 2.973045122312D+03
 Leave Link  502 at Sun Feb 25 08:52:50 2024, MaxMem=  7516192768 cpu:            1131.5 elap:              28.7
 (Enter /public/apps/g16-C01//g16/l601.exe)
 Copying SCF densities to generalized density rwf, IOpCl= 0 IROHF=0.

 **********************************************************************

            Population analysis using the SCF Density.

 **********************************************************************

 Alpha  occ. eigenvalues --  -19.17313 -19.17155 -14.29818 -14.29597 -10.27269
 Alpha  occ. eigenvalues --  -10.27059 -10.23713 -10.23520 -10.21718 -10.21495
 Alpha  occ. eigenvalues --  -10.21492 -10.18268 -10.18038 -10.17760 -10.17732
 Alpha  occ. eigenvalues --  -10.17705 -10.17551 -10.17532 -10.17501 -10.17485
 Alpha  occ. eigenvalues --  -10.17466 -10.17451 -10.17350 -10.17328 -10.17125
 Alpha  occ. eigenvalues --  -10.16987 -10.16706  -1.09336  -1.09004  -0.91084
 Alpha  occ. eigenvalues --   -0.90017  -0.86113  -0.84534  -0.84314  -0.78885
 Alpha  occ. eigenvalues --   -0.77428  -0.74046  -0.73447  -0.73252  -0.72379
 Alpha  occ. eigenvalues --   -0.71093  -0.70197  -0.64632  -0.64216  -0.60727
 Alpha  occ. eigenvalues --   -0.59939  -0.59738  -0.58837  -0.57871  -0.57363
 Alpha  occ. eigenvalues --   -0.56650  -0.53727  -0.52332  -0.52306  -0.51917
 Alpha  occ. eigenvalues --   -0.50393  -0.49121  -0.48584  -0.47472  -0.46669
 Alpha  occ. eigenvalues --   -0.45981  -0.45577  -0.44697  -0.44561  -0.43188
 Alpha  occ. eigenvalues --   -0.42695  -0.42312  -0.41772  -0.41555  -0.40878
 Alpha  occ. eigenvalues --   -0.40589  -0.40372  -0.39742  -0.38069  -0.37628
 Alpha  occ. eigenvalues --   -0.37125  -0.36262  -0.35303  -0.34811  -0.34617
 Alpha  occ. eigenvalues --   -0.34593  -0.34279  -0.34076  -0.33883  -0.33530
 Alpha  occ. eigenvalues --   -0.33342  -0.33019  -0.32675  -0.27461  -0.27210
 Alpha  occ. eigenvalues --   -0.26144  -0.25209  -0.24869  -0.24524  -0.24024
 Alpha  occ. eigenvalues --   -0.23106
 Alpha virt. eigenvalues --   -0.00676  -0.00541  -0.00082   0.00553   0.01695
 Alpha virt. eigenvalues --    0.02651   0.05781   0.06428   0.06495   0.07862
 Alpha virt. eigenvalues --    0.08077   0.08946   0.09645   0.09952   0.10751
 Alpha virt. eigenvalues --    0.11097   0.11529   0.12092   0.12765   0.12890
 Alpha virt. eigenvalues --    0.13319   0.13714   0.13914   0.14293   0.14710
 Alpha virt. eigenvalues --    0.15175   0.15377   0.15620   0.16609   0.16811
 Alpha virt. eigenvalues --    0.17247   0.17662   0.17786   0.18743   0.19071
 Alpha virt. eigenvalues --    0.19329   0.21143   0.21873   0.23289   0.23694
 Alpha virt. eigenvalues --    0.24703   0.25289   0.25672   0.26290   0.27162
 Alpha virt. eigenvalues --    0.29111   0.30040   0.30238   0.30706   0.31113
 Alpha virt. eigenvalues --    0.31396   0.31778   0.32647   0.32994   0.33212
 Alpha virt. eigenvalues --    0.33893   0.35775   0.37005   0.37224   0.39170
 Alpha virt. eigenvalues --    0.40217   0.40478   0.41529   0.41907   0.42857
 Alpha virt. eigenvalues --    0.43372   0.43478   0.44222   0.44284   0.45118
 Alpha virt. eigenvalues --    0.45766   0.46176   0.46805   0.46943   0.47975
 Alpha virt. eigenvalues --    0.48428   0.49016   0.49540   0.50560   0.51284
 Alpha virt. eigenvalues --    0.51541   0.51983   0.52204   0.52681   0.54185
 Alpha virt. eigenvalues --    0.54501   0.54947   0.55629   0.56488   0.56778
 Alpha virt. eigenvalues --    0.57704   0.58658   0.59530   0.60516   0.60902
 Alpha virt. eigenvalues --    0.61048   0.61533   0.62499   0.62776   0.63298
 Alpha virt. eigenvalues --    0.64017   0.65073   0.65224   0.65565   0.65800
 Alpha virt. eigenvalues --    0.66512   0.66690   0.66900   0.67047   0.67520
 Alpha virt. eigenvalues --    0.67914   0.68024   0.68577   0.68738   0.68937
 Alpha virt. eigenvalues --    0.69411   0.69536   0.69757   0.70290   0.70741
 Alpha virt. eigenvalues --    0.70811   0.71225   0.71405   0.72091   0.72357
 Alpha virt. eigenvalues --    0.72594   0.72838   0.73564   0.73878   0.74048
 Alpha virt. eigenvalues --    0.74111   0.74755   0.75537   0.76289   0.76598
 Alpha virt. eigenvalues --    0.77520   0.77865   0.78469   0.78986   0.79621
 Alpha virt. eigenvalues --    0.80393   0.81123   0.81467   0.82545   0.82787
 Alpha virt. eigenvalues --    0.84257   0.84737   0.85721   0.86143   0.86477
 Alpha virt. eigenvalues --    0.88157   0.88770   0.89909   0.90828   0.91836
 Alpha virt. eigenvalues --    0.93110   0.94395   0.95247   0.97650   0.98505
 Alpha virt. eigenvalues --    1.00107   1.01583   1.02633   1.03092   1.04798
 Alpha virt. eigenvalues --    1.06783   1.07137   1.07922   1.08911   1.10509
 Alpha virt. eigenvalues --    1.11471   1.13732   1.14063   1.15383   1.15937
 Alpha virt. eigenvalues --    1.18977   1.20696   1.23629   1.24122   1.26522
 Alpha virt. eigenvalues --    1.27553   1.28025   1.28707   1.29887   1.31079
 Alpha virt. eigenvalues --    1.31931   1.32781   1.34305   1.35406   1.40908
 Alpha virt. eigenvalues --    1.42634   1.43910   1.44414   1.45231   1.46899
 Alpha virt. eigenvalues --    1.48564   1.48876   1.49650   1.50281   1.50927
 Alpha virt. eigenvalues --    1.51675   1.52427   1.52827   1.53149   1.56303
 Alpha virt. eigenvalues --    1.57753   1.58497   1.61270   1.64040   1.64958
 Alpha virt. eigenvalues --    1.67646   1.69513   1.70666   1.71751   1.75064
 Alpha virt. eigenvalues --    1.76167   1.76593   1.77475   1.78195   1.79017
 Alpha virt. eigenvalues --    1.79725   1.80185   1.81464   1.81920   1.82928
 Alpha virt. eigenvalues --    1.83305   1.83715   1.85452   1.85939   1.87133
 Alpha virt. eigenvalues --    1.87911   1.88154   1.90634   1.91681   1.92141
 Alpha virt. eigenvalues --    1.93944   1.94463   1.94536   1.95958   1.98301
 Alpha virt. eigenvalues --    1.98989   1.99576   2.00246   2.00753   2.01613
 Alpha virt. eigenvalues --    2.02092   2.03067   2.03658   2.05502   2.06845
 Alpha virt. eigenvalues --    2.10049   2.10442   2.11998   2.12313   2.12862
 Alpha virt. eigenvalues --    2.12950   2.14280   2.14339   2.15853   2.16053
 Alpha virt. eigenvalues --    2.16442   2.18579   2.19597   2.19954   2.22342
 Alpha virt. eigenvalues --    2.23356   2.25578   2.26732   2.29258   2.30510
 Alpha virt. eigenvalues --    2.31820   2.32361   2.32801   2.33200   2.34503
 Alpha virt. eigenvalues --    2.35049   2.38582   2.39530   2.40235   2.41586
 Alpha virt. eigenvalues --    2.44240   2.45446   2.47580   2.49511   2.50780
 Alpha virt. eigenvalues --    2.51220   2.51700   2.53538   2.54085   2.57339
 Alpha virt. eigenvalues --    2.57539   2.58605   2.61245   2.63140   2.63596
 Alpha virt. eigenvalues --    2.66947   2.67931   2.68484   2.69136   2.70477
 Alpha virt. eigenvalues --    2.74008   2.74206   2.74377   2.75442   2.76598
 Alpha virt. eigenvalues --    2.78733   2.79311   2.79818   2.81032   2.82905
 Alpha virt. eigenvalues --    2.87200   2.87715   2.89861   2.92068   2.97276
 Alpha virt. eigenvalues --    2.98289   2.99517   2.99569   3.07195   3.07514
 Alpha virt. eigenvalues --    3.13947   3.14764   3.24709   3.26864   3.38211
 Alpha virt. eigenvalues --    3.39755   3.42130   3.42367   3.57176   3.60713
          Condensed to atoms (all electrons):
 Mulliken charges:
               1
     1  C   -0.030298
     2  C   -0.037700
     3  C   -0.108897
     4  C    0.122233
     5  C   -0.034048
     6  C    0.100768
     7  O   -0.302827
     8  C    0.111973
     9  C   -0.172724
    10  C    0.109268
    11  N   -0.173521
    12  C   -0.032214
    13  C    0.124795
    14  C   -0.111178
    15  C   -0.040468
    16  C   -0.027206
    17  C   -0.052633
    18  C   -0.138237
    19  C    0.096684
    20  O   -0.298192
    21  C   -0.050409
    22  C   -0.118699
    23  C   -0.135084
    24  C   -0.035802
    25  N   -0.164878
    26  C   -0.137917
    27  C   -0.050352
    28  H    0.040982
    29  H    0.044811
    30  H    0.080783
    31  H    0.052352
    32  H    0.086884
    33  H    0.101225
    34  H    0.049124
    35  H    0.082196
    36  H    0.043772
    37  H    0.039503
    38  H    0.038869
    39  H    0.026448
    40  H    0.101972
    41  H    0.086775
    42  H    0.092832
    43  H    0.085698
    44  H    0.065755
    45  H    0.078774
    46  H    0.067236
    47  H    0.077393
    48  H    0.081077
    49  H    0.096568
    50  H    0.026683
    51  H    0.039851
 Sum of Mulliken charges =  -0.00000
 Mulliken charges with hydrogens summed into heavy atoms:
               1
     1  C    0.010683
     2  C    0.007111
     3  C   -0.028114
     4  C    0.122233
     5  C    0.018303
     6  C    0.288877
     7  O   -0.302827
     8  C    0.111973
     9  C   -0.172724
    10  C    0.109268
    11  N   -0.173521
    12  C    0.016910
    13  C    0.124795
    14  C   -0.028981
    15  C    0.003304
    16  C    0.012297
    17  C   -0.013763
    18  C   -0.111789
    19  C    0.285431
    20  O   -0.298192
    21  C    0.128122
    22  C    0.025830
    23  C    0.009544
    24  C    0.141844
    25  N   -0.164878
    26  C   -0.111234
    27  C   -0.010501
 Electronic spatial extent (au):  <R**2>=           8592.6618
 Charge=             -0.0000 electrons
 Dipole moment (field-independent basis, Debye):
    X=              0.4800    Y=             -0.2132    Z=              0.1543  Tot=              0.5474
 Quadrupole moment (field-independent basis, Debye-Ang):
   XX=           -149.3668   YY=           -147.3567   ZZ=           -159.7402
   XY=              0.8466   XZ=              0.1266   YZ=             -6.3717
 Traceless Quadrupole moment (field-independent basis, Debye-Ang):
   XX=              2.7878   YY=              4.7979   ZZ=             -7.5857
   XY=              0.8466   XZ=              0.1266   YZ=             -6.3717
 Octapole moment (field-independent basis, Debye-Ang**2):
  XXX=             -9.0278  YYY=              1.0670  ZZZ=              2.1232  XYY=             16.4310
  XXY=             -1.8725  XXZ=             -2.2324  XZZ=             -2.0482  YZZ=             -2.2625
  YYZ=              5.0356  XYZ=             11.2004
 Hexadecapole moment (field-independent basis, Debye-Ang**3):
 XXXX=          -7053.7922 YYYY=          -3457.8309 ZZZZ=           -902.3905 XXXY=              8.4598
 XXXZ=             11.7608 YYYX=             10.5023 YYYZ=            -60.3690 ZZZX=              5.5353
 ZZZY=              4.3577 XXYY=          -1847.7209 XXZZ=          -1365.4228 YYZZ=           -739.0412
 XXYZ=            -47.9637 YYXZ=              8.0719 ZZXY=             -4.4212
 N-N= 2.592066300513D+03 E-N=-7.854816840793D+03  KE= 1.139650626830D+03
 No NMR shielding tensors so no spin-rotation constants.
 Leave Link  601 at Sun Feb 25 08:52:51 2024, MaxMem=  7516192768 cpu:              18.3 elap:               0.6
 (Enter /public/apps/g16-C01//g16/l701.exe)
 ... and contract with generalized density number  0.
 Compute integral first derivatives.
 R6Disp: Adding Grimme-D3(BJ) dispersion energy 1st derivatives to the gradient.
   1 Symmetry operations used in ECPInt.
 ECPInt:  NShTT=   22155 NPrTT=   88833 LenC2=   20644 LenP2D=   55498.
 LDataN:  DoStor=T MaxTD1= 5 Len=  102
 Leave Link  701 at Sun Feb 25 08:52:52 2024, MaxMem=  7516192768 cpu:              11.1 elap:               0.3
 (Enter /public/apps/g16-C01//g16/l702.exe)
 L702 exits ... SP integral derivatives will be done elsewhere.
 Leave Link  702 at Sun Feb 25 08:52:52 2024, MaxMem=  7516192768 cpu:               1.0 elap:               0.0
 (Enter /public/apps/g16-C01//g16/l703.exe)
 Integral derivatives from FoFJK, PRISM(SPDF).
 Compute integral first derivatives, UseDBF=F ICtDFT=           0.
 Calling FoFJK, ICntrl=      2127 FMM=F ISym2X=0 I1Cent= 0 IOpClX= 0 NMat=1 NMatS=1 NMatT=0.
 FoFJK:  IHMeth= 1 ICntrl=    2127 DoSepK=F KAlg= 0 I1Cent=           0 FoldK=F
 IRaf=         0 NMat=       1 IRICut=       1 DoRegI=T DoRafI=F ISym2E= 0 IDoP0=0 IntGTp=1.
 FoFCou: FMM=F IPFlag=           0 FMFlag=      100000 FMFlg1=         800
         NFxFlg=           0 DoJE=F BraDBF=F KetDBF=F FulRan=T
         wScrn=  0.000000 ICntrl=      2127 IOpCl=  0 I1Cent=           0 NGrid=           0
         NMat0=    1 NMatS0=      1 NMatT0=    0 NMatD0=    1 NMtDS0=    0 NMtDT0=    0
 Symmetry not used in FoFCou.
 Leave Link  703 at Sun Feb 25 08:52:59 2024, MaxMem=  7516192768 cpu:             275.3 elap:               7.0
 (Enter /public/apps/g16-C01//g16/l716.exe)
 Dipole        = 1.88835664D-01-8.38665620D-02 6.06967189D-02
 -------------------------------------------------------------------
 Center     Atomic                   Forces (Hartrees/Bohr)
 Number     Number              X              Y              Z
 -------------------------------------------------------------------
      1        6          -0.004143170    0.000043862   -0.001361735
      2        6           0.001555462    0.000827432   -0.004289219
      3        6           0.002376599   -0.000602431   -0.002265163
      4        6           0.004908970   -0.004016070    0.006802722
      5        6          -0.002092699   -0.001790375   -0.005806123
      6        6          -0.004562864   -0.005563339    0.004692738
      7        8           0.008701241    0.003998071   -0.006526151
      8        6           0.001168908   -0.002420343    0.001961476
      9        6          -0.001995428   -0.002289107    0.000012607
     10        6           0.000819917    0.003404593   -0.002696095
     11        7          -0.000464077   -0.006256298   -0.013181244
     12        6          -0.002639924    0.000496707    0.005698836
     13        6           0.005838918    0.004872358   -0.005291082
     14        6           0.001576562    0.000769940    0.002796708
     15        6           0.000819849   -0.000963387    0.004396138
     16        6          -0.004137429   -0.000251832    0.001024348
     17        6          -0.005053967    0.001529763   -0.001860329
     18        6           0.002145481    0.000902125   -0.001538097
     19        6          -0.003826059    0.006274456   -0.003858946
     20        8           0.007565054   -0.004820337    0.006606355
     21        6           0.005153070    0.004592650   -0.000399780
     22        6          -0.002631191   -0.006304088    0.002184648
     23        6          -0.003474318    0.004924853   -0.001433618
     24        6           0.005828335   -0.003237860   -0.000098546
     25        7          -0.001863671    0.008231605    0.011433995
     26        6           0.002170816   -0.000827646    0.001668605
     27        6          -0.005221794   -0.001501435    0.001148664
     28        1          -0.009015905    0.002393976   -0.003816360
     29        1          -0.000658507    0.006502716   -0.007624839
     30        1           0.006748511    0.005068800   -0.003526476
     31        1          -0.001736781   -0.003889622    0.003657345
     32        1           0.002965621   -0.005254948    0.001900142
     33        1          -0.001559727   -0.002133926   -0.004757936
     34        1          -0.001262166    0.004394716   -0.002937337
     35        1           0.006487600   -0.004860664    0.004059546
     36        1          -0.001527352   -0.006871283    0.006981512
     37        1          -0.009353533   -0.002521980    0.002608785
     38        1          -0.007913054    0.004059992   -0.004844160
     39        1           0.001834623    0.006193598   -0.007542646
     40        1          -0.001820143    0.001295249    0.005048548
     41        1           0.003269691    0.005183418   -0.000517143
     42        1          -0.004070463    0.001900449   -0.006735685
     43        1           0.000162834   -0.006080739   -0.002425583
     44        1           0.000945416    0.009595741   -0.000228081
     45        1           0.007030429   -0.000719601   -0.006802459
     46        1           0.002875358   -0.008591637   -0.000467621
     47        1           0.007965467    0.002377557    0.004967625
     48        1          -0.001694592   -0.003748455    0.006853426
     49        1          -0.000590594    0.005059596    0.004112225
     50        1           0.000849371   -0.005618267    0.008116619
     51        1          -0.008454696   -0.003758553    0.004098840
 -------------------------------------------------------------------
 Cartesian Forces:  Max     0.013181244 RMS     0.004587413
 Leave Link  716 at Sun Feb 25 08:53:00 2024, MaxMem=  7516192768 cpu:               1.2 elap:               0.0
 (Enter /public/apps/g16-C01//g16/l103.exe)

 GradGradGradGradGradGradGradGradGradGradGradGradGradGradGradGradGradGrad
 Berny optimization.
 FormGI is forming the generalized inverse of G from B-inverse, IUseBI=4.
 GSVD:  received Info=                   1 from GESDD.
 Internal  Forces:  Max     0.017232352 RMS     0.004826265
 Search for a local minimum.
 Step number   1 out of a maximum of  306
 All quantities printed in internal units (Hartrees-Bohrs-Radians)
 RMS Force = .48263D-02 SwitMx=.10000D-02 MixMth= 1
 Mixed Optimization -- RFO/linear search
 Second derivative matrix not updated -- first step.
 ITU=  0
     Eigenvalues ---    0.00306   0.00607   0.00607   0.00611   0.00634
     Eigenvalues ---    0.00639   0.00733   0.00774   0.01522   0.01544
     Eigenvalues ---    0.01596   0.01598   0.02105   0.02247   0.02247
     Eigenvalues ---    0.02273   0.02273   0.02280   0.02280   0.02293
     Eigenvalues ---    0.02293   0.02299   0.02300   0.02300   0.02301
     Eigenvalues ---    0.02301   0.02304   0.02304   0.02310   0.02310
     Eigenvalues ---    0.02453   0.02455   0.04249   0.04503   0.04531
     Eigenvalues ---    0.04545   0.04902   0.04917   0.05023   0.05040
     Eigenvalues ---    0.05180   0.05379   0.05529   0.05538   0.05721
     Eigenvalues ---    0.05967   0.06005   0.06194   0.06255   0.06740
     Eigenvalues ---    0.06876   0.06949   0.06963   0.07166   0.08112
     Eigenvalues ---    0.08150   0.08749   0.09340   0.10847   0.10852
     Eigenvalues ---    0.11035   0.11185   0.11186   0.13355   0.15307
     Eigenvalues ---    0.15335   0.15993   0.15993   0.15999   0.15999
     Eigenvalues ---    0.16000   0.16000   0.16000   0.16000   0.16000
     Eigenvalues ---    0.16000   0.17812   0.20455   0.20491   0.20503
     Eigenvalues ---    0.22000   0.22000   0.22000   0.22000   0.23480
     Eigenvalues ---    0.23480   0.24625   0.24629   0.24998   0.24999
     Eigenvalues ---    0.25000   0.25000   0.25548   0.26517   0.26597
     Eigenvalues ---    0.26754   0.28531   0.28770   0.29226   0.31355
     Eigenvalues ---    0.31392   0.32114   0.32441   0.34273   0.34307
     Eigenvalues ---    0.34341   0.34365   0.34504   0.34544   0.34660
     Eigenvalues ---    0.34662   0.34863   0.34904   0.34914   0.34929
     Eigenvalues ---    0.34970   0.35003   0.35855   0.35867   0.35932
     Eigenvalues ---    0.35934   0.35940   0.35966   0.35979   0.35982
     Eigenvalues ---    0.36038   0.36046   0.36809   0.37004   0.41039
     Eigenvalues ---    0.41142   0.43449   0.43450   0.43595   0.43597
     Eigenvalues ---    0.47693   0.47696   0.48068   0.48081   0.48367
     Eigenvalues ---    0.48371   0.48539   0.48541   0.51274   0.51572
     Eigenvalues ---    0.73974   0.74090
 RFO step:  Lambda=-2.25500123D-02 EMin= 3.05973524D-03
 Linear search not attempted -- first point.
 Iteration  1 RMS(Cart)=  0.32197600 RMS(Int)=  0.00498390
 Iteration  2 RMS(Cart)=  0.06467963 RMS(Int)=  0.00026839
 Iteration  3 RMS(Cart)=  0.00072478 RMS(Int)=  0.00016968
 Iteration  4 RMS(Cart)=  0.00000017 RMS(Int)=  0.00016968
 ITry= 1 IFail=0 DXMaxC= 2.01D+00 DCOld= 1.00D+10 DXMaxT= 3.00D-01 DXLimC= 3.00D+00 Rises=F
 Variable       Old X    -DE/DX   Delta X   Delta X   Delta X     New X
                                 (Linear)    (Quad)   (Total)
    R1        2.61578   0.01443   0.00000   0.02859   0.02859   2.64437
    R2        2.61519   0.01321   0.00000   0.02624   0.02624   2.64143
    R3        2.04110   0.01007   0.00000   0.02634   0.02634   2.06744
    R4        2.61259   0.01314   0.00000   0.02571   0.02572   2.63830
    R5        2.04009   0.01002   0.00000   0.02616   0.02616   2.06625
    R6        2.62655   0.01383   0.00000   0.02771   0.02772   2.65427
    R7        2.04175   0.00901   0.00000   0.02360   0.02360   2.06535
    R8        2.85340   0.00808   0.00000   0.02405   0.02405   2.87745
    R9        2.62111   0.01289   0.00000   0.02565   0.02565   2.64676
   R10        2.94306   0.00559   0.00000   0.01513   0.01514   2.95820
   R11        2.73524   0.01667   0.00000   0.04032   0.04035   2.77559
   R12        2.06816   0.00518   0.00000   0.01416   0.01416   2.08232
   R13        2.68630   0.00971   0.00000   0.02116   0.02111   2.70741
   R14        2.06719   0.00626   0.00000   0.01709   0.01709   2.08428
   R15        2.06489   0.00526   0.00000   0.01432   0.01432   2.07921
   R16        2.55635   0.00474   0.00000   0.01005   0.01003   2.56638
   R17        2.83344   0.01354   0.00000   0.03903   0.03903   2.87247
   R18        2.38751   0.01328   0.00000   0.01764   0.01767   2.40518
   R19        2.83936   0.01495   0.00000   0.04350   0.04350   2.88286
   R20        2.91766   0.00981   0.00000   0.03630   0.03643   2.95409
   R21        2.92741   0.01148   0.00000   0.04243   0.04255   2.96996
   R22        2.38828   0.01307   0.00000   0.01746   0.01750   2.40577
   R23        2.55334   0.00534   0.00000   0.01118   0.01115   2.56449
   R24        2.73861   0.01723   0.00000   0.04181   0.04186   2.78047
[...]
 15,0.00013839,-0.00013087,0.00051161,0.00014554,0.00009668,0.00008907,
 0.00010149,0.00001200,-0.00006057,0.00025896,-0.00009576,0.00161076,-0
 .00025606,-0.00212753,-0.00058433,0.00230324,-0.07845532,0.30043811,0.
 00000723,-0.00000127,-0.00000008,-0.00000546,0.00000288,0.00000035,0.0
 0001424,-0.00001737,-0.00001426,-0.00003723,-0.00000031,-0.00002719,-0
 .00008770,0.00004028,-0.00007651,-0.00014681,-0.00027060,0.00011322,0.
 00052639,-0.00021585,-0.00006601,-0.00004347,0.00119548,0.00091563,-0.
 00811774,0.02004816,-0.00366506,-0.00176537,-0.00262076,-0.00361022,-0
 .00080871,0.00119426,0.00023912,0.00004770,0.00008679,-0.00014062,0.00
 004600,0.00004720,0.00002258,-0.00002035,0.00000537,-0.00001380,0.0000
 0199,-0.00000642,0.00000465,-0.00000953,-0.00000197,0.00000109,0.00000
 151,-0.00000925,-0.00000515,-0.00001457,-0.00001314,0.00000899,-0.0001
 2785,0.00037247,0.00013161,0.00075304,-0.00057852,0.00060987,-0.000069
 91,0.00042966,0.00098487,0.00064031,-0.00008710,-0.00017911,-0.0038582
 0,0.01209127,-0.00099165,-0.00808285,0.02814508,-0.05516987,0.00013071
 ,-0.00027350,0.00001371,0.00000228,-0.00000983,0.00001604,0.00000143,-
 0.00000019,0.00000108,0.00000186,0.00000044,0.00000150,0.00000281,0.00
 000094,0.00000449,0.00001062,0.00002763,0.00000506,0.00003916,0.000027
 49,-0.00000349,-0.00001034,0.00004340,-0.00002508,0.00002489,0.0000378
 5,-0.00000937,-0.00001759,0.00009007,0.00005678,-0.00000849,0.00001182
 ,-0.00000284,-0.00000497,-0.00000022,0.00000435,-0.00000110,0.00000059
 ,0.00000214,-0.00000320,0.00000057,0.00000050,0.00000431,0.00000149,0.
 00000533,0.00000546,0.00000392,0.00000625,-0.00000248,-0.00001915,0.00
 000149,0.00002340,-0.00031355,0.00020554,-0.00017496,-0.00019620,-0.00
 070701,-0.00004406,-0.00011117,0.00003982,0.00000749,0.00009819,-0.000
 16581,-0.00040083,-0.00044547,0.00098137,0.00113160,0.00085725,-0.0006
 9791,0.01225429,-0.03418607,0.05436575,-0.00000337,0.00000115,-0.00000
 025,-0.00000133,0.00000292,0.00000620,0.00001150,0.00001690,-0.0000045
 3,0.00000505,0.00001256,0.00000632,-0.00013453,-0.00011840,0.00017768,
 0.00013497,0.00006403,0.00001320,-0.00021475,-0.00033919,0.00024383,0.
 00215157,0.00105337,-0.00168081,0.00628130,-0.01109910,-0.02241117,0.0
 0144924,-0.00034996,-0.00026197,0.00022032,-0.00012299,0.00027254,-0.0
 0006015,-0.00001722,0.00008225,-0.00000714,0.00000182,0.00000355,-0.00
 001018,0.00002284,-0.00001647,0.00000563,-0.00000903,0.00001548,0.0000
 0809,0.00000115,-0.00000212,0.00000452,-0.00000001,0.00000103,0.000003
 47,0.00000491,-0.00000347,-0.00031364,0.00024086,0.00005936,-0.0010618
 3,0.00138378,-0.00004802,-0.00398461,0.00009871,-0.00312978,-0.0026824
 6,-0.00119940,0.00042971,-0.00430802,0.00771692,0.01826107,-0.07029046
 ,0.03056315,0.07309881,-0.00007136,0.00023632,0.00057971,0.00000186,-0
 .00000279,0.00000625,-0.00000292,0.00000118,0.00000073,-0.00000080,-0.
 00000233,-0.00000106,0.00000090,-0.00000291,-0.00000335,0.00001171,-0.
 00001329,-0.00000361,-0.00001112,-0.00000673,-0.00001212,-0.00004876,-
 0.00002979,0.00003176,-0.00002279,0.00000065,0.00001249,0.00002568,-0.
 00000567,0.00001587,-0.00003702,-0.00000705,-0.00002387,-0.00000005,0.
 00000072,-0.00000412,0.00000602,-0.00000105,0.00000005,0.00000432,-0.0
 0000214,0.00000142,-0.00000206,-0.00000182,0.00000082,0.00003388,-0.00
 000163,-0.00001959,0.00004561,-0.00009428,0.00003344,0.00095561,0.0000
 7300,-0.00122303,-0.00011324,-0.00006526,0.00010789,0.00005354,-0.0000
 2270,0.00040769,0.00026634,0.00004870,0.00069668,-0.00107031,-0.000466
 07,0.00039830,0.00128113,0.00032923,-0.00048580,-0.00230087,0.00310734
 ,0.00818439,0.07379172,0.00001093,-0.00000402,0.00000182,-0.00000522,-
 0.00000535,0.00000185,0.00003299,-0.00000474,-0.00000078,-0.00002007,0
 .00002788,0.00000290,-0.00008980,-0.00011164,0.00004777,0.00008735,0.0
 0010616,-0.00006078,-0.00041444,0.00012077,0.00009441,0.00096235,-0.00
 036732,-0.00096834,-0.00021278,-0.00048078,0.00070137,-0.00005844,0.00
 067722,0.00088745,-0.00037290,-0.00005029,-0.00048770,0.00008733,0.000
 01072,0.00000639,0.00006640,0.00001762,-0.00002683,-0.00003441,-0.0000
 1816,-0.00000140,0.00001044,0.00000676,-0.00001030,-0.00002114,-0.0000
 0034,0.00000122,-0.00000455,-0.00000526,0.00000447,-0.00001972,-0.0000
 2141,0.00002803,0.00021941,-0.00041815,0.00001113,0.00112367,-0.001591
 09,0.00059047,-0.00108229,-0.00029598,0.00037399,-0.00224425,-0.001156
 40,0.00225551,-0.00383343,0.00659209,0.01672287,0.03004203,-0.08771625
 ,-0.09583255,0.00004022,0.00002311,0.00056837,0.00000944,-0.00000405,0
 .00000821,0.00000160,-0.00000490,-0.00000147,0.00000135,0.00000154,0.0
 0000273,0.00000556,0.00000110,0.00000851,-0.00000048,0.00003149,-0.000
 00351,-0.00003221,-0.00000975,-0.00000329,0.00001201,-0.00002741,0.000
 00484,-0.00002080,-0.00000784,0.00002414,-0.00002268,0.00001310,-0.000
 01852,0.00000586,0.00004625,-0.00001791,-0.00001081,-0.00000347,0.0000
 0746,-0.00000668,-0.00000006,0.00000156,-0.00000869,0.00000088,-0.0000
 0110,0.00000792,-0.00000205,0.00000345,-0.00002835,0.00005985,0.000017
 00,-0.00002357,0.00005852,-0.00000666,0.00015916,0.00034569,0.00008743
 ,-0.00013739,0.00028556,0.00031960,0.00009437,-0.00003012,0.00038619,0
 .00017983,-0.00004200,0.00078767,-0.00064399,-0.00013068,0.00017210,0.
 00033285,0.00117502,0.00044657,0.00685945,-0.00938608,-0.02548312,-0.0
 3099912,0.09229755,-0.00000634,0.00000235,0.00000024,-0.00000037,0.000
 00532,0.00000494,0.00000727,0.00002073,0.00000154,0.00000718,-0.000009
 38,0.00001084,-0.00011630,-0.00005945,0.00011103,0.00006627,0.00004033
 ,0.00002857,-0.00015678,-0.00000917,0.00033175,0.00105257,0.00084837,-
 0.00115506,0.00470712,-0.00624878,-0.01561026,0.00039996,-0.00214701,-
 0.00163573,0.00030182,0.00004658,0.00071524,0.00010074,-0.00010890,0.0
 0013307,-0.00004113,-0.00000661,0.00006194,0.00000728,0.00002644,-0.00
 001187,-0.00000054,-0.00000724,0.00001604,0.00001565,0.00000119,-0.000
 00168,0.00000720,-0.00000271,-0.00000094,0.00002590,0.00001538,-0.0000
 2066,-0.00025781,0.00086004,0.00039678,0.00131752,-0.00073660,0.001441
 05,-0.00245685,0.00101188,-0.00254192,0.00061542,0.00004738,-0.0005997
 4,0.00117140,-0.00352092,-0.00674222,0.06812927,-0.09031671,-0.2600181
 8,-0.00016259,0.00003682,0.00050744,-0.00000230,0.00000066,-0.00000308
 ,-0.00000463,0.00000264,0.00000335,-0.00000119,-0.00000305,-0.00000230
 ,0.00000119,-0.00000489,-0.00000606,0.00001139,-0.00002560,-0.00001019
 ,-0.00002546,-0.00002234,-0.00000395,-0.00002926,-0.00002912,0.0000143
 0,-0.00000851,0.00000568,0.00000900,0.00007210,0.00000091,0.00005753,-
 0.00001951,-0.00002590,-0.00000800,0.00000362,0.00000113,-0.00000696,0
 .00000739,-0.00000098,-0.00000096,0.00000869,-0.00000234,0.00000123,-0
 .00000479,-0.00000067,-0.00000018,0.00004473,-0.00004285,-0.00002601,0
 .00001187,-0.00010032,0.00002067,0.00060070,-0.00024576,-0.00089062,0.
 00009273,-0.00008535,0.00019823,-0.00005845,0.00005524,-0.00016589,-0.
 00004428,0.00017460,-0.00045467,0.00030189,0.00034411,-0.00053905,-0.0
 0026403,0.00003376,0.00078983,-0.00161578,0.00184370,0.00682717,-0.073
 81148,0.09834086,0.27877703,-0.00435844,0.00001470,-0.00214509,-0.0010
 4945,-0.00005366,-0.00002732,-0.00430054,-0.00227426,0.00087222,0.0041
 6737,-0.01543588,0.02043447,0.00087882,-0.00071239,0.00239252,-0.00022
 413,-0.00005473,0.00002508,0.00012464,0.00002368,-0.00018157,-0.000115
 01,0.00012030,0.00023292,0.00004413,-0.00002931,0.00001168,0.00009615,
 -0.00008926,0.00009414,-0.00010652,-0.00000941,-0.00003941,-0.00000714
 ,0.00000874,0.00000107,-0.00000158,0.00001324,-0.00001128,0.00001107,-
 0.00001011,0.00002963,-0.00000510,0.00001655,-0.00002826,-0.00000065,0
 .00000909,0.00000368,-0.00000834,0.00000457,0.00001552,-0.00000658,-0.
 00000165,0.00000080,0.00000654,-0.00001326,0.00000058,-0.00002729,0.00
 001224,-0.00007060,0.00001116,0.00001797,0.00002290,0.00000567,-0.0000
 0301,-0.00000967,0.00000334,-0.00000467,0.00001043,0.00000198,0.000020
 10,-0.00003254,0.00040809,0.00034491,-0.00039818,-0.05821253,0.0008872
 9,-0.00535224,0.00391270,0.01731640,-0.02279225,0.00002078,0.00076279,
 -0.00107375,0.00007232,0.00011190,0.00006156,0.00023718,-0.00072348,0.
 00104447,-0.00039166,0.00020539,-0.00073336,-0.00002857,0.00001822,-0.
 00000057,0.00002462,-0.00004460,-0.00001176,-0.00000244,0.00000533,0.0
 0000043,0.00000763,-0.00001991,0.00000456,0.00001467,0.00000575,0.0000
 0246,0.00000092,-0.00000308,-0.00001555,0.00000061,-0.00000658,0.00000
 039,-0.00000061,0.00000075,-0.00000044,-0.00000115,0.00000067,0.000000
 32,-0.00000198,0.00000129,-0.00000179,0.00000579,0.00000091,-0.0000099
 0,-0.00001200,0.00000249,0.00000567,0.00000119,0.00000657,-0.00000204,
 0.00000587,0.00000299,-0.00000191,0.00000641,0.00000307,-0.00000331,0.
 00000449,0.00000621,-0.00000158,-0.00001067,0.00000465,-0.00000271,-0.
 00000106,-0.00000564,0.00000033,0.05765807,0.00082425,0.00496436,0.002
 89335,-0.00017259,-0.00016512,-0.00074498,-0.00309185,0.00365818,0.003
 16087,0.00128461,-0.00370873,0.01029294,0.00199988,-0.00260343,-0.0012
 0868,0.00023567,0.00011404,0.00010300,0.00020935,0.00010244,-0.0001580
 8,0.00007758,-0.00014781,-0.00013473,0.00002251,-0.00000937,0.00004348
 ,0.00003489,0.00002797,0.00009270,-0.00004111,-0.00003773,-0.00002515,
 -0.00001884,0.00002871,0.00000031,0.00000948,-0.00000488,-0.00000465,0
 .00002832,0.00002642,-0.00004267,-0.00006390,-0.00007743,0.00013963,0.
 00002395,0.00001464,-0.00005095,-0.00000834,0.00001253,-0.00003048,-0.
 00000688,0.00002077,-0.00002599,-0.00001025,0.00000834,0.00000260,0.00
 000330,-0.00004237,-0.00007424,0.00000318,-0.00001671,0.00000323,0.000
 00195,0.00000698,0.00000248,-0.00000167,0.00000006,-0.00000277,0.00000
 970,0.00000443,0.00000939,-0.00060958,0.00007463,-0.00022666,0.0007994
 5,-0.14149319,0.14026265,-0.00148089,-0.00058277,0.00463076,-0.0001124
 4,0.00004504,0.00032269,0.00012219,-0.00067528,-0.00048250,0.00023122,
 -0.00005481,0.00058882,-0.00047916,0.00048849,-0.00078182,0.00004218,0
 .00000314,-0.00004685,0.00006413,-0.00005484,-0.00004852,0.00000465,0.
 00000209,-0.00000166,-0.00002033,-0.00000952,0.00003061,0.00004540,-0.
 00002053,-0.00001729,-0.00000145,0.00000536,0.00001702,-0.00000056,0.0
 0001177,-0.00000581,0.00000026,0.00000797,-0.00000206,0.00000116,-0.00
 000568,-0.00000327,0.00000105,-0.00000313,-0.00000112,0.00000189,0.000
 00350,-0.00000538,-0.00000081,0.00000268,0.00000091,0.00000026,0.00000
 044,-0.00000083,-0.00000228,-0.00000132,-0.00000113,-0.00000227,0.0000
 0005,-0.00000034,0.00000031,-0.00000137,-0.00000115,-0.00000192,0.0000
 0270,0.00000023,-0.00000145,-0.00000360,-0.00000225,-0.00055963,0.1423
 6067,-0.00335751,0.00264468,0.00275981,0.00006310,-0.00071934,0.000293
 81,0.00202255,0.00290229,0.00294935,-0.00220567,0.00707818,-0.00621855
 ,-0.00102987,-0.00248670,-0.00127618,0.00047936,0.00001604,0.00024114,
 -0.00000844,-0.00016851,-0.00003780,-0.00022998,-0.00005888,0.00002835
 ,-0.00002437,0.00001221,0.00002923,-0.00009328,0.00003141,-0.00010763,
 0.00011284,0.00002248,0.00002890,-0.00001844,-0.00002245,0.00000605,-0
 .00001381,-0.00000626,0.00001252,-0.00001034,0.00000448,-0.00001409,0.
 00000365,0.00003587,0.00001267,0.00001637,0.00000844,0.00001142,0.0000
 1534,0.00000082,0.00000833,-0.00000163,0.00000264,0.00001509,-0.000001
 66,-0.00000914,-0.00000433,0.00002933,0.00002395,0.00008250,-0.0000113
 7,-0.00000898,-0.00000433,-0.00000605,0.00000005,0.00000396,-0.0000014
 3,0.00000174,0.00000255,-0.00000422,-0.00000046,-0.00000455,-0.0003175
 6,0.00001171,0.00031948,-0.00527497,0.14055023,-0.22553964,0.00219777,
 0.00843793,-0.00739530,0.00011313,0.00048229,-0.00038130,0.00006094,-0
 .00044047,-0.00046223,-0.00028738,0.00037821,-0.00032245,0.00059000,-0
 .00011238,0.00052869,0.00015058,-0.00009215,-0.00005637,-0.00001616,0.
 00006538,-0.00007542,0.00000245,-0.00000140,-0.00000317,-0.00001365,0.
 00000091,-0.00001406,0.00000558,-0.00000962,-0.00003651,0.00000793,-0.
 00001254,-0.00001114,-0.00000120,-0.00000529,-0.00000478,0.00000197,-0
 .00000131,-0.00000675,-0.00000364,-0.00000199,-0.00000204,0.00000747,0
 .00000513,0.00000087,-0.00000589,0.00000059,0.00000933,0.00000645,-0.0
 0000307,-0.00000304,-0.00000200,-0.00000369,0.00000240,0.00000285,-0.0
 0000178,-0.00000062,0.00000413,-0.00000132,0.00000033,-0.00000332,-0.0
 0000102,0.00000011,0.00000486,-0.00000505,0.00000018,-0.00000145,0.000
 00441,-0.00000164,0.00684384,-0.15614239,0.23547515,0.00413358,0.00171
 252,-0.00219917,0.00160747,-0.00028282,-0.00061114,0.00038510,0.000649
 61,-0.00062374,-0.00278634,0.00164892,-0.00394239,-0.00025697,-0.00061
 184,0.00079043,-0.00006321,-0.00004876,-0.00018003,-0.00012161,0.00011
 238,0.00012025,0.00021255,-0.00013464,-0.00023074,-0.00000711,0.000014
 22,0.00002899,-0.00000768,0.00007883,0.00004041,-0.00000663,-0.0000642
 1,0.00000308,-0.00001395,0.00003244,-0.00000027,0.00001479,-0.00000049
 ,-0.00001104,-0.00000553,0.00001481,-0.00002203,0.00001705,-0.00004331
 ,0.00003877,-0.00003182,0.00000514,-0.00002013,-0.00000121,-0.00000262
 ,0.00000054,0.00001544,0.00000492,-0.00001403,-0.00001102,0.00003052,-
 0.00000588,0.00001643,-0.00006391,-0.00003059,-0.00000539,-0.00002728,
 -0.00001972,-0.00000122,0.00000864,0.00001124,-0.00000440,0.00000404,-
 0.00001330,0.00001065,-0.00001991,0.00003688,-0.00055551,-0.00003328,-
 0.00003305,-0.01819441,-0.01224981,0.01222114,-0.25636844,-0.09369489,
 0.08242677,0.00068476,0.00016205,0.00069075,0.00005950,0.00010596,-0.0
 0015421,-0.00006221,0.00005172,0.00012224,0.00002624,0.00000144,-0.000
 01648,-0.00005478,0.00006136,0.00002092,0.00002511,-0.00001192,0.00001
 397,0.00000367,-0.00000720,0.00000158,0.00000142,0.00002570,0.00001558
 ,-0.00003662,0.00000836,0.00000738,0.00001509,-0.00000652,0.00001441,0
 .00000222,0.00000355,0.00000251,0.00000073,0.00000149,0.00000237,0.000
 00296,-0.00000282,-0.00000273,-0.00000122,-0.00000722,0.00000227,0.000
 00104,0.00000135,-0.00000002,0.00000899,0.00000008,-0.00000490,0.00000
 022,-0.00000537,-0.00000019,-0.00001136,-0.00000334,0.00000198,-0.0000
 1131,-0.00000228,0.00000297,-0.00000253,-0.00000678,0.00000045,0.00000
 650,0.00000012,0.00000337,0.00000085,0.00000133,-0.00000083,0.00114125
 ,0.00060542,0.00020278,0.27022888,-0.01713036,-0.00301244,0.00556765,0
 .00039204,0.00253102,0.00606270,0.00054357,-0.00062071,-0.00013108,0.0
 0062535,0.00435652,0.00358883,0.00027553,0.00023026,0.00004120,0.00002
 977,0.00010297,0.00000164,0.00001274,-0.00011853,-0.00001433,0.0000016
 4,0.00008560,0.00002537,-0.00000518,0.00000510,0.00000412,0.00002618,0
 .00000885,0.00003545,-0.00002279,-0.00003597,-0.00001520,-0.00003002,0
 .00002169,0.00000825,0.00002218,0.00003136,-0.00002425,0.00000068,0.00
 001563,-0.00002327,0.00003220,-0.00003255,0.00006224,-0.00009793,0.000
 01246,-0.00001263,0.00001225,-0.00001709,0.00000266,0.00004308,0.00000
 834,-0.00001829,-0.00000682,0.00001124,-0.00000447,0.00000818,-0.00002
 803,-0.00003010,0.00000255,0.00000286,0.00000273,0.00000082,0.00000055
 ,-0.00000197,-0.00000017,-0.00000054,0.00000233,0.00000237,0.00000185,
 -0.00000213,0.00015609,-0.00000485,0.00005223,0.00671177,0.00593887,-0
 .00226775,-0.09367365,-0.08768621,0.04936256,0.00065513,-0.00210891,-0
 .00260694,-0.00076873,-0.00013606,0.00032538,0.00012696,-0.00057946,-0
 .00054430,-0.00000992,0.00000562,-0.00001736,-0.00002109,-0.00000515,-
 0.00000478,-0.00001301,0.00000514,-0.00003593,0.00000420,0.00000150,-0
 .00000036,0.00000680,0.00000905,0.00001114,-0.00005619,0.00002029,-0.0
 0003194,0.00004734,-0.00004679,0.00000933,-0.00000419,0.00000457,0.000
 00390,0.00000801,0.00000919,-0.00000262,-0.00000085,-0.00000291,-0.000
 00421,0.00000239,-0.00000170,0.00000096,0.00000044,0.00000243,-0.00000
 191,0.00000147,-0.00000074,-0.00000008,-0.00000034,-0.00000089,0.00000
 011,0.00000026,0.00000018,-0.00000012,-0.00000013,0.00000053,-0.000000
 63,-0.00000021,-0.00000112,-0.00000087,0.00000034,-0.00000115,0.000000
 21,-0.00000082,0.00000030,-0.00000119,0.00010576,-0.00227881,-0.002405
 87,0.10198431,0.08329663,0.02288051,0.00912063,-0.00412022,-0.00178454
 ,0.00592443,-0.00099901,-0.00068439,-0.00015057,-0.00079067,-0.0030908
 6,0.00355128,0.00174656,-0.00043399,-0.00023969,0.00039804,-0.00000212
 ,0.00010646,-0.00007345,0.00002557,-0.00006079,0.00001492,-0.00000647,
 -0.00001156,-0.00002746,-0.00000077,0.00000753,0.00001319,-0.00002862,
 0.00001621,-0.00003118,0.00003378,-0.00001723,0.00001303,-0.00002400,-
 0.00000168,-0.00000021,-0.00001970,0.00001730,-0.00001202,-0.00002201,
 0.00001601,-0.00001261,0.00000515,-0.00000821,0.00003733,0.00003719,0.
 00002047,-0.00001599,0.00000646,-0.00001982,0.00001557,0.00002218,0.00
 000514,0.00001855,-0.00000354,-0.00000385,-0.00000254,0.00001778,0.000
 00359,0.00002574,-0.00000510,-0.00000344,-0.00000169,-0.00000235,0.000
 00039,0.00000210,-0.00000046,0.00000084,0.00000073,-0.00000037,-0.0000
 0071,0.00000058,-0.00005590,0.00001359,-0.00000936,-0.01273379,-0.0057
 5399,0.00860566,0.08253059,0.04942571,-0.08703090,-0.00002580,-0.00269
 399,-0.00068007,0.00104678,0.00049958,-0.00024758,0.00016791,-0.000493
 48,-0.00034747,0.00003839,0.00000196,-0.00003056,-0.00002445,0.0000193
 4,0.00000862,-0.00000662,0.00002256,-0.00001700,0.00000208,-0.00000233
 ,-0.00000223,-0.00000423,0.00000224,0.00000620,-0.00001549,-0.00000728
 ,-0.00002130,0.00000439,-0.00001080,0.00000826,0.00000103,0.00000279,-
 0.00000721,0.00000090,-0.00000362,-0.00000417,-0.00000167,-0.00000264,
 -0.00000204,0.00000496,0.00000208,0.00000027,-0.00000269,0.00000086,0.
 00000340,0.00000311,-0.00000153,-0.00000083,-0.00000126,-0.00000150,0.
 00000095,0.00000191,-0.00000114,-0.00000067,0.00000197,-0.00000083,0.0
 0000024,-0.00000162,-0.00000039,0.00000004,0.00000262,-0.00000175,0.00
 000052,-0.00000045,0.00000148,-0.00000103,0.00083544,-0.00232326,-0.00
 083830,-0.08868744,-0.05696641,0.08440724\\-0.00000079,-0.00000035,0.0
 0000022,0.00000043,0.00000032,0.00000030,0.00000023,0.00000018,0.00000
 132,-0.00000123,0.00000104,-0.00000417,0.00000244,0.00000049,0.0000026
 5,-0.00000565,-0.00000383,0.00000058,0.00000406,0.00000315,0.00000019,
 -0.00000395,-0.00000141,0.00000212,0.00000320,0.00000633,-0.00000505,0
 .00000751,-0.00000124,0.00000658,-0.00000147,-0.00000005,-0.00000446,0
 .00000127,0.00000254,0.00000033,0.00000219,-0.00000414,0.00000576,0.00
 000044,0.00000162,-0.00000193,-0.00000086,-0.00000025,-0.00000101,0.00
 000011,0.00000008,0.00000111,0.00000113,0.00000157,-0.00000071,-0.0000
 0165,0.00000183,-0.00000144,-0.00000533,-0.00000127,-0.00000124,-0.000
 00096,-0.00000345,0.00000097,-0.00000793,-0.00000472,0.00000021,0.0000
 0896,0.00000292,0.00000457,-0.00000016,0.00000629,-0.00000704,-0.00000
 344,-0.00000779,0.00000430,0.00000075,-0.00000241,-0.00000249,0.000001
 14,-0.00000026,0.00000095,-0.00000074,0.00000004,-0.00000053,-0.000000
 46,0.00000057,-0.00000041,-0.00000022,0.00000038,-0.00000058,0.0000006
 9,-0.00000036,-0.00000020,-0.00000040,0.00000037,-0.00000012,0.0000001
 4,-0.00000040,-0.00000024,-0.00000006,0.00000050,-0.00000011,-0.000000
 49,-0.00000040,0.00000057,0.00000065,0.00000034,-0.00000012,-0.0000004
 3,0.00000026,0.00000103,-0.00000031,-0.00000014,0.00000039,-0.00000012
 ,0.00000035,-0.00000016,0.00000012,0.00000029,0.00000005,0.00000226,0.
 00000101,0.00000065,0.00000120,0.00000037,-0.00000212,0.00000043,0.000
 00058,-0.00000052,0.00000048,0.00000066,0.00000051,-0.00000136,0.00000
 002,0.00000008,-0.00000076,-0.00000088,-0.00000043,-0.00000013,-0.0000
 0100,0.00000016,0.00000069,-0.00000024,0.00000030,-0.00000056,0.000000
 50,-0.00000075,-0.00000002,0.00000015,-0.00000029,-0.00000047,-0.00000
 015,0.00000010,-0.00000060,0.,0.00000011\\\@
 The archive entry for this job was punched.


 WHEN HAVING A MEETING OF THE MINDS,
 MAKE SURE YOU HAVE THE EQUIPMENT FOR IT.
 Job cpu time:       0 days  3 hours 52 minutes 41.7 seconds.
 Elapsed time:       0 days  0 hours  5 minutes 53.1 seconds.
 File lengths (MBytes):  RWF=   1102 Int=      0 D2E=      0 Chk=     18 Scr=      1
 Normal termination of Gaussian 16 at Sun Feb 25 09:32:08 2024.
