 Entering Gaussian System, Link 0=g16
 Initial command:
 /public/apps/g16-C01//g16/l1.exe "/public/home/ljq/tmp/Gau-57116.inp" -scrdir="/public/home/ljq/tmp/"
 Entering Link 1 = /public/apps/g16-C01//g16/l1.exe PID=     57117.
  
 Copyright (c) 1988-2019, Gaussian, Inc.  All Rights Reserved.
  
 This is part of the Gaussian(R) 16 program.  It is based on
 the Gaussian(R) 09 system (copyright 2009, Gaussian, Inc.),
 the Gaussian(R) 03 system (copyright 2003, Gaussian, Inc.),
 the Gaussian(R) 98 system (copyright 1998, Gaussian, Inc.),
 the Gaussian(R) 94 system (copyright 1995, Gaussian, Inc.),
 the Gaussian 92(TM) system (copyright 1992, Gaussian, Inc.),
 the Gaussian 90(TM) system (copyright 1990, Gaussian, Inc.),
 the Gaussian 88(TM) system (copyright 1988, Gaussian, Inc.),
 the Gaussian 86(TM) system (copyright 1986, Carnegie Mellon
 University), and the Gaussian 82(TM) system (copyright 1983,
 Carnegie Mellon University). Gaussian is a federally registered
 trademark of Gaussian, Inc.
  
 This software contains proprietary and confidential information,
 including trade secrets, belonging to Gaussian, Inc.
  
 This software is provided under written license and may be
 used, copied, transmitted, or stored only in accord with that
 written license.
  
 The following legend is applicable only to US Government
 contracts under FAR:
  
                    RESTRICTED RIGHTS LEGEND
  
 Use, reproduction and disclosure by the US Government is
 subject to restrictions as set forth in subparagraphs (a)
 and (c) of the Commercial Computer Software - Restricted
 Rights clause in FAR 52.227-19.
  
 Gaussian, Inc.
 340 Quinnipiac St., Bldg. 40, Wallingford CT 06492
  
  
 ---------------------------------------------------------------
 Warning -- This program may not be used in any manner that
 competes with the business of Gaussian, Inc. or will provide
 assistance to any competitor of Gaussian, Inc.  The licensee
 of this program is prohibited from giving any competitor of
 Gaussian, Inc. access to this program.  By using this program,
 the user acknowledges that Gaussian, Inc. is engaged in the
 business of creating and licensing software in the field of
 computational chemistry and represents and warrants to the
 licensee that it is not a competitor of Gaussian, Inc. and that
 it will not use this program in any manner prohibited above.
 ---------------------------------------------------------------
  

 Cite this work as:
 Gaussian 16, Revision C.01,
 M. J. Frisch, G. W. Trucks, H. B. Schlegel, G. E. Scuseria, 
 M. A. Robb, J. R. Cheeseman, G. Scalmani, V. Barone, 
 G. A. Petersson, H. Nakatsuji, X. Li, M. Caricato, A. V. Marenich, 
 J. Bloino, B. G. Janesko, R. Gomperts, B. Mennucci, H. P. Hratchian, 
 J. V. Ortiz, A. F. Izmaylov, J. L. Sonnenberg, D. Williams-Young, 
 F. Ding, F. Lipparini, F. Egidi, J. Goings, B. Peng, A. Petrone, 
 T. Henderson, D. Ranasinghe, V. G. Zakrzewski, J. Gao, N. Rega, 
 G. Zheng, W. Liang, M. Hada, M. Ehara, K. Toyota, R. Fukuda, 
 J. Hasegawa, M. Ishida, T. Nakajima, Y. Honda, O. Kitao, H. Nakai, 
 T. Vreven, K. Throssell, J. A. Montgomery, Jr., J. E. Peralta, 
 F. Ogliaro, M. J. Bearpark, J. J. Heyd, E. N. Brothers, K. N. Kudin, 
 V. N. Staroverov, T. A. Keith, R. Kobayashi, J. Normand, 
 K. Raghavachari, A. P. Rendell, J. C. Burant, S. S. Iyengar, 
 J. Tomasi, M. Cossi, J. M. Millam, M. Klene, C. Adamo, R. Cammi, 
 J. W. Ochterski, R. L. Martin, K. Morokuma, O. Farkas, 
 J. B. Foresman, and D. J. Fox, Gaussian, Inc., Wallingford CT, 2019.
 
 ******************************************
 Gaussian 16:  ES64L-G16RevC.01  3-Jul-2019
                26-Feb-2024 
 ******************************************
 %nproc=40
 Will use up to   40 processors via shared memory.
 %mem=56GB
 ------------------------------------------
 #p opt freq b3lyp/def2svpp em=gd3bj nosymm
 ------------------------------------------
 1/18=20,19=15,26=3,38=1/1,3;
 2/9=110,12=2,15=1,17=6,18=5,40=1/2;
 3/5=43,7=202,11=2,25=1,30=1,71=1,74=-5,124=41/1,2,3;
 4//1;
 5/5=2,38=5/2;
 6/7=2,8=2,9=2,10=2,28=1/1;
 7/30=1/1,2,3,16;
 1/18=20,19=15,26=3/3(2);
 2/9=110,15=1/2;
 99//99;
 2/9=110,15=1/2;
 3/5=43,7=202,11=2,25=1,30=1,71=1,74=-5,124=41/1,2,3;
 4/5=5,16=3,69=1/1;
 5/5=2,38=5/2;
 7/30=1/1,2,3,16;
 1/18=20,19=15,26=3/3(-5);
 2/9=110,15=1/2;
 6/7=2,8=2,9=2,10=2,19=2,28=1/1;
 99/9=1/99;
 Leave Link    1 at Mon Feb 26 03:08:47 2024, MaxMem=  7516192768 cpu:               2.4 elap:               0.1
 (Enter /public/apps/g16-C01//g16/l101.exe)
 ----------------------
 $$$$Singlemol####0????
 ----------------------
 Symbolic Z-matrix:
 Charge =  0 Multiplicity = 1
 C                     3.90075  -3.74743   3.35326 
 C                     4.07652  -2.52735   2.45378 
 C                     4.03082  -1.23206   3.26002 
 C                     3.04282  -2.53491   1.30947 
 C                     1.5785   -2.27364   1.7409 
 N                     1.36103  -0.91899   1.26177 
 C                     0.21231  -0.1878    1.47168 
 C                    -1.01884  -0.82369   1.65955 
 C                    -2.17856  -0.08528   1.75792 
 C                    -2.1236    1.3016    1.70332 
 C                    -3.38811   2.10376   1.71031 
 F                    -3.23587   3.32166   2.25587 
 F                    -3.84328   2.32053   0.45423 
 F                    -4.39091   1.51085   2.37063 
 C                    -0.89764   1.94821   1.59176 
 C                     0.26118   1.21096   1.49061 
 C                     2.41827  -0.60712   0.42427 
 C                     2.42219   0.60772  -0.39611 
 N                     3.35128   1.47137  -0.33867 
 C                     3.05517   2.53586  -1.27454 
 C                     4.1007    2.52836  -2.40805 
 C                     3.93479   3.74897  -3.30871 
 C                     4.06285   1.23344  -3.2153 
 C                     1.59551   2.27415  -1.72109 
 N                     1.37354   0.91931  -1.24448 
 C                     0.22764   0.18769  -1.46758 
 C                     0.2768   -1.21109  -1.48514 
 C                    -0.88064  -1.94848  -1.60014 
 C                    -2.1052   -1.30209  -1.72723 
 C                    -3.36926  -2.10466  -1.74983 
 F                    -3.21052  -3.32127  -2.2965 
 F                    -4.36504  -1.51069  -2.41967 
 F                    -3.83799  -2.32459  -0.49927 
 C                    -2.15959   0.08475  -1.78314 
 C                    -1.00124   0.82331  -1.67075 
 N                     3.34829  -1.47037   0.37665 
 H                     2.93827  -3.72695   3.85988 
 H                     3.96424  -4.66606   2.77453 
 H                     4.68059  -3.76528   4.11035 
 H                     5.05476  -2.58662   1.96654 
 H                     4.83892  -1.22368   3.98725 
 H                     4.15303  -0.37469   2.60218 
 H                     3.09153  -1.13005   3.79972 
 H                     3.1364   -3.48812   0.77938 
 H                     0.89518  -2.97755   1.25241 
 H                     1.4285   -2.32484   2.81954 
 H                    -1.07531  -1.89913   1.69331 
 H                    -3.1286   -0.58533   1.86426 
 H                    -0.85704   3.02686   1.59639 
 H                     1.21516   1.71119   1.43148 
 H                     3.14302   3.48911  -0.74355 
 H                     5.07384   2.58697  -1.91063 
 H                     3.99364   4.6673   -2.72902 
 H                     4.72193   3.76631  -4.05822 
 H                     2.97722   3.72964  -3.82457 
 H                     3.12912   1.13196  -3.76465 
 H                     4.87834   1.22512  -3.93423 
 H                     4.17805   0.37575  -2.55663 
 H                     1.45663   2.32552  -2.80122 
 H                     0.9069    2.97767  -1.23953 
 H                     1.22999  -1.71129  -1.41416 
 H                    -0.83987  -3.02713  -1.60374 
 H                    -3.10827   0.58469  -1.90148 
 H                    -1.05746   1.89872  -1.70572 
 
 ITRead=  0  0  0  0  0  0  0  0  0  0  0  0  0  0  0  0  0  0  0  0
 ITRead=  0  0  0  0  0  0  0  0  0  0  0  0  0  0  0  0  0  0  0  0
 ITRead=  0  0  0  0  0  0  0  0  0  0  0  0  0  0  0  0  0  0  0  0
 ITRead=  0  0  0  0
 MicOpt= -1 -1 -1 -1 -1 -1 -1 -1 -1 -1 -1 -1 -1 -1 -1 -1 -1 -1 -1 -1
 MicOpt= -1 -1 -1 -1 -1 -1 -1 -1 -1 -1 -1 -1 -1 -1 -1 -1 -1 -1 -1 -1
 MicOpt= -1 -1 -1 -1 -1 -1 -1 -1 -1 -1 -1 -1 -1 -1 -1 -1 -1 -1 -1 -1
 MicOpt= -1 -1 -1 -1
 NAtoms=     64 NQM=       64 NQMF=       0 NMMI=      0 NMMIF=      0
                NMic=       0 NMicF=      0.
                    Isotopes and Nuclear Properties:
 (Nuclear quadrupole moments (NQMom) in fm**2, nuclear magnetic moments (NMagM)
  in nuclear magnetons)

  Atom         1           2           3           4           5           6           7           8           9          10
 IAtWgt=          12          12          12          12          12          14          12          12          12          12
 AtmWgt=  12.0000000  12.0000000  12.0000000  12.0000000  12.0000000  14.0030740  12.0000000  12.0000000  12.0000000  12.0000000
 NucSpn=           0           0           0           0           0           2           0           0           0           0
 AtZEff=  -0.0000000  -0.0000000  -0.0000000  -0.0000000  -0.0000000  -0.0000000  -0.0000000  -0.0000000  -0.0000000  -0.0000000
 NQMom=    0.0000000   0.0000000   0.0000000   0.0000000   0.0000000   2.0440000   0.0000000   0.0000000   0.0000000   0.0000000
 NMagM=    0.0000000   0.0000000   0.0000000   0.0000000   0.0000000   0.4037610   0.0000000   0.0000000   0.0000000   0.0000000
 AtZNuc=   6.0000000   6.0000000   6.0000000   6.0000000   6.0000000   7.0000000   6.0000000   6.0000000   6.0000000   6.0000000

  Atom        11          12          13          14          15          16          17          18          19          20
 IAtWgt=          12          19          19          19          12          12          12          12          14          12
 AtmWgt=  12.0000000  18.9984032  18.9984032  18.9984032  12.0000000  12.0000000  12.0000000  12.0000000  14.0030740  12.0000000
 NucSpn=           0           1           1           1           0           0           0           0           2           0
 AtZEff=  -0.0000000  -0.0000000  -0.0000000  -0.0000000  -0.0000000  -0.0000000  -0.0000000  -0.0000000  -0.0000000  -0.0000000
 NQMom=    0.0000000   0.0000000   0.0000000   0.0000000   0.0000000   0.0000000   0.0000000   0.0000000   2.0440000   0.0000000
 NMagM=    0.0000000   2.6288670   2.6288670   2.6288670   0.0000000   0.0000000   0.0000000   0.0000000   0.4037610   0.0000000
 AtZNuc=   6.0000000   9.0000000   9.0000000   9.0000000   6.0000000   6.0000000   6.0000000   6.0000000   7.0000000   6.0000000

  Atom        21          22          23          24          25          26          27          28          29          30
 IAtWgt=          12          12          12          12          14          12          12          12          12          12
 AtmWgt=  12.0000000  12.0000000  12.0000000  12.0000000  14.0030740  12.0000000  12.0000000  12.0000000  12.0000000  12.0000000
 NucSpn=           0           0           0           0           2           0           0           0           0           0
 AtZEff=  -0.0000000  -0.0000000  -0.0000000  -0.0000000  -0.0000000  -0.0000000  -0.0000000  -0.0000000  -0.0000000  -0.0000000
 NQMom=    0.0000000   0.0000000   0.0000000   0.0000000   2.0440000   0.0000000   0.0000000   0.0000000   0.0000000   0.0000000
 NMagM=    0.0000000   0.0000000   0.0000000   0.0000000   0.4037610   0.0000000   0.0000000   0.0000000   0.0000000   0.0000000
 AtZNuc=   6.0000000   6.0000000   6.0000000   6.0000000   7.0000000   6.0000000   6.0000000   6.0000000   6.0000000   6.0000000

  Atom        31          32          33          34          35          36          37          38          39          40
 IAtWgt=          19          19          19          12          12          14           1           1           1           1
 AtmWgt=  18.9984032  18.9984032  18.9984032  12.0000000  12.0000000  14.0030740   1.0078250   1.0078250   1.0078250   1.0078250
 NucSpn=           1           1           1           0           0           2           1           1           1           1
 AtZEff=  -0.0000000  -0.0000000  -0.0000000  -0.0000000  -0.0000000  -0.0000000  -0.0000000  -0.0000000  -0.0000000  -0.0000000
 NQMom=    0.0000000   0.0000000   0.0000000   0.0000000   0.0000000   2.0440000   0.0000000   0.0000000   0.0000000   0.0000000
 NMagM=    2.6288670   2.6288670   2.6288670   0.0000000   0.0000000   0.4037610   2.7928460   2.7928460   2.7928460   2.7928460
 AtZNuc=   9.0000000   9.0000000   9.0000000   6.0000000   6.0000000   7.0000000   1.0000000   1.0000000   1.0000000   1.0000000

  Atom        41          42          43          44          45          46          47          48          49          50
 IAtWgt=           1           1           1           1           1           1           1           1           1           1
 AtmWgt=   1.0078250   1.0078250   1.0078250   1.0078250   1.0078250   1.0078250   1.0078250   1.0078250   1.0078250   1.0078250
 NucSpn=           1           1           1           1           1           1           1           1           1           1
 AtZEff=  -0.0000000  -0.0000000  -0.0000000  -0.0000000  -0.0000000  -0.0000000  -0.0000000  -0.0000000  -0.0000000  -0.0000000
 NQMom=    0.0000000   0.0000000   0.0000000   0.0000000   0.0000000   0.0000000   0.0000000   0.0000000   0.0000000   0.0000000
 NMagM=    2.7928460   2.7928460   2.7928460   2.7928460   2.7928460   2.7928460   2.7928460   2.7928460   2.7928460   2.7928460
 AtZNuc=   1.0000000   1.0000000   1.0000000   1.0000000   1.0000000   1.0000000   1.0000000   1.0000000   1.0000000   1.0000000

  Atom        51          52          53          54          55          56          57          58          59          60
 IAtWgt=           1           1           1           1           1           1           1           1           1           1
 AtmWgt=   1.0078250   1.0078250   1.0078250   1.0078250   1.0078250   1.0078250   1.0078250   1.0078250   1.0078250   1.0078250
 NucSpn=           1           1           1           1           1           1           1           1           1           1
 AtZEff=  -0.0000000  -0.0000000  -0.0000000  -0.0000000  -0.0000000  -0.0000000  -0.0000000  -0.0000000  -0.0000000  -0.0000000
 NQMom=    0.0000000   0.0000000   0.0000000   0.0000000   0.0000000   0.0000000   0.0000000   0.0000000   0.0000000   0.0000000
 NMagM=    2.7928460   2.7928460   2.7928460   2.7928460   2.7928460   2.7928460   2.7928460   2.7928460   2.7928460   2.7928460
 AtZNuc=   1.0000000   1.0000000   1.0000000   1.0000000   1.0000000   1.0000000   1.0000000   1.0000000   1.0000000   1.0000000

  Atom        61          62          63          64
 IAtWgt=           1           1           1           1
 AtmWgt=   1.0078250   1.0078250   1.0078250   1.0078250
 NucSpn=           1           1           1           1
 AtZEff=  -0.0000000  -0.0000000  -0.0000000  -0.0000000
 NQMom=    0.0000000   0.0000000   0.0000000   0.0000000
 NMagM=    2.7928460   2.7928460   2.7928460   2.7928460
 AtZNuc=   1.0000000   1.0000000   1.0000000   1.0000000
 Leave Link  101 at Mon Feb 26 03:08:47 2024, MaxMem=  7516192768 cpu:              10.9 elap:               0.3
 (Enter /public/apps/g16-C01//g16/l103.exe)

 GradGradGradGradGradGradGradGradGradGradGradGradGradGradGradGradGradGrad
 Berny optimization.
 Initialization pass.
                           ----------------------------
                           !    Initial Parameters    !
                           ! (Angstroms and Degrees)  !
 --------------------------                            --------------------------
 ! Name  Definition              Value          Derivative Info.                !
 --------------------------------------------------------------------------------
 ! R1    R(1,2)                  1.526          estimate D2E/DX2                !
 ! R2    R(1,37)                 1.0879         estimate D2E/DX2                !
 ! R3    R(1,38)                 1.0876         estimate D2E/DX2                !
 ! R4    R(1,39)                 1.087          estimate D2E/DX2                !
 ! R5    R(2,3)                  1.5264         estimate D2E/DX2                !
 ! R6    R(2,4)                  1.5421         estimate D2E/DX2                !
 ! R7    R(2,40)                 1.0945         estimate D2E/DX2                !
 ! R8    R(3,41)                 1.0872         estimate D2E/DX2                !
 ! R9    R(3,42)                 1.0875         estimate D2E/DX2                !
 ! R10   R(3,43)                 1.0881         estimate D2E/DX2                !
 ! R11   R(4,5)                  1.5487         estimate D2E/DX2                !
 ! R12   R(4,36)                 1.448          estimate D2E/DX2                !
 ! R13   R(4,44)                 1.0947         estimate D2E/DX2                !
 ! R14   R(5,6)                  1.4532         estimate D2E/DX2                !
 ! R15   R(5,45)                 1.0959         estimate D2E/DX2                !
 ! R16   R(5,46)                 1.0902         estimate D2E/DX2                !
 ! R17   R(6,7)                  1.3778         estimate D2E/DX2                !
 ! R18   R(6,17)                 1.3844         estimate D2E/DX2                !
 ! R19   R(7,8)                  1.3983         estimate D2E/DX2                !
 ! R20   R(7,16)                 1.3997         estimate D2E/DX2                !
 ! R21   R(8,9)                  1.3784         estimate D2E/DX2                !
 ! R22   R(8,47)                 1.0774         estimate D2E/DX2                !
 ! R23   R(9,10)                 1.389          estimate D2E/DX2                !
 ! R24   R(9,48)                 1.0789         estimate D2E/DX2                !
 ! R25   R(10,11)                1.4975         estimate D2E/DX2                !
 ! R26   R(10,15)                1.3905         estimate D2E/DX2                !
 ! R27   R(11,12)                1.3432         estimate D2E/DX2                !
 ! R28   R(11,13)                1.3535         estimate D2E/DX2                !
 ! R29   R(11,14)                1.3391         estimate D2E/DX2                !
 ! R30   R(15,16)                1.3772         estimate D2E/DX2                !
 ! R31   R(15,49)                1.0794         estimate D2E/DX2                !
 ! R32   R(16,50)                1.0788         estimate D2E/DX2                !
 ! R33   R(17,18)                1.4659         estimate D2E/DX2                !
 ! R34   R(17,36)                1.2698         estimate D2E/DX2                !
 ! R35   R(18,19)                1.2698         estimate D2E/DX2                !
 ! R36   R(18,25)                1.3844         estimate D2E/DX2                !
 ! R37   R(19,20)                1.448          estimate D2E/DX2                !
 ! R38   R(20,21)                1.5421         estimate D2E/DX2                !
 ! R39   R(20,24)                1.5487         estimate D2E/DX2                !
 ! R40   R(20,51)                1.0947         estimate D2E/DX2                !
 ! R41   R(21,22)                1.526          estimate D2E/DX2                !
 ! R42   R(21,23)                1.5264         estimate D2E/DX2                !
 ! R43   R(21,52)                1.0945         estimate D2E/DX2                !
 ! R44   R(22,53)                1.0876         estimate D2E/DX2                !
 ! R45   R(22,54)                1.087          estimate D2E/DX2                !
 ! R46   R(22,55)                1.0879         estimate D2E/DX2                !
 ! R47   R(23,56)                1.0881         estimate D2E/DX2                !
 ! R48   R(23,57)                1.0872         estimate D2E/DX2                !
 ! R49   R(23,58)                1.0875         estimate D2E/DX2                !
 ! R50   R(24,25)                1.4533         estimate D2E/DX2                !
 ! R51   R(24,59)                1.0902         estimate D2E/DX2                !
 ! R52   R(24,60)                1.0959         estimate D2E/DX2                !
 ! R53   R(25,26)                1.3777         estimate D2E/DX2                !
 ! R54   R(26,27)                1.3998         estimate D2E/DX2                !
 ! R55   R(26,35)                1.3984         estimate D2E/DX2                !
 ! R56   R(27,28)                1.3772         estimate D2E/DX2                !
 ! R57   R(27,61)                1.0788         estimate D2E/DX2                !
 ! R58   R(28,29)                1.3905         estimate D2E/DX2                !
 ! R59   R(28,62)                1.0794         estimate D2E/DX2                !
 ! R60   R(29,30)                1.4975         estimate D2E/DX2                !
 ! R61   R(29,34)                1.389          estimate D2E/DX2                !
 ! R62   R(30,31)                1.3432         estimate D2E/DX2                !
 ! R63   R(30,32)                1.339          estimate D2E/DX2                !
 ! R64   R(30,33)                1.3535         estimate D2E/DX2                !
 ! R65   R(34,35)                1.3784         estimate D2E/DX2                !
 ! R66   R(34,63)                1.0789         estimate D2E/DX2                !
 ! R67   R(35,64)                1.0774         estimate D2E/DX2                !
 ! A1    A(2,1,37)             111.1837         estimate D2E/DX2                !
 ! A2    A(2,1,38)             110.79           estimate D2E/DX2                !
 ! A3    A(2,1,39)             109.9394         estimate D2E/DX2                !
 ! A4    A(37,1,38)            108.3833         estimate D2E/DX2                !
 ! A5    A(37,1,39)            108.1003         estimate D2E/DX2                !
 ! A6    A(38,1,39)            108.3525         estimate D2E/DX2                !
 ! A7    A(1,2,3)              111.3271         estimate D2E/DX2                !
 ! A8    A(1,2,4)              110.8714         estimate D2E/DX2                !
 ! A9    A(1,2,40)             108.7879         estimate D2E/DX2                !
 ! A10   A(3,2,4)              112.0889         estimate D2E/DX2                !
 ! A11   A(3,2,40)             107.9301         estimate D2E/DX2                !
 ! A12   A(4,2,40)             105.5767         estimate D2E/DX2                !
 ! A13   A(2,3,41)             109.7309         estimate D2E/DX2                !
 ! A14   A(2,3,42)             110.25           estimate D2E/DX2                !
 ! A15   A(2,3,43)             111.5546         estimate D2E/DX2                !
 ! A16   A(41,3,42)            108.362          estimate D2E/DX2                !
 ! A17   A(41,3,43)            108.0076         estimate D2E/DX2                !
 ! A18   A(42,3,43)            108.8521         estimate D2E/DX2                !
 ! A19   A(2,4,5)              115.2295         estimate D2E/DX2                !
 ! A20   A(2,4,36)             109.4523         estimate D2E/DX2                !
 ! A21   A(2,4,44)             107.836          estimate D2E/DX2                !
 ! A22   A(5,4,36)             104.7672         estimate D2E/DX2                !
 ! A23   A(5,4,44)             111.2605         estimate D2E/DX2                !
 ! A24   A(36,4,44)            108.0699         estimate D2E/DX2                !
 ! A25   A(4,5,6)              101.9409         estimate D2E/DX2                !
 ! A26   A(4,5,45)             110.9164         estimate D2E/DX2                !
 ! A27   A(4,5,46)             113.4389         estimate D2E/DX2                !
 ! A28   A(6,5,45)             111.0056         estimate D2E/DX2                !
 ! A29   A(6,5,46)             110.4492         estimate D2E/DX2                !
 ! A30   A(45,5,46)            108.9681         estimate D2E/DX2                !
 ! A31   A(5,6,7)              124.6968         estimate D2E/DX2                !
 ! A32   A(5,6,17)             107.1673         estimate D2E/DX2                !
 ! A33   A(7,6,17)             127.5434         estimate D2E/DX2                !
 ! A34   A(6,7,8)              120.877          estimate D2E/DX2                !
 ! A35   A(6,7,16)             120.2173         estimate D2E/DX2                !
 ! A36   A(8,7,16)             118.9042         estimate D2E/DX2                !
 ! A37   A(7,8,9)              120.4474         estimate D2E/DX2                !
 ! A38   A(7,8,47)             120.2815         estimate D2E/DX2                !
 ! A39   A(9,8,47)             119.2345         estimate D2E/DX2                !
 ! A40   A(8,9,10)             119.9196         estimate D2E/DX2                !
 ! A41   A(8,9,48)             119.9765         estimate D2E/DX2                !
 ! A42   A(10,9,48)            120.0991         estimate D2E/DX2                !
 ! A43   A(9,10,11)            120.0816         estimate D2E/DX2                !
 ! A44   A(9,10,15)            120.1547         estimate D2E/DX2                !
 ! A45   A(11,10,15)           119.7204         estimate D2E/DX2                !
 ! A46   A(10,11,12)           113.0724         estimate D2E/DX2                !
 ! A47   A(10,11,13)           111.4345         estimate D2E/DX2                !
 ! A48   A(10,11,14)           113.4206         estimate D2E/DX2                !
 ! A49   A(12,11,13)           105.6546         estimate D2E/DX2                !
 ! A50   A(12,11,14)           106.6227         estimate D2E/DX2                !
 ! A51   A(13,11,14)           106.0633         estimate D2E/DX2                !
 ! A52   A(10,15,16)           119.9217         estimate D2E/DX2                !
 ! A53   A(10,15,49)           119.8353         estimate D2E/DX2                !
 ! A54   A(16,15,49)           120.2392         estimate D2E/DX2                !
 ! A55   A(7,16,15)            120.4359         estimate D2E/DX2                !
 ! A56   A(7,16,50)            119.5707         estimate D2E/DX2                !
 ! A57   A(15,16,50)           119.9924         estimate D2E/DX2                !
 ! A58   A(6,17,18)            121.8236         estimate D2E/DX2                !
 ! A59   A(6,17,36)            115.3971         estimate D2E/DX2                !
 ! A60   A(18,17,36)           122.7141         estimate D2E/DX2                !
 ! A61   A(17,18,19)           122.7038         estimate D2E/DX2                !
 ! A62   A(17,18,25)           121.8345         estimate D2E/DX2                !
 ! A63   A(19,18,25)           115.396          estimate D2E/DX2                !
 ! A64   A(18,19,20)           108.7322         estimate D2E/DX2                !
 ! A65   A(19,20,21)           109.4427         estimate D2E/DX2                !
 ! A66   A(19,20,24)           104.7659         estimate D2E/DX2                !
 ! A67   A(19,20,51)           108.0739         estimate D2E/DX2                !
 ! A68   A(21,20,24)           115.2294         estimate D2E/DX2                !
 ! A69   A(21,20,51)           107.8405         estimate D2E/DX2                !
 ! A70   A(24,20,51)           111.2627         estimate D2E/DX2                !
 ! A71   A(20,21,22)           110.8697         estimate D2E/DX2                !
 ! A72   A(20,21,23)           112.0891         estimate D2E/DX2                !
 ! A73   A(20,21,52)           105.5751         estimate D2E/DX2                !
 ! A74   A(22,21,23)           111.3304         estimate D2E/DX2                !
 ! A75   A(22,21,52)           108.7891         estimate D2E/DX2                !
 ! A76   A(23,21,52)           107.9286         estimate D2E/DX2                !
 ! A77   A(21,22,53)           110.7898         estimate D2E/DX2                !
 ! A78   A(21,22,54)           109.9376         estimate D2E/DX2                !
 ! A79   A(21,22,55)           111.1845         estimate D2E/DX2                !
 ! A80   A(53,22,54)           108.3519         estimate D2E/DX2                !
 ! A81   A(53,22,55)           108.3835         estimate D2E/DX2                !
 ! A82   A(54,22,55)           108.1019         estimate D2E/DX2                !
 ! A83   A(21,23,56)           111.5557         estimate D2E/DX2                !
 ! A84   A(21,23,57)           109.7318         estimate D2E/DX2                !
 ! A85   A(21,23,58)           110.2502         estimate D2E/DX2                !
 ! A86   A(56,23,57)           108.0062         estimate D2E/DX2                !
 ! A87   A(56,23,58)           108.8515         estimate D2E/DX2                !
 ! A88   A(57,23,58)           108.3616         estimate D2E/DX2                !
 ! A89   A(20,24,25)           101.9425         estimate D2E/DX2                !
 ! A90   A(20,24,59)           113.4386         estimate D2E/DX2                !
 ! A91   A(20,24,60)           110.9179         estimate D2E/DX2                !
 ! A92   A(25,24,59)           110.4501         estimate D2E/DX2                !
 ! A93   A(25,24,60)           111.0009         estimate D2E/DX2                !
 ! A94   A(59,24,60)           108.969          estimate D2E/DX2                !
 ! A95   A(18,25,24)           107.1647         estimate D2E/DX2                !
 ! A96   A(18,25,26)           127.5705         estimate D2E/DX2                !
 ! A97   A(24,25,26)           124.6801         estimate D2E/DX2                !
 ! A98   A(25,26,27)           120.231          estimate D2E/DX2                !
 ! A99   A(25,26,35)           120.8684         estimate D2E/DX2                !
 ! A100  A(27,26,35)           118.8992         estimate D2E/DX2                !
 ! A101  A(26,27,28)           120.4372         estimate D2E/DX2                !
 ! A102  A(26,27,61)           119.5739         estimate D2E/DX2                !
 ! A103  A(28,27,61)           119.9878         estimate D2E/DX2                !
 ! A104  A(27,28,29)           119.9248         estimate D2E/DX2                !
 ! A105  A(27,28,62)           120.2378         estimate D2E/DX2                !
 ! A106  A(29,28,62)           119.8334         estimate D2E/DX2                !
 ! A107  A(28,29,30)           119.7106         estimate D2E/DX2                !
 ! A108  A(28,29,34)           120.1518         estimate D2E/DX2                !
 ! A109  A(30,29,34)           120.0948         estimate D2E/DX2                !
 ! A110  A(29,30,31)           113.0676         estimate D2E/DX2                !
 ! A111  A(29,30,32)           113.425          estimate D2E/DX2                !
 ! A112  A(29,30,33)           111.4361         estimate D2E/DX2                !
 ! A113  A(31,30,32)           106.6227         estimate D2E/DX2                !
 ! A114  A(31,30,33)           105.6509         estimate D2E/DX2                !
 ! A115  A(32,30,33)           106.0657         estimate D2E/DX2                !
 ! A116  A(29,34,35)           119.9198         estimate D2E/DX2                !
 ! A117  A(29,34,63)           120.1002         estimate D2E/DX2                !
 ! A118  A(35,34,63)           119.9752         estimate D2E/DX2                !
 ! A119  A(26,35,34)           120.4519         estimate D2E/DX2                !
 ! A120  A(26,35,64)           120.2822         estimate D2E/DX2                !
 ! A121  A(34,35,64)           119.2296         estimate D2E/DX2                !
 ! A122  A(4,36,17)            108.7308         estimate D2E/DX2                !
 ! D1    D(37,1,2,3)            61.0916         estimate D2E/DX2                !
 ! D2    D(37,1,2,4)           -64.4227         estimate D2E/DX2                !
 ! D3    D(37,1,2,40)          179.9018         estimate D2E/DX2                !
 ! D4    D(38,1,2,3)          -178.3163         estimate D2E/DX2                !
 ! D5    D(38,1,2,4)            56.1694         estimate D2E/DX2                !
 ! D6    D(38,1,2,40)          -59.5061         estimate D2E/DX2                !
 ! D7    D(39,1,2,3)           -58.5806         estimate D2E/DX2                !
 ! D8    D(39,1,2,4)           175.9052         estimate D2E/DX2                !
 ! D9    D(39,1,2,40)           60.2297         estimate D2E/DX2                !
 ! D10   D(1,2,3,41)            60.9844         estimate D2E/DX2                !
 ! D11   D(1,2,3,42)          -179.7385         estimate D2E/DX2                !
 ! D12   D(1,2,3,43)           -58.6717         estimate D2E/DX2                !
 ! D13   D(4,2,3,41)          -174.1811         estimate D2E/DX2                !
 ! D14   D(4,2,3,42)           -54.904          estimate D2E/DX2                !
 ! D15   D(4,2,3,43)            66.1628         estimate D2E/DX2                !
 ! D16   D(40,2,3,41)          -58.3379         estimate D2E/DX2                !
 ! D17   D(40,2,3,42)           60.9391         estimate D2E/DX2                !
 ! D18   D(40,2,3,43)         -177.9941         estimate D2E/DX2                !
 ! D19   D(1,2,4,5)             69.9284         estimate D2E/DX2                !
 ! D20   D(1,2,4,36)          -172.3455         estimate D2E/DX2                !
 ! D21   D(1,2,4,44)           -55.0099         estimate D2E/DX2                !
 ! D22   D(3,2,4,5)            -55.1576         estimate D2E/DX2                !
 ! D23   D(3,2,4,36)            62.5685         estimate D2E/DX2                !
 ! D24   D(3,2,4,44)           179.9041         estimate D2E/DX2                !
 ! D25   D(40,2,4,5)          -172.4185         estimate D2E/DX2                !
 ! D26   D(40,2,4,36)          -54.6924         estimate D2E/DX2                !
 ! D27   D(40,2,4,44)           62.6431         estimate D2E/DX2                !
 ! D28   D(2,4,5,6)            106.5565         estimate D2E/DX2                !
 ! D29   D(2,4,5,45)          -135.2103         estimate D2E/DX2                !
 ! D30   D(2,4,5,46)           -12.1881         estimate D2E/DX2                !
 ! D31   D(36,4,5,6)           -13.7696         estimate D2E/DX2                !
 ! D32   D(36,4,5,45)          104.4635         estimate D2E/DX2                !
 ! D33   D(36,4,5,46)         -132.5142         estimate D2E/DX2                !
 ! D34   D(44,4,5,6)          -130.3056         estimate D2E/DX2                !
 ! D35   D(44,4,5,45)          -12.0725         estimate D2E/DX2                !
 ! D36   D(44,4,5,46)          110.9498         estimate D2E/DX2                !
 ! D37   D(2,4,36,17)         -113.2744         estimate D2E/DX2                !
 ! D38   D(5,4,36,17)           10.822          estimate D2E/DX2                !
 ! D39   D(44,4,36,17)         129.5371         estimate D2E/DX2                !
 ! D40   D(4,5,6,7)           -176.071          estimate D2E/DX2                !
 ! D41   D(4,5,6,17)            12.1982         estimate D2E/DX2                !
 ! D42   D(45,5,6,7)            65.7596         estimate D2E/DX2                !
 ! D43   D(45,5,6,17)         -105.9712         estimate D2E/DX2                !
 ! D44   D(46,5,6,7)           -55.2227         estimate D2E/DX2                !
 ! D45   D(46,5,6,17)          133.0465         estimate D2E/DX2                !
 ! D46   D(5,6,7,8)            -27.0323         estimate D2E/DX2                !
 ! D47   D(5,6,7,16)           153.4125         estimate D2E/DX2                !
 ! D48   D(17,6,7,8)           142.9873         estimate D2E/DX2                !
 ! D49   D(17,6,7,16)          -36.5679         estimate D2E/DX2                !
 ! D50   D(5,6,17,18)          170.6229         estimate D2E/DX2                !
 ! D51   D(5,6,17,36)           -6.5158         estimate D2E/DX2                !
 ! D52   D(7,6,17,18)           -0.8002         estimate D2E/DX2                !
 ! D53   D(7,6,17,36)         -177.9389         estimate D2E/DX2                !
 ! D54   D(6,7,8,9)           -174.5924         estimate D2E/DX2                !
 ! D55   D(6,7,8,47)             3.1894         estimate D2E/DX2                !
 ! D56   D(16,7,8,9)             4.9686         estimate D2E/DX2                !
 ! D57   D(16,7,8,47)         -177.2496         estimate D2E/DX2                !
 ! D58   D(6,7,16,15)          174.7321         estimate D2E/DX2                !
 ! D59   D(6,7,16,50)           -5.6436         estimate D2E/DX2                !
 ! D60   D(8,7,16,15)           -4.8318         estimate D2E/DX2                !
 ! D61   D(8,7,16,50)          174.7924         estimate D2E/DX2                !
 ! D62   D(7,8,9,10)            -1.5856         estimate D2E/DX2                !
 ! D63   D(7,8,9,48)           177.6188         estimate D2E/DX2                !
 ! D64   D(47,8,9,10)         -179.3905         estimate D2E/DX2                !
 ! D65   D(47,8,9,48)           -0.186          estimate D2E/DX2                !
 ! D66   D(8,9,10,11)          175.5852         estimate D2E/DX2                !
 ! D67   D(8,9,10,15)           -2.0154         estimate D2E/DX2                !
 ! D68   D(48,9,10,11)          -3.6183         estimate D2E/DX2                !
 ! D69   D(48,9,10,15)         178.7811         estimate D2E/DX2                !
 ! D70   D(9,10,11,12)         151.1688         estimate D2E/DX2                !
 ! D71   D(9,10,11,13)         -89.994          estimate D2E/DX2                !
 ! D72   D(9,10,11,14)          29.6101         estimate D2E/DX2                !
 ! D73   D(15,10,11,12)        -31.2201         estimate D2E/DX2                !
 ! D74   D(15,10,11,13)         87.617          estimate D2E/DX2                !
 ! D75   D(15,10,11,14)       -152.7789         estimate D2E/DX2                !
 ! D76   D(9,10,15,16)           2.1508         estimate D2E/DX2                !
 ! D77   D(9,10,15,49)        -177.1356         estimate D2E/DX2                !
 ! D78   D(11,10,15,16)       -175.4584         estimate D2E/DX2                !
 ! D79   D(11,10,15,49)          5.2552         estimate D2E/DX2                !
 ! D80   D(10,15,16,7)           1.3131         estimate D2E/DX2                !
 ! D81   D(10,15,16,50)       -178.3095         estimate D2E/DX2                !
 ! D82   D(49,15,16,7)        -179.4033         estimate D2E/DX2                !
 ! D83   D(49,15,16,50)          0.974          estimate D2E/DX2                !
 ! D84   D(6,17,18,19)         123.9935         estimate D2E/DX2                !
 ! D85   D(6,17,18,25)         -52.9238         estimate D2E/DX2                !
 ! D86   D(36,17,18,19)        -59.0787         estimate D2E/DX2                !
 ! D87   D(36,17,18,25)        124.0039         estimate D2E/DX2                !
 ! D88   D(6,17,36,4)           -3.1845         estimate D2E/DX2                !
 ! D89   D(18,17,36,4)         179.705          estimate D2E/DX2                !
 ! D90   D(17,18,19,20)        179.7042         estimate D2E/DX2                !
 ! D91   D(25,18,19,20)         -3.1947         estimate D2E/DX2                !
 ! D92   D(17,18,25,24)        170.6179         estimate D2E/DX2                !
 ! D93   D(17,18,25,26)         -0.8598         estimate D2E/DX2                !
 ! D94   D(19,18,25,24)         -6.5109         estimate D2E/DX2                !
 ! D95   D(19,18,25,26)       -177.9886         estimate D2E/DX2                !
 ! D96   D(18,19,20,21)       -113.2572         estimate D2E/DX2                !
 ! D97   D(18,19,20,24)         10.8331         estimate D2E/DX2                !
 ! D98   D(18,19,20,51)        129.5519         estimate D2E/DX2                !
 ! D99   D(19,20,21,22)       -172.2994         estimate D2E/DX2                !
 ! D100  D(19,20,21,23)         62.6115         estimate D2E/DX2                !
 ! D101  D(19,20,21,52)        -54.6467         estimate D2E/DX2                !
 ! D102  D(24,20,21,22)         69.9831         estimate D2E/DX2                !
 ! D103  D(24,20,21,23)        -55.106          estimate D2E/DX2                !
 ! D104  D(24,20,21,52)       -172.3642         estimate D2E/DX2                !
 ! D105  D(51,20,21,22)        -54.9617         estimate D2E/DX2                !
 ! D106  D(51,20,21,23)        179.9492         estimate D2E/DX2                !
 ! D107  D(51,20,21,52)         62.6909         estimate D2E/DX2                !
 ! D108  D(19,20,24,25)        -13.7774         estimate D2E/DX2                !
 ! D109  D(19,20,24,59)       -132.5239         estimate D2E/DX2                !
 ! D110  D(19,20,24,60)        104.4518         estimate D2E/DX2                !
 ! D111  D(21,20,24,25)        106.5358         estimate D2E/DX2                !
 ! D112  D(21,20,24,59)        -12.2107         estimate D2E/DX2                !
 ! D113  D(21,20,24,60)       -135.235          estimate D2E/DX2                !
 ! D114  D(51,20,24,25)       -130.3185         estimate D2E/DX2                !
 ! D115  D(51,20,24,59)        110.935          estimate D2E/DX2                !
 ! D116  D(51,20,24,60)        -12.0893         estimate D2E/DX2                !
 ! D117  D(20,21,22,53)         56.224          estimate D2E/DX2                !
 ! D118  D(20,21,22,54)        175.9578         estimate D2E/DX2                !
 ! D119  D(20,21,22,55)        -64.3687         estimate D2E/DX2                !
 ! D120  D(23,21,22,53)       -178.2603         estimate D2E/DX2                !
 ! D121  D(23,21,22,54)        -58.5265         estimate D2E/DX2                !
 ! D122  D(23,21,22,55)         61.147          estimate D2E/DX2                !
 ! D123  D(52,21,22,53)        -59.4492         estimate D2E/DX2                !
 ! D124  D(52,21,22,54)         60.2846         estimate D2E/DX2                !
 ! D125  D(52,21,22,55)        179.9581         estimate D2E/DX2                !
 ! D126  D(20,21,23,56)         66.153          estimate D2E/DX2                !
 ! D127  D(20,21,23,57)       -174.1912         estimate D2E/DX2                !
 ! D128  D(20,21,23,58)        -54.9139         estimate D2E/DX2                !
 ! D129  D(22,21,23,56)        -58.6818         estimate D2E/DX2                !
 ! D130  D(22,21,23,57)         60.974          estimate D2E/DX2                !
 ! D131  D(22,21,23,58)       -179.7487         estimate D2E/DX2                !
 ! D132  D(52,21,23,56)       -178.0066         estimate D2E/DX2                !
 ! D133  D(52,21,23,57)        -58.3508         estimate D2E/DX2                !
 ! D134  D(52,21,23,58)         60.9264         estimate D2E/DX2                !
 ! D135  D(20,24,25,18)         12.2007         estimate D2E/DX2                !
 ! D136  D(20,24,25,26)       -176.0112         estimate D2E/DX2                !
 ! D137  D(59,24,25,18)        133.05           estimate D2E/DX2                !
 ! D138  D(59,24,25,26)        -55.162          estimate D2E/DX2                !
 ! D139  D(60,24,25,18)       -105.9691         estimate D2E/DX2                !
 ! D140  D(60,24,25,26)         65.8189         estimate D2E/DX2                !
 ! D141  D(18,25,26,27)        -36.4515         estimate D2E/DX2                !
 ! D142  D(18,25,26,35)        143.1198         estimate D2E/DX2                !
 ! D143  D(24,25,26,27)        153.4633         estimate D2E/DX2                !
 ! D144  D(24,25,26,35)        -26.9654         estimate D2E/DX2                !
 ! D145  D(25,26,27,28)        174.7567         estimate D2E/DX2                !
 ! D146  D(25,26,27,61)         -5.6285         estimate D2E/DX2                !
 ! D147  D(35,26,27,28)         -4.823          estimate D2E/DX2                !
 ! D148  D(35,26,27,61)        174.7918         estimate D2E/DX2                !
 ! D149  D(25,26,35,34)       -174.6243         estimate D2E/DX2                !
 ! D150  D(25,26,35,64)          3.1685         estimate D2E/DX2                !
 ! D151  D(27,26,35,34)          4.9526         estimate D2E/DX2                !
 ! D152  D(27,26,35,64)       -177.2546         estimate D2E/DX2                !
 ! D153  D(26,27,28,29)          1.3176         estimate D2E/DX2                !
 ! D154  D(26,27,28,62)       -179.407          estimate D2E/DX2                !
 ! D155  D(61,27,28,29)       -178.2956         estimate D2E/DX2                !
 ! D156  D(61,27,28,62)          0.9798         estimate D2E/DX2                !
 ! D157  D(27,28,29,30)       -175.4817         estimate D2E/DX2                !
 ! D158  D(27,28,29,34)          2.1405         estimate D2E/DX2                !
 ! D159  D(62,28,29,30)          5.24           estimate D2E/DX2                !
 ! D160  D(62,28,29,34)       -177.1378         estimate D2E/DX2                !
 ! D161  D(28,29,30,31)        -31.3925         estimate D2E/DX2                !
 ! D162  D(28,29,30,32)       -152.9509         estimate D2E/DX2                !
 ! D163  D(28,29,30,33)         87.4377         estimate D2E/DX2                !
 ! D164  D(34,29,30,31)        150.984          estimate D2E/DX2                !
 ! D165  D(34,29,30,32)         29.4256         estimate D2E/DX2                !
 ! D166  D(34,29,30,33)        -90.1858         estimate D2E/DX2                !
 ! D167  D(28,29,34,35)         -2.0122         estimate D2E/DX2                !
 ! D168  D(28,29,34,63)        178.7827         estimate D2E/DX2                !
 ! D169  D(30,29,34,35)        175.6007         estimate D2E/DX2                !
 ! D170  D(30,29,34,63)         -3.6043         estimate D2E/DX2                !
 ! D171  D(29,34,35,26)         -1.5756         estimate D2E/DX2                !
 ! D172  D(29,34,35,64)       -179.3915         estimate D2E/DX2                !
 ! D173  D(63,34,35,26)        177.6304         estimate D2E/DX2                !
 ! D174  D(63,34,35,64)         -0.1854         estimate D2E/DX2                !
 --------------------------------------------------------------------------------
 Trust Radius=3.00D-01 FncErr=1.00D-07 GrdErr=1.00D-06 EigMax=2.50D+02 EigMin=1.00D-04
 Number of steps in this run=    373 maximum allowed number of steps=    384.
 GradGradGradGradGradGradGradGradGradGradGradGradGradGradGradGradGradGrad

 Leave Link  103 at Mon Feb 26 03:08:47 2024, MaxMem=  7516192768 cpu:               0.7 elap:               0.0
 (Enter /public/apps/g16-C01//g16/l202.exe)
 Symmetry turned off by external request.
 Stoichiometry    C26H28F6N4
 Framework group  C1[X(C26H28F6N4)]
 Deg. of freedom   186
 Full point group                 C1      NOp   1
                          Input orientation:                          
 ---------------------------------------------------------------------
 Center     Atomic      Atomic             Coordinates (Angstroms)
 Number     Number       Type             X           Y           Z
 ---------------------------------------------------------------------
      1          6           0        3.900747   -3.747434    3.353265
      2          6           0        4.076518   -2.527346    2.453776
      3          6           0        4.030819   -1.232055    3.260021
      4          6           0        3.042820   -2.534908    1.309468
      5          6           0        1.578503   -2.273637    1.740895
      6          7           0        1.361026   -0.918989    1.261770
      7          6           0        0.212305   -0.187804    1.471684
      8          6           0       -1.018839   -0.823692    1.659549
      9          6           0       -2.178563   -0.085277    1.757923
     10          6           0       -2.123597    1.301598    1.703323
     11          6           0       -3.388112    2.103756    1.710311
     12          9           0       -3.235873    3.321660    2.255874
     13          9           0       -3.843283    2.320534    0.454229
     14          9           0       -4.390906    1.510846    2.370626
     15          6           0       -0.897644    1.948211    1.591758
     16          6           0        0.261175    1.210959    1.490614
     17          6           0        2.418270   -0.607123    0.424273
     18          6           0        2.422186    0.607717   -0.396109
     19          7           0        3.351277    1.471374   -0.338666
     20          6           0        3.055170    2.535857   -1.274538
     21          6           0        4.100698    2.528365   -2.408052
     22          6           0        3.934794    3.748965   -3.308706
     23          6           0        4.062850    1.233441   -3.215304
     24          6           0        1.595510    2.274148   -1.721093
     25          7           0        1.373540    0.919314   -1.244476
     26          6           0        0.227638    0.187689   -1.467576
     27          6           0        0.276799   -1.211091   -1.485142
     28          6           0       -0.880637   -1.948483   -1.600135
     29          6           0       -2.105199   -1.302087   -1.727228
     30          6           0       -3.369265   -2.104655   -1.749834
     31          9           0       -3.210522   -3.321275   -2.296498
     32          9           0       -4.365040   -1.510689   -2.419671
     33          9           0       -3.837991   -2.324594   -0.499270
     34          6           0       -2.159593    0.084748   -1.783136
     35          6           0       -1.001235    0.823309   -1.670751
     36          7           0        3.348291   -1.470372    0.376648
     37          1           0        2.938268   -3.726945    3.859884
     38          1           0        3.964239   -4.666059    2.774525
     39          1           0        4.680591   -3.765282    4.110349
     40          1           0        5.054763   -2.586617    1.966542
     41          1           0        4.838919   -1.223683    3.987254
     42          1           0        4.153031   -0.374694    2.602180
     43          1           0        3.091530   -1.130049    3.799717
     44          1           0        3.136399   -3.488122    0.779380
     45          1           0        0.895179   -2.977547    1.252410
     46          1           0        1.428501   -2.324838    2.819539
     47          1           0       -1.075308   -1.899129    1.693307
     48          1           0       -3.128603   -0.585325    1.864260
     49          1           0       -0.857037    3.026859    1.596390
     50          1           0        1.215160    1.711188    1.431482
     51          1           0        3.143015    3.489108   -0.743545
     52          1           0        5.073842    2.586969   -1.910626
     53          1           0        3.993636    4.667304   -2.729020
     54          1           0        4.721926    3.766313   -4.058217
     55          1           0        2.977215    3.729637   -3.824574
     56          1           0        3.129117    1.131959   -3.764646
     57          1           0        4.878344    1.225118   -3.934231
     58          1           0        4.178046    0.375746   -2.556630
     59          1           0        1.456631    2.325517   -2.801219
     60          1           0        0.906899    2.977674   -1.239527
     61          1           0        1.229986   -1.711288   -1.414161
     62          1           0       -0.839873   -3.027132   -1.603735
     63          1           0       -3.108269    0.584685   -1.901477
     64          1           0       -1.057459    1.898717   -1.705722
 ---------------------------------------------------------------------
 Rotational constants (GHZ):           0.1261861           0.0810599           0.0751458
 Leave Link  202 at Mon Feb 26 03:08:48 2024, MaxMem=  7516192768 cpu:               3.4 elap:               0.1
 (Enter /public/apps/g16-C01//g16/l301.exe)
 Standard basis: def2SVPP (5D, 7F)
 Ernie: Thresh=  0.10000D-02 Tol=  0.10000D-05 Strict=F.
   560 basis functions,  1012 primitive gaussians,   596 cartesian basis functions
   133 alpha electrons      133 beta electrons
       nuclear repulsion energy      4317.1849547557 Hartrees.
 IExCor=  402 DFT=T Ex+Corr=B3LYP ExCW=0 ScaHFX=  0.200000
 ScaDFX=  0.800000  0.720000  1.000000  0.810000 ScalE2=  1.000000  1.000000
 IRadAn=      5 IRanWt=     -1 IRanGd=            0 ICorTp=0 IEmpDi=141
 NAtoms=   64 NActive=   64 NUniq=   64 SFac= 1.00D+00 NAtFMM=   60 NAOKFM=T Big=T
 Integral buffers will be    131072 words long.
 Raffenetti 2 integral format.
 Two-electron integral symmetry is turned off.
 R6Disp:  Grimme-D3(BJ) Dispersion energy=       -0.1615342561 Hartrees.
 Nuclear repulsion after empirical dispersion term =     4317.0234204996 Hartrees.
 Leave Link  301 at Mon Feb 26 03:08:48 2024, MaxMem=  7516192768 cpu:               2.5 elap:               0.1
 (Enter /public/apps/g16-C01//g16/l302.exe)
 NPDir=0 NMtPBC=     1 NCelOv=     1 NCel=       1 NClECP=     1 NCelD=      1
         NCelK=      1 NCelE2=     1 NClLst=     1 CellRange=     0.0.
 One-electron integrals computed using PRISM.
   1 Symmetry operations used in ECPInt.
 ECPInt:  NShTT=   37128 NPrTT=  148792 LenC2=   31899 LenP2D=   81632.
 LDataN:  DoStor=T MaxTD1= 4 Len=   56
 NBasis=   560 RedAO= T EigKep=  2.11D-04  NBF=   560
 NBsUse=   560 1.00D-06 EigRej= -1.00D+00 NBFU=   560
 Precomputing XC quadrature grid using
 IXCGrd= 4 IRadAn=           5 IRanWt=          -1 IRanGd=           0 AccXCQ= 0.00D+00.
 Generated NRdTot=       0 NPtTot=           0 NUsed=           0 NTot=          32
 NSgBfM=   576   571   572   572   576 MxSgAt=    64 MxSgA2=    64.
 Leave Link  302 at Mon Feb 26 03:08:49 2024, MaxMem=  7516192768 cpu:              30.8 elap:               0.8
 (Enter /public/apps/g16-C01//g16/l303.exe)
 DipDrv:  MaxL=1.
 Leave Link  303 at Mon Feb 26 03:08:49 2024, MaxMem=  7516192768 cpu:               6.6 elap:               0.2
 (Enter /public/apps/g16-C01//g16/l401.exe)
 ExpMin= 1.22D-01 ExpMax= 2.89D+03 ExpMxC= 4.35D+02 IAcc=3 IRadAn=         5 AccDes= 0.00D+00
 Harris functional with IExCor=  402 and IRadAn=       5 diagonalized for initial guess.
 HarFok:  IExCor=  402 AccDes= 0.00D+00 IRadAn=         5 IDoV= 1 UseB2=F ITyADJ=14
 ICtDFT=  3500011 ScaDFX=  1.000000  1.000000  1.000000  1.000000
 FoFCou: FMM=F IPFlag=           0 FMFlag=      100000 FMFlg1=        2001
         NFxFlg=           0 DoJE=T BraDBF=F KetDBF=T FulRan=T
         wScrn=  0.000000 ICntrl=       500 IOpCl=  0 I1Cent=   200000004 NGrid=           0
         NMat0=    1 NMatS0=      1 NMatT0=    0 NMatD0=    1 NMtDS0=    0 NMtDT0=    0
 Symmetry not used in FoFCou.
 Harris En= -1824.35803112413    
 JPrj=0 DoOrth=F DoCkMO=F.
 Leave Link  401 at Mon Feb 26 03:08:51 2024, MaxMem=  7516192768 cpu:              51.9 elap:               1.4
 (Enter /public/apps/g16-C01//g16/l502.exe)
 Two-electron integral symmetry not used.
 Closed shell SCF:
 Using DIIS extrapolation, IDIIS=  1040.
 NGot=  7516192768 LenX=  7515451894 LenY=  7515096082
 Requested convergence on RMS density matrix=1.00D-08 within 128 cycles.
 Requested convergence on MAX density matrix=1.00D-06.
 Requested convergence on             energy=1.00D-06.
 No special actions if energy rises.
 Fock matrices will be formed incrementally for  20 cycles.
 Integral accuracy reduced to 1.0D-05 until final iterations.

 Cycle   1  Pass 0  IDiag  1:
 FoFJK:  IHMeth= 1 ICntrl=       0 DoSepK=F KAlg= 0 I1Cent=           0 FoldK=F
 IRaf= 990000000 NMat=       1 IRICut=       1 DoRegI=T DoRafI=F ISym2E= 0 IDoP0=0 IntGTp=1.
 FoFCou: FMM=T IPFlag=           0 FMFlag=      100000 FMFlg1=        2001
         NFxFlg=           0 DoJE=F BraDBF=F KetDBF=F FulRan=T
         wScrn=  0.000000 ICntrl=         0 IOpCl=  0 I1Cent=           0 NGrid=           0
         NMat0=    1 NMatS0=      1 NMatT0=    0 NMatD0=    1 NMtDS0=    0 NMtDT0=    0
 Symmetry not used in FoFCou.
 FMM levels:  10  Number of levels for PrismC:   9
 E= -1823.66037606374    
 DIIS: error= 2.77D-02 at cycle   1 NSaved=   1.
 NSaved= 1 IEnMin= 1 EnMin= -1823.66037606374     IErMin= 1 ErrMin= 2.77D-02
 ErrMax= 2.77D-02  0.00D+00 EMaxC= 1.00D-01 BMatC= 7.87D-01 BMatP= 7.87D-01
 IDIUse=3 WtCom= 7.23D-01 WtEn= 2.77D-01
 Coeff-Com:  0.100D+01
 Coeff-En:   0.100D+01
 Coeff:      0.100D+01
 Gap=     0.238 Goal=   None    Shift=    0.000
 GapD=    0.238 DampG=1.000 DampE=0.500 DampFc=0.5000 IDamp=-1.
 Damping current iteration by 5.00D-01
 RMSDP=4.96D-03 MaxDP=1.77D-01              OVMax= 2.37D-01

 Cycle   2  Pass 0  IDiag  1:
 RMSU=  2.38D-03    CP:  9.59D-01
 E= -1823.94191568960     Delta-E=       -0.281539625861 Rises=F Damp=T
 DIIS: error= 6.63D-03 at cycle   2 NSaved=   2.
 NSaved= 2 IEnMin= 2 EnMin= -1823.94191568960     IErMin= 2 ErrMin= 6.63D-03
 ErrMax= 6.63D-03  0.00D+00 EMaxC= 1.00D-01 BMatC= 8.05D-02 BMatP= 7.87D-01
 IDIUse=3 WtCom= 9.34D-01 WtEn= 6.63D-02
 Coeff-Com:  0.160D+00 0.840D+00
 Coeff-En:   0.255D+00 0.745D+00
 Coeff:      0.166D+00 0.834D+00
 Gap=     0.232 Goal=   None    Shift=    0.000
 RMSDP=1.65D-03 MaxDP=7.49D-02 DE=-2.82D-01 OVMax= 2.45D-01

 Cycle   3  Pass 0  IDiag  1:
 RMSU=  1.58D-03    CP:  9.36D-01  8.90D-01
 E= -1824.35111616511     Delta-E=       -0.409200475510 Rises=F Damp=F
 DIIS: error= 9.42D-03 at cycle   3 NSaved=   3.
 NSaved= 3 IEnMin= 3 EnMin= -1824.35111616511     IErMin= 2 ErrMin= 6.63D-03
 ErrMax= 9.42D-03  0.00D+00 EMaxC= 1.00D-01 BMatC= 1.05D-01 BMatP= 8.05D-02
 IDIUse=3 WtCom= 9.34D-02 WtEn= 9.07D-01
 Coeff-Com:  0.477D-01 0.532D+00 0.420D+00
 Coeff-En:   0.000D+00 0.000D+00 0.100D+01
 Coeff:      0.446D-02 0.497D-01 0.946D+00
 Gap=     0.191 Goal=   None    Shift=    0.000
 RMSDP=2.41D-03 MaxDP=1.08D-01 DE=-4.09D-01 OVMax= 2.56D-01

 Cycle   4  Pass 0  IDiag  1:
 RMSU=  1.56D-03    CP:  9.47D-01  1.25D+00 -2.55D-02
 E= -1823.91759174740     Delta-E=        0.433524417713 Rises=F Damp=F
 DIIS: error= 2.32D-02 at cycle   4 NSaved=   4.
 NSaved= 4 IEnMin= 3 EnMin= -1824.35111616511     IErMin= 2 ErrMin= 6.63D-03
 ErrMax= 2.32D-02  0.00D+00 EMaxC= 1.00D-01 BMatC= 5.80D-01 BMatP= 8.05D-02
 IDIUse=2 WtCom= 0.00D+00 WtEn= 1.00D+00
 Coeff-En:   0.000D+00 0.000D+00 0.780D+00 0.220D+00
 Coeff:      0.000D+00 0.000D+00 0.780D+00 0.220D+00
 Gap=     0.213 Goal=   None    Shift=    0.000
 RMSDP=1.32D-03 MaxDP=6.68D-02 DE= 4.34D-01 OVMax= 1.41D-01

 Cycle   5  Pass 0  IDiag  1:
 RMSU=  2.69D-04    CP:  9.41D-01  1.04D+00  5.14D-01  4.64D-01
 E= -1824.41140270424     Delta-E=       -0.493810956844 Rises=F Damp=F
 DIIS: error= 6.20D-03 at cycle   5 NSaved=   5.
 NSaved= 5 IEnMin= 5 EnMin= -1824.41140270424     IErMin= 5 ErrMin= 6.20D-03
 ErrMax= 6.20D-03  0.00D+00 EMaxC= 1.00D-01 BMatC= 4.25D-02 BMatP= 8.05D-02
 IDIUse=3 WtCom= 9.38D-01 WtEn= 6.20D-02
 Coeff-Com:  0.466D-02 0.126D-01 0.334D+00-0.510D-01 0.700D+00
 Coeff-En:   0.000D+00 0.000D+00 0.334D+00 0.000D+00 0.666D+00
 Coeff:      0.437D-02 0.118D-01 0.334D+00-0.478D-01 0.698D+00
 Gap=     0.174 Goal=   None    Shift=    0.000
 RMSDP=4.58D-04 MaxDP=1.87D-02 DE=-4.94D-01 OVMax= 5.41D-02

 Cycle   6  Pass 0  IDiag  1:
 RMSU=  8.84D-05    CP:  9.38D-01  9.82D-01  7.09D-01  2.78D-01  8.53D-01
 E= -1824.44998787564     Delta-E=       -0.038585171397 Rises=F Damp=F
 DIIS: error= 8.38D-04 at cycle   6 NSaved=   6.
 NSaved= 6 IEnMin= 6 EnMin= -1824.44998787564     IErMin= 6 ErrMin= 8.38D-04
 ErrMax= 8.38D-04  0.00D+00 EMaxC= 1.00D-01 BMatC= 3.71D-04 BMatP= 4.25D-02
 IDIUse=3 WtCom= 9.92D-01 WtEn= 8.38D-03
 Coeff-Com: -0.399D-03 0.268D-02 0.139D+00-0.585D-01 0.430D+00 0.487D+00
 Coeff-En:   0.000D+00 0.000D+00 0.000D+00 0.000D+00 0.000D+00 0.100D+01
 Coeff:     -0.396D-03 0.266D-02 0.138D+00-0.580D-01 0.426D+00 0.492D+00
 Gap=     0.175 Goal=   None    Shift=    0.000
 RMSDP=5.13D-05 MaxDP=2.99D-03 DE=-3.86D-02 OVMax= 5.83D-03

 Cycle   7  Pass 0  IDiag  1:
 RMSU=  3.25D-05    CP:  9.39D-01  9.82D-01  7.10D-01  2.76D-01  8.57D-01
                    CP:  5.60D-01
 E= -1824.45036679564     Delta-E=       -0.000378920005 Rises=F Damp=F
 DIIS: error= 1.51D-04 at cycle   7 NSaved=   7.
 NSaved= 7 IEnMin= 7 EnMin= -1824.45036679564     IErMin= 7 ErrMin= 1.51D-04
 ErrMax= 1.51D-04  0.00D+00 EMaxC= 1.00D-01 BMatC= 2.31D-05 BMatP= 3.71D-04
 IDIUse=3 WtCom= 9.98D-01 WtEn= 1.51D-03
 Coeff-Com: -0.319D-03 0.110D-02 0.629D-01-0.307D-01 0.206D+00 0.289D+00
 Coeff-Com:  0.472D+00
 Coeff-En:   0.000D+00 0.000D+00 0.000D+00 0.000D+00 0.000D+00 0.000D+00
 Coeff-En:   0.100D+01
 Coeff:     -0.318D-03 0.110D-02 0.628D-01-0.307D-01 0.206D+00 0.288D+00
 Coeff:      0.473D+00
 Gap=     0.175 Goal=   None    Shift=    0.000
 RMSDP=1.64D-05 MaxDP=5.92D-04 DE=-3.79D-04 OVMax= 1.67D-03

 Cycle   8  Pass 0  IDiag  1:
 RMSU=  9.31D-06    CP:  9.39D-01  9.81D-01  7.09D-01  2.77D-01  8.59D-01
                    CP:  5.91D-01  6.16D-01
 E= -1824.45040198369     Delta-E=       -0.000035188044 Rises=F Damp=F
 DIIS: error= 5.42D-05 at cycle   8 NSaved=   8.
 NSaved= 8 IEnMin= 8 EnMin= -1824.45040198369     IErMin= 8 ErrMin= 5.42D-05
 ErrMax= 5.42D-05  0.00D+00 EMaxC= 1.00D-01 BMatC= 1.97D-06 BMatP= 2.31D-05
 IDIUse=1 WtCom= 1.00D+00 WtEn= 0.00D+00
 Coeff-Com: -0.284D-04-0.127D-03 0.103D-01-0.613D-02 0.346D-01 0.692D-01
 Coeff-Com:  0.231D+00 0.661D+00
 Coeff:     -0.284D-04-0.127D-03 0.103D-01-0.613D-02 0.346D-01 0.692D-01
 Coeff:      0.231D+00 0.661D+00
 Gap=     0.175 Goal=   None    Shift=    0.000
 RMSDP=5.66D-06 MaxDP=2.69D-04 DE=-3.52D-05 OVMax= 3.47D-04

 Initial convergence to 1.0D-05 achieved.  Increase integral accuracy.
 Cycle   9  Pass 1  IDiag  1:
 E= -1824.45023034457     Delta-E=        0.000171639113 Rises=F Damp=F
 DIIS: error= 7.14D-04 at cycle   1 NSaved=   1.
 NSaved= 1 IEnMin= 1 EnMin= -1824.45023034457     IErMin= 1 ErrMin= 7.14D-04
 ErrMax= 7.14D-04  0.00D+00 EMaxC= 1.00D-01 BMatC= 4.55D-05 BMatP= 4.55D-05
 IDIUse=3 WtCom= 9.93D-01 WtEn= 7.14D-03
 Coeff-Com:  0.100D+01
 Coeff-En:   0.100D+01
 Coeff:      0.100D+01
 Gap=     0.175 Goal=   None    Shift=    0.000
 RMSDP=5.66D-06 MaxDP=2.69D-04 DE= 1.72D-04 OVMax= 1.48D-03

 Cycle  10  Pass 1  IDiag  1:
 RMSU=  3.66D-04    CP:  9.99D-01
 E= -1824.45028079538     Delta-E=       -0.000050450804 Rises=F Damp=F
 DIIS: error= 3.42D-05 at cycle   2 NSaved=   2.
 NSaved= 2 IEnMin= 2 EnMin= -1824.45028079538     IErMin= 2 ErrMin= 3.42D-05
 ErrMax= 3.42D-05  0.00D+00 EMaxC= 1.00D-01 BMatC= 5.31D-07 BMatP= 4.55D-05
 IDIUse=1 WtCom= 1.00D+00 WtEn= 0.00D+00
 Coeff-Com:  0.792D-02 0.992D+00
 Coeff:      0.792D-02 0.992D+00
 Gap=     0.175 Goal=   None    Shift=    0.000
 RMSDP=6.73D-06 MaxDP=1.97D-04 DE=-5.05D-05 OVMax= 4.65D-04

 Cycle  11  Pass 1  IDiag  1:
 RMSU=  4.56D-06    CP:  9.99D-01  1.01D+00
 E= -1824.45027955818     Delta-E=        0.000001237199 Rises=F Damp=F
 DIIS: error= 6.47D-05 at cycle   3 NSaved=   3.
 NSaved= 3 IEnMin= 2 EnMin= -1824.45028079538     IErMin= 2 ErrMin= 3.42D-05
 ErrMax= 6.47D-05  0.00D+00 EMaxC= 1.00D-01 BMatC= 1.71D-06 BMatP= 5.31D-07
 IDIUse=1 WtCom= 1.00D+00 WtEn= 0.00D+00
 Coeff-Com: -0.643D-02 0.647D+00 0.359D+00
 Coeff:     -0.643D-02 0.647D+00 0.359D+00
 Gap=     0.175 Goal=   None    Shift=    0.000
 RMSDP=3.01D-06 MaxDP=1.23D-04 DE= 1.24D-06 OVMax= 3.44D-04

 Cycle  12  Pass 1  IDiag  1:
 RMSU=  9.96D-07    CP:  9.99D-01  1.01D+00  3.80D-01
 E= -1824.45028133277     Delta-E=       -0.000001774595 Rises=F Damp=F
 DIIS: error= 4.04D-06 at cycle   4 NSaved=   4.
 NSaved= 4 IEnMin= 4 EnMin= -1824.45028133277     IErMin= 4 ErrMin= 4.04D-06
 ErrMax= 4.04D-06  0.00D+00 EMaxC= 1.00D-01 BMatC= 1.73D-08 BMatP= 5.31D-07
 IDIUse=1 WtCom= 1.00D+00 WtEn= 0.00D+00
 Coeff-Com: -0.403D-02 0.380D+00 0.220D+00 0.404D+00
 Coeff:     -0.403D-02 0.380D+00 0.220D+00 0.404D+00
 Gap=     0.175 Goal=   None    Shift=    0.000
 RMSDP=3.61D-07 MaxDP=1.64D-05 DE=-1.77D-06 OVMax= 4.41D-05

 Cycle  13  Pass 1  IDiag  1:
 RMSU=  2.87D-07    CP:  9.99D-01  1.01D+00  4.00D-01  8.03D-01
 E= -1824.45028134876     Delta-E=       -0.000000015987 Rises=F Damp=F
 DIIS: error= 9.60D-07 at cycle   5 NSaved=   5.
 NSaved= 5 IEnMin= 5 EnMin= -1824.45028134876     IErMin= 5 ErrMin= 9.60D-07
 ErrMax= 9.60D-07  0.00D+00 EMaxC= 1.00D-01 BMatC= 7.04D-10 BMatP= 1.73D-08
 IDIUse=1 WtCom= 1.00D+00 WtEn= 0.00D+00
 Coeff-Com: -0.165D-02 0.152D+00 0.905D-01 0.215D+00 0.544D+00
 Coeff:     -0.165D-02 0.152D+00 0.905D-01 0.215D+00 0.544D+00
 Gap=     0.175 Goal=   None    Shift=    0.000
 RMSDP=8.48D-08 MaxDP=3.49D-06 DE=-1.60D-08 OVMax= 9.97D-06

 Cycle  14  Pass 1  IDiag  1:
 RMSU=  7.86D-08    CP:  9.99D-01  1.01D+00  4.03D-01  8.06D-01  9.07D-01
 E= -1824.45028134919     Delta-E=       -0.000000000426 Rises=F Damp=F
 DIIS: error= 5.09D-07 at cycle   6 NSaved=   6.
 NSaved= 6 IEnMin= 6 EnMin= -1824.45028134919     IErMin= 6 ErrMin= 5.09D-07
 ErrMax= 5.09D-07  0.00D+00 EMaxC= 1.00D-01 BMatC= 2.01D-10 BMatP= 7.04D-10
 IDIUse=1 WtCom= 1.00D+00 WtEn= 0.00D+00
 Coeff-Com: -0.427D-03 0.382D-01 0.239D-01 0.730D-01 0.369D+00 0.496D+00
 Coeff:     -0.427D-03 0.382D-01 0.239D-01 0.730D-01 0.369D+00 0.496D+00
 Gap=     0.175 Goal=   None    Shift=    0.000
 RMSDP=4.67D-08 MaxDP=2.02D-06 DE=-4.26D-10 OVMax= 4.41D-06

 Cycle  15  Pass 1  IDiag  1:
 RMSU=  3.24D-08    CP:  9.99D-01  1.01D+00  4.03D-01  8.15D-01  9.26D-01
                    CP:  5.98D-01
 E= -1824.45028134937     Delta-E=       -0.000000000188 Rises=F Damp=F
 DIIS: error= 2.72D-07 at cycle   7 NSaved=   7.
 NSaved= 7 IEnMin= 7 EnMin= -1824.45028134937     IErMin= 7 ErrMin= 2.72D-07
 ErrMax= 2.72D-07  0.00D+00 EMaxC= 1.00D-01 BMatC= 3.17D-11 BMatP= 2.01D-10
 IDIUse=1 WtCom= 1.00D+00 WtEn= 0.00D+00
 Coeff-Com: -0.804D-05-0.146D-03 0.796D-03 0.126D-01 0.156D+00 0.334D+00
 Coeff-Com:  0.496D+00
 Coeff:     -0.804D-05-0.146D-03 0.796D-03 0.126D-01 0.156D+00 0.334D+00
 Coeff:      0.496D+00
 Gap=     0.175 Goal=   None    Shift=    0.000
 RMSDP=1.60D-08 MaxDP=6.97D-07 DE=-1.88D-10 OVMax= 1.50D-06

 Cycle  16  Pass 1  IDiag  1:
 RMSU=  7.44D-09    CP:  9.99D-01  1.01D+00  4.03D-01  8.15D-01  9.33D-01
                    CP:  6.72D-01  6.12D-01
 E= -1824.45028134937     Delta-E=        0.000000000002 Rises=F Damp=F
 DIIS: error= 7.20D-08 at cycle   8 NSaved=   8.
 NSaved= 8 IEnMin= 7 EnMin= -1824.45028134937     IErMin= 8 ErrMin= 7.20D-08
 ErrMax= 7.20D-08  0.00D+00 EMaxC= 1.00D-01 BMatC= 2.03D-12 BMatP= 3.17D-11
 IDIUse=1 WtCom= 1.00D+00 WtEn= 0.00D+00
 Coeff-Com:  0.240D-04-0.266D-02-0.112D-02 0.251D-02 0.695D-01 0.165D+00
 Coeff-Com:  0.296D+00 0.471D+00
 Coeff:      0.240D-04-0.266D-02-0.112D-02 0.251D-02 0.695D-01 0.165D+00
 Coeff:      0.296D+00 0.471D+00
 Gap=     0.175 Goal=   None    Shift=    0.000
 RMSDP=3.56D-09 MaxDP=1.47D-07 DE= 1.82D-12 OVMax= 3.14D-07

 SCF Done:  E(RB3LYP) =  -1824.45028135     A.U. after   16 cycles
            NFock= 16  Conv=0.36D-08     -V/T= 2.0082
 KE= 1.809636226961D+03 PE=-1.289903616679D+04 EE= 4.947926237982D+03
 Leave Link  502 at Mon Feb 26 03:09:31 2024, MaxMem=  7516192768 cpu:            1571.5 elap:              39.9
 (Enter /public/apps/g16-C01//g16/l601.exe)
 Copying SCF densities to generalized density rwf, IOpCl= 0 IROHF=0.

 **********************************************************************

            Population analysis using the SCF Density.

 **********************************************************************

 Alpha  occ. eigenvalues --  -24.71624 -24.71622 -24.71546 -24.71541 -24.70961
 Alpha  occ. eigenvalues --  -24.70959 -14.38007 -14.38004 -14.31266 -14.31265
 Alpha  occ. eigenvalues --  -10.42996 -10.42994 -10.27377 -10.27357 -10.25253
 Alpha  occ. eigenvalues --  -10.25245 -10.23311 -10.23311 -10.22212 -10.22211
 Alpha  occ. eigenvalues --  -10.21178 -10.21177 -10.20948 -10.20947 -10.20826
 Alpha  occ. eigenvalues --  -10.20818 -10.20334 -10.20329 -10.20274 -10.20270
 Alpha  occ. eigenvalues --  -10.19159 -10.19158 -10.17538 -10.17538 -10.16791
 Alpha  occ. eigenvalues --  -10.16790  -1.29619  -1.29617  -1.20415  -1.20414
 Alpha  occ. eigenvalues --   -1.19706  -1.19703  -1.03249  -1.00998  -0.92137
 Alpha  occ. eigenvalues --   -0.91052  -0.87072  -0.86729  -0.82444  -0.80586
 Alpha  occ. eigenvalues --   -0.78733  -0.78332  -0.77243  -0.77079  -0.76055
 Alpha  occ. eigenvalues --   -0.73544  -0.70563  -0.69928  -0.68760  -0.68712
 Alpha  occ. eigenvalues --   -0.66437  -0.65762  -0.65410  -0.64756  -0.62738
 Alpha  occ. eigenvalues --   -0.62550  -0.62461  -0.58828  -0.58787  -0.58779
 Alpha  occ. eigenvalues --   -0.58721  -0.57941  -0.57793  -0.57765  -0.57606
 Alpha  occ. eigenvalues --   -0.55942  -0.55941  -0.52099  -0.51938  -0.51599
 Alpha  occ. eigenvalues --   -0.49153  -0.48907  -0.47631  -0.47542  -0.47277
 Alpha  occ. eigenvalues --   -0.46712  -0.46615  -0.46415  -0.46414  -0.46153
 Alpha  occ. eigenvalues --   -0.45707  -0.45493  -0.45333  -0.45273  -0.44719
 Alpha  occ. eigenvalues --   -0.44640  -0.44275  -0.43377  -0.43155  -0.42843
 Alpha  occ. eigenvalues --   -0.42687  -0.42155  -0.42110  -0.41960  -0.41698
 Alpha  occ. eigenvalues --   -0.41039  -0.40478  -0.40458  -0.39802  -0.39649
 Alpha  occ. eigenvalues --   -0.39151  -0.38832  -0.38547  -0.37922  -0.37840
 Alpha  occ. eigenvalues --   -0.37632  -0.37337  -0.36969  -0.35875  -0.35222
 Alpha  occ. eigenvalues --   -0.34901  -0.34394  -0.34294  -0.33814  -0.33657
 Alpha  occ. eigenvalues --   -0.29660  -0.29505  -0.28017  -0.27965  -0.27698
 Alpha  occ. eigenvalues --   -0.27191  -0.22663  -0.22266
 Alpha virt. eigenvalues --   -0.04800  -0.04160  -0.03219  -0.02598  -0.01428
 Alpha virt. eigenvalues --    0.03363   0.03863   0.04057   0.06114   0.06328
 Alpha virt. eigenvalues --    0.06933   0.07424   0.07586   0.08548   0.09294
 Alpha virt. eigenvalues --    0.09609   0.10231   0.10290   0.10895   0.11737
 Alpha virt. eigenvalues --    0.11888   0.11992   0.12316   0.12740   0.13319
 Alpha virt. eigenvalues --    0.13370   0.13796   0.13845   0.14609   0.14732
 Alpha virt. eigenvalues --    0.15253   0.15621   0.15773   0.16266   0.16759
 Alpha virt. eigenvalues --    0.16988   0.17495   0.17893   0.18917   0.18930
 Alpha virt. eigenvalues --    0.19460   0.19498   0.20430   0.20708   0.20752
 Alpha virt. eigenvalues --    0.21342   0.21554   0.22340   0.23038   0.23173
 Alpha virt. eigenvalues --    0.23997   0.24060   0.24598   0.24987   0.25077
 Alpha virt. eigenvalues --    0.25491   0.25898   0.26754   0.27584   0.27987
 Alpha virt. eigenvalues --    0.29275   0.29651   0.29779   0.30556   0.30976
 Alpha virt. eigenvalues --    0.31691   0.32802   0.34405   0.34676   0.35546
 Alpha virt. eigenvalues --    0.35719   0.37170   0.37338   0.37551   0.37983
 Alpha virt. eigenvalues --    0.38596   0.39406   0.39530   0.40845   0.40854
 Alpha virt. eigenvalues --    0.41383   0.41831   0.42224   0.42263   0.42768
 Alpha virt. eigenvalues --    0.43581   0.44145   0.44390   0.44943   0.45349
 Alpha virt. eigenvalues --    0.45963   0.46802   0.47500   0.47677   0.48371
 Alpha virt. eigenvalues --    0.48915   0.49116   0.50242   0.50445   0.51312
 Alpha virt. eigenvalues --    0.51539   0.52297   0.53525   0.54722   0.54797
 Alpha virt. eigenvalues --    0.55799   0.55901   0.56271   0.57096   0.57709
 Alpha virt. eigenvalues --    0.58723   0.59250   0.59628   0.59976   0.60124
 Alpha virt. eigenvalues --    0.60662   0.61996   0.62075   0.62665   0.62833
 Alpha virt. eigenvalues --    0.63806   0.63945   0.64212   0.64375   0.64867
 Alpha virt. eigenvalues --    0.65111   0.65405   0.65792   0.65810   0.66493
 Alpha virt. eigenvalues --    0.66708   0.66893   0.67582   0.67637   0.67735
 Alpha virt. eigenvalues --    0.68400   0.68742   0.68772   0.69136   0.69649
 Alpha virt. eigenvalues --    0.70139   0.70882   0.71059   0.71095   0.71110
 Alpha virt. eigenvalues --    0.71252   0.71313   0.71967   0.72455   0.72615
 Alpha virt. eigenvalues --    0.72954   0.73031   0.73127   0.73592   0.73931
 Alpha virt. eigenvalues --    0.74076   0.74847   0.74873   0.75670   0.75686
 Alpha virt. eigenvalues --    0.76191   0.76295   0.76696   0.77257   0.77718
 Alpha virt. eigenvalues --    0.78312   0.79041   0.79287   0.79794   0.80382
 Alpha virt. eigenvalues --    0.81277   0.81709   0.83196   0.83848   0.85072
 Alpha virt. eigenvalues --    0.85391   0.86939   0.88227   0.89252   0.89838
 Alpha virt. eigenvalues --    0.89935   0.90426   0.91071   0.92233   0.93143
 Alpha virt. eigenvalues --    0.93512   0.96613   0.97247   0.97601   0.99599
 Alpha virt. eigenvalues --    1.00811   1.01276   1.02233   1.02821   1.06329
 Alpha virt. eigenvalues --    1.07024   1.07652   1.08122   1.09179   1.09401
 Alpha virt. eigenvalues --    1.09583   1.10565   1.11325   1.11639   1.13483
 Alpha virt. eigenvalues --    1.13650   1.14125   1.14595   1.15796   1.16034
 Alpha virt. eigenvalues --    1.16570   1.16962   1.18315   1.19779   1.20048
 Alpha virt. eigenvalues --    1.22605   1.23118   1.24973   1.25344   1.25747
 Alpha virt. eigenvalues --    1.27220   1.29954   1.30481   1.30978   1.32391
 Alpha virt. eigenvalues --    1.33122   1.33547   1.34617   1.34628   1.36769
 Alpha virt. eigenvalues --    1.37111   1.38237   1.38629   1.40466   1.41306
 Alpha virt. eigenvalues --    1.42571   1.43449   1.44668   1.44888   1.46235
 Alpha virt. eigenvalues --    1.46712   1.47472   1.47935   1.48066   1.48359
 Alpha virt. eigenvalues --    1.49722   1.49951   1.50046   1.50596   1.51807
 Alpha virt. eigenvalues --    1.54219   1.54357   1.57115   1.57647   1.58444
 Alpha virt. eigenvalues --    1.59313   1.60489   1.62902   1.63735   1.66298
 Alpha virt. eigenvalues --    1.66321   1.69813   1.70816   1.71731   1.72116
 Alpha virt. eigenvalues --    1.72916   1.72951   1.74247   1.74604   1.75915
 Alpha virt. eigenvalues --    1.76135   1.76178   1.77590   1.77927   1.78528
 Alpha virt. eigenvalues --    1.80405   1.82238   1.82310   1.82924   1.83204
 Alpha virt. eigenvalues --    1.83786   1.86275   1.87376   1.87473   1.87864
 Alpha virt. eigenvalues --    1.88924   1.89039   1.89323   1.89347   1.90062
 Alpha virt. eigenvalues --    1.91642   1.91975   1.93654   1.93722   1.94137
 Alpha virt. eigenvalues --    1.94180   1.95609   1.95786   1.97883   1.98222
 Alpha virt. eigenvalues --    1.98863   1.98986   2.00306   2.00833   2.01433
 Alpha virt. eigenvalues --    2.01927   2.02354   2.03016   2.03786   2.04326
 Alpha virt. eigenvalues --    2.05678   2.06176   2.07268   2.07743   2.07838
 Alpha virt. eigenvalues --    2.08889   2.10052   2.11112   2.11750   2.13651
 Alpha virt. eigenvalues --    2.13732   2.13818   2.15485   2.15700   2.16035
 Alpha virt. eigenvalues --    2.16797   2.17245   2.17841   2.19833   2.19960
 Alpha virt. eigenvalues --    2.21151   2.22401   2.23672   2.23755   2.25112
 Alpha virt. eigenvalues --    2.25194   2.27030   2.27898   2.31189   2.32286
 Alpha virt. eigenvalues --    2.33075   2.33221   2.33856   2.34454   2.36343
 Alpha virt. eigenvalues --    2.36978   2.39031   2.39783   2.42104   2.44813
 Alpha virt. eigenvalues --    2.45083   2.45764   2.46151   2.48917   2.50870
 Alpha virt. eigenvalues --    2.51393   2.51546   2.53854   2.55218   2.55686
 Alpha virt. eigenvalues --    2.57089   2.57858   2.59657   2.61061   2.62588
 Alpha virt. eigenvalues --    2.62871   2.66287   2.66530   2.68608   2.69301
 Alpha virt. eigenvalues --    2.69508   2.72458   2.73850   2.74277   2.74349
 Alpha virt. eigenvalues --    2.75325   2.76918   2.78070   2.79642   2.80649
 Alpha virt. eigenvalues --    2.82416   2.84002   2.85135   2.89524   2.90573
 Alpha virt. eigenvalues --    2.93766   2.94652   3.01092   3.01126   3.02549
 Alpha virt. eigenvalues --    3.03444   3.04192   3.04206   3.04878   3.04953
 Alpha virt. eigenvalues --    3.05560   3.05629   3.06722   3.06865   3.07127
 Alpha virt. eigenvalues --    3.07137   3.11991   3.12316   3.17257   3.17316
 Alpha virt. eigenvalues --    3.17849   3.21092   3.21693   3.24954   3.25332
 Alpha virt. eigenvalues --    3.31337   3.37391   3.42343   3.44007   3.46578
 Alpha virt. eigenvalues --    3.46955   3.50783   3.53151   3.53459   3.57162
 Alpha virt. eigenvalues --    3.57221   3.65554   3.65605   3.84149   3.84263
 Alpha virt. eigenvalues --    3.87445   3.87558
          Condensed to atoms (all electrons):
 Mulliken charges:
               1
     1  C   -0.208066
     2  C   -0.104830
     3  C   -0.237634
     4  C   -0.024179
     5  C    0.005207
     6  N   -0.228571
     7  C    0.229134
     8  C   -0.117412
     9  C   -0.091419
    10  C   -0.000930
    11  C    0.531701
    12  F   -0.172763
    13  F   -0.182606
    14  F   -0.166113
    15  C   -0.117938
    16  C   -0.118668
    17  C    0.035389
    18  C    0.035364
    19  N   -0.147087
    20  C   -0.024114
    21  C   -0.104844
    22  C   -0.208030
    23  C   -0.237638
    24  C    0.005094
    25  N   -0.228515
    26  C    0.229387
    27  C   -0.118874
    28  C   -0.117911
    29  C   -0.001015
    30  C    0.531723
    31  F   -0.172835
    32  F   -0.166037
    33  F   -0.182650
    34  C   -0.091308
    35  C   -0.117582
    36  N   -0.147148
    37  H    0.080493
    38  H    0.086332
    39  H    0.093512
    40  H    0.071035
    41  H    0.090212
    42  H    0.121827
    43  H    0.078135
    44  H    0.064369
    45  H    0.090562
    46  H    0.101879
    47  H    0.045676
    48  H    0.063916
    49  H    0.058363
    50  H    0.070508
    51  H    0.064362
    52  H    0.071051
    53  H    0.086346
    54  H    0.093508
    55  H    0.080473
    56  H    0.078149
    57  H    0.090224
    58  H    0.121815
    59  H    0.101915
    60  H    0.090576
    61  H    0.070540
    62  H    0.058364
    63  H    0.063894
    64  H    0.045677
 Sum of Mulliken charges =  -0.00000
 Mulliken charges with hydrogens summed into heavy atoms:
               1
     1  C    0.052272
     2  C   -0.033795
     3  C    0.052540
     4  C    0.040190
     5  C    0.197647
     6  N   -0.228571
     7  C    0.229134
     8  C   -0.071736
     9  C   -0.027502
    10  C   -0.000930
    11  C    0.531701
    12  F   -0.172763
    13  F   -0.182606
    14  F   -0.166113
    15  C   -0.059574
    16  C   -0.048160
    17  C    0.035389
    18  C    0.035364
    19  N   -0.147087
    20  C    0.040249
    21  C   -0.033793
    22  C    0.052297
    23  C    0.052550
    24  C    0.197585
    25  N   -0.228515
    26  C    0.229387
    27  C   -0.048334
    28  C   -0.059546
    29  C   -0.001015
    30  C    0.531723
    31  F   -0.172835
    32  F   -0.166037
    33  F   -0.182650
    34  C   -0.027413
    35  C   -0.071905
    36  N   -0.147148
 Electronic spatial extent (au):  <R**2>=          16604.1884
 Charge=             -0.0000 electrons
 Dipole moment (field-independent basis, Debye):
    X=              2.7768    Y=              0.0020    Z=              0.0180  Tot=              2.7769
 Quadrupole moment (field-independent basis, Debye-Ang):
   XX=           -234.6053   YY=           -200.8820   ZZ=           -208.2883
   XY=              0.0653   XZ=             -0.1434   YZ=            -13.7418
 Traceless Quadrupole moment (field-independent basis, Debye-Ang):
   XX=            -20.0134   YY=             13.7099   ZZ=              6.3035
   XY=              0.0653   XZ=             -0.1434   YZ=            -13.7418
 Octapole moment (field-independent basis, Debye-Ang**2):
  XXX=           -212.3236  YYY=             -0.0060  ZZZ=             -0.8261  XYY=            -30.0067
  XXY=             -0.0232  XXZ=             -0.6692  XZZ=            -45.7819  YZZ=              0.0364
  YYZ=             -0.1548  XYZ=              0.8048
 Hexadecapole moment (field-independent basis, Debye-Ang**3):
 XXXX=         -10985.9878 YYYY=          -5236.5934 ZZZZ=          -5132.7193 XXXY=             -0.8028
 XXXZ=            -19.8454 YYYX=             -3.4491 YYYZ=            584.0260 ZZZX=            -16.3659
 ZZZY=            566.7962 XXYY=          -2694.9614 XXZZ=          -2578.1056 YYZZ=          -1743.7018
 XXYZ=             25.7549 YYXZ=             -5.9833 ZZXY=             -3.0109
 N-N= 4.317023420500D+03 E-N=-1.289903618332D+04  KE= 1.809636226961D+03
 No NMR shielding tensors so no spin-rotation constants.
 Leave Link  601 at Mon Feb 26 03:09:32 2024, MaxMem=  7516192768 cpu:              12.2 elap:               0.4
[...]
 .00011513,0.00032373,-0.00009530,0.00029203,-0.00018723,-0.00005336,-0
 .00009006,0.00003480,-0.00002495,-0.00001506,0.00001036,-0.00000444,-0
 .00001771,-0.00000389,0.00000772,0.00000811,-0.00000302,0.00000051,0.0
 0001197,-0.00010341,0.00011683,-0.00018891,-0.00014861,-0.00076303,-0.
 00004929,-0.00241775,0.00085767,-0.00009493,0.00310423,-0.01181457,-0.
 00071841,0.01766124,-0.33899700,-0.00704859,-0.00041627,-0.00966186,-0
 .00076715,-0.00088136,-0.00248381,0.00006794,-0.00221510,0.00123833,0.
 00015594,0.00018862,0.00031822,-0.00004954,0.00016260,0.00026399,-0.00
 020237,0.00272232,0.00082253,-0.00026847,-0.00028347,0.00075942,-0.000
 03761,0.00003743,0.00004553,-0.00004531,0.00000096,0.00000073,-0.00000
 555,-0.00000121,0.00000223,-0.00000124,0.00000357,0.00000075,0.0000006
 3,0.00001158,-0.00000135,0.00000867,0.00000231,0.00000314,0.00000144,0
 .00000273,0.00000141,0.00000075,0.00000063,-0.00000202,-0.00000391,-0.
 00000308,0.00001877,-0.00000884,0.00005331,0.00009660,-0.00000933,0.00
 004351,0.00004706,0.00002495,0.00001679,0.00001583,-0.00006020,0.00000
 134,-0.00001424,0.00000208,-0.00000070,0.00000464,0.00000595,-0.000001
 32,0.00000798,0.00001386,-0.00002543,-0.00000863,0.00000297,-0.0000058
 1,0.00000267,0.00000527,0.00000146,0.00000108,-0.00000190,-0.00000483,
 -0.00000315,0.00000491,0.00000076,0.00000029,-0.00000504,0.00000303,-0
 .00000293,-0.00000745,-0.00000807,-0.00000084,0.00000587,0.00000441,-0
 .00000619,-0.00000748,0.00001601,0.00000263,0.00001084,0.00000719,-0.0
 0003995,0.00001043,0.00004062,0.00096917,0.00015398,-0.01732687,0.3591
 1873,-0.00000235,0.00000481,0.00000771,0.00001643,0.00000495,-0.000037
 61,-0.00000242,-0.00000716,0.00001089,-0.00005991,-0.00000820,0.000094
 21,-0.00013713,-0.00032468,-0.00004240,-0.00000616,0.00012797,-0.00008
 836,0.00001303,-0.00000532,-0.00000462,-0.00005441,-0.00011332,0.00014
 370,0.00006155,0.00000934,0.00002625,-0.00002276,0.00005492,-0.0000059
 3,0.00008872,-0.00007357,0.00003275,-0.00001859,0.00003664,0.00000182,
 -0.00003796,0.00003382,-0.00002972,-0.00002349,0.00001400,-0.00000350,
 -0.00001614,0.00003639,-0.00000613,0.00001324,0.00001107,-0.00003099,-
 0.00025085,-0.00001067,0.00007699,0.00008139,-0.00008724,0.00010246,-0
 .00002672,0.00003341,-0.00007693,-0.00000562,-0.00001558,-0.00000953,0
 .00000136,0.00001142,0.00001048,0.00000423,-0.00000134,-0.00000180,0.0
 0001046,-0.00000587,0.00000391,0.00001275,-0.00009330,-0.00007124,-0.0
 0022895,-0.00005376,-0.00011302,-0.00054830,0.00067575,0.00774224,-0.0
 0092616,-0.00230381,0.00412373,0.00300752,-0.00819699,-0.03851351,-0.0
 0192288,0.00183958,0.00387407,0.00002447,0.00041628,-0.00235708,-0.000
 24327,-0.00092195,-0.00052187,-0.00045036,-0.00007148,0.00000067,0.000
 58781,0.00050262,-0.00088952,-0.00043769,-0.00099181,0.00590096,0.0007
 3339,0.00021376,-0.00079742,0.00012381,-0.00003110,-0.00010812,0.00000
 307,-0.00000082,-0.00001290,-0.00000590,0.00000267,-0.00000201,0.00000
 831,0.00000112,0.00000499,0.00002252,0.00000017,0.00001121,0.00000668,
 0.00000381,0.00000483,0.00000002,0.00000216,-0.00000354,0.00000244,-0.
 00000327,-0.00000888,-0.00000674,0.00000368,-0.00000558,0.00006133,0.0
 0014295,0.00001431,0.00005562,0.00005324,0.00003337,0.00002979,0.00006
 034,-0.00005292,0.00001003,-0.00000811,-0.00000133,-0.00000037,0.00000
 595,0.00000444,-0.00000057,0.00001034,0.00001152,-0.00000952,-0.000001
 17,-0.00000314,0.00000082,-0.00000468,-0.00000460,-0.00000069,-0.00000
 302,-0.00000134,0.00000209,0.00000172,-0.00000083,-0.00000238,0.000001
 24,0.00000104,-0.00000774,0.00000458,-0.00000167,0.00000127,0.00000113
 ,-0.00000199,0.00000113,0.00000040,0.00000484,-0.00001864,0.00002653,-
 0.00000877,-0.00001456,-0.00003139,0.00000956,0.00021388,0.00023619,-0
 .00454332,0.00020867,0.00875171,0.02647976,-0.00000245,0.00000016,0.00
 000049,0.00000439,0.00000344,-0.00000437,-0.00000423,-0.00000199,0.000
 00473,-0.00001662,-0.00000056,0.00000709,0.00002848,0.00003417,-0.0000
 0547,0.00018173,-0.00004395,-0.00008980,-0.00011148,0.00014039,0.00008
 464,-0.00001265,0.00002577,0.00001023,0.00005530,0.00009267,0.00010738
 ,0.00008559,-0.00005754,0.00006869,-0.00002801,0.00008465,-0.00090224,
 0.00003260,0.00007545,0.00015435,-0.00014492,0.00040767,0.00100541,-0.
 00012870,-0.00009581,0.00014429,-0.00014735,-0.00002585,0.00002464,0.0
 0005685,-0.00009872,-0.00000160,-0.00014380,-0.00008638,0.00011163,0.0
 0015417,-0.00014321,0.00053046,-0.00020740,-0.00014368,-0.00020145,-0.
 00000584,0.00002858,-0.00001196,0.00001546,-0.00000521,-0.00000737,-0.
 00001083,0.00000627,0.00000331,-0.00000330,-0.00000175,0.00000734,0.00
 001170,0.00017397,-0.00008875,-0.00105971,0.00068908,-0.00054749,-0.00
 161194,-0.00345299,-0.00031366,0.00030643,-0.00073549,-0.00004959,0.00
 121906,-0.00040195,0.00006198,0.00311981,-0.00018460,-0.00044368,-0.00
 058777,-0.00048594,0.00016477,0.00013269,0.00036548,-0.00002113,-0.000
 89454,-0.00207232,-0.00002828,0.00007409,0.00016479,-0.00023875,-0.282
 59584,0.11729971,-0.00487573,-0.01781488,0.01312130,-0.00053363,0.0000
 7263,0.00000595,-0.00005577,0.00000097,0.00000053,-0.00000104,0.000000
 23,-0.00000057,-0.00000055,0.00000044,0.00000046,-0.00000022,0.0000020
 8,-0.00000102,0.00000055,0.00000152,0.00000007,-0.00000046,-0.00000037
 ,-0.00000102,0.00000152,0.00000192,0.00000112,-0.00000311,0.00000467,0
 .00000029,-0.00000117,-0.00000637,-0.00000139,0.00000010,-0.00000191,-
 0.00000016,-0.00000113,0.00000729,-0.00001462,0.00000572,0.00004241,0.
 00003942,-0.00003019,-0.00001006,-0.00000131,-0.00001012,0.00000312,0.
 00000295,0.00001535,-0.00001300,-0.00000978,0.00000086,-0.00000167,0.0
 0000061,0.00000234,0.00000017,-0.00000174,-0.00000173,-0.00000130,-0.0
 0000372,0.00000462,0.00000261,0.00000131,0.00000040,0.00000225,0.00000
 188,-0.00000634,-0.00000535,-0.00000051,0.00000416,0.00000560,-0.00000
 664,-0.00000246,0.00000385,-0.00000504,0.00001075,0.00001124,-0.000039
 55,-0.00000353,-0.00006069,0.00002752,0.00001096,0.00015805,-0.0001873
 0,-0.00002470,0.29871729,0.00000040,0.,-0.00000019,0.00000112,0.000003
 43,-0.00000335,-0.00000016,-0.00000179,0.00000204,-0.00000625,-0.00000
 346,0.00000061,-0.00000467,-0.00001848,-0.00000703,0.00002623,-0.00001
 475,-0.00003956,-0.00004398,0.00001110,0.00002627,0.00003494,-0.000061
 81,-0.00005556,0.00008416,0.00009862,-0.00004877,-0.00002369,0.0000064
 5,-0.00001512,-0.00029611,0.00061919,-0.00144301,0.00009365,0.00004552
 ,0.00028964,0.00051606,-0.00093851,0.00065640,-0.00015717,-0.00021763,
 0.00027019,-0.00000645,-0.00002906,0.00003788,-0.00002068,-0.00002397,
 0.00001019,-0.00002682,-0.00004229,0.00002347,-0.00004131,-0.00009693,
 0.00028911,-0.00009246,-0.00009839,-0.00012547,-0.00001826,0.00001499,
 -0.00001651,0.00000767,-0.00000210,0.00000055,-0.00000592,0.00000280,0
 .00000077,-0.00000093,-0.00000077,0.00000445,0.00003138,0.00011034,-0.
 00002183,-0.00075804,0.00062821,-0.00041089,-0.00292264,-0.00168608,-0
 .00042220,-0.00079791,-0.00038642,-0.00005244,-0.00138399,-0.00555472,
 0.00003835,0.02719529,-0.00823012,0.00052668,0.00422735,-0.00156451,0.
 00088922,-0.00042635,0.00080145,0.00004071,-0.00210328,0.00129199,-0.0
 0057097,-0.00044789,0.00015530,-0.00014913,0.11729893,-0.12000238,0.00
 412470,-0.01703263,0.01163960,-0.00031029,0.00002226,0.00001751,-0.000
 00672,-0.00000029,0.00000045,-0.00000043,-0.00000032,0.00000017,-0.000
 00064,0.00000053,0.00000025,0.00000067,0.00000121,-0.00000050,0.000000
 84,0.00000062,0.00000088,0.00000042,-0.00000005,-0.00000054,0.00000036
 ,0.00000017,0.00000034,-0.00000081,-0.00000211,0.00000363,-0.00000240,
 0.00000393,0.00000947,-0.00000467,0.00000521,0.00000681,0.00000539,0.0
 0002877,-0.00000099,-0.00000770,-0.00004056,-0.00000609,0.00007951,-0.
 00002868,-0.00001423,-0.00000842,0.00000371,-0.00000151,0.00000158,-0.
 00001058,-0.00000518,-0.00000275,0.00000052,-0.00000072,0.00000097,-0.
 00000134,-0.00000181,-0.00000157,0.00000088,-0.00000212,0.00000174,0.0
 0000109,0.00000194,0.00000242,-0.00000050,0.00000171,-0.00000222,-0.00
 000192,-0.00000059,0.00000115,0.00000218,-0.00000362,-0.00000068,-0.00
 000804,0.00000151,0.00000212,0.00000743,-0.00002599,-0.00002244,0.0000
 2879,0.00004127,-0.00000798,0.00140176,-0.00044842,0.00000261,-0.12460
 215,0.12304996,0.00000028,0.00000431,0.00000428,-0.00000590,-0.0000012
 2,-0.00000561,-0.00000542,-0.00000059,0.00000490,-0.00001686,0.0000136
 6,0.00000510,0.00005341,0.00005647,0.00001334,0.00022442,-0.00009831,-
 0.00014955,-0.00026153,0.00013972,0.00007747,0.00015874,0.00003868,0.0
 0006641,-0.00007134,0.00008609,0.00003305,0.00010606,-0.00001296,0.000
 15614,-0.00059238,0.00012926,-0.00241716,0.00013428,0.00024170,0.00047
 784,0.00071307,-0.00029775,0.00134476,-0.00003909,-0.00011866,0.000293
 21,-0.00022095,-0.00008605,0.00005679,0.00008998,-0.00008187,-0.000073
 57,-0.00021171,-0.00000941,0.00008393,0.00014079,0.00002804,-0.0000440
 9,-0.00002424,-0.00001485,-0.00001549,-0.00000553,-0.00002249,-0.00000
 226,-0.00001457,0.00000402,0.00001402,0.00001385,-0.00000407,-0.000000
 78,0.00001109,0.00000001,-0.00000612,-0.00005800,0.00001017,0.00011096
 ,0.00033257,-0.00020486,-0.00011542,-0.00042765,-0.00076563,0.00746865
 ,0.00045947,0.00080372,-0.00067189,-0.00045640,0.00026504,0.00591458,-
 0.00026013,-0.00031366,0.00422335,-0.00001684,-0.00054545,-0.00239755,
 -0.00021047,-0.00029562,0.00001423,-0.00077314,0.00010655,-0.00049505,
 0.00087811,0.00045632,-0.00105596,-0.00372479,0.00452076,-0.03861812,-
 0.00182106,-0.00040290,0.00408917,0.00011955,-0.00007022,-0.00007211,0
 .00000115,0.00000079,-0.00000201,-0.00000026,-0.00000327,-0.00000224,0
 .00000183,-0.00000110,0.00000305,0.00000353,-0.00000020,-0.00000111,0.
 00000428,-0.00000071,0.00000239,-0.00000398,-0.00000289,-0.00000192,0.
 00000255,0.00000161,-0.00000576,0.00000628,-0.00001049,0.00000426,-0.0
 0001626,-0.00001464,0.00000763,-0.00001109,-0.00000561,-0.00000247,0.0
 0001322,-0.00003036,0.00001167,0.00003084,0.00007903,-0.00001448,-0.00
 001266,0.00000208,-0.00000158,0.00001347,-0.00000264,0.00000447,-0.000
 01061,0.00000211,-0.00000405,0.00000219,-0.00000177,-0.00000442,-0.000
 00201,-0.00000139,-0.00000007,0.00000294,0.00000329,-0.00000497,-0.000
 00532,0.00000013,0.00000043,-0.00000270,0.00000044,0.00000372,0.000005
 69,0.00000015,-0.00000477,-0.00000486,0.00000524,0.00000431,-0.0000089
 5,0.00000940,-0.00002513,0.00000362,0.00002012,-0.00000180,0.00005236,
 0.00003706,-0.00074714,-0.00015174,0.00002665,0.00042055,0.00562449,-0
 .00381531,0.02644540,0.00000367,0.00000093,-0.00000043,-0.00000872,-0.
 00000790,0.00000761,0.00000196,0.00000560,-0.00000933,0.00002507,0.000
 00416,0.00001368,0.00000467,0.00001698,0.00002622,-0.00003980,-0.00005
 989,0.00003934,0.00002591,0.00009295,-0.00000258,-0.00008373,-0.000020
 96,0.00001487,-0.00003729,-0.00012238,-0.00001055,-0.00004813,0.000041
 42,-0.00005304,0.00047436,-0.00036331,0.00163276,-0.00010937,-0.000075
 50,-0.00024243,-0.00021860,0.00028424,-0.00114509,0.00005443,0.0001632
 1,-0.00030967,0.00013113,-0.00000749,0.00009800,-0.00007304,0.00005267
 ,0.00004225,0.00010175,0.00020751,-0.00000557,-0.00026488,-0.00001722,
 -0.00041805,0.00018439,-0.00002692,0.00023767,-0.00025768,-0.00010864,
 -0.00041026,0.00010692,0.00001276,0.00016901,-0.00000076,-0.00002515,-
 0.00003247,0.00000071,0.00001584,-0.00003178,-0.00123292,0.00049888,0.
 00021208,0.00150081,-0.00032077,0.00108278,0.00317489,0.02803670,0.000
 85863,-0.00463989,0.00124501,-0.00107442,-0.00113106,-0.00001855,0.000
 01353,-0.00415157,-0.00244568,-0.00034614,0.00106223,-0.00079351,0.000
 05514,-0.00034395,-0.00052152,-0.00016495,-0.00011953,0.00013095,-0.00
 007272,-0.00020704,-0.00000435,0.00021617,0.00558514,-0.02768291,-0.00
 095658,-0.05961642,0.02257776,-0.00126101,-0.00005824,-0.00013784,-0.0
 0001045,-0.00000138,-0.00000023,0.00000160,0.00000017,-0.00000265,0.00
 000014,-0.00000021,-0.00000091,0.00000079,-0.00000300,0.00000153,-0.00
 000209,0.00000013,-0.00000168,0.00000015,-0.00000168,0.00000079,-0.000
 00187,-0.00000188,-0.00000039,0.00000164,0.00000271,-0.00001486,0.0000
 1097,-0.00001513,-0.00002349,0.00000657,-0.00000576,-0.00001286,-0.000
 00422,-0.00002369,0.00000535,0.00000362,0.00000745,-0.00002870,-0.0000
 1319,0.00005038,-0.00001661,-0.00002940,-0.00003456,0.00000112,-0.0000
 5759,0.00005143,0.00001814,0.00002614,0.00006693,-0.00000383,-0.000058
 34,-0.00000374,-0.00000061,0.00000915,0.00002124,0.00000787,-0.0000122
 6,0.00000462,-0.00000293,0.00002644,0.00000239,0.00001525,0.00001241,0
 .00001671,-0.00001306,-0.00001381,0.00001230,0.00000109,0.00001448,-0.
 00012547,-0.00014278,0.00012594,-0.00103757,-0.00133653,-0.00034910,0.
 00009199,0.00140267,0.00001970,0.00004364,-0.00002961,0.00010614,0.001
 11626,0.00028786,0.00024438,0.05997027,0.00000131,-0.00000059,0.,-0.00
 000011,0.00000101,-0.00000158,0.00000452,-0.00000249,0.00000149,0.0000
 0166,0.00000016,-0.00001427,-0.00005190,-0.00004936,-0.00002075,-0.000
 17196,0.00012386,0.00011676,0.00017670,-0.00026730,-0.00009022,-0.0000
 6302,0.00005008,0.00004509,0.00003891,-0.00019293,0.00002531,-0.000181
 47,-0.00003234,-0.00026410,-0.00016545,0.00010739,0.00029275,0.0000164
 4,-0.00007842,-0.00004008,0.00012893,-0.00006199,-0.00020706,0.0000882
 6,0.00002130,-0.00004787,0.00007500,0.00025588,-0.00044188,0.00015082,
 -0.00003226,-0.00014394,0.00010605,-0.00005347,-0.00011753,-0.00006832
 ,-0.00000712,-0.00015025,-0.00010534,0.00012363,-0.00011646,0.00023198
 ,0.00043474,0.00006608,-0.00002789,0.00002113,-0.00004058,0.00001996,0
 .00000949,0.00001075,0.00000527,-0.00000555,0.00001375,-0.00133990,-0.
 00054316,-0.00020721,-0.00044480,-0.00044710,0.00038516,-0.00197691,-0
 .00935411,-0.00076981,0.00250519,0.00077539,0.00004778,0.00004330,0.00
 080331,-0.00003310,-0.00317474,0.00043572,-0.00033142,0.00098865,-0.00
 009197,-0.00014600,-0.00022671,-0.00033674,-0.00007035,-0.00018475,0.0
 0002860,-0.00003461,-0.00020118,-0.00008144,0.00024738,0.00293310,-0.0
 1289234,-0.00063268,0.02303598,-0.34203282,-0.00910185,-0.00005956,0.0
 0009026,0.00007386,-0.00000058,-0.00000071,-0.00000039,-0.00000090,0.0
 0000299,0.00000052,0.00000034,0.,0.00000028,0.00000002,0.00000038,0.00
 000131,-0.00000133,0.00000139,0.00000084,0.00000213,-0.00000008,0.0000
 0014,-0.00000138,-0.00000137,0.00000240,-0.00000819,0.00001009,-0.0000
 0601,0.00001846,0.00002272,-0.00001052,0.00000958,0.00000803,0.0000055
 3,-0.00000510,0.00002697,-0.00002599,0.00001492,-0.00000098,-0.0000302
 2,-0.00000282,0.00001572,0.00006017,0.00000219,0.00000471,0.00001815,-
 0.00000098,-0.00000521,-0.00000635,-0.00002503,0.00000155,0.00001077,-
 0.00000259,0.00000113,-0.00000478,-0.00000908,-0.00000135,0.00000089,-
 0.00000716,-0.00000151,-0.00000466,0.00000187,-0.00001270,-0.00000533,
 -0.00000575,0.00000445,0.00000210,-0.00001180,0.00000027,-0.00000770,0
 .00012950,-0.00013258,-0.00022442,-0.00134853,0.00003794,0.00026912,-0
 .00021926,-0.00050044,-0.00006346,-0.00001828,-0.00008082,0.00003030,0
 .00011880,0.00092158,0.00014434,-0.02073704,0.36295938,-0.00000090,0.0
 0000398,0.00000494,-0.00000336,0.00000158,-0.00000973,-0.00000580,-0.0
 0000222,0.00000951,-0.00003662,0.00000935,0.00000712,0.00004821,0.0000
 6067,-0.00000984,0.00037429,-0.00009093,-0.00015338,-0.00028858,0.0002
 4084,0.00016304,0.00010350,0.00005074,-0.00008606,-0.00002806,0.000180
 04,0.00004477,0.00010048,-0.00012113,0.00007412,0.00017484,-0.00000069
 ,-0.00087073,-0.00002736,0.00009333,0.00010177,-0.00012616,-0.00013516
 ,0.00047223,-0.00014819,-0.00005051,0.00017344,-0.00005142,-0.00005168
 ,-0.00037575,-0.00010395,-0.00008841,-0.00006144,-0.00039080,-0.000098
 88,0.00020125,0.00004479,-0.00037365,-0.00017757,-0.00033885,0.0002677
 9,-0.00006574,0.00028994,-0.00010684,-0.00000711,-0.00004985,0.0000091
 1,-0.00001630,0.00003742,-0.00000265,0.00001066,0.00003460,0.00000983,
 0.00001518,-0.00014232,-0.00048049,-0.00006450,0.00054420,-0.00021799,
 -0.00338211,0.00301659,0.00223939,0.00485439,-0.00126357,0.00044876,0.
 00542223,-0.00069256,-0.00029281,-0.00078852,-0.00024414,-0.00084957,0
 .00690207,0.00045013,-0.00019390,0.00068993,0.00005092,0.00014259,-0.0
 0013223,-0.00011357,0.00003719,-0.00006254,-0.00020630,0.00001882,0.00
 002290,0.00110832,-0.00147569,0.00329207,-0.00413842,-0.01092539,-0.03
 619134,0.00018011,-0.00004952,-0.00011074,0.00000215,0.00000105,-0.000
 00432,-0.00000100,-0.00000270,-0.00000223,0.00000304,-0.00000079,0.000
 00337,0.00000700,-0.00000134,0.00000016,0.00000663,-0.00000163,0.00000
 347,-0.00000670,-0.00000353,0.00000045,0.00000412,0.00000246,-0.000010
 00,0.00000885,-0.00001083,0.00000173,-0.00000464,-0.00000585,0.0000123
 1,-0.00000383,-0.00000536,0.00000134,-0.00000394,-0.00002588,0.0000040
 7,-0.00000572,-0.00000799,0.00001136,-0.00001413,-0.00006052,-0.000053
 73,0.00000242,-0.00000569,0.00001236,-0.00002282,-0.00002449,0.0000056
 6,-0.00001476,0.00000540,-0.00000935,-0.00000258,-0.00000306,-0.000003
 37,-0.00000786,0.00000522,-0.00000657,-0.00001174,0.00000158,-0.000014
 64,-0.00000833,-0.00000546,-0.00001239,-0.00000471,-0.00000262,-0.0000
 0569,-0.00000952,0.00000614,0.00000191,0.00047067,0.00017121,-0.000159
 48,-0.00061049,-0.00035220,0.00043178,-0.00005447,0.00028055,0.0000534
 9,0.00002123,0.00005389,-0.00079117,0.00033421,0.00024607,-0.00439542,
 0.00176936,0.01154041,0.02502890\\-0.00000091,-0.00000056,0.00000368,-
 0.00000177,0.00000187,-0.00000447,-0.00000244,0.00000010,0.00000086,-0
 .00000760,0.00000069,0.00001365,0.00000999,-0.00000379,-0.00000444,-0.
 00002975,0.00000329,0.00000338,0.00002051,-0.00000990,0.00000172,-0.00
 000068,0.00000257,-0.00000041,0.00000644,0.00000501,0.00000469,-0.0000
 0980,-0.00000560,0.00000044,0.00000693,-0.00000723,-0.00000558,-0.0000
 0525,0.00000178,-0.00000096,-0.00000219,0.00000389,0.00000426,-0.00000
 177,0.00000598,-0.00000306,0.00000878,-0.00000272,-0.00000351,-0.00000
 725,0.00000903,-0.00000268,0.00001124,0.00000884,-0.00000551,0.0000094
 7,-0.00000913,0.00000474,0.00000479,-0.00000234,0.00000481,-0.00000663
 ,-0.00000189,-0.00001366,-0.00000221,-0.00000138,0.00000405,-0.0000004
 7,0.00000060,-0.00000366,-0.00000220,-0.00000056,-0.00000145,0.0000090
 9,0.00000383,0.00000488,-0.00002957,-0.00000269,-0.00000297,0.00002147
 ,0.00000952,-0.00000132,-0.00000708,-0.00000843,0.00000332,0.00000842,
 0.00000299,0.00000342,-0.00000925,0.00000511,-0.00000042,0.00000762,0.
 00000798,0.00000466,-0.00000624,-0.00000137,0.00000197,-0.00000224,-0.
 00000685,0.00000355,-0.00000277,-0.00000447,-0.00000453,0.00000670,-0.
 00000447,-0.00000397,-0.00000125,-0.00000242,0.00000005,0.00000508,0.0
 0000278,-0.00000437,-0.00000262,0.00000304,0.00000174,0.00000078,-0.00
 000132,-0.00000015,0.00000248,0.00000216,0.00000276,0.00000081,0.00000
 006,0.00000028,0.00000356,0.00000190,0.00000134,0.00000163,0.00000363,
 -0.00000167,-0.00000276,0.00000028,0.00000183,0.00000107,-0.00000076,0
 .00000003,-0.00000230,0.00000102,0.00000008,-0.00000226,0.00000108,0.0
 0000300,-0.00000022,-0.00000279,0.00000185,-0.00000218,-0.00000182,-0.
 00000122,0.00000132,0.00000297,-0.00000088,0.00000238,0.00000187,0.000
 00160,0.00000078,0.00000075,0.00000026,0.00000089,0.00000003,-0.000000
 70,0.00000070,0.00000140,0.00000013,0.00000238,-0.00000214,-0.00000282
 ,-0.00000229,-0.00000299,-0.00000182,-0.00000296,-0.00000026,-0.000001
 89,0.00000336,-0.00000190,-0.00000156,0.00000142,-0.00000333,0.0000013
 5,-0.00000217,-0.00000124,-0.00000305,-0.00000232,-0.00000120,-0.00000
 062,0.00000257,-0.00000201,-0.00000150,0.00000134,-0.00000292,0.000001
 02,-0.00000226,0.00000180,0.00000124,-0.00000033,0.00000263,-0.0000017
 5\\\@
 The archive entry for this job was punched.


 DEMOCRATS BUY MOST OF THE BOOKS THAT HAVE BEEN
 BANNED; REPUBLICANS FORM CENSORSHIP COMMITTEES AND
 READ THEM AS A GROUP.
 Job cpu time:       0 days  6 hours 59 minutes 48.4 seconds.
 Elapsed time:       0 days  0 hours 10 minutes 34.4 seconds.
 File lengths (MBytes):  RWF=   2286 Int=      0 D2E=      0 Chk=     29 Scr=      1
 Normal termination of Gaussian 16 at Mon Feb 26 03:37:00 2024.
