 Entering Gaussian System, Link 0=g16
 Initial command:
 /public/apps/g16-C01//g16/l1.exe "/public/home/ljq/tmp/Gau-7925.inp" -scrdir="/public/home/ljq/tmp/"
 Entering Link 1 = /public/apps/g16-C01//g16/l1.exe PID=      7926.
  
 Copyright (c) 1988-2019, Gaussian, Inc.  All Rights Reserved.
  
 This is part of the Gaussian(R) 16 program.  It is based on
 the Gaussian(R) 09 system (copyright 2009, Gaussian, Inc.),
 the Gaussian(R) 03 system (copyright 2003, Gaussian, Inc.),
 the Gaussian(R) 98 system (copyright 1998, Gaussian, Inc.),
 the Gaussian(R) 94 system (copyright 1995, Gaussian, Inc.),
 the Gaussian 92(TM) system (copyright 1992, Gaussian, Inc.),
 the Gaussian 90(TM) system (copyright 1990, Gaussian, Inc.),
 the Gaussian 88(TM) system (copyright 1988, Gaussian, Inc.),
 the Gaussian 86(TM) system (copyright 1986, Carnegie Mellon
 University), and the Gaussian 82(TM) system (copyright 1983,
 Carnegie Mellon University). Gaussian is a federally registered
 trademark of Gaussian, Inc.
  
 This software contains proprietary and confidential information,
 including trade secrets, belonging to Gaussian, Inc.
  
 This software is provided under written license and may be
 used, copied, transmitted, or stored only in accord with that
 written license.
  
 The following legend is applicable only to US Government
 contracts under FAR:
  
                    RESTRICTED RIGHTS LEGEND
  
 Use, reproduction and disclosure by the US Government is
 subject to restrictions as set forth in subparagraphs (a)
 and (c) of the Commercial Computer Software - Restricted
 Rights clause in FAR 52.227-19.
  
 Gaussian, Inc.
 340 Quinnipiac St., Bldg. 40, Wallingford CT 06492
  
  
 ---------------------------------------------------------------
 Warning -- This program may not be used in any manner that
 competes with the business of Gaussian, Inc. or will provide
 assistance to any competitor of Gaussian, Inc.  The licensee
 of this program is prohibited from giving any competitor of
 Gaussian, Inc. access to this program.  By using this program,
 the user acknowledges that Gaussian, Inc. is engaged in the
 business of creating and licensing software in the field of
 computational chemistry and represents and warrants to the
 licensee that it is not a competitor of Gaussian, Inc. and that
 it will not use this program in any manner prohibited above.
 ---------------------------------------------------------------
  

 Cite this work as:
 Gaussian 16, Revision C.01,
 M. J. Frisch, G. W. Trucks, H. B. Schlegel, G. E. Scuseria, 
 M. A. Robb, J. R. Cheeseman, G. Scalmani, V. Barone, 
 G. A. Petersson, H. Nakatsuji, X. Li, M. Caricato, A. V. Marenich, 
 J. Bloino, B. G. Janesko, R. Gomperts, B. Mennucci, H. P. Hratchian, 
 J. V. Ortiz, A. F. Izmaylov, J. L. Sonnenberg, D. Williams-Young, 
 F. Ding, F. Lipparini, F. Egidi, J. Goings, B. Peng, A. Petrone, 
 T. Henderson, D. Ranasinghe, V. G. Zakrzewski, J. Gao, N. Rega, 
 G. Zheng, W. Liang, M. Hada, M. Ehara, K. Toyota, R. Fukuda, 
 J. Hasegawa, M. Ishida, T. Nakajima, Y. Honda, O. Kitao, H. Nakai, 
 T. Vreven, K. Throssell, J. A. Montgomery, Jr., J. E. Peralta, 
 F. Ogliaro, M. J. Bearpark, J. J. Heyd, E. N. Brothers, K. N. Kudin, 
 V. N. Staroverov, T. A. Keith, R. Kobayashi, J. Normand, 
 K. Raghavachari, A. P. Rendell, J. C. Burant, S. S. Iyengar, 
 J. Tomasi, M. Cossi, J. M. Millam, M. Klene, C. Adamo, R. Cammi, 
 J. W. Ochterski, R. L. Martin, K. Morokuma, O. Farkas, 
 J. B. Foresman, and D. J. Fox, Gaussian, Inc., Wallingford CT, 2019.
 
 ******************************************
 Gaussian 16:  ES64L-G16RevC.01  3-Jul-2019
                25-Feb-2024 
 ******************************************
 %nproc=40
 Will use up to   40 processors via shared memory.
 %mem=56GB
 ------------------------------------------
 #p opt freq b3lyp/def2svpp em=gd3bj nosymm
 ------------------------------------------
 1/18=20,19=15,26=3,38=1/1,3;
 2/9=110,12=2,15=1,17=6,18=5,40=1/2;
 3/5=43,7=202,11=2,25=1,30=1,71=1,74=-5,124=41/1,2,3;
 4//1;
 5/5=2,38=5/2;
 6/7=2,8=2,9=2,10=2,28=1/1;
 7/30=1/1,2,3,16;
 1/18=20,19=15,26=3/3(2);
 2/9=110,15=1/2;
 99//99;
 2/9=110,15=1/2;
 3/5=43,7=202,11=2,25=1,30=1,71=1,74=-5,124=41/1,2,3;
 4/5=5,16=3,69=1/1;
 5/5=2,38=5/2;
 7/30=1/1,2,3,16;
 1/18=20,19=15,26=3/3(-5);
 2/9=110,15=1/2;
 6/7=2,8=2,9=2,10=2,19=2,28=1/1;
 99/9=1/99;
 Leave Link    1 at Sun Feb 25 23:07:01 2024, MaxMem=  7516192768 cpu:               1.3 elap:               0.0
 (Enter /public/apps/g16-C01//g16/l101.exe)
 ----------------------
 $$$$Singlemol####0????
 ----------------------
 Symbolic Z-matrix:
 Charge =  0 Multiplicity = 1
 C                    -4.55534  -1.12584  -0.88602 
 C                    -4.68      0.12857  -0.3118 
 C                    -3.5907    0.72316   0.29838 
 C                    -2.3656    0.06809   0.33717 
 C                    -1.18427   0.74686   0.98872 
 C                    -0.7491    2.04304   0.23487 
 O                     0.602     1.79809  -0.1269 
 C                     0.90874   0.55486   0.34204 
 C                     2.26267   0.06286   0.09187 
 C                     3.21338   0.89822  -0.49613 
 C                     4.48549   0.39759  -0.71285 
 C                     4.76157  -0.90814  -0.33948 
 C                     3.74047  -1.65542   0.23536 
 N                     2.52696  -1.19024   0.44662 
 N                     0.00328  -0.06948   0.96521 
 C                    -2.24479  -1.18797  -0.23811 
 C                    -3.3376   -1.78215  -0.84581 
 H                    -5.40731  -1.5896   -1.36121 
 H                    -5.62906   0.64414  -0.33771 
 H                    -3.68923   1.70109   0.749 
 H                    -1.43655   0.95978   2.03512 
 H                    -1.33568   2.207    -0.67405 
 H                    -0.78887   2.93719   0.86237 
 H                     2.94697   1.90697  -0.76808 
 H                     5.24808   1.01578  -1.16467 
 H                     5.74024  -1.33671  -0.49018 
 H                     3.90379  -2.68054   0.54142 
 H                    -1.29114  -1.69159  -0.19439 
 H                    -3.23625  -2.76149  -1.28998 
 
 ITRead=  0  0  0  0  0  0  0  0  0  0  0  0  0  0  0  0  0  0  0  0
 ITRead=  0  0  0  0  0  0  0  0  0
 MicOpt= -1 -1 -1 -1 -1 -1 -1 -1 -1 -1 -1 -1 -1 -1 -1 -1 -1 -1 -1 -1
 MicOpt= -1 -1 -1 -1 -1 -1 -1 -1 -1
 NAtoms=     29 NQM=       29 NQMF=       0 NMMI=      0 NMMIF=      0
                NMic=       0 NMicF=      0.
                    Isotopes and Nuclear Properties:
 (Nuclear quadrupole moments (NQMom) in fm**2, nuclear magnetic moments (NMagM)
  in nuclear magnetons)

  Atom         1           2           3           4           5           6           7           8           9          10
 IAtWgt=          12          12          12          12          12          12          16          12          12          12
 AtmWgt=  12.0000000  12.0000000  12.0000000  12.0000000  12.0000000  12.0000000  15.9949146  12.0000000  12.0000000  12.0000000
 NucSpn=           0           0           0           0           0           0           0           0           0           0
 AtZEff=  -0.0000000  -0.0000000  -0.0000000  -0.0000000  -0.0000000  -0.0000000  -0.0000000  -0.0000000  -0.0000000  -0.0000000
 NQMom=    0.0000000   0.0000000   0.0000000   0.0000000   0.0000000   0.0000000   0.0000000   0.0000000   0.0000000   0.0000000
 NMagM=    0.0000000   0.0000000   0.0000000   0.0000000   0.0000000   0.0000000   0.0000000   0.0000000   0.0000000   0.0000000
 AtZNuc=   6.0000000   6.0000000   6.0000000   6.0000000   6.0000000   6.0000000   8.0000000   6.0000000   6.0000000   6.0000000

  Atom        11          12          13          14          15          16          17          18          19          20
 IAtWgt=          12          12          12          14          14          12          12           1           1           1
 AtmWgt=  12.0000000  12.0000000  12.0000000  14.0030740  14.0030740  12.0000000  12.0000000   1.0078250   1.0078250   1.0078250
 NucSpn=           0           0           0           2           2           0           0           1           1           1
 AtZEff=  -0.0000000  -0.0000000  -0.0000000  -0.0000000  -0.0000000  -0.0000000  -0.0000000  -0.0000000  -0.0000000  -0.0000000
 NQMom=    0.0000000   0.0000000   0.0000000   2.0440000   2.0440000   0.0000000   0.0000000   0.0000000   0.0000000   0.0000000
 NMagM=    0.0000000   0.0000000   0.0000000   0.4037610   0.4037610   0.0000000   0.0000000   2.7928460   2.7928460   2.7928460
 AtZNuc=   6.0000000   6.0000000   6.0000000   7.0000000   7.0000000   6.0000000   6.0000000   1.0000000   1.0000000   1.0000000

  Atom        21          22          23          24          25          26          27          28          29
 IAtWgt=           1           1           1           1           1           1           1           1           1
 AtmWgt=   1.0078250   1.0078250   1.0078250   1.0078250   1.0078250   1.0078250   1.0078250   1.0078250   1.0078250
 NucSpn=           1           1           1           1           1           1           1           1           1
 AtZEff=  -0.0000000  -0.0000000  -0.0000000  -0.0000000  -0.0000000  -0.0000000  -0.0000000  -0.0000000  -0.0000000
 NQMom=    0.0000000   0.0000000   0.0000000   0.0000000   0.0000000   0.0000000   0.0000000   0.0000000   0.0000000
 NMagM=    2.7928460   2.7928460   2.7928460   2.7928460   2.7928460   2.7928460   2.7928460   2.7928460   2.7928460
 AtZNuc=   1.0000000   1.0000000   1.0000000   1.0000000   1.0000000   1.0000000   1.0000000   1.0000000   1.0000000
 Leave Link  101 at Sun Feb 25 23:07:01 2024, MaxMem=  7516192768 cpu:              18.2 elap:               0.5
 (Enter /public/apps/g16-C01//g16/l103.exe)

 GradGradGradGradGradGradGradGradGradGradGradGradGradGradGradGradGradGrad
 Berny optimization.
 Initialization pass.
                           ----------------------------
                           !    Initial Parameters    !
                           ! (Angstroms and Degrees)  !
 --------------------------                            --------------------------
 ! Name  Definition              Value          Derivative Info.                !
 --------------------------------------------------------------------------------
 ! R1    R(1,2)                  1.3852         estimate D2E/DX2                !
 ! R2    R(1,17)                 1.3839         estimate D2E/DX2                !
 ! R3    R(1,18)                 1.0802         estimate D2E/DX2                !
 ! R4    R(2,3)                  1.3829         estimate D2E/DX2                !
 ! R5    R(2,19)                 1.0804         estimate D2E/DX2                !
 ! R6    R(3,4)                  1.3898         estimate D2E/DX2                !
 ! R7    R(3,20)                 1.0813         estimate D2E/DX2                !
 ! R8    R(4,5)                  1.5102         estimate D2E/DX2                !
 ! R9    R(4,16)                 1.3868         estimate D2E/DX2                !
 ! R10   R(5,6)                  1.5613         estimate D2E/DX2                !
 ! R11   R(5,15)                 1.4413         estimate D2E/DX2                !
 ! R12   R(5,21)                 1.0972         estimate D2E/DX2                !
 ! R13   R(6,7)                  1.42           estimate D2E/DX2                !
 ! R14   R(6,22)                 1.0941         estimate D2E/DX2                !
 ! R15   R(6,23)                 1.0931         estimate D2E/DX2                !
 ! R16   R(7,8)                  1.3637         estimate D2E/DX2                !
 ! R17   R(8,9)                  1.4621         estimate D2E/DX2                !
 ! R18   R(8,15)                 1.2641         estimate D2E/DX2                !
 ! R19   R(9,10)                 1.3955         estimate D2E/DX2                !
 ! R20   R(9,14)                 1.3289         estimate D2E/DX2                !
 ! R21   R(10,11)                1.3841         estimate D2E/DX2                !
 ! R22   R(10,24)                1.0782         estimate D2E/DX2                !
 ! R23   R(11,12)                1.3858         estimate D2E/DX2                !
 ! R24   R(11,25)                1.0807         estimate D2E/DX2                !
 ! R25   R(12,13)                1.3898         estimate D2E/DX2                !
 ! R26   R(12,26)                1.079          estimate D2E/DX2                !
 ! R27   R(13,14)                1.3167         estimate D2E/DX2                !
 ! R28   R(13,27)                1.0822         estimate D2E/DX2                !
 ! R29   R(16,17)                1.3844         estimate D2E/DX2                !
 ! R30   R(16,28)                1.0794         estimate D2E/DX2                !
 ! R31   R(17,29)                1.0801         estimate D2E/DX2                !
 ! A1    A(2,1,17)             119.7754         estimate D2E/DX2                !
 ! A2    A(2,1,18)             120.0123         estimate D2E/DX2                !
 ! A3    A(17,1,18)            120.2122         estimate D2E/DX2                !
 ! A4    A(1,2,3)              120.0909         estimate D2E/DX2                !
 ! A5    A(1,2,19)             120.0834         estimate D2E/DX2                !
 ! A6    A(3,2,19)             119.8256         estimate D2E/DX2                !
 ! A7    A(2,3,4)              120.2656         estimate D2E/DX2                !
 ! A8    A(2,3,20)             120.0642         estimate D2E/DX2                !
 ! A9    A(4,3,20)             119.6701         estimate D2E/DX2                !
 ! A10   A(3,4,5)              119.3228         estimate D2E/DX2                !
 ! A11   A(3,4,16)             119.4803         estimate D2E/DX2                !
 ! A12   A(5,4,16)             121.1912         estimate D2E/DX2                !
 ! A13   A(4,5,6)              112.5101         estimate D2E/DX2                !
 ! A14   A(4,5,15)             112.5146         estimate D2E/DX2                !
 ! A15   A(4,5,21)             108.5905         estimate D2E/DX2                !
 ! A16   A(6,5,15)             103.4551         estimate D2E/DX2                !
 ! A17   A(6,5,21)             111.3112         estimate D2E/DX2                !
 ! A18   A(15,5,21)            108.3557         estimate D2E/DX2                !
 ! A19   A(5,6,7)              104.1822         estimate D2E/DX2                !
 ! A20   A(5,6,22)             112.0905         estimate D2E/DX2                !
 ! A21   A(5,6,23)             113.0656         estimate D2E/DX2                !
 ! A22   A(7,6,22)             108.9238         estimate D2E/DX2                !
 ! A23   A(7,6,23)             108.7829         estimate D2E/DX2                !
 ! A24   A(22,6,23)            109.5605         estimate D2E/DX2                !
 ! A25   A(6,7,8)              106.4798         estimate D2E/DX2                !
 ! A26   A(7,8,9)              117.1443         estimate D2E/DX2                !
 ! A27   A(7,8,15)             117.3014         estimate D2E/DX2                !
 ! A28   A(9,8,15)             125.5515         estimate D2E/DX2                !
 ! A29   A(8,9,10)             120.1007         estimate D2E/DX2                !
 ! A30   A(8,9,14)             117.1161         estimate D2E/DX2                !
 ! A31   A(10,9,14)            122.7832         estimate D2E/DX2                !
 ! A32   A(9,10,11)            118.3974         estimate D2E/DX2                !
 ! A33   A(9,10,24)            119.8675         estimate D2E/DX2                !
 ! A34   A(11,10,24)           121.7351         estimate D2E/DX2                !
 ! A35   A(10,11,12)           118.796          estimate D2E/DX2                !
 ! A36   A(10,11,25)           120.4713         estimate D2E/DX2                !
 ! A37   A(12,11,25)           120.7327         estimate D2E/DX2                !
 ! A38   A(11,12,13)           118.1431         estimate D2E/DX2                !
 ! A39   A(11,12,26)           121.1524         estimate D2E/DX2                !
 ! A40   A(13,12,26)           120.7045         estimate D2E/DX2                !
 ! A41   A(12,13,14)           123.611          estimate D2E/DX2                !
 ! A42   A(12,13,27)           121.0252         estimate D2E/DX2                !
 ! A43   A(14,13,27)           115.3638         estimate D2E/DX2                !
 ! A44   A(9,14,13)            118.2689         estimate D2E/DX2                !
 ! A45   A(5,15,8)             108.5716         estimate D2E/DX2                !
 ! A46   A(4,16,17)            120.136          estimate D2E/DX2                !
 ! A47   A(4,16,28)            118.8667         estimate D2E/DX2                !
 ! A48   A(17,16,28)           120.995          estimate D2E/DX2                !
 ! A49   A(1,17,16)            120.2515         estimate D2E/DX2                !
 ! A50   A(1,17,29)            120.04           estimate D2E/DX2                !
 ! A51   A(16,17,29)           119.7086         estimate D2E/DX2                !
 ! D1    D(17,1,2,3)             0.0599         estimate D2E/DX2                !
 ! D2    D(17,1,2,19)         -179.8163         estimate D2E/DX2                !
 ! D3    D(18,1,2,3)           179.9243         estimate D2E/DX2                !
 ! D4    D(18,1,2,19)            0.0481         estimate D2E/DX2                !
 ! D5    D(2,1,17,16)           -0.1978         estimate D2E/DX2                !
 ! D6    D(2,1,17,29)          179.8426         estimate D2E/DX2                !
 ! D7    D(18,1,17,16)         179.9382         estimate D2E/DX2                !
 ! D8    D(18,1,17,29)          -0.0215         estimate D2E/DX2                !
 ! D9    D(1,2,3,4)              0.1138         estimate D2E/DX2                !
 ! D10   D(1,2,3,20)          -179.8214         estimate D2E/DX2                !
 ! D11   D(19,2,3,4)           179.9903         estimate D2E/DX2                !
 ! D12   D(19,2,3,20)            0.0551         estimate D2E/DX2                !
 ! D13   D(2,3,4,5)            178.9875         estimate D2E/DX2                !
 ! D14   D(2,3,4,16)            -0.1493         estimate D2E/DX2                !
 ! D15   D(20,3,4,5)            -1.0771         estimate D2E/DX2                !
 ! D16   D(20,3,4,16)          179.7861         estimate D2E/DX2                !
 ! D17   D(3,4,5,6)            -64.5139         estimate D2E/DX2                !
 ! D18   D(3,4,5,15)           179.0988         estimate D2E/DX2                !
 ! D19   D(3,4,5,21)            59.1592         estimate D2E/DX2                !
 ! D20   D(16,4,5,6)           114.6077         estimate D2E/DX2                !
 ! D21   D(16,4,5,15)           -1.7796         estimate D2E/DX2                !
 ! D22   D(16,4,5,21)         -121.7192         estimate D2E/DX2                !
 ! D23   D(3,4,16,17)            0.0117         estimate D2E/DX2                !
 ! D24   D(3,4,16,28)         -179.449          estimate D2E/DX2                !
 ! D25   D(5,4,16,17)         -179.1085         estimate D2E/DX2                !
 ! D26   D(5,4,16,28)            1.4308         estimate D2E/DX2                !
 ! D27   D(4,5,6,7)           -121.1295         estimate D2E/DX2                !
 ! D28   D(4,5,6,22)            -3.5117         estimate D2E/DX2                !
 ! D29   D(4,5,6,23)           120.9289         estimate D2E/DX2                !
 ! D30   D(15,5,6,7)             0.562          estimate D2E/DX2                !
 ! D31   D(15,5,6,22)          118.1799         estimate D2E/DX2                !
 ! D32   D(15,5,6,23)         -117.3796         estimate D2E/DX2                !
 ! D33   D(21,5,6,7)           116.7236         estimate D2E/DX2                !
 ! D34   D(21,5,6,22)         -125.6586         estimate D2E/DX2                !
 ! D35   D(21,5,6,23)           -1.2181         estimate D2E/DX2                !
 ! D36   D(4,5,15,8)           120.7434         estimate D2E/DX2                !
 ! D37   D(6,5,15,8)            -0.9452         estimate D2E/DX2                !
 ! D38   D(21,5,15,8)         -119.1812         estimate D2E/DX2                !
 ! D39   D(5,6,7,8)             -0.0245         estimate D2E/DX2                !
 ! D40   D(22,6,7,8)          -119.8061         estimate D2E/DX2                !
 ! D41   D(23,6,7,8)           120.8244         estimate D2E/DX2                !
 ! D42   D(6,7,8,9)            179.9226         estimate D2E/DX2                !
 ! D43   D(6,7,8,15)            -0.6537         estimate D2E/DX2                !
 ! D44   D(7,8,9,10)             5.5862         estimate D2E/DX2                !
 ! D45   D(7,8,9,14)          -174.3938         estimate D2E/DX2                !
 ! D46   D(15,8,9,10)         -173.7844         estimate D2E/DX2                !
 ! D47   D(15,8,9,14)            6.2356         estimate D2E/DX2                !
 ! D48   D(7,8,15,5)             1.0597         estimate D2E/DX2                !
 ! D49   D(9,8,15,5)          -179.5706         estimate D2E/DX2                !
 ! D50   D(8,9,10,11)          179.7894         estimate D2E/DX2                !
 ! D51   D(8,9,10,24)           -0.1515         estimate D2E/DX2                !
 ! D52   D(14,9,10,11)          -0.2318         estimate D2E/DX2                !
 ! D53   D(14,9,10,24)         179.8273         estimate D2E/DX2                !
 ! D54   D(8,9,14,13)         -179.7975         estimate D2E/DX2                !
 ! D55   D(10,9,14,13)           0.2231         estimate D2E/DX2                !
 ! D56   D(9,10,11,12)           0.054          estimate D2E/DX2                !
 ! D57   D(9,10,11,25)        -179.9133         estimate D2E/DX2                !
 ! D58   D(24,10,11,12)        179.9937         estimate D2E/DX2                !
 ! D59   D(24,10,11,25)          0.0264         estimate D2E/DX2                !
 ! D60   D(10,11,12,13)          0.1132         estimate D2E/DX2                !
 ! D61   D(10,11,12,26)       -179.9561         estimate D2E/DX2                !
 ! D62   D(25,11,12,13)       -179.9195         estimate D2E/DX2                !
 ! D63   D(25,11,12,26)          0.0112         estimate D2E/DX2                !
 ! D64   D(11,12,13,14)         -0.128          estimate D2E/DX2                !
 ! D65   D(11,12,13,27)        179.8078         estimate D2E/DX2                !
 ! D66   D(26,12,13,14)        179.941          estimate D2E/DX2                !
 ! D67   D(26,12,13,27)         -0.1232         estimate D2E/DX2                !
 ! D68   D(12,13,14,9)          -0.0394         estimate D2E/DX2                !
 ! D69   D(27,13,14,9)        -179.9786         estimate D2E/DX2                !
 ! D70   D(4,16,17,1)            0.162          estimate D2E/DX2                !
 ! D71   D(4,16,17,29)        -179.8783         estimate D2E/DX2                !
 ! D72   D(28,16,17,1)         179.611          estimate D2E/DX2                !
 ! D73   D(28,16,17,29)         -0.4293         estimate D2E/DX2                !
 --------------------------------------------------------------------------------
 Trust Radius=3.00D-01 FncErr=1.00D-07 GrdErr=1.00D-06 EigMax=2.50D+02 EigMin=1.00D-04
 Number of steps in this run=    165 maximum allowed number of steps=    174.
 GradGradGradGradGradGradGradGradGradGradGradGradGradGradGradGradGradGrad

 Leave Link  103 at Sun Feb 25 23:07:01 2024, MaxMem=  7516192768 cpu:               0.9 elap:               0.0
 (Enter /public/apps/g16-C01//g16/l202.exe)
                          Input orientation:                          
 ---------------------------------------------------------------------
 Center     Atomic      Atomic             Coordinates (Angstroms)
 Number     Number       Type             X           Y           Z
 ---------------------------------------------------------------------
      1          6           0       -4.555335   -1.125835   -0.886022
      2          6           0       -4.679998    0.128574   -0.311796
      3          6           0       -3.590696    0.723163    0.298379
      4          6           0       -2.365603    0.068093    0.337174
      5          6           0       -1.184274    0.746857    0.988715
      6          6           0       -0.749095    2.043040    0.234874
      7          8           0        0.601997    1.798093   -0.126902
      8          6           0        0.908740    0.554859    0.342044
      9          6           0        2.262672    0.062856    0.091873
     10          6           0        3.213384    0.898221   -0.496132
     11          6           0        4.485489    0.397593   -0.712847
     12          6           0        4.761574   -0.908135   -0.339483
     13          6           0        3.740472   -1.655415    0.235356
     14          7           0        2.526957   -1.190238    0.446616
     15          7           0        0.003275   -0.069480    0.965205
     16          6           0       -2.244792   -1.187970   -0.238109
     17          6           0       -3.337602   -1.782145   -0.845809
     18          1           0       -5.407311   -1.589597   -1.361211
     19          1           0       -5.629062    0.644136   -0.337712
     20          1           0       -3.689232    1.701088    0.748999
     21          1           0       -1.436550    0.959782    2.035115
     22          1           0       -1.335675    2.206997   -0.674052
     23          1           0       -0.788867    2.937191    0.862368
     24          1           0        2.946972    1.906974   -0.768076
     25          1           0        5.248080    1.015783   -1.164671
     26          1           0        5.740238   -1.336705   -0.490176
     27          1           0        3.903793   -2.680537    0.541418
     28          1           0       -1.291136   -1.691591   -0.194394
     29          1           0       -3.236255   -2.761491   -1.289976
 ---------------------------------------------------------------------
                    Distance matrix (angstroms):
                    1          2          3          4          5
     1  C    0.000000
     2  C    1.385214   0.000000
     3  C    2.398359   1.382906   0.000000
     4  C    2.777877   2.404422   1.389775   0.000000
     5  C    4.287851   3.780700   2.503596   1.510220   0.000000
     6  C    5.077956   4.406362   3.133816   2.554208   1.561329
     7  O    5.976930   5.542648   4.349139   3.466254   2.353819
     8  C    5.847136   5.642980   4.502794   3.310330   2.199035
     9  C    6.989598   6.954706   5.894113   4.634774   3.626792
    10  C    8.037525   7.932958   6.852547   5.701632   4.644037
    11  C    9.169914   9.178201   8.145756   6.938917   5.929883
    12  C    9.335464   9.498358   8.533957   7.225478   6.313178
    13  C    8.387989   8.624750   7.707634   6.345471   5.530966
    14  N    7.206867   7.365776   6.411611   5.052971   4.221308
    15  N    5.032281   4.858292   3.740263   2.454574   1.441260
    16  C    2.400471   2.769286   2.398272   1.386809   2.524550
    17  C    1.383920   2.395421   2.765826   2.401585   3.794490
    18  H    1.080159   2.140647   3.376861   3.858035   5.367980
    19  H    2.141572   1.080370   2.136772   3.381932   4.639623
    20  H    3.378598   2.140024   1.081252   2.142024   2.691252
    21  H    4.754962   4.088869   2.777154   2.131021   1.097239
    22  H    4.638848   3.954184   2.869234   2.580357   2.218045
    23  H    5.809589   4.940434   3.615280   3.315667   2.229321
    24  H    8.092988   7.844843   6.729029   5.729443   4.636742
    25  H   10.038482  10.004063   8.963822   7.818045   6.788562
    26  H   10.305338  10.524266   9.588076   8.268169   7.380868
    27  H    8.718459   9.071965   8.234780   6.848504   6.151059
    28  H    3.384291   3.848528   3.370733   2.129209   2.712415
    29  H    2.139748   3.375456   3.845948   3.378194   4.659567
                    6          7          8          9         10
     6  C    0.000000
     7  O    1.419976   0.000000
     8  C    2.230378   1.363683   0.000000
     9  C    3.607259   2.411794   1.462116   0.000000
    10  C    4.188821   2.786654   2.476251   1.395506   0.000000
    11  C    5.568352   4.169681   3.732380   2.387580   1.384140
    12  C    6.277483   4.966985   4.177219   2.715401   2.384188
    13  C    5.816767   4.680595   3.593800   2.270889   2.708127
    14  N    4.607758   3.600627   2.382210   1.328884   2.391990
    15  N    2.358428   2.244771   1.264119   2.425922   3.657424
    16  C    3.591692   4.127123   3.649492   4.689423   5.848970
    17  C    4.743446   5.371720   4.990391   5.970456   7.086752
    18  H    6.119029   7.007977   6.884204   7.979392   9.014099
    19  H    5.108705   6.340517   6.573651   7.924765   8.847514
    20  H    3.004274   4.380783   4.756133   6.208122   7.059820
    21  H    2.210636   3.087516   2.920760   4.273746   5.294609
    22  H    1.094123   2.054543   2.966380   4.258178   4.736928
    23  H    1.093086   2.052000   2.971214   4.262318   4.692647
    24  H    3.832145   2.433489   2.686070   2.146753   1.078198
    25  H    6.243404   4.824423   4.616548   3.376334   2.144937
    26  H    7.352538   6.029962   5.254900   3.793549   3.373414
    27  H    6.637433   5.604162   4.413375   3.228246   3.789549
    28  H    3.798098   3.970693   3.189633   3.973611   5.204697
    29  H    5.620912   6.072456   5.553616   6.334401   7.457984
                   11         12         13         14         15
    11  C    0.000000
    12  C    1.385839   0.000000
    13  C    2.380962   1.389790   0.000000
    14  N    2.775141   2.385592   1.316677   0.000000
    15  N    4.808769   5.004694   4.124865   2.809627   0.000000
    16  C    6.930806   7.012685   6.022131   4.820627   2.784383
    17  C    8.122173   8.161918   7.161292   6.034382   4.168267
    18  H   10.111221  10.242780   9.286296   8.147413   6.082549
    19  H   10.124507  10.505944   9.664601   8.396472   5.824952
    20  H    8.406079   8.911171   8.168870   6.862376   4.100764
    21  H    6.552702   6.895257   6.072886   4.780722   2.068135
    22  H    6.096015   6.855102   6.443021   5.264696   3.108424
    23  H    6.062152   6.858453   6.480747   5.310669   3.110970
    24  H    2.155995   3.376583   3.785120   3.353299   3.946642
    25  H    1.080671   2.149205   3.371684   3.855812   5.763866
    26  H    2.152154   1.078964   2.151055   3.350255   6.052829
    27  H    3.374379   2.157124   1.082230   2.031171   4.712882
    28  H    6.164648   6.104929   5.050057   3.903855   2.377270
    29  H    8.362907   8.264601   7.226670   6.220868   4.777794
                   16         17         18         19         20
    16  C    0.000000
    17  C    1.384405   0.000000
    18  H    3.379969   2.141590   0.000000
    19  H    3.849651   3.375765   2.467040   0.000000
    20  H    3.377491   3.847073   4.270057   2.461916   0.000000
    21  H    3.230115   4.408161   5.813889   4.827742   2.697815
    22  H    3.541517   4.466594   5.609326   4.581357   2.796471
    23  H    4.510845   5.629036   6.838577   5.488696   3.154825
    24  H    6.067451   7.287765   9.075895   8.679190   6.810515
    25  H    7.864997   9.035707  10.971052  10.914861   9.165551
    26  H    7.990392   9.095717  11.184387  11.541575   9.983919
    27  H    6.374991   7.427604   9.565919  10.134182   8.769023
    28  H    1.079354   2.149550   4.279575   4.928870   4.260414
    29  H    2.136678   1.080127   2.468176   4.269734   4.927192
                   21         22         23         24         25
    21  H    0.000000
    22  H    2.984176   0.000000
    23  H    2.388509   1.786832   0.000000
    24  H    5.288697   4.294173   4.204306   0.000000
    25  H    7.411211   6.708616   6.651723   2.499321   0.000000
    26  H    7.947153   7.915818   7.919897   4.289641   2.496270
    27  H    6.633424   7.267557   7.326864   4.865752   4.287264
    28  H    3.467223   3.928237   4.774374   5.589306   7.143715
    29  H    5.305002   5.355132   6.564851   7.765259   9.288027
                   26         27         28         29
    26  H    0.000000
    27  H    2.498520   0.000000
    28  H    7.046535   5.339169   0.000000
    29  H    9.123986   7.371624   2.475575   0.000000
 Symmetry turned off by external request.
 Stoichiometry    C14H12N2O
 Framework group  C1[X(C14H12N2O)]
 Deg. of freedom    81
 Full point group                 C1      NOp   1
 Rotational constants (GHZ):           1.3184795           0.2329150           0.2093161
 Leave Link  202 at Sun Feb 25 23:07:01 2024, MaxMem=  7516192768 cpu:               0.6 elap:               0.0
 (Enter /public/apps/g16-C01//g16/l301.exe)
 Standard basis: def2SVPP (5D, 7F)
 Ernie: Thresh=  0.10000D-02 Tol=  0.10000D-05 Strict=F.
   262 basis functions,   473 primitive gaussians,   279 cartesian basis functions
    59 alpha electrons       59 beta electrons
       nuclear repulsion energy      1089.1875352579 Hartrees.
 IExCor=  402 DFT=T Ex+Corr=B3LYP ExCW=0 ScaHFX=  0.200000
 ScaDFX=  0.800000  0.720000  1.000000  0.810000 ScalE2=  1.000000  1.000000
 IRadAn=      5 IRanWt=     -1 IRanGd=            0 ICorTp=0 IEmpDi=141
 NAtoms=   29 NActive=   29 NUniq=   29 SFac= 1.00D+00 NAtFMM=   60 NAOKFM=F Big=F
 Integral buffers will be    131072 words long.
 Raffenetti 2 integral format.
 Two-electron integral symmetry is turned off.
 R6Disp:  Grimme-D3(BJ) Dispersion energy=       -0.0604675544 Hartrees.
 Nuclear repulsion after empirical dispersion term =     1089.1270677035 Hartrees.
 Leave Link  301 at Sun Feb 25 23:07:01 2024, MaxMem=  7516192768 cpu:               1.7 elap:               0.0
 (Enter /public/apps/g16-C01//g16/l302.exe)
 NPDir=0 NMtPBC=     1 NCelOv=     1 NCel=       1 NClECP=     1 NCelD=      1
         NCelK=      1 NCelE2=     1 NClLst=     1 CellRange=     0.0.
 One-electron integrals computed using PRISM.
   1 Symmetry operations used in ECPInt.
 ECPInt:  NShTT=    8001 NPrTT=   32135 LenC2=    7396 LenP2D=   20704.
 LDataN:  DoStor=T MaxTD1= 4 Len=   56
 NBasis=   262 RedAO= T EigKep=  2.74D-04  NBF=   262
 NBsUse=   262 1.00D-06 EigRej= -1.00D+00 NBFU=   262
 Precomputing XC quadrature grid using
 IXCGrd= 4 IRadAn=           5 IRanWt=          -1 IRanGd=           0 AccXCQ= 0.00D+00.
 Generated NRdTot=       0 NPtTot=           0 NUsed=           0 NTot=          32
 NSgBfM=   277   277   277   277   277 MxSgAt=    29 MxSgA2=    29.
 Leave Link  302 at Sun Feb 25 23:07:02 2024, MaxMem=  7516192768 cpu:              11.3 elap:               0.3
 (Enter /public/apps/g16-C01//g16/l303.exe)
 DipDrv:  MaxL=1.
 Leave Link  303 at Sun Feb 25 23:07:02 2024, MaxMem=  7516192768 cpu:               1.9 elap:               0.1
 (Enter /public/apps/g16-C01//g16/l401.exe)
 ExpMin= 1.22D-01 ExpMax= 2.27D+03 ExpMxC= 3.41D+02 IAcc=3 IRadAn=         5 AccDes= 0.00D+00
 Harris functional with IExCor=  402 and IRadAn=       5 diagonalized for initial guess.
 HarFok:  IExCor=  402 AccDes= 0.00D+00 IRadAn=         5 IDoV= 1 UseB2=F ITyADJ=14
 ICtDFT=  3500011 ScaDFX=  1.000000  1.000000  1.000000  1.000000
 FoFCou: FMM=F IPFlag=           0 FMFlag=      100000 FMFlg1=           0
         NFxFlg=           0 DoJE=T BraDBF=F KetDBF=T FulRan=T
         wScrn=  0.000000 ICntrl=       500 IOpCl=  0 I1Cent=   200000004 NGrid=           0
         NMat0=    1 NMatS0=      1 NMatT0=    0 NMatD0=    1 NMtDS0=    0 NMtDT0=    0
 Symmetry not used in FoFCou.
 Harris En= -724.886976509233    
 JPrj=0 DoOrth=F DoCkMO=F.
 Leave Link  401 at Sun Feb 25 23:07:02 2024, MaxMem=  7516192768 cpu:              16.7 elap:               0.4
 (Enter /public/apps/g16-C01//g16/l502.exe)
 Two-electron integral symmetry not used.
 Closed shell SCF:
 Using DIIS extrapolation, IDIIS=  1040.
 NGot=  7516192768 LenX=  7516022799 LenY=  7515944517
 Requested convergence on RMS density matrix=1.00D-08 within 128 cycles.
 Requested convergence on MAX density matrix=1.00D-06.
 Requested convergence on             energy=1.00D-06.
 No special actions if energy rises.
 Fock matrices will be formed incrementally for  20 cycles.
 Integral accuracy reduced to 1.0D-05 until final iterations.

 Cycle   1  Pass 0  IDiag  1:
 FoFJK:  IHMeth= 1 ICntrl=       0 DoSepK=F KAlg= 0 I1Cent=           0 FoldK=F
 IRaf= 870000000 NMat=       1 IRICut=       1 DoRegI=T DoRafI=F ISym2E= 0 IDoP0=0 IntGTp=1.
 FoFCou: FMM=F IPFlag=           0 FMFlag=      100000 FMFlg1=           0
         NFxFlg=           0 DoJE=F BraDBF=F KetDBF=F FulRan=T
         wScrn=  0.000000 ICntrl=         0 IOpCl=  0 I1Cent=           0 NGrid=           0
         NMat0=    1 NMatS0=      1 NMatT0=    0 NMatD0=    1 NMtDS0=    0 NMtDT0=    0
 Symmetry not used in FoFCou.
 E= -724.624308699062    
 DIIS: error= 3.73D-02 at cycle   1 NSaved=   1.
 NSaved= 1 IEnMin= 1 EnMin= -724.624308699062     IErMin= 1 ErrMin= 3.73D-02
 ErrMax= 3.73D-02  0.00D+00 EMaxC= 1.00D-01 BMatC= 2.69D-01 BMatP= 2.69D-01
 IDIUse=3 WtCom= 6.27D-01 WtEn= 3.73D-01
 Coeff-Com:  0.100D+01
 Coeff-En:   0.100D+01
 Coeff:      0.100D+01
 Gap=     0.184 Goal=   None    Shift=    0.000
 GapD=    0.184 DampG=1.000 DampE=0.500 DampFc=0.5000 IDamp=-1.
 Damping current iteration by 5.00D-01
 RMSDP=6.36D-03 MaxDP=1.39D-01              OVMax= 2.00D-01

 Cycle   2  Pass 0  IDiag  1:
 RMSU=  3.01D-03    CP:  9.59D-01
 E= -724.756004428031     Delta-E=       -0.131695728969 Rises=F Damp=T
 DIIS: error= 5.26D-03 at cycle   2 NSaved=   2.
 NSaved= 2 IEnMin= 2 EnMin= -724.756004428031     IErMin= 2 ErrMin= 5.26D-03
 ErrMax= 5.26D-03  0.00D+00 EMaxC= 1.00D-01 BMatC= 2.23D-02 BMatP= 2.69D-01
 IDIUse=3 WtCom= 9.47D-01 WtEn= 5.26D-02
 Coeff-Com:  0.809D-01 0.919D+00
 Coeff-En:   0.108D+00 0.892D+00
 Coeff:      0.823D-01 0.918D+00
 Gap=     0.199 Goal=   None    Shift=    0.000
 RMSDP=2.01D-03 MaxDP=5.54D-02 DE=-1.32D-01 OVMax= 1.77D-01

 Cycle   3  Pass 0  IDiag  1:
 RMSU=  1.93D-03    CP:  9.35D-01  1.02D+00
 E= -724.899404661415     Delta-E=       -0.143400233384 Rises=F Damp=F
 DIIS: error= 9.96D-03 at cycle   3 NSaved=   3.
 NSaved= 3 IEnMin= 3 EnMin= -724.899404661415     IErMin= 2 ErrMin= 5.26D-03
 ErrMax= 9.96D-03  0.00D+00 EMaxC= 1.00D-01 BMatC= 3.29D-02 BMatP= 2.23D-02
 IDIUse=3 WtCom= 9.11D-02 WtEn= 9.09D-01
 Coeff-Com: -0.135D-01 0.560D+00 0.453D+00
 Coeff-En:   0.000D+00 0.000D+00 0.100D+01
 Coeff:     -0.123D-02 0.510D-01 0.950D+00
 Gap=     0.173 Goal=   None    Shift=    0.000
 RMSDP=2.38D-03 MaxDP=1.04D-01 DE=-1.43D-01 OVMax= 2.01D-01

 Cycle   4  Pass 0  IDiag  1:
 RMSU=  1.61D-03    CP:  9.40D-01  1.28D+00  1.89D-01
 E= -724.794089208003     Delta-E=        0.105315453411 Rises=F Damp=F
 DIIS: error= 2.40D-02 at cycle   4 NSaved=   4.
 NSaved= 4 IEnMin= 3 EnMin= -724.899404661415     IErMin= 2 ErrMin= 5.26D-03
 ErrMax= 2.40D-02  0.00D+00 EMaxC= 1.00D-01 BMatC= 1.48D-01 BMatP= 2.23D-02
 IDIUse=2 WtCom= 0.00D+00 WtEn= 1.00D+00
 Coeff-En:   0.000D+00 0.000D+00 0.759D+00 0.241D+00
 Coeff:      0.000D+00 0.000D+00 0.759D+00 0.241D+00
 Gap=     0.198 Goal=   None    Shift=    0.000
 RMSDP=1.28D-03 MaxDP=5.28D-02 DE= 1.05D-01 OVMax= 1.03D-01

 Cycle   5  Pass 0  IDiag  1:
 RMSU=  2.77D-04    CP:  9.37D-01  1.13D+00  6.06D-01  4.80D-01
 E= -724.921464839453     Delta-E=       -0.127375631450 Rises=F Damp=F
 DIIS: error= 5.22D-03 at cycle   5 NSaved=   5.
 NSaved= 5 IEnMin= 5 EnMin= -724.921464839453     IErMin= 5 ErrMin= 5.22D-03
 ErrMax= 5.22D-03  0.00D+00 EMaxC= 1.00D-01 BMatC= 9.22D-03 BMatP= 2.23D-02
 IDIUse=3 WtCom= 9.48D-01 WtEn= 5.22D-02
 Coeff-Com:  0.712D-02 0.236D-02 0.324D+00-0.168D-01 0.684D+00
 Coeff-En:   0.000D+00 0.000D+00 0.270D+00 0.000D+00 0.730D+00
 Coeff:      0.675D-02 0.223D-02 0.321D+00-0.159D-01 0.686D+00
 Gap=     0.189 Goal=   None    Shift=    0.000
 RMSDP=4.16D-04 MaxDP=1.69D-02 DE=-1.27D-01 OVMax= 2.65D-02

 Cycle   6  Pass 0  IDiag  1:
 RMSU=  1.18D-04    CP:  9.35D-01  1.09D+00  7.42D-01  3.12D-01  7.91D-01
 E= -724.929837671470     Delta-E=       -0.008372832016 Rises=F Damp=F
 DIIS: error= 6.02D-04 at cycle   6 NSaved=   6.
 NSaved= 6 IEnMin= 6 EnMin= -724.929837671470     IErMin= 6 ErrMin= 6.02D-04
 ErrMax= 6.02D-04  0.00D+00 EMaxC= 1.00D-01 BMatC= 1.06D-04 BMatP= 9.22D-03
 IDIUse=3 WtCom= 9.94D-01 WtEn= 6.02D-03
 Coeff-Com:  0.231D-02-0.596D-02 0.134D+00-0.423D-01 0.436D+00 0.476D+00
 Coeff-En:   0.000D+00 0.000D+00 0.000D+00 0.000D+00 0.000D+00 0.100D+01
 Coeff:      0.230D-02-0.593D-02 0.133D+00-0.420D-01 0.434D+00 0.479D+00
 Gap=     0.189 Goal=   None    Shift=    0.000
 RMSDP=5.76D-05 MaxDP=1.83D-03 DE=-8.37D-03 OVMax= 4.11D-03

 Cycle   7  Pass 0  IDiag  1:
 RMSU=  2.24D-05    CP:  9.36D-01  1.09D+00  7.42D-01  3.18D-01  8.31D-01
                    CP:  5.71D-01
 E= -724.929951622237     Delta-E=       -0.000113950767 Rises=F Damp=F
 DIIS: error= 1.90D-04 at cycle   7 NSaved=   7.
 NSaved= 7 IEnMin= 7 EnMin= -724.929951622237     IErMin= 7 ErrMin= 1.90D-04
 ErrMax= 1.90D-04  0.00D+00 EMaxC= 1.00D-01 BMatC= 6.54D-06 BMatP= 1.06D-04
 IDIUse=3 WtCom= 9.98D-01 WtEn= 1.90D-03
 Coeff-Com:  0.104D-02-0.354D-02 0.628D-01-0.260D-01 0.228D+00 0.283D+00
 Coeff-Com:  0.455D+00
 Coeff-En:   0.000D+00 0.000D+00 0.000D+00 0.000D+00 0.000D+00 0.000D+00
 Coeff-En:   0.100D+01
 Coeff:      0.104D-02-0.354D-02 0.627D-01-0.260D-01 0.227D+00 0.283D+00
 Coeff:      0.456D+00
 Gap=     0.189 Goal=   None    Shift=    0.000
 RMSDP=1.16D-05 MaxDP=4.76D-04 DE=-1.14D-04 OVMax= 9.77D-04

 Cycle   8  Pass 0  IDiag  1:
 RMSU=  6.67D-06    CP:  9.36D-01  1.09D+00  7.43D-01  3.18D-01  8.27D-01
                    CP:  5.85D-01  5.94D-01
 E= -724.929958377499     Delta-E=       -0.000006755262 Rises=F Damp=F
 DIIS: error= 4.52D-05 at cycle   8 NSaved=   8.
 NSaved= 8 IEnMin= 8 EnMin= -724.929958377499     IErMin= 8 ErrMin= 4.52D-05
 ErrMax= 4.52D-05  0.00D+00 EMaxC= 1.00D-01 BMatC= 4.24D-07 BMatP= 6.54D-06
 IDIUse=1 WtCom= 1.00D+00 WtEn= 0.00D+00
 Coeff-Com:  0.320D-03-0.101D-02 0.145D-01-0.788D-02 0.573D-01 0.752D-01
 Coeff-Com:  0.221D+00 0.640D+00
 Coeff:      0.320D-03-0.101D-02 0.145D-01-0.788D-02 0.573D-01 0.752D-01
 Coeff:      0.221D+00 0.640D+00
 Gap=     0.189 Goal=   None    Shift=    0.000
 RMSDP=3.94D-06 MaxDP=1.38D-04 DE=-6.76D-06 OVMax= 2.12D-04

 Initial convergence to 1.0D-05 achieved.  Increase integral accuracy.
 Cycle   9  Pass 1  IDiag  1:
 E= -724.929969099982     Delta-E=       -0.000010722483 Rises=F Damp=F
 DIIS: error= 8.21D-05 at cycle   1 NSaved=   1.
 NSaved= 1 IEnMin= 1 EnMin= -724.929969099982     IErMin= 1 ErrMin= 8.21D-05
 ErrMax= 8.21D-05  0.00D+00 EMaxC= 1.00D-01 BMatC= 1.01D-06 BMatP= 1.01D-06
 IDIUse=1 WtCom= 1.00D+00 WtEn= 0.00D+00
 Coeff-Com:  0.100D+01
 Coeff:      0.100D+01
 Gap=     0.189 Goal=   None    Shift=    0.000
 RMSDP=3.94D-06 MaxDP=1.38D-04 DE=-1.07D-05 OVMax= 2.19D-04

 Cycle  10  Pass 1  IDiag  1:
 RMSU=  7.62D-05    CP:  1.00D+00
 E= -724.929970132168     Delta-E=       -0.000001032186 Rises=F Damp=F
 DIIS: error= 2.21D-05 at cycle   2 NSaved=   2.
 NSaved= 2 IEnMin= 2 EnMin= -724.929970132168     IErMin= 2 ErrMin= 2.21D-05
 ErrMax= 2.21D-05  0.00D+00 EMaxC= 1.00D-01 BMatC= 1.35D-07 BMatP= 1.01D-06
 IDIUse=1 WtCom= 1.00D+00 WtEn= 0.00D+00
 Coeff-Com:  0.156D+00 0.844D+00
 Coeff:      0.156D+00 0.844D+00
 Gap=     0.189 Goal=   None    Shift=    0.000
 RMSDP=4.10D-06 MaxDP=1.54D-04 DE=-1.03D-06 OVMax= 2.53D-04

 Cycle  11  Pass 1  IDiag  1:
 RMSU=  4.03D-06    CP:  1.00D+00  1.01D+00
 E= -724.929969972850     Delta-E=        0.000000159318 Rises=F Damp=F
 DIIS: error= 3.47D-05 at cycle   3 NSaved=   3.
 NSaved= 3 IEnMin= 2 EnMin= -724.929970132168     IErMin= 2 ErrMin= 2.21D-05
 ErrMax= 3.47D-05  0.00D+00 EMaxC= 1.00D-01 BMatC= 2.94D-07 BMatP= 1.35D-07
 IDIUse=1 WtCom= 1.00D+00 WtEn= 0.00D+00
 Coeff-Com: -0.512D-03 0.598D+00 0.403D+00
 Coeff:     -0.512D-03 0.598D+00 0.403D+00
 Gap=     0.189 Goal=   None    Shift=    0.000
 RMSDP=2.45D-06 MaxDP=9.41D-05 DE= 1.59D-07 OVMax= 1.70D-04

 Cycle  12  Pass 1  IDiag  1:
 RMSU=  7.02D-07    CP:  1.00D+00  1.01D+00  4.23D-01
 E= -724.929970259427     Delta-E=       -0.000000286577 Rises=F Damp=F
 DIIS: error= 3.00D-06 at cycle   4 NSaved=   4.
 NSaved= 4 IEnMin= 4 EnMin= -724.929970259427     IErMin= 4 ErrMin= 3.00D-06
 ErrMax= 3.00D-06  0.00D+00 EMaxC= 1.00D-01 BMatC= 5.58D-09 BMatP= 1.35D-07
 IDIUse=1 WtCom= 1.00D+00 WtEn= 0.00D+00
 Coeff-Com: -0.430D-02 0.341D+00 0.245D+00 0.418D+00
 Coeff:     -0.430D-02 0.341D+00 0.245D+00 0.418D+00
 Gap=     0.189 Goal=   None    Shift=    0.000
 RMSDP=3.75D-07 MaxDP=1.12D-05 DE=-2.87D-07 OVMax= 1.83D-05

 Cycle  13  Pass 1  IDiag  1:
 RMSU=  1.76D-07    CP:  1.00D+00  1.01D+00  4.29D-01  5.32D-01
 E= -724.929970264910     Delta-E=       -0.000000005482 Rises=F Damp=F
 DIIS: error= 8.38D-07 at cycle   5 NSaved=   5.
 NSaved= 5 IEnMin= 5 EnMin= -724.929970264910     IErMin= 5 ErrMin= 8.38D-07
 ErrMax= 8.38D-07  0.00D+00 EMaxC= 1.00D-01 BMatC= 1.48D-10 BMatP= 5.58D-09
 IDIUse=1 WtCom= 1.00D+00 WtEn= 0.00D+00
 Coeff-Com: -0.268D-02 0.201D+00 0.145D+00 0.260D+00 0.396D+00
 Coeff:     -0.268D-02 0.201D+00 0.145D+00 0.260D+00 0.396D+00
 Gap=     0.189 Goal=   None    Shift=    0.000
 RMSDP=6.04D-08 MaxDP=2.10D-06 DE=-5.48D-09 OVMax= 4.35D-06

 Cycle  14  Pass 1  IDiag  1:
 RMSU=  5.40D-08    CP:  1.00D+00  1.01D+00  4.28D-01  5.34D-01  8.50D-01
 E= -724.929970265029     Delta-E=       -0.000000000119 Rises=F Damp=F
 DIIS: error= 2.05D-07 at cycle   6 NSaved=   6.
 NSaved= 6 IEnMin= 6 EnMin= -724.929970265029     IErMin= 6 ErrMin= 2.05D-07
 ErrMax= 2.05D-07  0.00D+00 EMaxC= 1.00D-01 BMatC= 9.14D-12 BMatP= 1.48D-10
 IDIUse=1 WtCom= 1.00D+00 WtEn= 0.00D+00
 Coeff-Com: -0.721D-03 0.512D-01 0.373D-01 0.699D-01 0.219D+00 0.623D+00
 Coeff:     -0.721D-03 0.512D-01 0.373D-01 0.699D-01 0.219D+00 0.623D+00
 Gap=     0.189 Goal=   None    Shift=    0.000
 RMSDP=2.16D-08 MaxDP=6.08D-07 DE=-1.19D-10 OVMax= 1.19D-06

 Cycle  15  Pass 1  IDiag  1:
 RMSU=  1.65D-08    CP:  1.00D+00  1.01D+00  4.27D-01  5.32D-01  8.97D-01
                    CP:  8.06D-01
 E= -724.929970265047     Delta-E=       -0.000000000019 Rises=F Damp=F
 DIIS: error= 7.38D-08 at cycle   7 NSaved=   7.
 NSaved= 7 IEnMin= 7 EnMin= -724.929970265047     IErMin= 7 ErrMin= 7.38D-08
 ErrMax= 7.38D-08  0.00D+00 EMaxC= 1.00D-01 BMatC= 1.66D-12 BMatP= 9.14D-12
 IDIUse=1 WtCom= 1.00D+00 WtEn= 0.00D+00
 Coeff-Com: -0.154D-04-0.432D-03-0.908D-04 0.149D-02 0.704D-01 0.375D+00
 Coeff-Com:  0.554D+00
 Coeff:     -0.154D-04-0.432D-03-0.908D-04 0.149D-02 0.704D-01 0.375D+00
 Coeff:      0.554D+00
 Gap=     0.189 Goal=   None    Shift=    0.000
 RMSDP=7.72D-09 MaxDP=2.01D-07 DE=-1.86D-11 OVMax= 4.72D-07

 SCF Done:  E(RB3LYP) =  -724.929970265     A.U. after   15 cycles
            NFock= 15  Conv=0.77D-08     -V/T= 2.0091
 KE= 7.184162384473D+02 PE=-3.861616024034D+03 EE= 1.329142747618D+03
 Leave Link  502 at Sun Feb 25 23:07:09 2024, MaxMem=  7516192768 cpu:             263.2 elap:               6.6
 (Enter /public/apps/g16-C01//g16/l601.exe)
 Copying SCF densities to generalized density rwf, IOpCl= 0 IROHF=0.

 **********************************************************************

            Population analysis using the SCF Density.

 **********************************************************************

 Alpha  occ. eigenvalues --  -19.17008 -14.32525 -14.30302 -10.27303 -10.23825
 Alpha  occ. eigenvalues --  -10.23654 -10.22369 -10.21972 -10.21124 -10.20318
 Alpha  occ. eigenvalues --  -10.20240 -10.18824 -10.18210 -10.18161 -10.17928
 Alpha  occ. eigenvalues --  -10.17882 -10.17355  -1.08890  -0.95435  -0.90606
 Alpha  occ. eigenvalues --   -0.85171  -0.80993  -0.80047  -0.76248  -0.73840
 Alpha  occ. eigenvalues --   -0.72361  -0.65571  -0.65316  -0.62868  -0.60470
 Alpha  occ. eigenvalues --   -0.58290  -0.57190  -0.53631  -0.52478  -0.50549
 Alpha  occ. eigenvalues --   -0.49966  -0.48772  -0.46726  -0.46452  -0.44978
 Alpha  occ. eigenvalues --   -0.43593  -0.42704  -0.42503  -0.42106  -0.41206
 Alpha  occ. eigenvalues --   -0.40696  -0.38455  -0.38038  -0.37333  -0.35621
 Alpha  occ. eigenvalues --   -0.34380  -0.34217  -0.30316  -0.28049  -0.27416
 Alpha  occ. eigenvalues --   -0.25834  -0.25405  -0.24937  -0.24597
 Alpha virt. eigenvalues --   -0.05677  -0.02901  -0.00735  -0.00011   0.05019
 Alpha virt. eigenvalues --    0.06194   0.06830   0.07297   0.09407   0.10178
 Alpha virt. eigenvalues --    0.10774   0.11498   0.12671   0.13552   0.14039
 Alpha virt. eigenvalues --    0.14608   0.15252   0.15779   0.16688   0.17337
 Alpha virt. eigenvalues --    0.18361   0.22154   0.23183   0.25630   0.26416
 Alpha virt. eigenvalues --    0.27494   0.29165   0.29889   0.30521   0.31379
 Alpha virt. eigenvalues --    0.32011   0.32725   0.33939   0.35619   0.36388
 Alpha virt. eigenvalues --    0.38207   0.39129   0.40503   0.41249   0.42501
 Alpha virt. eigenvalues --    0.43733   0.44134   0.45044   0.45374   0.46345
 Alpha virt. eigenvalues --    0.46825   0.47194   0.48336   0.49628   0.49782
 Alpha virt. eigenvalues --    0.50796   0.51490   0.51619   0.52906   0.53731
 Alpha virt. eigenvalues --    0.55800   0.56168   0.57288   0.58397   0.58965
 Alpha virt. eigenvalues --    0.60086   0.60168   0.61664   0.61926   0.63687
 Alpha virt. eigenvalues --    0.64643   0.65650   0.66535   0.67086   0.67252
 Alpha virt. eigenvalues --    0.67631   0.68346   0.68958   0.69497   0.70246
 Alpha virt. eigenvalues --    0.70344   0.71990   0.72217   0.72658   0.72999
 Alpha virt. eigenvalues --    0.73397   0.74403   0.74698   0.74828   0.75885
 Alpha virt. eigenvalues --    0.77720   0.77998   0.78813   0.80507   0.82477
 Alpha virt. eigenvalues --    0.84807   0.85934   0.87047   0.88370   0.89183
 Alpha virt. eigenvalues --    0.92091   0.94448   0.95126   0.97829   0.99629
 Alpha virt. eigenvalues --    1.03010   1.06221   1.08963   1.10717   1.13343
 Alpha virt. eigenvalues --    1.14505   1.17997   1.18508   1.19595   1.26055
 Alpha virt. eigenvalues --    1.26500   1.27278   1.28136   1.30830   1.33559
 Alpha virt. eigenvalues --    1.37594   1.38003   1.40248   1.42418   1.43399
 Alpha virt. eigenvalues --    1.47218   1.48155   1.48765   1.49426   1.49725
 Alpha virt. eigenvalues --    1.51096   1.52757   1.57617   1.60260   1.63561
 Alpha virt. eigenvalues --    1.64373   1.67666   1.71037   1.75397   1.77213
 Alpha virt. eigenvalues --    1.77779   1.79575   1.80438   1.82213   1.83100
 Alpha virt. eigenvalues --    1.85419   1.86698   1.88626   1.90285   1.91909
 Alpha virt. eigenvalues --    1.92454   1.93970   1.98737   1.99742   2.01348
 Alpha virt. eigenvalues --    2.03044   2.04865   2.07501   2.08905   2.09606
 Alpha virt. eigenvalues --    2.12145   2.14082   2.14458   2.15314   2.17427
 Alpha virt. eigenvalues --    2.19548   2.20121   2.23110   2.24416   2.28251
 Alpha virt. eigenvalues --    2.29607   2.30930   2.31941   2.36751   2.40448
 Alpha virt. eigenvalues --    2.40512   2.44114   2.46768   2.48132   2.51921
 Alpha virt. eigenvalues --    2.52402   2.54653   2.56181   2.62045   2.65385
 Alpha virt. eigenvalues --    2.67125   2.70094   2.70501   2.72454   2.74070
 Alpha virt. eigenvalues --    2.74285   2.77840   2.80923   2.82638   2.83381
 Alpha virt. eigenvalues --    2.86146   2.87287   2.90972   2.97229   2.99120
 Alpha virt. eigenvalues --    3.06791   3.13884   3.21173   3.28847   3.38197
 Alpha virt. eigenvalues --    3.41664   3.50826   3.63613
          Condensed to atoms (all electrons):
               1          2          3          4          5          6
     1  C    5.292846   0.167699   0.167750  -0.208570  -0.001497   0.000082
     2  C    0.167699   5.210989   0.195879   0.178518   0.014037  -0.000517
     3  C    0.167750   0.195879   5.417857   0.166017  -0.124273  -0.009578
     4  C   -0.208570   0.178518   0.166017   5.390401   0.261576  -0.056714
     5  C   -0.001497   0.014037  -0.124273   0.261576   5.107538   0.335342
     6  C    0.000082  -0.000517  -0.009578  -0.056714   0.335342   4.789934
     7  O   -0.000000   0.000004   0.000005   0.001423  -0.065496   0.333825
     8  C   -0.000000  -0.000014   0.000413   0.004124  -0.070860  -0.119539
     9  C    0.000001  -0.000001   0.000037   0.000914   0.017121   0.002061
    10  C    0.000000  -0.000000   0.000000   0.000008  -0.000179  -0.000986
    11  C    0.000000  -0.000000   0.000000  -0.000000   0.000009  -0.000004
    12  C    0.000000  -0.000000   0.000000   0.000000   0.000005   0.000000
    13  C    0.000000  -0.000000   0.000000  -0.000000   0.000003   0.000016
    14  N    0.000000  -0.000000   0.000001   0.000052  -0.000388  -0.000167
    15  N    0.000025  -0.000235   0.006375  -0.083303   0.399679  -0.055132
    16  C    0.171371  -0.187209   0.115435   0.243921  -0.115920   0.008900
    17  C    0.155002   0.173649  -0.203728   0.167636   0.022328   0.000036
    18  H    0.441710  -0.085927   0.016819  -0.001930   0.000043   0.000001
    19  H   -0.087130   0.442932  -0.087798   0.017757  -0.000401  -0.000006
    20  H    0.016247  -0.081217   0.440384  -0.092591  -0.019242   0.002867
    21  H    0.000044  -0.000127  -0.005309  -0.014813   0.314325  -0.023041
    22  H   -0.000119  -0.000108  -0.000503  -0.001668  -0.012992   0.350833
    23  H    0.000002   0.000043   0.002379   0.002860   0.002850   0.337842
    24  H    0.000000   0.000000  -0.000000  -0.000009   0.000138   0.000169
    25  H    0.000000  -0.000000   0.000000   0.000000  -0.000000  -0.000000
    26  H   -0.000000   0.000000  -0.000000  -0.000000   0.000000   0.000000
    27  H   -0.000000   0.000000  -0.000000  -0.000000  -0.000001   0.000000
    28  H    0.015239  -0.002503   0.018602  -0.061984  -0.041095   0.002757
    29  H   -0.089064   0.016718  -0.002007   0.017673  -0.000432   0.000003
               7          8          9         10         11         12
     1  C   -0.000000  -0.000000   0.000001   0.000000   0.000000   0.000000
     2  C    0.000004  -0.000014  -0.000001  -0.000000  -0.000000  -0.000000
     3  C    0.000005   0.000413   0.000037   0.000000   0.000000   0.000000
     4  C    0.001423   0.004124   0.000914   0.000008  -0.000000   0.000000
     5  C   -0.065496  -0.070860   0.017121  -0.000179   0.000009   0.000005
     6  C    0.333825  -0.119539   0.002061  -0.000986  -0.000004   0.000000
     7  O    7.872104   0.423791  -0.129789   0.021059   0.000901  -0.000025
     8  C    0.423791   5.265662  -0.011476  -0.125927   0.012506   0.000705
     9  C   -0.129789  -0.011476   5.454701   0.340579   0.031240  -0.090262
    10  C    0.021059  -0.125927   0.340579   5.270121   0.313861   0.072554
    11  C    0.000901   0.012506   0.031240   0.313861   5.012890   0.345166
    12  C   -0.000025   0.000705  -0.090262   0.072554   0.345166   5.119243
    13  C   -0.000035   0.010033  -0.030972  -0.104889   0.037412   0.367665
    14  N    0.000918  -0.113599   0.584976  -0.058943  -0.056785  -0.019460
    15  N   -0.100089   0.608270  -0.119448   0.008643  -0.000080  -0.000029
    16  C    0.000232   0.001192  -0.000983  -0.000022  -0.000000  -0.000000
    17  C    0.000011  -0.000104  -0.000035  -0.000000   0.000000  -0.000000
    18  H   -0.000000   0.000000  -0.000000  -0.000000   0.000000   0.000000
    19  H   -0.000000  -0.000000   0.000000  -0.000000   0.000000  -0.000000
    20  H    0.000003   0.000007  -0.000001   0.000000   0.000000   0.000000
    21  H    0.003459   0.005582  -0.000816   0.000011  -0.000000  -0.000000
    22  H   -0.027271   0.008487  -0.000022   0.000022   0.000000   0.000000
    23  H   -0.029801   0.007734   0.000562  -0.000060  -0.000003   0.000000
    24  H    0.011787  -0.018052  -0.043906   0.417108  -0.073945   0.012611
    25  H   -0.000018  -0.000662   0.013935  -0.075671   0.436271  -0.076652
    26  H   -0.000000   0.000158   0.000822   0.012626  -0.071625   0.408593
    27  H    0.000002  -0.000191   0.006754   0.001332   0.006982  -0.084491
    28  H    0.000109   0.001248  -0.000766   0.000046   0.000005   0.000001
    29  H   -0.000000   0.000004  -0.000000   0.000000  -0.000000  -0.000000
              13         14         15         16         17         18
     1  C    0.000000   0.000000   0.000025   0.171371   0.155002   0.441710
     2  C   -0.000000  -0.000000  -0.000235  -0.187209   0.173649  -0.085927
     3  C    0.000000   0.000001   0.006375   0.115435  -0.203728   0.016819
     4  C   -0.000000   0.000052  -0.083303   0.243921   0.167636  -0.001930
     5  C    0.000003  -0.000388   0.399679  -0.115920   0.022328   0.000043
     6  C    0.000016  -0.000167  -0.055132   0.008900   0.000036   0.000001
     7  O   -0.000035   0.000918  -0.100089   0.000232   0.000011  -0.000000
     8  C    0.010033  -0.113599   0.608270   0.001192  -0.000104   0.000000
     9  C   -0.030972   0.584976  -0.119448  -0.000983  -0.000035  -0.000000
    10  C   -0.104889  -0.058943   0.008643  -0.000022  -0.000000  -0.000000
    11  C    0.037412  -0.056785  -0.000080  -0.000000   0.000000   0.000000
    12  C    0.367665  -0.019460  -0.000029  -0.000000  -0.000000   0.000000
    13  C    4.866434   0.529705   0.000256  -0.000006   0.000000   0.000000
    14  N    0.529705   6.198938   0.000945  -0.000265  -0.000001   0.000000
    15  N    0.000256   0.000945   6.437745   0.007898   0.000614   0.000000
    16  C   -0.000006  -0.000265   0.007898   5.346215   0.134226   0.016125
    17  C    0.000000  -0.000001   0.000614   0.134226   5.297620  -0.084967
    18  H    0.000000   0.000000   0.000000   0.016125  -0.084967   0.679823
    19  H    0.000000  -0.000000   0.000003  -0.002122   0.016686  -0.013323
    20  H    0.000000   0.000000   0.000233   0.017670  -0.002239  -0.000322
    21  H    0.000000   0.000033  -0.025353   0.004755  -0.000553  -0.000001
    22  H   -0.000001   0.000004   0.001540   0.002384  -0.000324  -0.000002
    23  H   -0.000001   0.000006   0.002510  -0.000666   0.000011  -0.000000
    24  H   -0.000245   0.005502   0.000732  -0.000000  -0.000000  -0.000000
    25  H    0.011821  -0.000174  -0.000000  -0.000000  -0.000000   0.000000
    26  H   -0.053099   0.005930  -0.000000   0.000000   0.000000   0.000000
    27  H    0.410078  -0.047144   0.000002   0.000001   0.000000  -0.000000
    28  H    0.000049   0.001626   0.028291   0.434931  -0.090387  -0.000248
    29  H   -0.000000  -0.000001  -0.000021  -0.086540   0.444702  -0.013337
              19         20         21         22         23         24
     1  C   -0.087130   0.016247   0.000044  -0.000119   0.000002   0.000000
     2  C    0.442932  -0.081217  -0.000127  -0.000108   0.000043   0.000000
     3  C   -0.087798   0.440384  -0.005309  -0.000503   0.002379  -0.000000
     4  C    0.017757  -0.092591  -0.014813  -0.001668   0.002860  -0.000009
     5  C   -0.000401  -0.019242   0.314325  -0.012992   0.002850   0.000138
     6  C   -0.000006   0.002867  -0.023041   0.350833   0.337842   0.000169
     7  O   -0.000000   0.000003   0.003459  -0.027271  -0.029801   0.011787
     8  C   -0.000000   0.000007   0.005582   0.008487   0.007734  -0.018052
     9  C    0.000000  -0.000001  -0.000816  -0.000022   0.000562  -0.043906
    10  C   -0.000000   0.000000   0.000011   0.000022  -0.000060   0.417108
    11  C    0.000000   0.000000  -0.000000   0.000000  -0.000003  -0.073945
    12  C   -0.000000   0.000000  -0.000000   0.000000   0.000000   0.012611
    13  C    0.000000   0.000000   0.000000  -0.000001  -0.000001  -0.000245
    14  N   -0.000000   0.000000   0.000033   0.000004   0.000006   0.005502
    15  N    0.000003   0.000233  -0.025353   0.001540   0.002510   0.000732
    16  C   -0.002122   0.017670   0.004755   0.002384  -0.000666  -0.000000
    17  C    0.016686  -0.002239  -0.000553  -0.000324   0.000011  -0.000000
    18  H   -0.013323  -0.000322  -0.000001  -0.000002  -0.000000  -0.000000
    19  H    0.682799  -0.013375   0.000012   0.000039  -0.000004   0.000000
    20  H   -0.013375   0.696269   0.004669   0.001453  -0.000517   0.000000
    21  H    0.000012   0.004669   0.658048   0.007321  -0.013251  -0.000008
    22  H    0.000039   0.001453   0.007321   0.614488  -0.037745  -0.000007
    23  H   -0.000004  -0.000517  -0.013251  -0.037745   0.640372  -0.000063
    24  H    0.000000   0.000000  -0.000008  -0.000007  -0.000063   0.630198
    25  H   -0.000000   0.000000   0.000000  -0.000000   0.000000  -0.010484
    26  H    0.000000  -0.000000  -0.000000  -0.000000  -0.000000  -0.000148
    27  H    0.000000  -0.000000  -0.000000   0.000000  -0.000000   0.000088
    28  H    0.000038  -0.000217   0.000990   0.000037  -0.000090  -0.000008
    29  H   -0.000320   0.000047   0.000014   0.000004  -0.000000   0.000000
              25         26         27         28         29
     1  C    0.000000  -0.000000  -0.000000   0.015239  -0.089064
     2  C   -0.000000   0.000000   0.000000  -0.002503   0.016718
     3  C    0.000000  -0.000000  -0.000000   0.018602  -0.002007
     4  C    0.000000  -0.000000  -0.000000  -0.061984   0.017673
     5  C   -0.000000   0.000000  -0.000001  -0.041095  -0.000432
     6  C   -0.000000   0.000000   0.000000   0.002757   0.000003
     7  O   -0.000018  -0.000000   0.000002   0.000109  -0.000000
     8  C   -0.000662   0.000158  -0.000191   0.001248   0.000004
     9  C    0.013935   0.000822   0.006754  -0.000766  -0.000000
    10  C   -0.075671   0.012626   0.001332   0.000046   0.000000
    11  C    0.436271  -0.071625   0.006982   0.000005  -0.000000
    12  C   -0.076652   0.408593  -0.084491   0.000001  -0.000000
    13  C    0.011821  -0.053099   0.410078   0.000049  -0.000000
    14  N   -0.000174   0.005930  -0.047144   0.001626  -0.000001
    15  N   -0.000000  -0.000000   0.000002   0.028291  -0.000021
    16  C   -0.000000   0.000000   0.000001   0.434931  -0.086540
    17  C   -0.000000   0.000000   0.000000  -0.090387   0.444702
    18  H    0.000000   0.000000  -0.000000  -0.000248  -0.013337
    19  H   -0.000000   0.000000   0.000000   0.000038  -0.000320
    20  H    0.000000  -0.000000  -0.000000  -0.000217   0.000047
    21  H    0.000000  -0.000000  -0.000000   0.000990   0.000014
    22  H   -0.000000  -0.000000   0.000000   0.000037   0.000004
    23  H    0.000000  -0.000000  -0.000000  -0.000090  -0.000000
    24  H   -0.010484  -0.000148   0.000088  -0.000008   0.000000
    25  H    0.649581  -0.011966  -0.000323   0.000000  -0.000000
    26  H   -0.011966   0.649500  -0.005787  -0.000000   0.000000
    27  H   -0.000323  -0.005787   0.643856  -0.000012   0.000000
    28  H    0.000000  -0.000000  -0.000012   0.638015  -0.011662
    29  H   -0.000000   0.000000   0.000000  -0.011662   0.677989
 Mulliken charges:
               1
     1  C   -0.041635
     2  C   -0.042611
     3  C   -0.114759
     4  C    0.068701
     5  C   -0.022217
     6  C    0.101014
     7  O   -0.317108
     8  C    0.110510
     9  C   -0.025227
    10  C   -0.091293
    11  C    0.005200
    12  C   -0.055623
    13  C   -0.044227
    14  N   -0.031712
    15  N   -0.120073
    16  C   -0.111525
    17  C   -0.030184
    18  H    0.045535
    19  H    0.044214
    20  H    0.029872
    21  H    0.084008
    22  H    0.094151
    23  H    0.085030
    24  H    0.068544
    25  H    0.064343
    26  H    0.064995
    27  H    0.068856
    28  H    0.066988
    29  H    0.046231
 Sum of Mulliken charges =  -0.00000
 Mulliken charges with hydrogens summed into heavy atoms:
               1
     1  C    0.003900
     2  C    0.001603
     3  C   -0.084887
     4  C    0.068701
     5  C    0.061792
     6  C    0.280196
     7  O   -0.317108
     8  C    0.110510
     9  C   -0.025227
    10  C   -0.022749
    11  C    0.069543
    12  C    0.009372
    13  C    0.024629
    14  N   -0.031712
    15  N   -0.120073
    16  C   -0.044537
    17  C    0.016047
 Electronic spatial extent (au):  <R**2>=           5047.5021
 Charge=              0.0000 electrons
 Dipole moment (field-independent basis, Debye):
    X=              1.4116    Y=              1.8742    Z=             -1.0861  Tot=              2.5855
 Quadrupole moment (field-independent basis, Debye-Ang):
   XX=            -77.9867   YY=            -93.0903   ZZ=           -100.1887
   XY=             -3.1063   XZ=             -2.6049   YZ=              4.4001
 Traceless Quadrupole moment (field-independent basis, Debye-Ang):
   XX=             12.4352   YY=             -2.6684   ZZ=             -9.7668
   XY=             -3.1063   XZ=             -2.6049   YZ=              4.4001
 Octapole moment (field-independent basis, Debye-Ang**2):
  XXX=             78.1897  YYY=              2.2680  ZZZ=              7.1198  XYY=              3.9313
  XXY=             -3.0684  XXZ=            -23.3526  XZZ=              4.1815  YZZ=              6.7220
  YYZ=             -0.6889  XYZ=            -12.9102
 Hexadecapole moment (field-independent basis, Debye-Ang**3):
 XXXX=          -5124.7710 YYYY=           -893.5909 ZZZZ=           -319.3811 XXXY=            -74.4201
 XXXZ=            -49.7906 YYYX=            -23.4788 YYYZ=            -40.9370 ZZZX=            -32.4764
 ZZZY=            -52.0299 XXYY=          -1037.0781 XXZZ=          -1042.6439 YYZZ=           -201.8477
 XXYZ=             -2.4478 YYXZ=              0.2280 ZZXY=              8.1177
 N-N= 1.089127067703D+03 E-N=-3.861616037131D+03  KE= 7.184162384473D+02
 No NMR shielding tensors so no spin-rotation constants.
 Leave Link  601 at Sun Feb 25 23:07:09 2024, MaxMem=  7516192768 cpu:               4.1 elap:               0.1
 (Enter /public/apps/g16-C01//g16/l701.exe)
 ... and contract with generalized density number  0.
 Compute integral first derivatives.
 R6Disp: Adding Grimme-D3(BJ) dispersion energy 1st derivatives to the gradient.
   1 Symmetry operations used in ECPInt.
 ECPInt:  NShTT=    8001 NPrTT=   32135 LenC2=    7396 LenP2D=   20704.
 LDataN:  DoStor=T MaxTD1= 5 Len=  102
 Leave Link  701 at Sun Feb 25 23:07:09 2024, MaxMem=  7516192768 cpu:               7.5 elap:               0.2
 (Enter /public/apps/g16-C01//g16/l702.exe)
 L702 exits ... SP integral derivatives will be done elsewhere.
 Leave Link  702 at Sun Feb 25 23:07:09 2024, MaxMem=  7516192768 cpu:               0.7 elap:               0.0
 (Enter /public/apps/g16-C01//g16/l703.exe)
 Integral derivatives from FoFJK, PRISM(SPDF).
 Compute integral first derivatives, UseDBF=F ICtDFT=           0.
 Calling FoFJK, ICntrl=      2127 FMM=F ISym2X=0 I1Cent= 0 IOpClX= 0 NMat=1 NMatS=1 NMatT=0.
 FoFJK:  IHMeth= 1 ICntrl=    2127 DoSepK=F KAlg= 0 I1Cent=           0 FoldK=F
 IRaf=         0 NMat=       1 IRICut=       1 DoRegI=T DoRafI=F ISym2E= 0 IDoP0=0 IntGTp=1.
 FoFCou: FMM=F IPFlag=           0 FMFlag=      100000 FMFlg1=         800
         NFxFlg=           0 DoJE=F BraDBF=F KetDBF=F FulRan=T
         wScrn=  0.000000 ICntrl=      2127 IOpCl=  0 I1Cent=           0 NGrid=           0
         NMat0=    1 NMatS0=      1 NMatT0=    0 NMatD0=    1 NMtDS0=    0 NMtDT0=    0
 Symmetry not used in FoFCou.
 Leave Link  703 at Sun Feb 25 23:07:11 2024, MaxMem=  7516192768 cpu:              62.3 elap:               1.6
 (Enter /public/apps/g16-C01//g16/l716.exe)
 Dipole        = 5.55349258D-01 7.37357844D-01-4.27320461D-01
 -------------------------------------------------------------------
 Center     Atomic                   Forces (Hartrees/Bohr)
 Number     Number              X              Y              Z
 -------------------------------------------------------------------
      1        6          -0.003703368   -0.002388332   -0.002056375
      2        6          -0.004102374    0.003045485   -0.000033657
      3        6           0.000525085    0.000835488    0.000915656
      4        6           0.006056085    0.003358247    0.005780318
      5        6          -0.000373287    0.003408257   -0.006238878
      6        6          -0.005730963    0.000979478    0.002795453
      7        8           0.010921139    0.000184886   -0.003667623
      8        6          -0.006457294    0.004774199    0.001092998
      9        6           0.002988431    0.004479097   -0.003375684
     10        6          -0.002308676    0.000864273    0.000210547
     11        6           0.002301552   -0.000075807   -0.000572598
     12        6           0.001643725    0.001296708   -0.000966337
     13        6           0.000996058   -0.003041915    0.000835924
     14        7          -0.010157786   -0.004265894    0.004602570
     15        7           0.000736279   -0.013812135    0.007988489
     16        6           0.003272051   -0.001524936    0.000767597
     17        6          -0.000144785   -0.003116223   -0.002091257
     18        1          -0.008011997   -0.004397462   -0.004466820
     19        1          -0.008973701    0.004761239   -0.000295153
     20        1          -0.001530224    0.009149470    0.004338764
     21        1          -0.001957834    0.002200546    0.004912199
     22        1          -0.002440165    0.001847229   -0.004396302
     23        1          -0.000265834    0.005729707    0.003024326
     24        1          -0.002308311    0.008734384   -0.002419269
     25        1           0.006784143    0.005544291   -0.004036297
     26        1           0.009347624   -0.004568512   -0.001322304
     27        1           0.003941905   -0.010424933    0.002399538
     28        1           0.008031484   -0.004232956    0.000508229
     29        1           0.000921038   -0.009343877   -0.004234056
 -------------------------------------------------------------------
 Cartesian Forces:  Max     0.013812135 RMS     0.004724536
 Leave Link  716 at Sun Feb 25 23:07:11 2024, MaxMem=  7516192768 cpu:               0.5 elap:               0.0
 (Enter /public/apps/g16-C01//g16/l103.exe)

 GradGradGradGradGradGradGradGradGradGradGradGradGradGradGradGradGradGrad
 Berny optimization.
 FormGI is forming the generalized inverse of G from B-inverse, IUseBI=4.
 Internal  Forces:  Max     0.015250767 RMS     0.005033940
 Search for a local minimum.
 Step number   1 out of a maximum of  165
 All quantities printed in internal units (Hartrees-Bohrs-Radians)
 RMS Force = .50339D-02 SwitMx=.10000D-02 MixMth= 1
 Mixed Optimization -- RFO/linear search
 Second derivative matrix not updated -- first step.
 ITU=  0
     Eigenvalues ---    0.00615   0.00631   0.01267   0.01597   0.01862
     Eigenvalues ---    0.01945   0.02213   0.02246   0.02247   0.02252
     Eigenvalues ---    0.02270   0.02279   0.02288   0.02290   0.02290
     Eigenvalues ---    0.02292   0.02297   0.02298   0.02303   0.02402
     Eigenvalues ---    0.02494   0.02606   0.04604   0.05104   0.05394
     Eigenvalues ---    0.05790   0.08075   0.10830   0.11196   0.15543
     Eigenvalues ---    0.15999   0.16000   0.16000   0.16000   0.16000
     Eigenvalues ---    0.16000   0.16000   0.16000   0.16000   0.20874
     Eigenvalues ---    0.22000   0.22000   0.22000   0.22428   0.23481
     Eigenvalues ---    0.24430   0.24655   0.24997   0.24999   0.25000
     Eigenvalues ---    0.26267   0.31328   0.33989   0.34341   0.34458
     Eigenvalues ---    0.35726   0.35844   0.35913   0.35950   0.35975
     Eigenvalues ---    0.35979   0.36072   0.36120   0.36213   0.36701
     Eigenvalues ---    0.37721   0.41443   0.42919   0.43434   0.43556
     Eigenvalues ---    0.45757   0.46878   0.47702   0.48014   0.48017
     Eigenvalues ---    0.48304   0.48475   0.49370   0.57941   0.61108
     Eigenvalues ---    0.73901
 RFO step:  Lambda=-9.35351990D-03 EMin= 6.15140254D-03
 Linear search not attempted -- first point.
 Iteration  1 RMS(Cart)=  0.05385652 RMS(Int)=  0.00019895
 Iteration  2 RMS(Cart)=  0.00071306 RMS(Int)=  0.00005116
 Iteration  3 RMS(Cart)=  0.00000030 RMS(Int)=  0.00005116
 ITry= 1 IFail=0 DXMaxC= 2.30D-01 DCOld= 1.00D+10 DXMaxT= 3.00D-01 DXLimC= 3.00D+00 Rises=F
 Variable       Old X    -DE/DX   Delta X   Delta X   Delta X     New X
                                 (Linear)    (Quad)   (Total)
    R1        2.61768   0.01404   0.00000   0.02869   0.02870   2.64637
    R2        2.61523   0.01395   0.00000   0.02841   0.02841   2.64364
    R3        2.04120   0.01017   0.00000   0.02756   0.02756   2.06876
    R4        2.61331   0.01443   0.00000   0.02911   0.02911   2.64242
    R5        2.04160   0.01016   0.00000   0.02755   0.02755   2.06915
    R6        2.62629   0.01402   0.00000   0.02890   0.02889   2.65519
    R7        2.04327   0.01022   0.00000   0.02780   0.02780   2.07106
    R8        2.85390   0.00810   0.00000   0.02510   0.02510   2.87900
    R9        2.62069   0.01344   0.00000   0.02743   0.02743   2.64812
   R10        2.95048   0.00586   0.00000   0.01759   0.01765   2.96813
   R11        2.72359   0.01253   0.00000   0.03033   0.03039   2.75398
   R12        2.07348   0.00556   0.00000   0.01593   0.01593   2.08941
   R13        2.68336   0.00932   0.00000   0.02103   0.02099   2.70436
   R14        2.06759   0.00524   0.00000   0.01485   0.01485   2.08244
   R15        2.06563   0.00643   0.00000   0.01818   0.01818   2.08381
   R16        2.57699   0.00210   0.00000   0.00561   0.00554   2.58253
   R17        2.76300   0.01354   0.00000   0.03596   0.03596   2.79896
   R18        2.38884   0.01158   0.00000   0.01566   0.01564   2.40448
   R19        2.63712   0.00963   0.00000   0.02007   0.02007   2.65719
   R20        2.51123   0.01211   0.00000   0.02024   0.02024   2.53147
   R21        2.61565   0.01237   0.00000   0.02443   0.02443   2.64008
   R22        2.03750   0.00935   0.00000   0.02518   0.02518   2.06267
   R23        2.61886   0.01033   0.00000   0.02072   0.02072   2.63957
   R24        2.04217   0.00965   0.00000   0.02618   0.02618   2.06835
   R25        2.62632   0.01183   0.00000   0.02482   0.02483   2.65115
   R26        2.03895   0.01048   0.00000   0.02828   0.02828   2.06722
   R27        2.48816   0.01525   0.00000   0.02446   0.02446   2.51262
   R28        2.04512   0.01115   0.00000   0.03041   0.03041   2.07553
   R29        2.61615   0.01522   0.00000   0.03094   0.03094   2.64709
   R30        2.03968   0.00909   0.00000   0.02457   0.02457   2.06425
   R31        2.04114   0.01030   0.00000   0.02790   0.02790   2.06905
    A1        2.09047  -0.00087   0.00000  -0.00342  -0.00342   2.08705
    A2        2.09461   0.00046   0.00000   0.00188   0.00188   2.09649
    A3        2.09810   0.00040   0.00000   0.00154   0.00154   2.09964
    A4        2.09598  -0.00035   0.00000  -0.00155  -0.00156   2.09442
    A5        2.09585   0.00006   0.00000   0.00010   0.00010   2.09595
    A6        2.09135   0.00029   0.00000   0.00145   0.00145   2.09280
    A7        2.09903   0.00183   0.00000   0.00743   0.00742   2.10645
    A8        2.09552  -0.00148   0.00000  -0.00705  -0.00704   2.08847
    A9        2.08864  -0.00035   0.00000  -0.00038  -0.00038   2.08826
   A10        2.08258   0.00062   0.00000   0.00270   0.00270   2.08528
   A11        2.08532  -0.00189   0.00000  -0.00792  -0.00792   2.07740
   A12        2.11519   0.00128   0.00000   0.00526   0.00526   2.12044
   A13        1.96367   0.00172   0.00000   0.01671   0.01645   1.98012
   A14        1.96375  -0.00000   0.00000   0.01299   0.01265   1.97640
   A15        1.89526  -0.00105   0.00000  -0.01602  -0.01590   1.87936
   A16        1.80563   0.00113   0.00000   0.00876   0.00858   1.81422
   A17        1.94275  -0.00162   0.00000  -0.01922  -0.01916   1.92358
   A18        1.89116  -0.00017   0.00000  -0.00287  -0.00279   1.88837
   A19        1.81832  -0.00037   0.00000  -0.00951  -0.00941   1.80892
   A20        1.95635   0.00080   0.00000   0.00901   0.00897   1.96532
   A21        1.97337   0.00074   0.00000   0.00608   0.00604   1.97941
   A22        1.90108  -0.00024   0.00000   0.00023   0.00025   1.90132
   A23        1.89862  -0.00012   0.00000  -0.00105  -0.00107   1.89755
   A24        1.91219  -0.00083   0.00000  -0.00527  -0.00530   1.90689
   A25        1.85842   0.00151   0.00000   0.00629   0.00623   1.86465
   A26        2.04455  -0.00722   0.00000  -0.02951  -0.02951   2.01504
   A27        2.04730   0.00119   0.00000   0.00800   0.00797   2.05526
   A28        2.19129   0.00603   0.00000   0.02158   0.02159   2.21287
   A29        2.09615  -0.00088   0.00000  -0.00344  -0.00344   2.09271
   A30        2.04406   0.00161   0.00000   0.00615   0.00616   2.05022
   A31        2.14297  -0.00072   0.00000  -0.00271  -0.00272   2.14025
   A32        2.06642   0.00097   0.00000   0.00199   0.00198   2.06841
   A33        2.09208  -0.00046   0.00000  -0.00087  -0.00087   2.09121
   A34        2.12468  -0.00050   0.00000  -0.00112  -0.00111   2.12356
   A35        2.07338   0.00053   0.00000  -0.00011  -0.00011   2.07327
   A36        2.10262  -0.00030   0.00000  -0.00015  -0.00015   2.10247
   A37        2.10718  -0.00023   0.00000   0.00026   0.00027   2.10745
   A38        2.06199   0.00021   0.00000   0.00061   0.00061   2.06260
   A39        2.11451   0.00036   0.00000   0.00244   0.00244   2.11695
   A40        2.10669  -0.00057   0.00000  -0.00305  -0.00305   2.10364
   A41        2.15742  -0.00129   0.00000  -0.00372  -0.00372   2.15370
   A42        2.11229  -0.00180   0.00000  -0.01254  -0.01255   2.09974
   A43        2.01348   0.00308   0.00000   0.01626   0.01626   2.02974
   A44        2.06418   0.00030   0.00000   0.00395   0.00395   2.06813
   A45        1.89493  -0.00347   0.00000  -0.01369  -0.01355   1.88138
   A46        2.09677   0.00078   0.00000   0.00309   0.00308   2.09985
   A47        2.07462  -0.00047   0.00000  -0.00198  -0.00198   2.07263
   A48        2.11176  -0.00031   0.00000  -0.00107  -0.00107   2.11069
   A49        2.09878   0.00050   0.00000   0.00238   0.00237   2.10116
   A50        2.09509  -0.00029   0.00000  -0.00145  -0.00145   2.09364
   A51        2.08931  -0.00020   0.00000  -0.00093  -0.00093   2.08838
    D1        0.00105   0.00000   0.00000   0.00011   0.00011   0.00116
    D2       -3.13839   0.00005   0.00000   0.00155   0.00156  -3.13683
    D3        3.14027  -0.00002   0.00000  -0.00050  -0.00050   3.13977
    D4        0.00084   0.00003   0.00000   0.00094   0.00094   0.00178
    D5       -0.00345   0.00005   0.00000   0.00161   0.00160  -0.00185
    D6        3.13885  -0.00004   0.00000  -0.00148  -0.00150   3.13735
    D7        3.14051   0.00007   0.00000   0.00222   0.00222  -3.14045
    D8       -0.00038  -0.00003   0.00000  -0.00088  -0.00088  -0.00126
    D9        0.00199   0.00008   0.00000   0.00241   0.00242   0.00440
   D10       -3.13848   0.00009   0.00000   0.00270   0.00271  -3.13577
   D11        3.14142   0.00003   0.00000   0.00097   0.00097  -3.14079
   D12        0.00096   0.00004   0.00000   0.00126   0.00127   0.00223
   D13        3.12392  -0.00011   0.00000  -0.00341  -0.00342   3.12050
   D14       -0.00261  -0.00020   0.00000  -0.00657  -0.00656  -0.00917
   D15       -0.01880  -0.00012   0.00000  -0.00371  -0.00372  -0.02252
   D16        3.13786  -0.00022   0.00000  -0.00687  -0.00686   3.13100
   D17       -1.12598   0.00130   0.00000   0.01163   0.01175  -1.11423
   D18        3.12586  -0.00128   0.00000  -0.01936  -0.01950   3.10636
   D19        1.03252  -0.00037   0.00000  -0.01315  -0.01313   1.01939
   D20        2.00028   0.00136   0.00000   0.01472   0.01485   2.01513
   D21       -0.03106  -0.00122   0.00000  -0.01627  -0.01641  -0.04747
   D22       -2.12440  -0.00030   0.00000  -0.01005  -0.01004  -2.13444
   D23        0.00020   0.00026   0.00000   0.00826   0.00824   0.00844
   D24       -3.13198   0.00014   0.00000   0.00445   0.00443  -3.12755
   D25       -3.12603   0.00017   0.00000   0.00507   0.00506  -3.12097
   D26        0.02497   0.00005   0.00000   0.00126   0.00125   0.02623
   D27       -2.11411  -0.00095   0.00000  -0.02332  -0.02338  -2.13749
   D28       -0.06129  -0.00106   0.00000  -0.02417  -0.02424  -0.08553
   D29        2.11061  -0.00095   0.00000  -0.01931  -0.01936   2.09125
[...]
 .00000177,-0.00020373,-0.00010613,0.00017871,0.00061995,0.00010513,-0.
 00012414,0.00484475,-0.01123526,-0.00577994,0.06115806,-0.00013596,0.0
 0004931,0.00001770,-0.00014683,0.00009919,-0.00013177,0.00027716,-0.00
 047002,-0.00028561,0.00011836,-0.00196174,0.00212407,0.00143744,-0.013
 95607,-0.01144709,0.02382011,-0.24506188,-0.11980523,0.00484750,0.0014
 8179,0.00096602,-0.00038372,-0.00057624,0.00020905,-0.00019312,-0.0001
 2683,-0.00007835,0.00008174,-0.00003627,-0.00003702,-0.00002402,0.0000
 1334,0.00001854,0.00003521,-0.00005014,-0.00000124,0.00001803,0.000061
 63,-0.00005462,0.00022155,-0.00007152,0.00006966,0.00068701,-0.0023696
 7,0.00023884,-0.00044737,-0.00008976,-0.00016365,0.00015645,0.00011841
 ,-0.00010634,-0.00002014,0.00000849,0.00001893,-0.00004352,-0.00000629
 ,-0.00001638,-0.00018078,0.00015114,0.00022282,0.00010657,0.00173983,-
 0.00001017,-0.00099810,0.00397217,0.00164808,-0.02926674,0.25710782,0.
 00005223,-0.00005959,-0.00002054,0.00003526,0.00004100,0.00010888,0.00
 026394,-0.00035099,-0.00008414,-0.00065470,0.00115250,-0.00051477,-0.0
 0101683,0.01471724,0.00868217,0.01140504,-0.12182479,-0.12671624,0.006
 15763,-0.00321045,0.00410723,-0.00010039,0.00409020,-0.00280068,0.0001
 2537,-0.00014181,0.00011498,0.00001602,-0.00002128,-0.00001229,-0.0000
 5354,0.00001808,0.00001276,-0.00002096,-0.00005015,0.00002847,0.000083
 12,-0.00001240,-0.00001807,-0.00006503,0.00008784,0.00000612,-0.001709
 96,0.00251653,-0.00051309,0.00034499,0.00020186,0.00040845,-0.00016455
 ,0.00006300,0.00012455,0.00000225,0.00001209,-0.00001361,-0.00000541,0
 .00000076,-0.00000146,0.00005893,0.00014865,0.00000329,-0.00036664,0.0
 0010029,0.00175663,0.00257265,-0.02399580,-0.01231143,-0.01691475,0.12
 647902,0.12772633,0.00001916,0.00000962,0.00000836,-0.00000994,0.00000
 420,-0.00000464,0.00002739,0.00003813,0.00002116,-0.00007035,-0.000013
 84,-0.00009486,0.00008258,0.00005059,0.00016818,-0.00103308,0.00048223
 ,-0.00007526,-0.00239486,0.00086939,0.00034041,0.00068201,-0.00229230,
 0.00001742,0.01221143,-0.01825041,0.00393464,-0.07746293,0.07414424,-0
 .01718623,-0.00243234,0.02702495,-0.00839068,-0.00419335,0.00152370,0.
 00287239,-0.00178335,0.00026163,0.00030263,-0.00223174,-0.00422150,0.0
 0432966,0.00037245,0.00076927,-0.00047680,0.00006894,0.00001587,0.0000
 0714,-0.00000481,-0.00001184,-0.00000295,0.00000808,0.00000350,0.00000
 477,0.00001147,-0.00000213,0.00000340,-0.00001686,0.00000192,0.0000071
 5,0.00000392,0.00003210,-0.00003505,0.00009982,-0.00002687,0.00004156,
 0.00010085,-0.00004633,-0.00003381,0.07681337,0.00000854,0.00000422,0.
 00000292,-0.00000353,-0.00000117,-0.00000148,0.00001458,0.00002172,0.0
 0001505,-0.00001391,-0.00000474,-0.00006776,0.00022513,0.00016654,0.00
 010971,-0.00034614,0.00043038,-0.00021747,0.00256776,0.00023784,-0.000
 83307,0.00024979,-0.00211127,-0.00018662,0.00720271,-0.01185028,0.0031
 2738,0.07160425,-0.30303004,0.07970593,0.00036314,-0.00288226,0.002521
 72,0.00190699,0.00233248,0.00164825,-0.00091788,0.00085630,-0.00020048
 ,-0.00223686,-0.00064261,0.00373388,0.00008836,0.00025516,-0.00021370,
 0.00003542,0.00000292,0.00000239,-0.00000402,-0.00000334,-0.00000303,0
 .00000293,0.00000124,0.00000238,0.00000585,-0.00000062,0.00000196,-0.0
 0000648,-0.00000112,0.00000117,-0.00000951,0.00002080,-0.00001915,0.00
 003148,0.00000480,0.00002745,0.00005981,-0.00002097,-0.00004098,-0.080
 38201,0.31649585,-0.00001012,-0.00001121,-0.00001133,0.00001379,-0.000
 00273,0.00000164,-0.00001648,0.00000368,-0.00000716,0.00009029,-0.0000
 3321,0.00002052,0.00006757,0.00018908,0.00046021,0.00034091,-0.0004586
 5,-0.00011112,-0.00037321,-0.00035262,-0.00001639,-0.00100217,0.000492
 90,-0.00237563,-0.00561631,0.01031000,-0.00057669,-0.01627993,0.079037
 48,-0.06449988,0.00170163,-0.00502978,0.00547162,0.00274318,0.00173553
 ,0.00662840,0.00074248,-0.00053985,-0.00036922,0.00360122,0.00427356,0
 .00491968,-0.00017290,-0.00039199,-0.00010811,-0.00002763,-0.00001090,
 -0.00001915,-0.00000465,0.00000957,-0.00000500,-0.00000424,-0.00000269
 ,0.,-0.00000347,0.00000072,0.00000111,0.00000942,-0.00000582,-0.000001
 93,-0.00010050,0.00000563,0.00001029,-0.00010720,0.00000986,-0.0000107
 3,0.00000810,0.00001923,0.00002003,0.01620706,-0.08713613,0.05509028,-
 0.00000956,-0.00000248,-0.00000486,-0.00000464,0.00000310,0.00000115,-
 0.00002097,-0.00002799,-0.00002079,0.00000420,0.00006184,0.00002433,0.
 00002680,-0.00008096,0.00003607,0.00005974,-0.00001559,0.00001288,-0.0
 0011554,0.00019894,-0.00003846,0.00016489,-0.00156938,0.00049395,-0.00
 341888,0.00432960,0.00175439,-0.01476681,-0.01887284,0.01271917,-0.191
 87638,-0.11196397,0.08476188,0.00949676,0.00576609,-0.00335883,0.00126
 997,0.00263074,0.00109601,-0.00031421,0.00017851,-0.00110275,-0.000669
 25,0.00020590,0.00005842,-0.00000703,-0.00001288,-0.00000947,-0.000000
 08,0.00000964,0.00000357,-0.00000526,-0.00000188,-0.00000115,-0.000007
 69,-0.00000002,-0.00000127,0.00000608,0.00000006,0.00000175,-0.0000452
 9,0.00003355,0.00000378,-0.00002605,0.00000781,-0.00001093,-0.00002199
 ,0.00001725,0.00000498,0.00109816,-0.00024450,-0.00142090,0.19854311,-
 0.00000196,-0.00000036,-0.00000131,0.00000036,-0.00000048,-0.00000022,
 -0.00000063,-0.00000214,-0.00000075,0.00000921,-0.00000114,0.00000208,
 0.00005906,-0.00000290,0.00000434,0.00003909,-0.00000670,0.00000897,-0
 .00009925,0.00001267,0.00002814,0.00032771,0.00042825,-0.00032937,0.00
 341454,0.00097721,0.00193283,0.00852313,0.01090727,-0.00462646,-0.1120
 9936,-0.15432911,0.07431984,-0.02194418,-0.01120096,0.01242862,0.00374
 962,-0.00361816,0.00357746,0.00012683,-0.00057366,-0.00132220,0.000132
 61,-0.00005930,-0.00007079,0.00000058,-0.00000419,-0.00000328,-0.00000
 054,0.00000421,0.00000085,-0.00000200,-0.00000059,-0.00000027,-0.00000
 146,0.00000060,-0.00000001,0.00000133,0.00000011,0.00000014,-0.0000048
 0,0.00000388,-0.00000291,-0.00000271,0.00000122,-0.00000293,-0.0000022
 3,0.00000033,0.00000011,-0.00093212,0.00013797,-0.00140229,0.11998053,
 0.15720759,0.00000201,0.00000020,-0.00000005,0.00000197,-0.00000086,-0
 .00000195,0.00000554,0.00001201,0.00000751,0.00000095,-0.00002346,-0.0
 0000746,-0.00001860,0.00004004,0.00002708,-0.00001543,0.00002245,0.000
 03494,0.00006551,-0.00004628,0.00002215,-0.00021894,0.00019081,-0.0002
 2230,0.00208442,0.00165599,0.00742707,0.00239335,0.00311241,0.00319101
 ,0.08480711,0.07430258,-0.09333135,0.00711030,0.00458802,0.00157555,0.
 00067508,0.00389715,0.00699640,-0.00109415,-0.00132491,-0.00317275,0.0
 0010133,-0.00007738,-0.00011263,0.00000348,0.00000169,-0.00000075,0.00
 000036,-0.00000207,-0.00000236,0.00000152,0.00000036,0.00000119,0.0000
 0289,-0.00000046,0.00000101,-0.00000166,-0.00000164,-0.00000002,0.0000
 1195,-0.00000524,-0.00000810,0.00000667,-0.00000208,-0.00000228,0.0000
 0518,-0.00000934,-0.00000261,-0.00115747,-0.00160569,-0.00333648,-0.09
 378680,-0.08312818,0.08462106,-0.00000739,-0.00000293,-0.00000347,-0.0
 0000100,-0.00000033,0.00000092,-0.00001067,-0.00001433,-0.00000957,0.0
 0001725,0.00002640,0.00001472,0.00007492,0.00000492,-0.00001174,0.0000
 6179,-0.00000216,-0.00000016,-0.00017536,0.00008883,0.00002170,-0.0000
 2527,-0.00017766,-0.00047449,0.00102598,-0.00141544,0.00020738,0.00210
 427,0.00144203,0.00113535,-0.00117163,-0.00002519,0.00134748,-0.296067
 25,0.09792239,0.03593999,-0.01396137,0.01239143,-0.00028856,-0.0023795
 2,-0.00245369,0.00366476,-0.00015776,0.00003967,0.00008381,-0.00000103
 ,-0.00001524,-0.00000730,-0.00000113,0.00001214,0.00000544,-0.00000498
 ,-0.00000108,-0.00000155,-0.00000502,0.00000095,-0.00000100,0.00000466
 ,-0.00000002,-0.00000030,-0.00002396,0.00000730,0.00000800,-0.00001325
 ,0.00000571,-0.00000796,-0.00001451,0.00001368,0.00000061,-0.00006311,
 -0.00017419,0.00014988,0.00036789,-0.00018775,-0.00122458,0.30998299,0
 .00000201,0.00000003,0.00000031,0.00000028,-0.00000021,-0.00000044,0.0
 0000465,0.00000741,0.00000412,-0.00000080,-0.00000583,-0.00001309,0.00
 002892,0.00003085,0.00000225,-0.00008658,0.00006700,0.00000052,0.00012
 090,0.00009431,-0.00005167,-0.00031686,-0.00027481,-0.00053805,-0.0002
 6456,-0.00160992,0.00063286,0.00076742,-0.00384452,0.00427898,0.027797
 25,-0.00512355,-0.00455892,0.09802269,-0.09581069,-0.00568909,-0.01658
 541,0.01174477,0.00084227,-0.00322892,-0.00032380,0.00381230,0.0000932
 7,0.00008805,0.00003072,0.00000748,0.00000104,0.00000055,-0.00000076,-
 0.00000024,-0.00000045,0.00000117,0.00000059,0.00000079,0.00000217,-0.
 00000043,0.00000055,-0.00000195,-0.00000065,0.00000018,0.00000134,-0.0
 0000580,-0.00000142,0.00000803,-0.00000265,0.00000160,0.00000179,-0.00
 000048,-0.00000445,0.00119293,-0.00009443,-0.00021491,-0.00094216,0.00
 075199,-0.00161350,-0.10696065,0.09418138,0.00000115,-0.00000161,-0.00
 000213,0.00000411,-0.00000075,0.00000042,0.00000065,0.00000682,0.00000
 218,0.00001829,-0.00000390,-0.00001105,-0.00001871,0.00003735,0.000052
 93,0.00000944,-0.00002134,0.00003005,0.00001881,-0.00004441,0.00005155
 ,-0.00043051,-0.00059287,-0.00162118,-0.00023350,0.00094406,-0.0004270
 9,0.00138659,0.00409399,0.00613318,-0.00914325,0.00328866,0.00490976,0
 .03590075,-0.00566561,-0.04557229,0.01063367,-0.00731946,0.00132631,0.
 00397709,0.00358602,0.00491790,0.00009392,0.00004227,0.00019100,-0.000
 00556,0.00000217,-0.00000088,-0.00000067,-0.00000019,-0.00000205,0.000
 00057,-0.00000035,0.00000103,0.00000157,-0.00000031,0.00000085,0.00000
 036,-0.00000219,-0.00000053,-0.00001678,-0.00001153,0.00000180,0.00000
 523,-0.00000694,-0.00000269,-0.00000356,0.00000125,-0.00000053,-0.0003
 6511,0.00017320,0.00027019,-0.00094194,-0.00182537,-0.00327033,-0.0397
 9829,0.00434628,0.03531393,-0.00001110,-0.00000578,-0.00000475,0.00000
 046,-0.00000080,0.00000255,-0.00001645,-0.00002255,-0.00001256,0.00002
 657,0.00003660,0.00002517,0.00004159,-0.00000869,-0.00000283,0.0000837
 8,0.00004445,-0.00004440,-0.00053519,0.00016412,0.00003981,0.00082911,
 0.00064697,-0.00032861,-0.00236998,0.00356450,0.00250805,-0.00077669,0
 .00032569,-0.00003662,-0.00287159,-0.00154667,0.00328508,0.00842627,-0
 .02098231,0.00754736,-0.05946324,0.03716073,-0.00915197,-0.01584359,0.
 03434770,-0.00967863,-0.00021977,-0.00008387,0.00009217,-0.00002409,-0
 .00001306,-0.00000453,0.00000275,0.00000711,0.00000751,-0.00000272,-0.
 00000050,-0.00000206,-0.00000394,-0.00000036,-0.00000243,0.00000718,-0
 .00000201,-0.00000269,-0.00003095,0.00002186,0.00000597,-0.00003355,0.
 00000864,-0.00000086,-0.00003049,0.00001081,0.00000408,0.00009468,-0.0
 0003295,-0.00052208,0.00026310,-0.00109007,0.00023861,0.00043206,0.000
 33566,-0.00108981,0.07201832,0.00001276,0.00000449,0.00000461,0.000003
 11,-0.00000010,-0.00000262,0.00002013,0.00003103,0.00001781,-0.0000251
 2,-0.00005536,-0.00002585,-0.00010530,0.00003125,0.00002013,-0.0001038
 9,-0.00001163,-0.00001258,0.00032114,-0.00015916,-0.00005049,-0.000450
 90,0.00014152,0.00026727,0.00057693,0.00340816,0.00276500,-0.00031240,
 0.00034081,-0.00021798,-0.00257799,0.00039873,0.00309844,0.00551225,-0
 .01097332,0.00528149,0.03732503,-0.29408224,0.08413144,0.01275190,-0.0
 0788513,-0.00225654,0.00032746,-0.00004189,-0.00004259,0.00001480,0.00
 001852,0.00001012,-0.00000056,-0.00001431,-0.00000867,0.00000664,0.000
 00146,0.00000298,0.00000812,-0.00000111,0.00000276,-0.00000818,-0.0000
 0053,0.00000092,0.00004256,-0.00002917,-0.00000823,0.00001585,-0.00001
 017,0.00001142,0.00002846,-0.00001626,-0.00000332,-0.00022629,-0.00031
 497,-0.00049212,0.00029828,-0.00063498,0.00002215,-0.00053356,0.000134
 73,-0.00102225,-0.05290890,0.30973997,-0.00000391,-0.00000188,-0.00000
 278,-0.00000058,-0.00000031,-0.00000015,-0.00000302,-0.00000583,-0.000
 00446,0.00000588,0.00001002,0.00000431,0.00003618,-0.00001124,0.000017
 54,0.00000178,-0.00003536,-0.00006703,0.00000530,-0.00002441,-0.000079
 28,0.00010532,-0.00004576,0.00049980,0.00358072,0.00198908,0.00944567,
 0.00018202,-0.00038938,-0.00037513,0.00368065,0.00279551,0.00462624,-0
 .00239515,0.01278027,0.00306448,-0.00926273,0.08418340,-0.07133685,-0.
 00151762,-0.00841635,-0.00076846,-0.00005942,0.00005210,0.00002394,0.0
 0000485,-0.00001002,-0.00000457,-0.00000026,0.00001031,0.00000386,-0.0
 0000249,-0.00000030,-0.00000011,-0.00000167,-0.00000010,-0.00000018,0.
 00000142,-0.00000068,0.00000027,-0.00000700,0.00000730,-0.00000110,-0.
 00001640,0.00000206,0.00000413,0.00001888,0.00000430,-0.00000384,-0.00
 044537,-0.00055487,-0.00146075,-0.00028670,0.00040817,-0.00043317,-0.0
 0076095,-0.00126934,-0.00229294,0.00712956,-0.09148116,0.05913207,-0.0
 0166451,-0.00225799,-0.00338061,0.00043028,-0.00073698,-0.00013840,0.0
 0123326,0.00036709,-0.00112379,0.00287296,0.00163235,0.00004580,-0.001
 24970,-0.00035226,0.00021072,0.00017806,0.00022036,-0.00006822,-0.0002
 3216,0.00045661,0.00021177,-0.00058956,-0.00109653,-0.00008743,-0.0000
 1781,-0.00004953,-0.00003987,0.00003677,-0.00001725,0.00001342,-0.0000
 1397,0.00000704,-0.00000109,0.00002159,-0.00003432,-0.00001554,-0.0000
 3749,0.00011173,-0.00003322,0.00017544,0.00004360,0.00012721,-0.001030
 26,-0.00198411,-0.00117174,-0.27609322,0.12011594,0.01173103,-0.015698
 24,0.01280644,0.00241067,-0.00069780,0.00058519,0.00011520,-0.00009068
 ,-0.00006477,0.00019691,0.00010604,-0.00022699,-0.00016047,0.00006492,
 0.00015529,0.00012710,-0.00008261,-0.00000903,-0.00002183,-0.00001558,
 0.00006824,-0.00005030,-0.00000390,0.00000266,-0.00000870,0.00001140,0
 .00000446,-0.00000019,0.00001387,0.00000066,-0.00000372,0.00001392,-0.
 00001619,0.00001318,0.29144479,-0.00181894,0.00095032,-0.00369523,-0.0
 0074305,-0.00062928,-0.00011728,-0.00048992,-0.00257782,-0.00505208,0.
 02461921,-0.00846492,-0.00127060,0.00135893,-0.00069567,0.00201735,0.0
 0028455,-0.00016440,-0.00040895,-0.00052657,0.00107038,-0.00055272,-0.
 00133773,-0.00150642,0.00077349,-0.00028875,0.00014250,0.00011802,0.00
 013176,-0.00004970,0.00000726,-0.00006972,0.00001584,-0.00000671,0.000
 04316,-0.00009951,0.00002954,0.00007017,0.00013423,-0.00005896,0.00007
 965,-0.00012484,-0.00001186,0.00084090,0.00053392,0.00075467,0.1192175
 0,-0.11763677,-0.01520052,-0.01308968,0.01000365,0.00061373,-0.0006453
 9,0.00036409,-0.00005934,-0.00003657,-0.00018840,0.00043442,0.00127207
 ,-0.00054087,-0.00017800,0.00020074,0.00027962,0.00011219,-0.00004160,
 -0.00004493,-0.00002460,-0.00001747,0.00004365,0.00005297,-0.00002893,
 -0.00001343,0.00000545,0.00001858,0.00000323,-0.00000503,0.00001332,-0
 .00000499,-0.00000219,0.00002907,-0.00002714,0.00000783,-0.12918219,0.
 11943466,-0.00277062,-0.00383232,0.00435838,-0.00014384,-0.00003416,-0
 .00069649,-0.00140859,-0.00504222,0.00331266,0.01303765,-0.00724551,0.
 00352320,0.00147536,0.00142599,-0.00295984,0.00066905,0.00019537,0.000
 39587,-0.00014770,0.00111436,-0.00063409,-0.00081713,-0.00063884,0.000
 51522,-0.00010944,0.00008382,0.00009929,0.00007472,-0.00002222,-0.0000
 3249,-0.00003020,0.00000518,-0.00000228,0.00004606,-0.00005037,0.00000
 538,0.00001956,0.00009051,-0.00002555,0.00010216,-0.00005783,-0.000055
 20,0.00017104,-0.00023904,-0.00016036,0.00982112,-0.01344670,-0.044242
 06,-0.01121414,0.00602451,0.00457640,-0.00051597,0.00018889,0.00020457
 ,0.00018709,0.00044884,-0.00073612,0.00070114,-0.00044809,0.00011365,-
 0.00043097,-0.00033637,-0.00003949,-0.00004386,0.00007542,-0.00004197,
 -0.00000007,0.00012419,-0.00007371,-0.00000727,0.00000163,0.00001841,0
 .00001483,0.00000469,-0.00000173,0.00001256,0.00000022,-0.00000033,0.0
 0000645,-0.00001807,0.00000935,-0.00990687,0.01953905,0.03537672,0.003
 05348,0.02526711,0.01362423,-0.00427834,0.00255605,-0.00110505,-0.0010
 8850,-0.00006040,-0.00012334,-0.00367173,-0.00125093,-0.00295893,0.000
 50700,-0.00088783,-0.00039986,-0.00004799,0.00001260,-0.00017302,-0.00
 006679,-0.00004371,0.00002683,0.00003507,0.00004334,-0.00001740,0.0000
 4333,-0.00002987,-0.00000927,-0.00002351,0.00000438,0.00000475,0.00000
 858,-0.00000337,0.00000034,-0.00001069,0.00001733,-0.00000490,-0.00001
 761,-0.00001643,0.00000716,-0.00000205,0.00003683,0.00001796,-0.000004
 75,0.00006918,0.00009589,0.00597143,-0.02370808,-0.01254265,-0.0593738
 6,0.01721080,0.00461141,0.00102909,-0.00105149,0.00058900,-0.00001812,
 0.00117860,0.00061839,0.00006161,-0.00011327,0.00020100,-0.00020442,-0
 .00009309,-0.00011850,0.00001101,0.00000402,0.00003011,-0.00000757,-0.
 00003049,0.00002975,0.00000631,0.00000258,-0.00000504,-0.00000248,0.,-
 0.00000041,-0.00000146,0.00000003,-0.00000077,-0.00000645,0.00000384,-
 0.00000242,0.00091421,0.00013689,0.00120786,0.05718520,-0.00188792,-0.
 00873585,-0.00731285,0.00357565,0.00179361,-0.00209302,-0.00008009,0.0
 0056476,0.00071467,-0.00186466,0.00229834,-0.00298627,0.00050757,-0.00
 028478,-0.00009433,0.00002287,0.00000217,-0.00018795,-0.00009529,-0.00
 008216,0.00005892,0.00010909,0.00012373,-0.00007279,0.00006926,-0.0000
 2473,-0.00001420,-0.00004045,0.00000702,0.00001008,0.00001642,-0.00000
 498,0.,-0.00001397,0.00002452,-0.00000485,-0.00001300,-0.00002784,0.00
 001134,-0.00002755,0.00003044,0.00001277,-0.00015006,-0.00003760,0.000
 03023,0.00297757,-0.00723884,-0.00546227,0.01740671,-0.26935254,-0.122
 45351,-0.00033069,-0.00022733,0.00208582,-0.00010502,-0.00046317,-0.00
 040091,-0.00010450,-0.00032982,0.00040987,-0.00017563,-0.00006815,-0.0
 0006279,0.00003262,0.00000303,0.00000587,-0.00001940,-0.00003295,0.000
 03388,0.00001030,0.00000302,-0.00000778,-0.00000575,-0.00000186,0.0000
 0023,-0.00000456,0.00000084,-0.00000083,-0.00000537,0.00000679,-0.0000
 0336,-0.00054950,-0.00020699,0.00208908,-0.01925463,0.28226132,-0.0011
 3708,-0.00143720,0.00289635,-0.00052800,-0.00231401,0.00568648,-0.0002
 4108,0.00070355,-0.00039875,-0.00344649,-0.00318781,0.00470679,0.00048
 667,-0.00043851,-0.00010750,-0.00006834,0.00005629,-0.00000101,-0.0001
 1888,-0.00004735,0.00003810,0.00012466,-0.00001157,-0.00000303,0.00003
 263,-0.00002002,-0.00000396,-0.00002351,0.00000739,0.00000114,0.000010
 55,-0.00000320,-0.00000327,-0.00000694,0.00001910,-0.00000592,-0.00001
 206,-0.00002671,0.00001284,-0.00001222,0.00002883,-0.00000114,-0.00011
 002,0.00003090,0.00001735,0.00200587,-0.01117584,-0.00164416,0.0046444
 7,-0.12227400,-0.10420263,0.00097485,0.00194141,-0.00290760,-0.0001049
 3,-0.00009939,0.00013845,0.00019656,0.00043455,-0.00084970,-0.00004133
 ,-0.00008722,-0.00007037,-0.00004045,0.00003042,0.00000834,0.00001218,
 -0.00001490,-0.00001287,0.00000961,0.00000541,-0.00000281,-0.00000233,
 0.00000012,0.00000137,-0.00000268,0.00000080,0.00000093,-0.00000754,0.
 00000593,-0.00000086,0.00100898,0.00217808,-0.00280739,-0.00360314,0.1
 3569496,0.09951483\\0.00000049,0.00000095,0.00000082,0.00000056,-0.000
 00096,-0.00000108,0.00000124,0.00000253,0.00000151,-0.00001053,-0.0000
 0405,-0.00000525,0.00002498,-0.00001019,0.00001133,-0.00000906,0.00000
 988,-0.00000701,0.00000643,-0.00002200,0.00000968,0.00001224,0.0000342
 9,-0.00002226,-0.00001101,-0.00001041,0.00000859,0.00000217,-0.0000002
 2,0.00000026,-0.00000055,0.00000039,-0.00000040,0.00000269,0.00000075,
 -0.00000048,-0.00001235,0.00000121,0.00000177,0.00001039,0.00000193,-0
 .00000353,-0.00002035,-0.00000385,0.00000768,0.00000261,0.00000148,0.0
 0000119,0.00000055,-0.00000054,0.00000009,-0.00000005,0.00000004,0.000
 00032,-0.00000025,-0.00000035,-0.00000028,0.00000095,-0.00000031,-0.00
 000042,-0.00000407,-0.00000266,-0.00000071,0.00000049,-0.00000067,0.00
 000036,0.00000219,0.00000051,-0.00000276,0.00000081,0.00000098,-0.0000
 0097,-0.00000029,-0.00000034,-0.00000014,0.00000015,0.00000105,0.00000
 003,0.00000008,0.00000005,0.00000065,0.00000008,0.00000031,0.00000069,
 -0.00000058,0.00000019,0.00000030\\\@
 The archive entry for this job was punched.


 There ain't no surer way to find out whether you
 like people or hate them than to travel with them.
                                     -- Mark Twain
 Job cpu time:       0 days  0 hours 33 minutes 36.8 seconds.
 Elapsed time:       0 days  0 hours  0 minutes 50.9 seconds.
 File lengths (MBytes):  RWF=    242 Int=      0 D2E=      0 Chk=      7 Scr=      1
 Normal termination of Gaussian 16 at Sun Feb 25 23:10:04 2024.
