 Entering Gaussian System, Link 0=g16
 Initial command:
 /public/apps/g16-C01//g16/l1.exe "/public/home/ljq/tmp/Gau-96134.inp" -scrdir="/public/home/ljq/tmp/"
 Entering Link 1 = /public/apps/g16-C01//g16/l1.exe PID=     96135.
  
 Copyright (c) 1988-2019, Gaussian, Inc.  All Rights Reserved.
  
 This is part of the Gaussian(R) 16 program.  It is based on
 the Gaussian(R) 09 system (copyright 2009, Gaussian, Inc.),
 the Gaussian(R) 03 system (copyright 2003, Gaussian, Inc.),
 the Gaussian(R) 98 system (copyright 1998, Gaussian, Inc.),
 the Gaussian(R) 94 system (copyright 1995, Gaussian, Inc.),
 the Gaussian 92(TM) system (copyright 1992, Gaussian, Inc.),
 the Gaussian 90(TM) system (copyright 1990, Gaussian, Inc.),
 the Gaussian 88(TM) system (copyright 1988, Gaussian, Inc.),
 the Gaussian 86(TM) system (copyright 1986, Carnegie Mellon
 University), and the Gaussian 82(TM) system (copyright 1983,
 Carnegie Mellon University). Gaussian is a federally registered
 trademark of Gaussian, Inc.
  
 This software contains proprietary and confidential information,
 including trade secrets, belonging to Gaussian, Inc.
  
 This software is provided under written license and may be
 used, copied, transmitted, or stored only in accord with that
 written license.
  
 The following legend is applicable only to US Government
 contracts under FAR:
  
                    RESTRICTED RIGHTS LEGEND
  
 Use, reproduction and disclosure by the US Government is
 subject to restrictions as set forth in subparagraphs (a)
 and (c) of the Commercial Computer Software - Restricted
 Rights clause in FAR 52.227-19.
  
 Gaussian, Inc.
 340 Quinnipiac St., Bldg. 40, Wallingford CT 06492
  
  
 ---------------------------------------------------------------
 Warning -- This program may not be used in any manner that
 competes with the business of Gaussian, Inc. or will provide
 assistance to any competitor of Gaussian, Inc.  The licensee
 of this program is prohibited from giving any competitor of
 Gaussian, Inc. access to this program.  By using this program,
 the user acknowledges that Gaussian, Inc. is engaged in the
 business of creating and licensing software in the field of
 computational chemistry and represents and warrants to the
 licensee that it is not a competitor of Gaussian, Inc. and that
 it will not use this program in any manner prohibited above.
 ---------------------------------------------------------------
  

 Cite this work as:
 Gaussian 16, Revision C.01,
 M. J. Frisch, G. W. Trucks, H. B. Schlegel, G. E. Scuseria, 
 M. A. Robb, J. R. Cheeseman, G. Scalmani, V. Barone, 
 G. A. Petersson, H. Nakatsuji, X. Li, M. Caricato, A. V. Marenich, 
 J. Bloino, B. G. Janesko, R. Gomperts, B. Mennucci, H. P. Hratchian, 
 J. V. Ortiz, A. F. Izmaylov, J. L. Sonnenberg, D. Williams-Young, 
 F. Ding, F. Lipparini, F. Egidi, J. Goings, B. Peng, A. Petrone, 
 T. Henderson, D. Ranasinghe, V. G. Zakrzewski, J. Gao, N. Rega, 
 G. Zheng, W. Liang, M. Hada, M. Ehara, K. Toyota, R. Fukuda, 
 J. Hasegawa, M. Ishida, T. Nakajima, Y. Honda, O. Kitao, H. Nakai, 
 T. Vreven, K. Throssell, J. A. Montgomery, Jr., J. E. Peralta, 
 F. Ogliaro, M. J. Bearpark, J. J. Heyd, E. N. Brothers, K. N. Kudin, 
 V. N. Staroverov, T. A. Keith, R. Kobayashi, J. Normand, 
 K. Raghavachari, A. P. Rendell, J. C. Burant, S. S. Iyengar, 
 J. Tomasi, M. Cossi, J. M. Millam, M. Klene, C. Adamo, R. Cammi, 
 J. W. Ochterski, R. L. Martin, K. Morokuma, O. Farkas, 
 J. B. Foresman, and D. J. Fox, Gaussian, Inc., Wallingford CT, 2019.
 
 ******************************************
 Gaussian 16:  ES64L-G16RevC.01  3-Jul-2019
                25-Feb-2024 
 ******************************************
 %nproc=40
 Will use up to   40 processors via shared memory.
 %mem=56GB
 ------------------------------------------
 #p opt freq b3lyp/def2svpp em=gd3bj nosymm
 ------------------------------------------
 1/18=20,19=15,26=3,38=1/1,3;
 2/9=110,12=2,15=1,17=6,18=5,40=1/2;
 3/5=43,7=202,11=2,25=1,30=1,71=1,74=-5,124=41/1,2,3;
 4//1;
 5/5=2,38=5/2;
 6/7=2,8=2,9=2,10=2,28=1/1;
 7/30=1/1,2,3,16;
 1/18=20,19=15,26=3/3(2);
 2/9=110,15=1/2;
 99//99;
 2/9=110,15=1/2;
 3/5=43,7=202,11=2,25=1,30=1,71=1,74=-5,124=41/1,2,3;
 4/5=5,16=3,69=1/1;
 5/5=2,38=5/2;
 7/30=1/1,2,3,16;
 1/18=20,19=15,26=3/3(-5);
 2/9=110,15=1/2;
 6/7=2,8=2,9=2,10=2,19=2,28=1/1;
 99/9=1/99;
 Leave Link    1 at Sun Feb 25 22:38:57 2024, MaxMem=  7516192768 cpu:               2.6 elap:               0.1
 (Enter /public/apps/g16-C01//g16/l101.exe)
 ----------------------
 $$$$Singlemol####0????
 ----------------------
 Symbolic Z-matrix:
 Charge =  0 Multiplicity = 1
 C                     5.5446    2.03418  -0.36012 
 C                     4.38996   1.88554  -1.10817 
 C                     3.51884   0.84207  -0.84558 
 C                     3.8005   -0.06284   0.16675 
 C                     2.85635  -1.19589   0.49303 
 C                     2.1905   -1.03265   1.89573 
 O                     0.79558  -0.98586   1.61659 
 C                     0.67418  -1.12204   0.28003 
 C                    -0.67339  -1.12284  -0.27906 
 N                    -1.72781  -1.25348   0.40803 
 C                    -2.85558  -1.19929  -0.49113 
 C                    -3.80061  -0.06688  -0.16558 
 C                    -3.50475   0.85751   0.82488 
 C                    -4.37639   1.90107   1.08539 
 C                    -5.54552   2.03065   0.35658 
 C                    -5.84493   1.10905  -0.63336 
 C                    -4.97751   0.06392  -0.89316 
 C                    -2.19036  -1.03481  -1.89418 
 O                    -0.79543  -0.98673  -1.6156 
 N                     1.72897  -1.25148  -0.40671 
 C                     4.96284   0.08708   0.91382 
 C                     5.82989   1.13192   0.65158 
 H                     6.22257   2.84975  -0.56413 
 H                     4.164     2.58516  -1.89935 
 H                     2.61884   0.71324  -1.42729 
 H                     3.40393  -2.14296   0.4166 
 H                     2.48412  -0.09981   2.38566 
 H                     2.38593  -1.87462   2.56425 
 H                    -3.40201  -2.14693  -0.41476 
 H                    -2.59365   0.74347   1.39228 
 H                    -4.13945   2.61567   1.8598 
 H                    -6.2241    2.8461    0.55903 
 H                    -6.75788   1.20347  -1.20287 
 H                    -5.21251  -0.65682  -1.66382 
 H                    -2.48536  -0.10211  -2.3836 
 H                    -2.38544  -1.8767   -2.56287 
 H                     5.18732  -0.619     1.701 
 H                     6.73136   1.24138   1.23651 
 
 ITRead=  0  0  0  0  0  0  0  0  0  0  0  0  0  0  0  0  0  0  0  0
 ITRead=  0  0  0  0  0  0  0  0  0  0  0  0  0  0  0  0  0  0
 MicOpt= -1 -1 -1 -1 -1 -1 -1 -1 -1 -1 -1 -1 -1 -1 -1 -1 -1 -1 -1 -1
 MicOpt= -1 -1 -1 -1 -1 -1 -1 -1 -1 -1 -1 -1 -1 -1 -1 -1 -1 -1
 NAtoms=     38 NQM=       38 NQMF=       0 NMMI=      0 NMMIF=      0
                NMic=       0 NMicF=      0.
                    Isotopes and Nuclear Properties:
 (Nuclear quadrupole moments (NQMom) in fm**2, nuclear magnetic moments (NMagM)
  in nuclear magnetons)

  Atom         1           2           3           4           5           6           7           8           9          10
 IAtWgt=          12          12          12          12          12          12          16          12          12          14
 AtmWgt=  12.0000000  12.0000000  12.0000000  12.0000000  12.0000000  12.0000000  15.9949146  12.0000000  12.0000000  14.0030740
 NucSpn=           0           0           0           0           0           0           0           0           0           2
 AtZEff=  -0.0000000  -0.0000000  -0.0000000  -0.0000000  -0.0000000  -0.0000000  -0.0000000  -0.0000000  -0.0000000  -0.0000000
 NQMom=    0.0000000   0.0000000   0.0000000   0.0000000   0.0000000   0.0000000   0.0000000   0.0000000   0.0000000   2.0440000
 NMagM=    0.0000000   0.0000000   0.0000000   0.0000000   0.0000000   0.0000000   0.0000000   0.0000000   0.0000000   0.4037610
 AtZNuc=   6.0000000   6.0000000   6.0000000   6.0000000   6.0000000   6.0000000   8.0000000   6.0000000   6.0000000   7.0000000

  Atom        11          12          13          14          15          16          17          18          19          20
 IAtWgt=          12          12          12          12          12          12          12          12          16          14
 AtmWgt=  12.0000000  12.0000000  12.0000000  12.0000000  12.0000000  12.0000000  12.0000000  12.0000000  15.9949146  14.0030740
 NucSpn=           0           0           0           0           0           0           0           0           0           2
 AtZEff=  -0.0000000  -0.0000000  -0.0000000  -0.0000000  -0.0000000  -0.0000000  -0.0000000  -0.0000000  -0.0000000  -0.0000000
 NQMom=    0.0000000   0.0000000   0.0000000   0.0000000   0.0000000   0.0000000   0.0000000   0.0000000   0.0000000   2.0440000
 NMagM=    0.0000000   0.0000000   0.0000000   0.0000000   0.0000000   0.0000000   0.0000000   0.0000000   0.0000000   0.4037610
 AtZNuc=   6.0000000   6.0000000   6.0000000   6.0000000   6.0000000   6.0000000   6.0000000   6.0000000   8.0000000   7.0000000

  Atom        21          22          23          24          25          26          27          28          29          30
 IAtWgt=          12          12           1           1           1           1           1           1           1           1
 AtmWgt=  12.0000000  12.0000000   1.0078250   1.0078250   1.0078250   1.0078250   1.0078250   1.0078250   1.0078250   1.0078250
 NucSpn=           0           0           1           1           1           1           1           1           1           1
 AtZEff=  -0.0000000  -0.0000000  -0.0000000  -0.0000000  -0.0000000  -0.0000000  -0.0000000  -0.0000000  -0.0000000  -0.0000000
 NQMom=    0.0000000   0.0000000   0.0000000   0.0000000   0.0000000   0.0000000   0.0000000   0.0000000   0.0000000   0.0000000
 NMagM=    0.0000000   0.0000000   2.7928460   2.7928460   2.7928460   2.7928460   2.7928460   2.7928460   2.7928460   2.7928460
 AtZNuc=   6.0000000   6.0000000   1.0000000   1.0000000   1.0000000   1.0000000   1.0000000   1.0000000   1.0000000   1.0000000

  Atom        31          32          33          34          35          36          37          38
 IAtWgt=           1           1           1           1           1           1           1           1
 AtmWgt=   1.0078250   1.0078250   1.0078250   1.0078250   1.0078250   1.0078250   1.0078250   1.0078250
 NucSpn=           1           1           1           1           1           1           1           1
 AtZEff=  -0.0000000  -0.0000000  -0.0000000  -0.0000000  -0.0000000  -0.0000000  -0.0000000  -0.0000000
 NQMom=    0.0000000   0.0000000   0.0000000   0.0000000   0.0000000   0.0000000   0.0000000   0.0000000
 NMagM=    2.7928460   2.7928460   2.7928460   2.7928460   2.7928460   2.7928460   2.7928460   2.7928460
 AtZNuc=   1.0000000   1.0000000   1.0000000   1.0000000   1.0000000   1.0000000   1.0000000   1.0000000
 Leave Link  101 at Sun Feb 25 22:38:58 2024, MaxMem=  7516192768 cpu:               6.0 elap:               0.2
 (Enter /public/apps/g16-C01//g16/l103.exe)

 GradGradGradGradGradGradGradGradGradGradGradGradGradGradGradGradGradGrad
 Berny optimization.
 Initialization pass.
                           ----------------------------
                           !    Initial Parameters    !
                           ! (Angstroms and Degrees)  !
 --------------------------                            --------------------------
 ! Name  Definition              Value          Derivative Info.                !
 --------------------------------------------------------------------------------
 ! R1    R(1,2)                  1.3838         estimate D2E/DX2                !
 ! R2    R(1,22)                 1.3853         estimate D2E/DX2                !
 ! R3    R(1,23)                 1.08           estimate D2E/DX2                !
 ! R4    R(2,3)                  1.3844         estimate D2E/DX2                !
 ! R5    R(2,24)                 1.08           estimate D2E/DX2                !
 ! R6    R(3,4)                  1.3867         estimate D2E/DX2                !
 ! R7    R(3,25)                 1.0793         estimate D2E/DX2                !
 ! R8    R(4,5)                  1.5105         estimate D2E/DX2                !
 ! R9    R(4,21)                 1.3898         estimate D2E/DX2                !
 ! R10   R(5,6)                  1.5613         estimate D2E/DX2                !
 ! R11   R(5,20)                 1.4435         estimate D2E/DX2                !
 ! R12   R(5,26)                 1.0966         estimate D2E/DX2                !
 ! R13   R(6,7)                  1.4233         estimate D2E/DX2                !
 ! R14   R(6,27)                 1.0938         estimate D2E/DX2                !
 ! R15   R(6,28)                 1.0927         estimate D2E/DX2                !
 ! R16   R(7,8)                  1.349          estimate D2E/DX2                !
 ! R17   R(8,9)                  1.4589         estimate D2E/DX2                !
 ! R18   R(8,20)                 1.2653         estimate D2E/DX2                !
 ! R19   R(9,10)                 1.2653         estimate D2E/DX2                !
 ! R20   R(9,19)                 1.349          estimate D2E/DX2                !
 ! R21   R(10,11)                1.4434         estimate D2E/DX2                !
 ! R22   R(11,12)                1.5104         estimate D2E/DX2                !
 ! R23   R(11,18)                1.5615         estimate D2E/DX2                !
 ! R24   R(11,29)                1.0966         estimate D2E/DX2                !
 ! R25   R(12,13)                1.3867         estimate D2E/DX2                !
 ! R26   R(12,17)                1.3898         estimate D2E/DX2                !
 ! R27   R(13,14)                1.3844         estimate D2E/DX2                !
 ! R28   R(13,30)                1.0794         estimate D2E/DX2                !
 ! R29   R(14,15)                1.3838         estimate D2E/DX2                !
 ! R30   R(14,31)                1.0801         estimate D2E/DX2                !
 ! R31   R(15,16)                1.3853         estimate D2E/DX2                !
 ! R32   R(15,32)                1.08           estimate D2E/DX2                !
 ! R33   R(16,17)                1.3828         estimate D2E/DX2                !
 ! R34   R(16,33)                1.0802         estimate D2E/DX2                !
 ! R35   R(17,34)                1.081          estimate D2E/DX2                !
 ! R36   R(18,19)                1.4233         estimate D2E/DX2                !
 ! R37   R(18,35)                1.0938         estimate D2E/DX2                !
 ! R38   R(18,36)                1.0927         estimate D2E/DX2                !
 ! R39   R(21,22)                1.3828         estimate D2E/DX2                !
 ! R40   R(21,37)                1.081          estimate D2E/DX2                !
 ! R41   R(22,38)                1.0802         estimate D2E/DX2                !
 ! A1    A(2,1,22)             119.7805         estimate D2E/DX2                !
 ! A2    A(2,1,23)             120.185          estimate D2E/DX2                !
 ! A3    A(22,1,23)            120.0344         estimate D2E/DX2                !
 ! A4    A(1,2,3)              120.2294         estimate D2E/DX2                !
 ! A5    A(1,2,24)             120.0653         estimate D2E/DX2                !
 ! A6    A(3,2,24)             119.7052         estimate D2E/DX2                !
 ! A7    A(2,3,4)              120.1652         estimate D2E/DX2                !
 ! A8    A(2,3,25)             120.8251         estimate D2E/DX2                !
 ! A9    A(4,3,25)             119.0071         estimate D2E/DX2                !
 ! A10   A(3,4,5)              121.3461         estimate D2E/DX2                !
 ! A11   A(3,4,21)             119.4642         estimate D2E/DX2                !
 ! A12   A(5,4,21)             119.1797         estimate D2E/DX2                !
 ! A13   A(4,5,6)              112.4703         estimate D2E/DX2                !
 ! A14   A(4,5,20)             112.4843         estimate D2E/DX2                !
 ! A15   A(4,5,26)             108.7017         estimate D2E/DX2                !
 ! A16   A(6,5,20)             103.3531         estimate D2E/DX2                !
 ! A17   A(6,5,26)             111.4604         estimate D2E/DX2                !
 ! A18   A(20,5,26)            108.2569         estimate D2E/DX2                !
 ! A19   A(5,6,7)              104.1932         estimate D2E/DX2                !
 ! A20   A(5,6,27)             112.1548         estimate D2E/DX2                !
 ! A21   A(5,6,28)             113.1302         estimate D2E/DX2                !
 ! A22   A(7,6,27)             108.837          estimate D2E/DX2                !
 ! A23   A(7,6,28)             108.6982         estimate D2E/DX2                !
 ! A24   A(27,6,28)            109.5788         estimate D2E/DX2                !
 ! A25   A(6,7,8)              106.2125         estimate D2E/DX2                !
 ! A26   A(7,8,9)              117.5727         estimate D2E/DX2                !
 ! A27   A(7,8,20)             118.2338         estimate D2E/DX2                !
 ! A28   A(9,8,20)             124.1909         estimate D2E/DX2                !
 ! A29   A(8,9,10)             124.1727         estimate D2E/DX2                !
 ! A30   A(8,9,19)             117.5928         estimate D2E/DX2                !
 ! A31   A(10,9,19)            118.232          estimate D2E/DX2                !
 ! A32   A(9,10,11)            107.9971         estimate D2E/DX2                !
 ! A33   A(10,11,12)           112.5038         estimate D2E/DX2                !
 ! A34   A(10,11,18)           103.3469         estimate D2E/DX2                !
 ! A35   A(10,11,29)           108.2713         estimate D2E/DX2                !
 ! A36   A(12,11,18)           112.411          estimate D2E/DX2                !
 ! A37   A(12,11,29)           108.7308         estimate D2E/DX2                !
 ! A38   A(18,11,29)           111.4635         estimate D2E/DX2                !
 ! A39   A(11,12,13)           121.3471         estimate D2E/DX2                !
 ! A40   A(11,12,17)           119.1788         estimate D2E/DX2                !
 ! A41   A(13,12,17)           119.4617         estimate D2E/DX2                !
 ! A42   A(12,13,14)           120.1681         estimate D2E/DX2                !
 ! A43   A(12,13,30)           119.0201         estimate D2E/DX2                !
 ! A44   A(14,13,30)           120.8087         estimate D2E/DX2                !
 ! A45   A(13,14,15)           120.2272         estimate D2E/DX2                !
 ! A46   A(13,14,31)           119.7042         estimate D2E/DX2                !
 ! A47   A(15,14,31)           120.0685         estimate D2E/DX2                !
 ! A48   A(14,15,16)           119.7811         estimate D2E/DX2                !
 ! A49   A(14,15,32)           120.1876         estimate D2E/DX2                !
 ! A50   A(16,15,32)           120.0312         estimate D2E/DX2                !
 ! A51   A(15,16,17)           120.0993         estimate D2E/DX2                !
 ! A52   A(15,16,33)           120.0862         estimate D2E/DX2                !
 ! A53   A(17,16,33)           119.8143         estimate D2E/DX2                !
 ! A54   A(12,17,16)           120.2621         estimate D2E/DX2                !
 ! A55   A(12,17,34)           119.6404         estimate D2E/DX2                !
 ! A56   A(16,17,34)           120.0975         estimate D2E/DX2                !
 ! A57   A(11,18,19)           104.1951         estimate D2E/DX2                !
 ! A58   A(11,18,35)           112.1456         estimate D2E/DX2                !
 ! A59   A(11,18,36)           113.1203         estimate D2E/DX2                !
 ! A60   A(19,18,35)           108.85           estimate D2E/DX2                !
 ! A61   A(19,18,36)           108.7102         estimate D2E/DX2                !
 ! A62   A(35,18,36)           109.5733         estimate D2E/DX2                !
 ! A63   A(9,19,18)            106.2114         estimate D2E/DX2                !
 ! A64   A(5,20,8)             107.9893         estimate D2E/DX2                !
 ! A65   A(4,21,22)            120.2618         estimate D2E/DX2                !
 ! A66   A(4,21,37)            119.6454         estimate D2E/DX2                !
 ! A67   A(22,21,37)           120.0927         estimate D2E/DX2                !
 ! A68   A(1,22,21)            120.0984         estimate D2E/DX2                !
 ! A69   A(1,22,38)            120.0897         estimate D2E/DX2                !
 ! A70   A(21,22,38)           119.8118         estimate D2E/DX2                !
 ! D1    D(22,1,2,3)             0.2133         estimate D2E/DX2                !
 ! D2    D(22,1,2,24)         -179.8765         estimate D2E/DX2                !
 ! D3    D(23,1,2,3)          -179.8633         estimate D2E/DX2                !
 ! D4    D(23,1,2,24)            0.0469         estimate D2E/DX2                !
 ! D5    D(2,1,22,21)           -0.0682         estimate D2E/DX2                !
 ! D6    D(2,1,22,38)          179.8042         estimate D2E/DX2                !
 ! D7    D(23,1,22,21)        -179.9918         estimate D2E/DX2                !
 ! D8    D(23,1,22,38)          -0.1194         estimate D2E/DX2                !
 ! D9    D(1,2,3,4)             -0.1813         estimate D2E/DX2                !
 ! D10   D(1,2,3,25)          -179.5926         estimate D2E/DX2                !
 ! D11   D(24,2,3,4)           179.9081         estimate D2E/DX2                !
 ! D12   D(24,2,3,25)            0.4968         estimate D2E/DX2                !
 ! D13   D(2,3,4,5)            178.8468         estimate D2E/DX2                !
 ! D14   D(2,3,4,21)             0.0041         estimate D2E/DX2                !
 ! D15   D(25,3,4,5)            -1.7312         estimate D2E/DX2                !
 ! D16   D(25,3,4,21)          179.4261         estimate D2E/DX2                !
 ! D17   D(3,4,5,6)           -112.5144         estimate D2E/DX2                !
 ! D18   D(3,4,5,20)             3.6965         estimate D2E/DX2                !
 ! D19   D(3,4,5,26)           123.5683         estimate D2E/DX2                !
 ! D20   D(21,4,5,6)            66.3315         estimate D2E/DX2                !
 ! D21   D(21,4,5,20)         -177.4575         estimate D2E/DX2                !
 ! D22   D(21,4,5,26)          -57.5858         estimate D2E/DX2                !
 ! D23   D(3,4,21,22)            0.1407         estimate D2E/DX2                !
 ! D24   D(3,4,21,37)         -179.75           estimate D2E/DX2                !
 ! D25   D(5,4,21,22)         -178.7272         estimate D2E/DX2                !
 ! D26   D(5,4,21,37)            1.382          estimate D2E/DX2                !
 ! D27   D(4,5,6,7)            120.2883         estimate D2E/DX2                !
 ! D28   D(4,5,6,27)             2.7351         estimate D2E/DX2                !
 ! D29   D(4,5,6,28)          -121.832          estimate D2E/DX2                !
 ! D30   D(20,5,6,7)            -1.2809         estimate D2E/DX2                !
 ! D31   D(20,5,6,27)         -118.8341         estimate D2E/DX2                !
 ! D32   D(20,5,6,28)          116.5989         estimate D2E/DX2                !
 ! D33   D(26,5,6,7)          -117.3389         estimate D2E/DX2                !
 ! D34   D(26,5,6,27)          125.1078         estimate D2E/DX2                !
 ! D35   D(26,5,6,28)            0.5408         estimate D2E/DX2                !
 ! D36   D(4,5,20,8)          -120.3052         estimate D2E/DX2                !
 ! D37   D(6,5,20,8)             1.2545         estimate D2E/DX2                !
 ! D38   D(26,5,20,8)          119.5657         estimate D2E/DX2                !
 ! D39   D(5,6,7,8)              0.8742         estimate D2E/DX2                !
 ! D40   D(27,6,7,8)           120.6943         estimate D2E/DX2                !
 ! D41   D(28,6,7,8)          -120.0141         estimate D2E/DX2                !
 ! D42   D(6,7,8,9)            179.337          estimate D2E/DX2                !
 ! D43   D(6,7,8,20)            -0.097          estimate D2E/DX2                !
 ! D44   D(7,8,9,10)           -13.6705         estimate D2E/DX2                !
 ! D45   D(7,8,9,19)           166.9228         estimate D2E/DX2                !
 ! D46   D(20,8,9,10)          165.7267         estimate D2E/DX2                !
 ! D47   D(20,8,9,19)          -13.68           estimate D2E/DX2                !
 ! D48   D(7,8,20,5)            -0.8114         estimate D2E/DX2                !
 ! D49   D(9,8,20,5)           179.7951         estimate D2E/DX2                !
 ! D50   D(8,9,10,11)          179.7925         estimate D2E/DX2                !
 ! D51   D(19,9,10,11)          -0.8043         estimate D2E/DX2                !
 ! D52   D(8,9,19,18)          179.3561         estimate D2E/DX2                !
 ! D53   D(10,9,19,18)          -0.0868         estimate D2E/DX2                !
 ! D54   D(9,10,11,12)        -120.2598         estimate D2E/DX2                !
 ! D55   D(9,10,11,18)           1.2349         estimate D2E/DX2                !
 ! D56   D(9,10,11,29)         119.553          estimate D2E/DX2                !
 ! D57   D(10,11,12,13)          5.2236         estimate D2E/DX2                !
 ! D58   D(10,11,12,17)       -176.0581         estimate D2E/DX2                !
 ! D59   D(18,11,12,13)       -110.953          estimate D2E/DX2                !
 ! D60   D(18,11,12,17)         67.7653         estimate D2E/DX2                !
 ! D61   D(29,11,12,13)        125.1452         estimate D2E/DX2                !
 ! D62   D(29,11,12,17)        -56.1365         estimate D2E/DX2                !
 ! D63   D(10,11,18,19)         -1.2562         estimate D2E/DX2                !
 ! D64   D(10,11,18,35)       -118.8214         estimate D2E/DX2                !
 ! D65   D(10,11,18,36)        116.634          estimate D2E/DX2                !
 ! D66   D(12,11,18,19)        120.301          estimate D2E/DX2                !
 ! D67   D(12,11,18,35)          2.7358         estimate D2E/DX2                !
 ! D68   D(12,11,18,36)       -121.8088         estimate D2E/DX2                !
 ! D69   D(29,11,18,19)       -117.329          estimate D2E/DX2                !
 ! D70   D(29,11,18,35)        125.1057         estimate D2E/DX2                !
 ! D71   D(29,11,18,36)          0.5611         estimate D2E/DX2                !
 ! D72   D(11,12,13,14)        178.7393         estimate D2E/DX2                !
 ! D73   D(11,12,13,30)         -1.8936         estimate D2E/DX2                !
 ! D74   D(17,12,13,14)          0.0245         estimate D2E/DX2                !
 ! D75   D(17,12,13,30)        179.3917         estimate D2E/DX2                !
 ! D76   D(11,12,17,16)       -178.6047         estimate D2E/DX2                !
 ! D77   D(11,12,17,34)          1.4483         estimate D2E/DX2                !
 ! D78   D(13,12,17,16)          0.1381         estimate D2E/DX2                !
 ! D79   D(13,12,17,34)       -179.8089         estimate D2E/DX2                !
 ! D80   D(12,13,14,15)         -0.2094         estimate D2E/DX2                !
 ! D81   D(12,13,14,31)        179.8814         estimate D2E/DX2                !
 ! D82   D(30,13,14,15)       -179.5651         estimate D2E/DX2                !
 ! D83   D(30,13,14,31)          0.5257         estimate D2E/DX2                !
 ! D84   D(13,14,15,16)          0.2309         estimate D2E/DX2                !
 ! D85   D(13,14,15,32)       -179.8798         estimate D2E/DX2                !
 ! D86   D(31,14,15,16)       -179.8602         estimate D2E/DX2                !
 ! D87   D(31,14,15,32)          0.0291         estimate D2E/DX2                !
 ! D88   D(14,15,16,17)         -0.0681         estimate D2E/DX2                !
 ! D89   D(14,15,16,33)        179.7817         estimate D2E/DX2                !
 ! D90   D(32,15,16,17)       -179.9575         estimate D2E/DX2                !
 ! D91   D(32,15,16,33)         -0.1077         estimate D2E/DX2                !
 ! D92   D(15,16,17,12)         -0.1166         estimate D2E/DX2                !
 ! D93   D(15,16,17,34)        179.8302         estimate D2E/DX2                !
 ! D94   D(33,16,17,12)       -179.9668         estimate D2E/DX2                !
 ! D95   D(33,16,17,34)         -0.02           estimate D2E/DX2                !
 ! D96   D(11,18,19,9)           0.8531         estimate D2E/DX2                !
 ! D97   D(35,18,19,9)         120.6698         estimate D2E/DX2                !
 ! D98   D(36,18,19,9)        -120.0306         estimate D2E/DX2                !
 ! D99   D(4,21,22,1)           -0.109          estimate D2E/DX2                !
 ! D100  D(4,21,22,38)        -179.9817         estimate D2E/DX2                !
 ! D101  D(37,21,22,1)         179.7813         estimate D2E/DX2                !
 ! D102  D(37,21,22,38)         -0.0915         estimate D2E/DX2                !
 --------------------------------------------------------------------------------
 Trust Radius=3.00D-01 FncErr=1.00D-07 GrdErr=1.00D-06 EigMax=2.50D+02 EigMin=1.00D-04
 Number of steps in this run=    223 maximum allowed number of steps=    228.
 GradGradGradGradGradGradGradGradGradGradGradGradGradGradGradGradGradGrad

 Leave Link  103 at Sun Feb 25 22:38:58 2024, MaxMem=  7516192768 cpu:               1.0 elap:               0.0
 (Enter /public/apps/g16-C01//g16/l202.exe)
                          Input orientation:                          
 ---------------------------------------------------------------------
 Center     Atomic      Atomic             Coordinates (Angstroms)
 Number     Number       Type             X           Y           Z
 ---------------------------------------------------------------------
      1          6           0        5.544602    2.034179   -0.360115
      2          6           0        4.389960    1.885537   -1.108167
      3          6           0        3.518835    0.842067   -0.845583
      4          6           0        3.800500   -0.062841    0.166751
      5          6           0        2.856350   -1.195886    0.493025
      6          6           0        2.190504   -1.032645    1.895734
      7          8           0        0.795584   -0.985855    1.616587
      8          6           0        0.674181   -1.122041    0.280026
      9          6           0       -0.673387   -1.122844   -0.279057
     10          7           0       -1.727810   -1.253485    0.408032
     11          6           0       -2.855580   -1.199286   -0.491129
     12          6           0       -3.800605   -0.066878   -0.165575
     13          6           0       -3.504746    0.857513    0.824879
     14          6           0       -4.376394    1.901069    1.085387
     15          6           0       -5.545518    2.030655    0.356577
     16          6           0       -5.844926    1.109052   -0.633362
     17          6           0       -4.977507    0.063919   -0.893161
     18          6           0       -2.190359   -1.034806   -1.894181
     19          8           0       -0.795432   -0.986725   -1.615604
     20          7           0        1.728971   -1.251482   -0.406714
     21          6           0        4.962836    0.087084    0.913820
     22          6           0        5.829894    1.131923    0.651581
     23          1           0        6.222570    2.849747   -0.564128
     24          1           0        4.164003    2.585158   -1.899348
     25          1           0        2.618839    0.713239   -1.427288
     26          1           0        3.403931   -2.142960    0.416598
     27          1           0        2.484115   -0.099808    2.385664
     28          1           0        2.385925   -1.874619    2.564248
     29          1           0       -3.402009   -2.146930   -0.414758
     30          1           0       -2.593649    0.743474    1.392280
     31          1           0       -4.139450    2.615667    1.859802
     32          1           0       -6.224102    2.846100    0.559028
     33          1           0       -6.757875    1.203474   -1.202866
     34          1           0       -5.212511   -0.656816   -1.663818
     35          1           0       -2.485363   -0.102106   -2.383596
     36          1           0       -2.385441   -1.876703   -2.562872
     37          1           0        5.187322   -0.619003    1.701004
     38          1           0        6.731360    1.241381    1.236512
 ---------------------------------------------------------------------
                    Distance matrix (angstroms):
                    1          2          3          4          5
     1  C    0.000000
     2  C    1.383790   0.000000
     3  C    2.400113   1.384427   0.000000
     4  C    2.777944   2.401886   1.386728   0.000000
     5  C    4.288108   3.796175   2.526660   1.510518   0.000000
     6  C    5.073878   4.730414   3.576846   2.553819   1.561279
     7  O    5.964992   5.346842   4.101180   3.461719   2.356536
     8  C    5.838879   4.977913   3.635488   3.302818   2.193783
     9  C    6.974005   5.947711   4.664392   4.619309   3.613930
    10  N    8.017903   7.041266   5.787069   5.660217   4.585310
    11  C    9.001973   7.899033   6.702681   6.784373   5.796095
    12  C    9.580458   8.472648   7.406942   7.608367   6.784059
    13  C    9.202144   8.192673   7.219513   7.392348   6.692542
    14  C   10.026632   9.036641   8.196632   8.459458   7.890159
    15  C   11.113254  10.043916   9.220652   9.579500   9.001143
    16  C   11.430305  10.275274   9.369970   9.749244   9.071587
    17  C   10.718248   9.545363   8.532034   8.842674   8.054684
    18  C    8.461776   7.242018   6.100582   6.409567   5.585156
    19  O    7.134294   5.949426   4.748717   5.015271   4.222035
    20  N    5.035552   4.172983   2.789116   2.456209   1.443470
    21  C    2.398446   2.766053   2.398049   1.389825   2.502072
    22  C    1.385275   2.395424   2.768846   2.404363   3.779656
    23  H    1.080006   2.141060   3.379376   3.857950   5.368068
    24  H    2.139829   1.080043   2.136593   3.378283   4.661512
    25  H    3.382873   2.147787   1.079338   2.130630   2.718230
    26  H    4.757546   4.418818   3.242945   2.132272   1.096647
    27  H    4.632471   4.447549   3.521183   2.580273   2.218564
    28  H    5.814451   5.625083   4.504533   3.321378   2.229785
    29  H    9.875551   8.800931   7.551013   7.520486   6.394968
    30  H    8.424247   7.505154   6.510009   6.560275   5.854252
    31  H    9.952237   9.060506   8.313489   8.548897   8.083145
    32  H   11.832431  10.787054  10.045591  10.445500   9.939649
    33  H   12.359257  11.169082  10.289268  10.721879  10.053173
    34  H   11.164971   9.948857   8.896773   9.216190   8.369533
    35  H    8.552107   7.269629   6.269557   6.783648   6.164836
    36  H    9.112229   7.885219   6.723189   7.000486   6.105603
    37  H    3.378644   3.847070   3.376933   2.141617   2.688017
    38  H    2.141528   3.375590   3.849011   3.381616   4.637752
                    6          7          8          9         10
     6  C    0.000000
     7  O    1.423346   0.000000
     8  C    2.217598   1.348955   0.000000
     9  C    3.597183   2.402105   1.458943   0.000000
    10  N    4.197048   2.810649   2.408988   1.265293   0.000000
    11  C    5.584608   4.221258   3.613843   2.193806   1.443362
    12  C    6.408985   5.014536   4.619052   3.302641   2.456327
    13  C    6.095515   4.745276   4.656064   3.627269   2.790623
    14  C    7.237920   5.946920   5.941053   4.971722   4.174328
    15  C    8.461610   7.134181   6.973522   5.838343   5.036181
    16  C    8.692027   7.317601   6.950598   5.643732   4.859704
    17  C    7.769219   6.381962   5.892745   4.506770   3.740212
    18  C    5.792704   4.609094   3.597273   2.217562   2.358380
    19  O    4.609492   3.602553   2.402392   1.348993   2.244013
    20  N    2.358425   2.243996   1.265286   2.409184   3.551500
    21  C    3.147026   4.360168   4.500693   5.886756   6.842345
    22  C    4.413438   5.546215   5.639130   6.945698   7.928958
    23  H    6.114037   6.994250   6.875487   7.963477   8.999453
    24  H    5.602307   6.038227   5.538217   6.306740   7.400854
    25  H    3.778102   3.934000   3.172518   3.940607   5.111728
    26  H    2.212023   3.095535   2.917612   4.260175   5.208263
    27  H    1.093812   2.056136   2.958806   4.256426   4.793987
    28  H    1.092712   2.053569   2.951967   4.243694   4.685925
    29  H    6.152740   4.805647   4.260099   2.917627   2.068374
    30  H    5.127981   3.811534   3.923770   3.156567   2.388779
    31  H    7.306147   6.114301   6.295808   5.528542   4.784765
    32  H    9.361466   8.067112   7.963058   6.874979   6.086546
    33  H    9.730110   8.354473   7.927323   6.579223   5.825220
    34  H    8.222912   6.853213   6.216760   4.768479   4.097770
    35  H    6.406426   5.248532   4.256509   2.958758   3.113318
    36  H    6.444445   5.327327   4.244157   2.952159   3.105986
    37  H    3.031491   4.407842   4.758221   6.206642   7.063526
    38  H    5.121049   6.351258   6.571913   7.919393   8.858233
                   11         12         13         14         15
    11  C    0.000000
    12  C    1.510432   0.000000
    13  C    2.526602   1.386734   0.000000
    14  C    3.796114   2.401927   1.384429   0.000000
    15  C    4.287994   2.777950   2.400067   1.383766   0.000000
    16  C    3.779530   2.404347   2.768787   2.395407   1.385271
    17  C    2.501977   1.389816   2.398015   2.766064   2.398444
    18  C    1.561450   2.553009   3.563954   4.719739   5.071494
    19  O    2.356658   3.461180   4.086264   5.334604   5.963002
    20  N    4.585625   5.660181   5.775506   7.031389   8.017058
    21  C    8.047127   8.831008   8.503024   9.515314  10.701098
    22  C    9.065196   9.739167   9.340280  10.244417  11.414672
    23  H    9.940463  10.446511  10.025917  10.768423  11.832434
    24  H    8.098126   8.571712   8.319608   9.072762   9.983560
    25  H    5.873960   6.588609   6.526206   7.527135   8.460170
    26  H    6.394995   7.520265   7.543166   8.794027   9.874984
    27  H    6.164181   6.782891   6.262505   7.263664   8.551671
    28  H    6.104488   6.999501   6.722347   7.884910   9.112232
    29  H    1.096561   2.132507   3.251758   4.425625   4.758341
    30  H    2.718484   2.130804   1.079373   2.147647   3.382757
    31  H    4.661445   3.378315   2.136591   1.080052   2.139849
    32  H    5.367953   3.857956   3.379357   2.141066   1.080006
    33  H    4.637643   3.381599   3.848933   3.375528   2.141472
    34  H    2.687861   2.141550   3.376872   3.847076   3.378667
    35  H    2.218625   2.578899   3.500617   4.429735   4.628365
    36  H    2.229808   3.320420   4.495068   5.616516   5.811774
    37  H    8.356461   9.196292   8.860008   9.909309  11.136518
    38  H   10.042461  10.705124  10.251569  11.128352  12.333652
                   16         17         18         19         20
    16  C    0.000000
    17  C    1.382828   0.000000
    18  C    4.420594   3.158707   0.000000
    19  O    5.554680   4.372131   1.423284   0.000000
    20  N    7.936461   6.851551   4.197696   2.811427   0.000000
    21  C   10.965670  10.103274   7.766061   6.380337   3.740782
    22  C   11.745341  10.969356   8.689078   7.315992   4.859854
    23  H   12.192591  11.546031   9.361419   8.066999   6.085827
    24  H   10.196091   9.536051   7.313145   6.118403   4.783006
    25  H    8.510130   7.642734   5.138291   3.818715   2.386119
    26  H    9.859988   8.765517   6.153356   4.806389   2.068349
    27  H    8.941408   8.151890   6.406403   5.249019   3.113514
    28  H    9.320617   8.362520   6.444009   5.327340   3.105882
    29  H    4.076402   2.756613   2.212150   3.095537   5.208536
    30  H    3.848074   3.371619   3.758424   3.908265   5.089329
    31  H    3.375560   3.846110   5.587244   6.019812   7.384464
    32  H    2.140772   3.376890   6.111526   6.992141   8.998567
    33  H    1.080151   2.136402   5.133227   6.365379   8.870582
    34  H    2.140112   1.081017   3.054398   4.429645   7.079415
    35  H    3.977045   2.908564   1.093839   2.056266   4.794762
    36  H    4.960421   3.643179   1.092701   2.053657   4.687036
    37  H   11.408152  10.512841   8.217568   6.850435   4.099109
    38  H   12.715224  11.959076   9.725191   8.351744   5.825672
                   21         22         23         24         25
    21  C    0.000000
    22  C    1.382840   0.000000
    23  H    3.376917   2.140809   0.000000
    24  H    3.846092   3.375548   2.467897   0.000000
    25  H    3.371525   3.848099   4.277451   2.472742   0.000000
    26  H    2.765956   4.082324   5.816672   5.319437   3.489149
    27  H    2.888825   3.964649   5.601535   5.328451   3.901000
    28  H    3.634922   4.955655   6.842968   6.555521   4.762732
    29  H    8.759370   9.854744  10.845350   9.046613   6.742136
    30  H    7.600016   8.464963   9.273060   7.739023   5.926290
    31  H    9.494221  10.151311  10.644327   9.114794   7.752333
    32  H   11.527603  12.175623  12.497245  10.678222   9.310862
    33  H   11.962514  12.723837  13.100006  11.030936   9.392202
    34  H   10.523084  11.423457  12.011094   9.923955   7.953807
    35  H    8.147663   8.937484   9.372940   7.188181   5.256633
    36  H    8.363075   9.320744  10.021585   7.952590   5.748058
    37  H    1.081023   2.140077   4.270221   4.927105   4.261242
    38  H    2.136401   1.080170   2.467390   4.269740   4.928244
                   26         27         28         29         30
    26  H    0.000000
    27  H    2.982910   0.000000
    28  H    2.391808   1.786474   0.000000
    29  H    6.856529   6.832242   6.515275   0.000000
    30  H    6.727141   5.242292   5.746658   3.503322   0.000000
    31  H    9.034930   7.177879   7.952322   5.329144   2.472485
    32  H   10.844816   9.372727  10.021909   5.817458   4.277328
    33  H   10.820517   9.999524  10.357359   4.807095   4.928201
    34  H    8.987760   8.714735   8.780422   2.656785   4.261336
    35  H    6.833005   6.887783   7.166060   2.982929   3.870913
    36  H    6.516515   7.166445   7.003806   2.391825   4.748885
    37  H    2.674440   2.836486   3.188979   8.977061   7.905388
    38  H    4.816410   4.599829   5.509550  10.811684   9.339591
                   31         32         33         34         35
    31  H    0.000000
    32  H    2.467972   0.000000
    33  H    4.269704   2.467267   0.000000
    34  H    4.927119   4.270220   2.461972   0.000000
    35  H    5.303652   5.597243   4.620933   2.874564   0.000000
    36  H    6.543545   6.840062   5.518631   3.207608   1.786426
    37  H    9.873043  11.980469  12.427454  10.930690   8.707539
    38  H   10.975047  13.072035  13.708080  12.436684   9.992904
                   36         37         38
    36  H    0.000000
    37  H    8.781184   0.000000
    38  H   10.357308   2.461876   0.000000
 Symmetry turned off by external request.
 Stoichiometry    C18H16N2O2
 Framework group  C1[X(C18H16N2O2)]
 Deg. of freedom   108
 Full point group                 C1      NOp   1
 Rotational constants (GHZ):           0.6755014           0.1174076           0.1134324
 Leave Link  202 at Sun Feb 25 22:38:58 2024, MaxMem=  7516192768 cpu:               2.4 elap:               0.1
 (Enter /public/apps/g16-C01//g16/l301.exe)
 Standard basis: def2SVPP (5D, 7F)
 Ernie: Thresh=  0.10000D-02 Tol=  0.10000D-05 Strict=F.
   340 basis functions,   614 primitive gaussians,   362 cartesian basis functions
    77 alpha electrons       77 beta electrons
       nuclear repulsion energy      1638.0511235886 Hartrees.
 IExCor=  402 DFT=T Ex+Corr=B3LYP ExCW=0 ScaHFX=  0.200000
 ScaDFX=  0.800000  0.720000  1.000000  0.810000 ScalE2=  1.000000  1.000000
 IRadAn=      5 IRanWt=     -1 IRanGd=            0 ICorTp=0 IEmpDi=141
 NAtoms=   38 NActive=   38 NUniq=   38 SFac= 1.00D+00 NAtFMM=   60 NAOKFM=F Big=F
 Integral buffers will be    131072 words long.
 Raffenetti 2 integral format.
 Two-electron integral symmetry is turned off.
 R6Disp:  Grimme-D3(BJ) Dispersion energy=       -0.0805642154 Hartrees.
 Nuclear repulsion after empirical dispersion term =     1637.9705593731 Hartrees.
 Leave Link  301 at Sun Feb 25 22:38:58 2024, MaxMem=  7516192768 cpu:               1.6 elap:               0.1
 (Enter /public/apps/g16-C01//g16/l302.exe)
 NPDir=0 NMtPBC=     1 NCelOv=     1 NCel=       1 NClECP=     1 NCelD=      1
         NCelK=      1 NCelE2=     1 NClLst=     1 CellRange=     0.0.
 One-electron integrals computed using PRISM.
   1 Symmetry operations used in ECPInt.
 ECPInt:  NShTT=   13530 NPrTT=   54290 LenC2=   11748 LenP2D=   31419.
 LDataN:  DoStor=T MaxTD1= 4 Len=   56
 NBasis=   340 RedAO= T EigKep=  2.74D-04  NBF=   340
 NBsUse=   340 1.00D-06 EigRej= -1.00D+00 NBFU=   340
 Precomputing XC quadrature grid using
 IXCGrd= 4 IRadAn=           5 IRanWt=          -1 IRanGd=           0 AccXCQ= 0.00D+00.
 Generated NRdTot=       0 NPtTot=           0 NUsed=           0 NTot=          32
 NSgBfM=   353   353   353   353   353 MxSgAt=    38 MxSgA2=    38.
 Leave Link  302 at Sun Feb 25 22:38:58 2024, MaxMem=  7516192768 cpu:              11.7 elap:               0.3
 (Enter /public/apps/g16-C01//g16/l303.exe)
 DipDrv:  MaxL=1.
 Leave Link  303 at Sun Feb 25 22:38:59 2024, MaxMem=  7516192768 cpu:               4.6 elap:               0.1
 (Enter /public/apps/g16-C01//g16/l401.exe)
 ExpMin= 1.22D-01 ExpMax= 2.27D+03 ExpMxC= 3.41D+02 IAcc=3 IRadAn=         5 AccDes= 0.00D+00
 Harris functional with IExCor=  402 and IRadAn=       5 diagonalized for initial guess.
 HarFok:  IExCor=  402 AccDes= 0.00D+00 IRadAn=         5 IDoV= 1 UseB2=F ITyADJ=14
 ICtDFT=  3500011 ScaDFX=  1.000000  1.000000  1.000000  1.000000
 FoFCou: FMM=F IPFlag=           0 FMFlag=      100000 FMFlg1=           0
         NFxFlg=           0 DoJE=T BraDBF=F KetDBF=T FulRan=T
         wScrn=  0.000000 ICntrl=       500 IOpCl=  0 I1Cent=   200000004 NGrid=           0
         NMat0=    1 NMatS0=      1 NMatT0=    0 NMatD0=    1 NMtDS0=    0 NMtDT0=    0
 Symmetry not used in FoFCou.
 Harris En= -954.766159445070    
 JPrj=0 DoOrth=F DoCkMO=F.
 Leave Link  401 at Sun Feb 25 22:38:59 2024, MaxMem=  7516192768 cpu:              24.1 elap:               0.7
 (Enter /public/apps/g16-C01//g16/l502.exe)
 Two-electron integral symmetry not used.
 Closed shell SCF:
 Using DIIS extrapolation, IDIIS=  1040.
 NGot=  7516192768 LenX=  7515912172 LenY=  7515780687
 Requested convergence on RMS density matrix=1.00D-08 within 128 cycles.
 Requested convergence on MAX density matrix=1.00D-06.
 Requested convergence on             energy=1.00D-06.
 No special actions if energy rises.
 Fock matrices will be formed incrementally for  20 cycles.
 Integral accuracy reduced to 1.0D-05 until final iterations.

 Cycle   1  Pass 0  IDiag  1:
 FoFJK:  IHMeth= 1 ICntrl=       0 DoSepK=F KAlg= 0 I1Cent=           0 FoldK=F
 IRaf= 790000000 NMat=       1 IRICut=       1 DoRegI=T DoRafI=F ISym2E= 0 IDoP0=0 IntGTp=1.
 FoFCou: FMM=F IPFlag=           0 FMFlag=      100000 FMFlg1=           0
         NFxFlg=           0 DoJE=F BraDBF=F KetDBF=F FulRan=T
         wScrn=  0.000000 ICntrl=         0 IOpCl=  0 I1Cent=           0 NGrid=           0
         NMat0=    1 NMatS0=      1 NMatT0=    0 NMatD0=    1 NMtDS0=    0 NMtDT0=    0
 Symmetry not used in FoFCou.
 E= -954.401025113213    
 DIIS: error= 4.19D-02 at cycle   1 NSaved=   1.
 NSaved= 1 IEnMin= 1 EnMin= -954.401025113213     IErMin= 1 ErrMin= 4.19D-02
 ErrMax= 4.19D-02  0.00D+00 EMaxC= 1.00D-01 BMatC= 3.70D-01 BMatP= 3.70D-01
 IDIUse=3 WtCom= 5.81D-01 WtEn= 4.19D-01
 Coeff-Com:  0.100D+01
 Coeff-En:   0.100D+01
 Coeff:      0.100D+01
 Gap=     0.291 Goal=   None    Shift=    0.000
 GapD=    0.291 DampG=1.000 DampE=0.500 DampFc=0.5000 IDamp=-1.
 Damping current iteration by 5.00D-01
 RMSDP=5.98D-03 MaxDP=1.47D-01              OVMax= 2.12D-01

 Cycle   2  Pass 0  IDiag  1:
 RMSU=  2.80D-03    CP:  9.52D-01
 E= -954.571226259191     Delta-E=       -0.170201145978 Rises=F Damp=T
 DIIS: error= 6.66D-03 at cycle   2 NSaved=   2.
 NSaved= 2 IEnMin= 2 EnMin= -954.571226259191     IErMin= 2 ErrMin= 6.66D-03
 ErrMax= 6.66D-03  0.00D+00 EMaxC= 1.00D-01 BMatC= 3.27D-02 BMatP= 3.70D-01
 IDIUse=3 WtCom= 9.33D-01 WtEn= 6.66D-02
 Coeff-Com:  0.104D+00 0.896D+00
 Coeff-En:   0.151D+00 0.849D+00
 Coeff:      0.107D+00 0.893D+00
 Gap=     0.202 Goal=   None    Shift=    0.000
 RMSDP=1.81D-03 MaxDP=6.19D-02 DE=-1.70D-01 OVMax= 1.97D-01

 Cycle   3  Pass 0  IDiag  1:
 RMSU=  1.71D-03    CP:  9.27D-01  1.02D+00
 E= -954.776849588639     Delta-E=       -0.205623329448 Rises=F Damp=F
 DIIS: error= 8.08D-03 at cycle   3 NSaved=   3.
 NSaved= 3 IEnMin= 3 EnMin= -954.776849588639     IErMin= 2 ErrMin= 6.66D-03
 ErrMax= 8.08D-03  0.00D+00 EMaxC= 1.00D-01 BMatC= 3.99D-02 BMatP= 3.27D-02
 IDIUse=3 WtCom= 1.00D-01 WtEn= 9.00D-01
 Coeff-Com: -0.236D-02 0.529D+00 0.474D+00
 Coeff-En:   0.000D+00 0.000D+00 0.100D+01
 Coeff:     -0.236D-03 0.529D-01 0.947D+00
 Gap=     0.184 Goal=   None    Shift=    0.000
 RMSDP=1.74D-03 MaxDP=9.59D-02 DE=-2.06D-01 OVMax= 1.97D-01

 Cycle   4  Pass 0  IDiag  1:
 RMSU=  1.24D-03    CP:  9.29D-01  1.22D+00  3.71D-01
 E= -954.673752456945     Delta-E=        0.103097131694 Rises=F Damp=F
 DIIS: error= 2.01D-02 at cycle   4 NSaved=   4.
 NSaved= 4 IEnMin= 3 EnMin= -954.776849588639     IErMin= 2 ErrMin= 6.66D-03
 ErrMax= 2.01D-02  0.00D+00 EMaxC= 1.00D-01 BMatC= 1.57D-01 BMatP= 3.27D-02
 IDIUse=2 WtCom= 0.00D+00 WtEn= 1.00D+00
 Coeff-En:   0.000D+00 0.000D+00 0.740D+00 0.260D+00
 Coeff:      0.000D+00 0.000D+00 0.740D+00 0.260D+00
 Gap=     0.196 Goal=   None    Shift=    0.000
 RMSDP=9.10D-04 MaxDP=4.93D-02 DE= 1.03D-01 OVMax= 1.00D-01

 Cycle   5  Pass 0  IDiag  1:
 RMSU=  2.14D-04    CP:  9.27D-01  1.11D+00  6.92D-01  5.03D-01
 E= -954.806035628568     Delta-E=       -0.132283171623 Rises=F Damp=F
 DIIS: error= 3.55D-03 at cycle   5 NSaved=   5.
 NSaved= 5 IEnMin= 5 EnMin= -954.806035628568     IErMin= 5 ErrMin= 3.55D-03
 ErrMax= 3.55D-03  0.00D+00 EMaxC= 1.00D-01 BMatC= 8.19D-03 BMatP= 3.27D-02
 IDIUse=3 WtCom= 9.65D-01 WtEn= 3.55D-02
 Coeff-Com:  0.552D-02 0.165D-02 0.294D+00-0.125D-01 0.711D+00
 Coeff-En:   0.000D+00 0.000D+00 0.211D+00 0.000D+00 0.789D+00
 Coeff:      0.532D-02 0.159D-02 0.291D+00-0.120D-01 0.714D+00
 Gap=     0.202 Goal=   None    Shift=    0.000
 RMSDP=2.78D-04 MaxDP=1.58D-02 DE=-1.32D-01 OVMax= 2.82D-02

 Cycle   6  Pass 0  IDiag  1:
 RMSU=  8.55D-05    CP:  9.26D-01  1.08D+00  7.87D-01  3.49D-01  8.85D-01
 E= -954.813321333318     Delta-E=       -0.007285704749 Rises=F Damp=F
 DIIS: error= 5.18D-04 at cycle   6 NSaved=   6.
 NSaved= 6 IEnMin= 6 EnMin= -954.813321333318     IErMin= 6 ErrMin= 5.18D-04
 ErrMax= 5.18D-04  0.00D+00 EMaxC= 1.00D-01 BMatC= 9.19D-05 BMatP= 8.19D-03
 IDIUse=3 WtCom= 9.95D-01 WtEn= 5.18D-03
 Coeff-Com:  0.997D-03-0.460D-02 0.119D+00-0.375D-01 0.440D+00 0.483D+00
 Coeff-En:   0.000D+00 0.000D+00 0.000D+00 0.000D+00 0.000D+00 0.100D+01
 Coeff:      0.992D-03-0.457D-02 0.118D+00-0.373D-01 0.437D+00 0.485D+00
 Gap=     0.203 Goal=   None    Shift=    0.000
 RMSDP=4.06D-05 MaxDP=9.10D-04 DE=-7.29D-03 OVMax= 2.59D-03

 Cycle   7  Pass 0  IDiag  1:
 RMSU=  1.84D-05    CP:  9.26D-01  1.08D+00  7.90D-01  3.54D-01  8.75D-01
                    CP:  5.93D-01
 E= -954.813408208407     Delta-E=       -0.000086875089 Rises=F Damp=F
 DIIS: error= 1.14D-04 at cycle   7 NSaved=   7.
 NSaved= 7 IEnMin= 7 EnMin= -954.813408208407     IErMin= 7 ErrMin= 1.14D-04
 ErrMax= 1.14D-04  0.00D+00 EMaxC= 1.00D-01 BMatC= 3.88D-06 BMatP= 9.19D-05
 IDIUse=3 WtCom= 9.99D-01 WtEn= 1.14D-03
 Coeff-Com:  0.315D-03-0.242D-02 0.521D-01-0.218D-01 0.214D+00 0.266D+00
 Coeff-Com:  0.492D+00
 Coeff-En:   0.000D+00 0.000D+00 0.000D+00 0.000D+00 0.000D+00 0.000D+00
 Coeff-En:   0.100D+01
 Coeff:      0.314D-03-0.241D-02 0.520D-01-0.218D-01 0.213D+00 0.266D+00
 Coeff:      0.493D+00
 Gap=     0.203 Goal=   None    Shift=    0.000
 RMSDP=8.87D-06 MaxDP=2.00D-04 DE=-8.69D-05 OVMax= 5.79D-04

 Initial convergence to 1.0D-05 achieved.  Increase integral accuracy.
 Cycle   8  Pass 1  IDiag  1:
 E= -954.813418935912     Delta-E=       -0.000010727505 Rises=F Damp=F
 DIIS: error= 1.48D-04 at cycle   1 NSaved=   1.
 NSaved= 1 IEnMin= 1 EnMin= -954.813418935912     IErMin= 1 ErrMin= 1.48D-04
 ErrMax= 1.48D-04  0.00D+00 EMaxC= 1.00D-01 BMatC= 2.41D-06 BMatP= 2.41D-06
 IDIUse=3 WtCom= 9.99D-01 WtEn= 1.48D-03
 Coeff-Com:  0.100D+01
 Coeff-En:   0.100D+01
 Coeff:      0.100D+01
 Gap=     0.203 Goal=   None    Shift=    0.000
 RMSDP=8.87D-06 MaxDP=2.00D-04 DE=-1.07D-05 OVMax= 4.68D-04

 Cycle   9  Pass 1  IDiag  1:
 RMSU=  9.05D-05    CP:  1.00D+00
 E= -954.813420295519     Delta-E=       -0.000001359607 Rises=F Damp=F
 DIIS: error= 7.73D-05 at cycle   2 NSaved=   2.
 NSaved= 2 IEnMin= 2 EnMin= -954.813420295519     IErMin= 2 ErrMin= 7.73D-05
 ErrMax= 7.73D-05  0.00D+00 EMaxC= 1.00D-01 BMatC= 1.32D-06 BMatP= 2.41D-06
 IDIUse=1 WtCom= 1.00D+00 WtEn= 0.00D+00
 Coeff-Com:  0.392D+00 0.608D+00
 Coeff:      0.392D+00 0.608D+00
 Gap=     0.203 Goal=   None    Shift=    0.000
 RMSDP=7.31D-06 MaxDP=2.23D-04 DE=-1.36D-06 OVMax= 5.37D-04

 Cycle  10  Pass 1  IDiag  1:
 RMSU=  7.30D-06    CP:  1.00D+00  1.00D+00
 E= -954.813420674839     Delta-E=       -0.000000379320 Rises=F Damp=F
 DIIS: error= 6.56D-05 at cycle   3 NSaved=   3.
 NSaved= 3 IEnMin= 3 EnMin= -954.813420674839     IErMin= 3 ErrMin= 6.56D-05
 ErrMax= 6.56D-05  0.00D+00 EMaxC= 1.00D-01 BMatC= 9.50D-07 BMatP= 1.32D-06
 IDIUse=1 WtCom= 1.00D+00 WtEn= 0.00D+00
 Coeff-Com:  0.563D-02 0.457D+00 0.537D+00
 Coeff:      0.563D-02 0.457D+00 0.537D+00
 Gap=     0.203 Goal=   None    Shift=    0.000
 RMSDP=3.61D-06 MaxDP=1.06D-04 DE=-3.79D-07 OVMax= 2.56D-04

 Cycle  11  Pass 1  IDiag  1:
 RMSU=  9.28D-07    CP:  1.00D+00  1.01D+00  5.34D-01
 E= -954.813421660881     Delta-E=       -0.000000986042 Rises=F Damp=F
 DIIS: error= 1.43D-05 at cycle   4 NSaved=   4.
 NSaved= 4 IEnMin= 4 EnMin= -954.813421660881     IErMin= 4 ErrMin= 1.43D-05
 ErrMax= 1.43D-05  0.00D+00 EMaxC= 1.00D-01 BMatC= 3.51D-08 BMatP= 9.50D-07
 IDIUse=1 WtCom= 1.00D+00 WtEn= 0.00D+00
 Coeff-Com: -0.415D-02 0.288D+00 0.351D+00 0.365D+00
 Coeff:     -0.415D-02 0.288D+00 0.351D+00 0.365D+00
 Gap=     0.203 Goal=   None    Shift=    0.000
 RMSDP=5.36D-07 MaxDP=2.92D-05 DE=-9.86D-07 OVMax= 5.99D-05

 Cycle  12  Pass 1  IDiag  1:
 RMSU=  2.34D-07    CP:  1.00D+00  1.01D+00  5.49D-01  4.94D-01
 E= -954.813421688018     Delta-E=       -0.000000027138 Rises=F Damp=F
 DIIS: error= 1.06D-06 at cycle   5 NSaved=   5.
 NSaved= 5 IEnMin= 5 EnMin= -954.813421688018     IErMin= 5 ErrMin= 1.06D-06
 ErrMax= 1.06D-06  0.00D+00 EMaxC= 1.00D-01 BMatC= 4.00D-10 BMatP= 3.51D-08
 IDIUse=1 WtCom= 1.00D+00 WtEn= 0.00D+00
 Coeff-Com: -0.236D-02 0.136D+00 0.167D+00 0.193D+00 0.507D+00
 Coeff:     -0.236D-02 0.136D+00 0.167D+00 0.193D+00 0.507D+00
 Gap=     0.203 Goal=   None    Shift=    0.000
 RMSDP=1.05D-07 MaxDP=3.36D-06 DE=-2.71D-08 OVMax= 6.38D-06

 Cycle  13  Pass 1  IDiag  1:
 RMSU=  8.02D-08    CP:  1.00D+00  1.01D+00  5.50D-01  4.76D-01  7.25D-01
 E= -954.813421688340     Delta-E=       -0.000000000321 Rises=F Damp=F
 DIIS: error= 2.88D-07 at cycle   6 NSaved=   6.
 NSaved= 6 IEnMin= 6 EnMin= -954.813421688340     IErMin= 6 ErrMin= 2.88D-07
 ErrMax= 2.88D-07  0.00D+00 EMaxC= 1.00D-01 BMatC= 4.63D-11 BMatP= 4.00D-10
 IDIUse=1 WtCom= 1.00D+00 WtEn= 0.00D+00
 Coeff-Com: -0.945D-03 0.498D-01 0.607D-01 0.759D-01 0.294D+00 0.521D+00
 Coeff:     -0.945D-03 0.498D-01 0.607D-01 0.759D-01 0.294D+00 0.521D+00
 Gap=     0.203 Goal=   None    Shift=    0.000
 RMSDP=2.61D-08 MaxDP=1.14D-06 DE=-3.21D-10 OVMax= 1.73D-06

 Cycle  14  Pass 1  IDiag  1:
 RMSU=  2.08D-08    CP:  1.00D+00  1.01D+00  5.48D-01  4.77D-01  7.58D-01
                    CP:  8.71D-01
 E= -954.813421688395     Delta-E=       -0.000000000055 Rises=F Damp=F
 DIIS: error= 6.53D-08 at cycle   7 NSaved=   7.
 NSaved= 7 IEnMin= 7 EnMin= -954.813421688395     IErMin= 7 ErrMin= 6.53D-08
 ErrMax= 6.53D-08  0.00D+00 EMaxC= 1.00D-01 BMatC= 3.04D-12 BMatP= 4.63D-11
 IDIUse=1 WtCom= 1.00D+00 WtEn= 0.00D+00
 Coeff-Com: -0.152D-03 0.669D-02 0.809D-02 0.127D-01 0.743D-01 0.253D+00
 Coeff-Com:  0.646D+00
 Coeff:     -0.152D-03 0.669D-02 0.809D-02 0.127D-01 0.743D-01 0.253D+00
 Coeff:      0.646D+00
 Gap=     0.203 Goal=   None    Shift=    0.000
 RMSDP=8.32D-09 MaxDP=2.58D-07 DE=-5.55D-11 OVMax= 3.57D-07

 SCF Done:  E(RB3LYP) =  -954.813421688     A.U. after   14 cycles
            NFock= 14  Conv=0.83D-08     -V/T= 2.0089
 KE= 9.463881139697D+02 PE=-5.494414758988D+03 EE= 1.955242663957D+03
 Leave Link  502 at Sun Feb 25 22:39:10 2024, MaxMem=  7516192768 cpu:             403.4 elap:              10.2
 (Enter /public/apps/g16-C01//g16/l601.exe)
 Copying SCF densities to generalized density rwf, IOpCl= 0 IROHF=0.

 **********************************************************************

            Population analysis using the SCF Density.

 **********************************************************************

 Alpha  occ. eigenvalues --  -19.17640 -19.17635 -14.31727 -14.31722 -10.28854
 Alpha  occ. eigenvalues --  -10.28838 -10.24329 -10.24327 -10.22737 -10.22732
 Alpha  occ. eigenvalues --  -10.19411 -10.19409 -10.18667 -10.18667 -10.18623
 Alpha  occ. eigenvalues --  -10.18623 -10.18396 -10.18390 -10.18349 -10.18345
 Alpha  occ. eigenvalues --  -10.17952 -10.17938  -1.10510  -1.09287  -0.92068
 Alpha  occ. eigenvalues --   -0.91563  -0.85860  -0.85628  -0.80846  -0.77723
 Alpha  occ. eigenvalues --   -0.74441  -0.74340  -0.74067  -0.72495  -0.66103
 Alpha  occ. eigenvalues --   -0.64795  -0.64343  -0.60946  -0.60432  -0.58858
 Alpha  occ. eigenvalues --   -0.58031  -0.55418  -0.53363  -0.53032  -0.52979
 Alpha  occ. eigenvalues --   -0.50354  -0.50069  -0.47926  -0.47353  -0.46856
 Alpha  occ. eigenvalues --   -0.45661  -0.45383  -0.44188  -0.43603  -0.42741
 Alpha  occ. eigenvalues --   -0.42650  -0.41965  -0.41679  -0.41356  -0.40390
 Alpha  occ. eigenvalues --   -0.38624  -0.38495  -0.36507  -0.36144  -0.35891
 Alpha  occ. eigenvalues --   -0.34933  -0.34855  -0.34843  -0.34797  -0.28925
 Alpha  occ. eigenvalues --   -0.27983  -0.26671  -0.25983  -0.25893  -0.25817
 Alpha  occ. eigenvalues --   -0.25243  -0.25146
 Alpha virt. eigenvalues --   -0.04886  -0.01230  -0.01211  -0.00518  -0.00504
 Alpha virt. eigenvalues --    0.05735   0.06068   0.06904   0.06917   0.08747
 Alpha virt. eigenvalues --    0.08842   0.09097   0.10454   0.10835   0.10932
 Alpha virt. eigenvalues --    0.11218   0.12764   0.12995   0.13653   0.13748
 Alpha virt. eigenvalues --    0.14200   0.15104   0.15681   0.15908   0.16484
 Alpha virt. eigenvalues --    0.17002   0.17811   0.19431   0.22265   0.22700
 Alpha virt. eigenvalues --    0.25462   0.25927   0.26843   0.28221   0.29254
 Alpha virt. eigenvalues --    0.29433   0.30266   0.30298   0.31652   0.32186
 Alpha virt. eigenvalues --    0.32480   0.33868   0.35665   0.35926   0.36602
 Alpha virt. eigenvalues --    0.37707   0.39433   0.40568   0.40693   0.42037
 Alpha virt. eigenvalues --    0.42084   0.43336   0.43673   0.43868   0.44902
 Alpha virt. eigenvalues --    0.46444   0.46542   0.47315   0.47334   0.47800
 Alpha virt. eigenvalues --    0.48221   0.49150   0.49200   0.49659   0.50073
 Alpha virt. eigenvalues --    0.50921   0.51557   0.52640   0.52986   0.53349
 Alpha virt. eigenvalues --    0.53791   0.55500   0.55525   0.56810   0.57552
 Alpha virt. eigenvalues --    0.58704   0.58765   0.59953   0.60434   0.60749
 Alpha virt. eigenvalues --    0.62563   0.62664   0.63869   0.64446   0.64691
 Alpha virt. eigenvalues --    0.65805   0.65883   0.66616   0.66987   0.67418
 Alpha virt. eigenvalues --    0.68209   0.68237   0.68547   0.68672   0.69084
 Alpha virt. eigenvalues --    0.69543   0.70019   0.70174   0.70858   0.71447
 Alpha virt. eigenvalues --    0.71837   0.73109   0.73340   0.73632   0.74190
 Alpha virt. eigenvalues --    0.74834   0.74922   0.75527   0.76600   0.76699
 Alpha virt. eigenvalues --    0.77203   0.77526   0.80009   0.80978   0.81301
 Alpha virt. eigenvalues --    0.82293   0.84104   0.84396   0.85804   0.86348
 Alpha virt. eigenvalues --    0.87705   0.88915   0.89168   0.92178   0.93494
 Alpha virt. eigenvalues --    0.94926   0.96355   0.97178   0.98029   1.00952
 Alpha virt. eigenvalues --    1.04150   1.06626   1.07313   1.09589   1.10708
 Alpha virt. eigenvalues --    1.12484   1.13100   1.13912   1.17174   1.20218
 Alpha virt. eigenvalues --    1.25383   1.25865   1.27479   1.27929   1.29796
 Alpha virt. eigenvalues --    1.30545   1.31847   1.36217   1.37550   1.41696
 Alpha virt. eigenvalues --    1.42578   1.44582   1.45305   1.47029   1.48034
 Alpha virt. eigenvalues --    1.48090   1.48603   1.48908   1.50426   1.50592
 Alpha virt. eigenvalues --    1.51910   1.52248   1.53003   1.56513   1.58302
 Alpha virt. eigenvalues --    1.63530   1.64179   1.64875   1.67485   1.69570
 Alpha virt. eigenvalues --    1.71695   1.74242   1.75872   1.76879   1.76940
 Alpha virt. eigenvalues --    1.78064   1.79239   1.81744   1.81804   1.82878
 Alpha virt. eigenvalues --    1.84193   1.85876   1.86541   1.87969   1.88100
 Alpha virt. eigenvalues --    1.90644   1.91368   1.92650   1.93229   1.97651
 Alpha virt. eigenvalues --    1.97974   1.98556   1.99141   1.99752   2.03823
 Alpha virt. eigenvalues --    2.04055   2.06070   2.07138   2.07622   2.08767
 Alpha virt. eigenvalues --    2.08949   2.09590   2.13053   2.13517   2.14307
 Alpha virt. eigenvalues --    2.14465   2.15955   2.16624   2.21308   2.21468
 Alpha virt. eigenvalues --    2.23045   2.27509   2.27654   2.30186   2.30295
 Alpha virt. eigenvalues --    2.31375   2.31662   2.34297   2.36209   2.38070
 Alpha virt. eigenvalues --    2.42926   2.44017   2.46947   2.47688   2.49172
 Alpha virt. eigenvalues --    2.51471   2.52499   2.53058   2.56818   2.61476
 Alpha virt. eigenvalues --    2.61937   2.64326   2.66911   2.66949   2.68678
 Alpha virt. eigenvalues --    2.71703   2.71885   2.73269   2.73548   2.74244
 Alpha virt. eigenvalues --    2.76798   2.77270   2.78901   2.83005   2.85310
 Alpha virt. eigenvalues --    2.86940   2.89994   2.93813   2.94236   2.95411
 Alpha virt. eigenvalues --    3.00065   3.05562   3.05834   3.09978   3.16271
 Alpha virt. eigenvalues --    3.21886   3.25068   3.29121   3.40201   3.41071
 Alpha virt. eigenvalues --    3.41286   3.57587   3.68664
          Condensed to atoms (all electrons):
               1          2          3          4          5          6
     1  C    5.288084   0.159320   0.169132  -0.208165  -0.001325   0.000088
     2  C    0.159320   5.281568   0.144450   0.167686   0.021523   0.000003
     3  C    0.169132   0.144450   5.341926   0.240067  -0.113649   0.007504
     4  C   -0.208165   0.167686   0.240067   5.364821   0.277209  -0.057413
     5  C   -0.001325   0.021523  -0.113649   0.277209   5.086508   0.348325
     6  C    0.000088   0.000003   0.007504  -0.057413   0.348325   4.772761
     7  O   -0.000000   0.000009   0.000248   0.001730  -0.062440   0.333781
     8  C    0.000000  -0.000150   0.001191   0.005400  -0.073297  -0.119091
     9  C    0.000000  -0.000022  -0.000963   0.000547   0.014690   0.004198
    10  N    0.000000   0.000000  -0.000003  -0.000004  -0.000259  -0.000075
    11  C    0.000000  -0.000000  -0.000001  -0.000000   0.000047   0.000003
    12  C   -0.000000  -0.000000  -0.000000  -0.000000  -0.000001  -0.000001
    13  C   -0.000000   0.000000   0.000000  -0.000000  -0.000001   0.000000
    14  C   -0.000000   0.000000   0.000000  -0.000000  -0.000000   0.000000
    15  C    0.000000  -0.000000  -0.000000  -0.000000   0.000000  -0.000000
    16  C   -0.000000   0.000000  -0.000000  -0.000000  -0.000000  -0.000000
    17  C    0.000000  -0.000000  -0.000000   0.000000   0.000000   0.000000
    18  C   -0.000000   0.000000   0.000000  -0.000001   0.000003   0.000023
    19  O    0.000000  -0.000001  -0.000152   0.000032  -0.000258  -0.000096
    20  N    0.000033   0.000465   0.006075  -0.080094   0.396649  -0.054839
    21  C    0.167363  -0.201807   0.115623   0.169368  -0.124346  -0.009256
    22  C    0.168277   0.172534  -0.186720   0.178333   0.013961  -0.000490
    23  H    0.442094  -0.084717   0.016168  -0.001919   0.000043   0.000001
    24  H   -0.088444   0.444683  -0.086211   0.017687  -0.000427   0.000002
    25  H    0.015317  -0.089178   0.434383  -0.064892  -0.040424   0.002782
    26  H    0.000041  -0.000543   0.005464  -0.011503   0.315029  -0.022282
    27  H   -0.000127  -0.000304   0.002440  -0.001180  -0.013555   0.352458
    28  H    0.000002   0.000010  -0.000620   0.003320   0.000409   0.340622
    29  H   -0.000000   0.000000   0.000000   0.000000  -0.000001   0.000001
    30  H    0.000000  -0.000000  -0.000000   0.000001   0.000001  -0.000001
    31  H    0.000000  -0.000000   0.000000  -0.000000   0.000000   0.000000
    32  H   -0.000000   0.000000   0.000000   0.000000  -0.000000   0.000000
    33  H   -0.000000  -0.000000   0.000000   0.000000   0.000000   0.000000
    34  H    0.000000  -0.000000   0.000000   0.000000   0.000000  -0.000000
    35  H   -0.000000   0.000000   0.000002  -0.000000   0.000002  -0.000001
    36  H    0.000000  -0.000000  -0.000000   0.000000  -0.000002  -0.000000
    37  H    0.016182  -0.002232   0.017569  -0.093099  -0.018769   0.002482
    38  H   -0.086808   0.016601  -0.002096   0.017741  -0.000410  -0.000005
               7          8          9         10         11         12
     1  C   -0.000000   0.000000   0.000000   0.000000   0.000000  -0.000000
     2  C    0.000009  -0.000150  -0.000022   0.000000  -0.000000  -0.000000
     3  C    0.000248   0.001191  -0.000963  -0.000003  -0.000001  -0.000000
     4  C    0.001730   0.005400   0.000547  -0.000004  -0.000000  -0.000000
     5  C   -0.062440  -0.073297   0.014690  -0.000259   0.000047  -0.000001
     6  C    0.333781  -0.119091   0.004198  -0.000075   0.000003  -0.000001
     7  O    7.821620   0.440572  -0.110654   0.005098  -0.000259   0.000033
     8  C    0.440572   5.298784  -0.045712  -0.112411   0.014792   0.000537
     9  C   -0.110654  -0.045712   5.299195   0.569975  -0.071771   0.004718
    10  N    0.005098  -0.112411   0.569975   6.493456   0.395513  -0.079600
    11  C   -0.000259   0.014792  -0.071771   0.395513   5.084212   0.279258
    12  C    0.000033   0.000537   0.004718  -0.079600   0.279258   5.359539
    13  C   -0.000156  -0.000982   0.001519   0.005688  -0.113016   0.241108
    14  C   -0.000001  -0.000022  -0.000150   0.000501   0.021216   0.167645
    15  C    0.000000   0.000000   0.000001   0.000029  -0.001266  -0.208002
    16  C   -0.000000  -0.000001  -0.000011  -0.000242   0.013853   0.178101
    17  C    0.000000   0.000037   0.000436   0.006310  -0.123017   0.169306
    18  C   -0.000096   0.004158  -0.119317  -0.054665   0.346781  -0.056284
    19  O    0.000474  -0.110352   0.439923  -0.095427  -0.062428   0.001677
    20  N   -0.095591   0.570998  -0.112466   0.002151  -0.000262  -0.000004
    21  C    0.000017   0.000430   0.000036   0.000000   0.000000   0.000000
    22  C    0.000004  -0.000013  -0.000001  -0.000000  -0.000000  -0.000000
    23  H   -0.000000   0.000000  -0.000000   0.000000  -0.000000   0.000000
    24  H   -0.000000   0.000004   0.000000  -0.000000   0.000000  -0.000000
    25  H    0.000049   0.001097  -0.000927   0.000015   0.000000   0.000001
    26  H    0.003383   0.004961  -0.000961   0.000014  -0.000001   0.000000
    27  H   -0.026711   0.008190  -0.000281   0.000016   0.000002  -0.000000
    28  H   -0.029088   0.007931   0.000527  -0.000028  -0.000002   0.000000
    29  H    0.000003  -0.000964   0.004832  -0.024811   0.316168  -0.012460
    30  H    0.001132  -0.000910   0.001129   0.028816  -0.040116  -0.065017
    31  H   -0.000000   0.000000   0.000004  -0.000023  -0.000426   0.017685
    32  H    0.000000  -0.000000   0.000000   0.000000   0.000043  -0.001913
    33  H   -0.000000   0.000000  -0.000000   0.000003  -0.000410   0.017755
    34  H    0.000000  -0.000000   0.000005   0.000245  -0.018523  -0.093258
    35  H    0.000000  -0.000281   0.008231   0.002008  -0.013587  -0.001052
    36  H    0.000002   0.000530   0.007942   0.002145   0.000319   0.003282
    37  H   -0.000001   0.000007  -0.000000   0.000000   0.000000   0.000000
    38  H   -0.000000  -0.000000   0.000000  -0.000000   0.000000   0.000000
              13         14         15         16         17         18
     1  C   -0.000000  -0.000000   0.000000  -0.000000   0.000000  -0.000000
     2  C    0.000000   0.000000  -0.000000   0.000000  -0.000000   0.000000
     3  C    0.000000   0.000000  -0.000000  -0.000000  -0.000000   0.000000
     4  C   -0.000000  -0.000000  -0.000000  -0.000000   0.000000  -0.000001
     5  C   -0.000001  -0.000000   0.000000  -0.000000   0.000000   0.000003
     6  C    0.000000   0.000000  -0.000000  -0.000000   0.000000   0.000023
     7  O   -0.000156  -0.000001   0.000000  -0.000000   0.000000  -0.000096
     8  C   -0.000982  -0.000022   0.000000  -0.000001   0.000037   0.004158
     9  C    0.001519  -0.000150   0.000001  -0.000011   0.000436  -0.119317
    10  N    0.005688   0.000501   0.000029  -0.000242   0.006310  -0.054665
    11  C   -0.113016   0.021216  -0.001266   0.013853  -0.123017   0.346781
    12  C    0.241108   0.167645  -0.208002   0.178101   0.169306  -0.056284
    13  C    5.340542   0.146925   0.168635  -0.186250   0.114654   0.006600
    14  C    0.146925   5.278130   0.159972   0.172074  -0.201080   0.000026
    15  C    0.168635   0.159972   5.287877   0.168405   0.167274   0.000083
    16  C   -0.186250   0.172074   0.168405   5.209977   0.194950  -0.000470
    17  C    0.114654  -0.201080   0.167274   0.194950   5.413276  -0.009414
    18  C    0.006600   0.000026   0.000083  -0.000470  -0.009414   4.773818
    19  O    0.000280   0.000008  -0.000000   0.000004   0.000025   0.333862
    20  N   -0.000003   0.000000   0.000000  -0.000000  -0.000000  -0.000074
    21  C   -0.000000  -0.000000   0.000000   0.000000  -0.000000   0.000000
    22  C   -0.000000   0.000000  -0.000000  -0.000000   0.000000  -0.000000
    23  H    0.000000   0.000000  -0.000000   0.000000  -0.000000   0.000000
    24  H    0.000000  -0.000000   0.000000  -0.000000  -0.000000   0.000000
    25  H   -0.000000  -0.000000   0.000000   0.000000   0.000000  -0.000001
    26  H    0.000000   0.000000  -0.000000   0.000000  -0.000000   0.000001
    27  H    0.000002   0.000000  -0.000000   0.000000  -0.000000  -0.000001
    28  H   -0.000000  -0.000000   0.000000  -0.000000   0.000000  -0.000000
    29  H    0.005900  -0.000528   0.000035  -0.000009  -0.006512  -0.022322
    30  H    0.433860  -0.088849   0.015293  -0.002465   0.018468   0.002783
    31  H   -0.086202   0.444715  -0.088464   0.016650  -0.002021   0.000002
    32  H    0.016170  -0.084706   0.442064  -0.085589   0.016730   0.000001
    33  H   -0.002103   0.016614  -0.086847   0.443337  -0.087428  -0.000004
    34  H    0.017569  -0.002225   0.016181  -0.080682   0.441490   0.002254
    35  H    0.002564  -0.000316  -0.000125  -0.000097  -0.001122   0.352267
    36  H   -0.000592   0.000009   0.000003   0.000030   0.002335   0.340701
    37  H    0.000000  -0.000000   0.000000   0.000000  -0.000000  -0.000000
    38  H    0.000000  -0.000000  -0.000000   0.000000  -0.000000   0.000000
              19         20         21         22         23         24
     1  C    0.000000   0.000033   0.167363   0.168277   0.442094  -0.088444
     2  C   -0.000001   0.000465  -0.201807   0.172534  -0.084717   0.444683
     3  C   -0.000152   0.006075   0.115623  -0.186720   0.016168  -0.086211
     4  C    0.000032  -0.080094   0.169368   0.178333  -0.001919   0.017687
     5  C   -0.000258   0.396649  -0.124346   0.013961   0.000043  -0.000427
     6  C   -0.000096  -0.054839  -0.009256  -0.000490   0.000001   0.000002
     7  O    0.000474  -0.095591   0.000017   0.000004  -0.000000  -0.000000
     8  C   -0.110352   0.570998   0.000430  -0.000013   0.000000   0.000004
     9  C    0.439923  -0.112466   0.000036  -0.000001  -0.000000   0.000000
    10  N   -0.095427   0.002151   0.000000  -0.000000   0.000000  -0.000000
    11  C   -0.062428  -0.000262   0.000000  -0.000000  -0.000000   0.000000
    12  C    0.001677  -0.000004   0.000000  -0.000000   0.000000  -0.000000
    13  C    0.000280  -0.000003  -0.000000  -0.000000   0.000000   0.000000
    14  C    0.000008   0.000000  -0.000000   0.000000   0.000000  -0.000000
    15  C   -0.000000   0.000000   0.000000  -0.000000  -0.000000   0.000000
    16  C    0.000004  -0.000000   0.000000  -0.000000   0.000000  -0.000000
    17  C    0.000025  -0.000000  -0.000000   0.000000  -0.000000  -0.000000
    18  C    0.333862  -0.000074   0.000000  -0.000000   0.000000   0.000000
    19  O    7.821897   0.005066   0.000000  -0.000000   0.000000  -0.000000
    20  N    0.005066   6.491055   0.006354  -0.000243   0.000000  -0.000024
    21  C    0.000000   0.006354   5.412902   0.195573   0.016745  -0.002018
    22  C   -0.000000  -0.000243   0.195573   5.209274  -0.085627   0.016650
    23  H    0.000000   0.000000   0.016745  -0.085627   0.676630  -0.013262
    24  H   -0.000000  -0.000024  -0.002018   0.016650  -0.013262   0.675635
    25  H    0.001099   0.029313   0.018526  -0.002481  -0.000254  -0.011817
    26  H    0.000004  -0.024591  -0.006208  -0.000049  -0.000001   0.000013
    27  H    0.000000   0.001962  -0.000946  -0.000090  -0.000002   0.000005
    28  H    0.000002   0.002163   0.002308   0.000035  -0.000000  -0.000000
    29  H    0.003380   0.000014  -0.000000   0.000000  -0.000000   0.000000
    30  H    0.000023   0.000016   0.000000   0.000000  -0.000000   0.000000
    31  H   -0.000000  -0.000000  -0.000000  -0.000000   0.000000  -0.000000
    32  H   -0.000000   0.000000  -0.000000   0.000000  -0.000000   0.000000
    33  H   -0.000000  -0.000000  -0.000000   0.000000  -0.000000   0.000000
    34  H   -0.000002   0.000000  -0.000000   0.000000  -0.000000  -0.000000
    35  H   -0.026759   0.000017  -0.000000   0.000000  -0.000000   0.000000
    36  H   -0.029053  -0.000029   0.000000  -0.000000   0.000000  -0.000000
    37  H    0.000000   0.000242   0.441309  -0.080531  -0.000317   0.000046
    38  H   -0.000000   0.000003  -0.087406   0.443300  -0.013229  -0.000317
              25         26         27         28         29         30
     1  C    0.015317   0.000041  -0.000127   0.000002  -0.000000   0.000000
     2  C   -0.089178  -0.000543  -0.000304   0.000010   0.000000  -0.000000
     3  C    0.434383   0.005464   0.002440  -0.000620   0.000000  -0.000000
     4  C   -0.064892  -0.011503  -0.001180   0.003320   0.000000   0.000001
     5  C   -0.040424   0.315029  -0.013555   0.000409  -0.000001   0.000001
     6  C    0.002782  -0.022282   0.352458   0.340622   0.000001  -0.000001
     7  O    0.000049   0.003383  -0.026711  -0.029088   0.000003   0.001132
     8  C    0.001097   0.004961   0.008190   0.007931  -0.000964  -0.000910
     9  C   -0.000927  -0.000961  -0.000281   0.000527   0.004832   0.001129
    10  N    0.000015   0.000014   0.000016  -0.000028  -0.024811   0.028816
    11  C    0.000000  -0.000001   0.000002  -0.000002   0.316168  -0.040116
    12  C    0.000001   0.000000  -0.000000   0.000000  -0.012460  -0.065017
    13  C   -0.000000   0.000000   0.000002  -0.000000   0.005900   0.433860
    14  C   -0.000000   0.000000   0.000000  -0.000000  -0.000528  -0.088849
    15  C    0.000000  -0.000000  -0.000000   0.000000   0.000035   0.015293
    16  C    0.000000   0.000000   0.000000  -0.000000  -0.000009  -0.002465
    17  C    0.000000  -0.000000  -0.000000   0.000000  -0.006512   0.018468
    18  C   -0.000001   0.000001  -0.000001  -0.000000  -0.022322   0.002783
    19  O    0.001099   0.000004   0.000000   0.000002   0.003380   0.000023
    20  N    0.029313  -0.024591   0.001962   0.002163   0.000014   0.000016
    21  C    0.018526  -0.006208  -0.000946   0.002308  -0.000000   0.000000
    22  C   -0.002481  -0.000049  -0.000090   0.000035   0.000000   0.000000
    23  H   -0.000254  -0.000001  -0.000002  -0.000000  -0.000000  -0.000000
    24  H   -0.011817   0.000013   0.000005  -0.000000   0.000000   0.000000
    25  H    0.645164   0.000965   0.000037  -0.000091  -0.000000  -0.000002
    26  H    0.000965   0.649454   0.007113  -0.013166  -0.000000  -0.000000
    27  H    0.000037   0.007113   0.607037  -0.036874   0.000000  -0.000013
    28  H   -0.000091  -0.013166  -0.036874   0.631547  -0.000000   0.000003
    29  H   -0.000000  -0.000000   0.000000  -0.000000   0.649853   0.000946
    30  H   -0.000002  -0.000000  -0.000013   0.000003   0.000946   0.645911
    31  H    0.000000   0.000000   0.000000  -0.000000   0.000013  -0.011840
    32  H   -0.000000  -0.000000  -0.000000   0.000000  -0.000001  -0.000256
    33  H   -0.000000  -0.000000   0.000000  -0.000000   0.000010   0.000041
    34  H   -0.000000  -0.000000  -0.000000  -0.000000   0.005101  -0.000219
    35  H   -0.000013   0.000000   0.000000  -0.000000   0.007139   0.000059
    36  H    0.000003  -0.000000  -0.000000   0.000000  -0.013202  -0.000094
    37  H   -0.000218   0.004871   0.001364  -0.000482  -0.000000  -0.000000
    38  H    0.000040   0.000011   0.000037  -0.000004  -0.000000  -0.000000
              31         32         33         34         35         36
     1  C    0.000000  -0.000000  -0.000000   0.000000  -0.000000   0.000000
     2  C   -0.000000   0.000000  -0.000000  -0.000000   0.000000  -0.000000
     3  C    0.000000   0.000000   0.000000   0.000000   0.000002  -0.000000
     4  C   -0.000000   0.000000   0.000000   0.000000  -0.000000   0.000000
     5  C    0.000000  -0.000000   0.000000   0.000000   0.000002  -0.000002
     6  C    0.000000   0.000000   0.000000  -0.000000  -0.000001  -0.000000
     7  O   -0.000000   0.000000  -0.000000   0.000000   0.000000   0.000002
     8  C    0.000000  -0.000000   0.000000  -0.000000  -0.000281   0.000530
     9  C    0.000004   0.000000  -0.000000   0.000005   0.008231   0.007942
    10  N   -0.000023   0.000000   0.000003   0.000245   0.002008   0.002145
    11  C   -0.000426   0.000043  -0.000410  -0.018523  -0.013587   0.000319
    12  C    0.017685  -0.001913   0.017755  -0.093258  -0.001052   0.003282
    13  C   -0.086202   0.016170  -0.002103   0.017569   0.002564  -0.000592
    14  C    0.444715  -0.084706   0.016614  -0.002225  -0.000316   0.000009
    15  C   -0.088464   0.442064  -0.086847   0.016181  -0.000125   0.000003
    16  C    0.016650  -0.085589   0.443337  -0.080682  -0.000097   0.000030
    17  C   -0.002021   0.016730  -0.087428   0.441490  -0.001122   0.002335
    18  C    0.000002   0.000001  -0.000004   0.002254   0.352267   0.340701
    19  O   -0.000000  -0.000000  -0.000000  -0.000002  -0.026759  -0.029053
    20  N   -0.000000   0.000000  -0.000000   0.000000   0.000017  -0.000029
    21  C   -0.000000  -0.000000  -0.000000  -0.000000  -0.000000   0.000000
    22  C   -0.000000   0.000000   0.000000   0.000000   0.000000  -0.000000
    23  H    0.000000  -0.000000  -0.000000  -0.000000  -0.000000   0.000000
    24  H   -0.000000   0.000000   0.000000  -0.000000   0.000000  -0.000000
    25  H    0.000000  -0.000000  -0.000000  -0.000000  -0.000013   0.000003
[...]
 00205,-0.00000228,-0.00000922,0.00000151,0.00000921,-0.00000024,0.0000
 0930,0.00000939,0.00000531,0.00000467,0.00000645,-0.00000138,0.0000045
 9,-0.00018774,0.00035857,-0.00023224,-0.00007102,-0.00111457,-0.000933
 96,-0.00008154,-0.00027224,0.00032638,0.00026068,0.00082758,0.00059687
 ,0.00031848,-0.00155090,0.00121511,0.06652182,-0.00000155,-0.00000074,
 0.00000083,-0.00000067,0.00000299,-0.00000063,-0.00000415,-0.00000193,
 0.00000232,0.00000348,0.00000587,-0.00000457,0.00000751,0.00000339,0.0
 0000689,0.00001381,-0.00000329,0.00000536,-0.00001830,0.00000532,0.000
 01334,0.00005434,0.00000757,0.00000800,0.00018451,-0.00002741,-0.00039
 359,-0.00025445,0.00006079,0.00007810,0.00011709,-0.00053398,0.0017087
 7,0.00108584,0.00198648,-0.00018532,0.00104018,0.00304666,-0.00198582,
 0.00034455,0.00009736,0.00075441,0.00521383,0.00018968,-0.00225055,-0.
 00714559,-0.01254775,-0.01503850,-0.03821195,-0.20427485,-0.13617036,-
 0.00030188,0.00047877,-0.00015779,0.00009247,-0.00004867,0.00045043,-0
 .00003050,-0.00000616,0.00001062,-0.00000180,-0.00000413,0.00000348,-0
 .00000034,0.00000052,0.00000080,-0.00000049,-0.00000101,-0.00000054,0.
 00000007,-0.00000198,-0.00000046,0.00000129,0.00000250,-0.00000475,-0.
 00000608,0.00000054,-0.00000483,0.00000083,0.00000019,-0.00000054,-0.0
 0000095,0.00000065,-0.00000061,-0.00042074,0.00002999,-0.00006802,0.00
 021863,0.00003784,-0.00008121,-0.00027361,-0.00035991,0.00038648,-0.00
 031132,-0.00063934,-0.00073967,-0.00099825,-0.00034385,0.00222642,0.03
 974226,0.21287247,0.00000053,0.00000151,0.,-0.00000095,0.00000015,0.00
 000125,0.00000204,0.00000221,0.00000191,-0.00000119,-0.00000244,0.0000
 0258,0.00000227,0.00000585,-0.00000141,0.00000329,-0.00000846,0.000002
 72,0.00000204,0.00001556,0.00000816,0.00001128,-0.00006267,-0.00001779
 ,0.00007830,-0.00002864,-0.00001482,0.00005092,0.00046505,-0.00003346,
 0.00181757,0.00023098,-0.00154054,-0.00194964,-0.01179052,-0.00541436,
 -0.00457962,-0.00163150,0.00323186,0.00006887,0.00076171,-0.00006790,-
 0.00072908,-0.00284205,0.00486710,-0.00242766,-0.00288702,0.00015807,-
 0.04231315,-0.13588935,-0.15348924,-0.00024715,-0.00032640,-0.00029634
 ,0.00002891,0.00005967,0.00010479,0.00000741,0.00000800,0.00000761,0.0
 0000069,0.00000094,0.00000036,-0.00000023,0.00000025,0.00000018,0.0000
 0024,-0.00000042,-0.00000033,0.00000133,0.00000064,-0.00000142,0.00000
 022,-0.00000279,-0.00000134,-0.00000363,0.00000096,-0.00000094,0.00000
 273,0.00000183,0.00000151,-0.00000099,0.00000151,-0.00000104,-0.000061
 96,0.00105885,0.00017601,-0.00000928,-0.00068598,-0.00026340,0.0003419
 8,0.00041040,-0.00066647,-0.00020539,-0.00020023,0.00002451,0.00163494
 ,0.00197582,-0.00208798,0.04827121,0.15125477,0.15538510,-0.00001152,-
 0.00001072,0.00000264,0.00000480,0.00000973,-0.00000575,-0.00003733,-0
 .00002254,0.00000086,0.00003951,0.00005013,-0.00003903,0.00007542,0.00
 003229,0.00002131,0.00005919,0.00002567,-0.00005368,-0.00044052,-0.000
 10385,-0.00017463,0.00009331,-0.00051202,-0.00056632,-0.00394195,0.003
 22291,0.00773937,0.00213668,-0.00120654,0.00025632,0.00215849,-0.01084
 859,0.00462952,0.00088099,-0.00126346,0.00090800,-0.00013454,0.0001555
 4,0.00018854,0.00013600,-0.00003361,0.00003651,-0.00009543,-0.00010718
 ,-0.00004133,-0.00006373,0.00027753,-0.00004294,0.00018613,-0.00020796
 ,-0.00026032,-0.04982971,0.03044443,-0.01525901,-0.02294217,0.03035431
 ,-0.02494040,-0.00006297,-0.00002185,-0.00011395,-0.00001191,-0.000033
 26,0.00002045,-0.00000013,0.00000146,0.00000236,-0.00000243,-0.0000027
 2,0.00000030,-0.00000747,-0.00001190,0.00000410,0.00000052,0.00003262,
 -0.00002227,-0.00003712,-0.00000245,-0.00002542,-0.00002251,-0.0000111
 9,-0.00002166,-0.00002611,-0.00000472,-0.00001394,-0.00026622,-0.00024
 293,0.00278637,-0.00006049,0.00006570,0.00001966,0.00001164,0.00002187
 ,-0.00004137,0.00000574,-0.00001178,-0.00000682,-0.00000789,-0.0000199
 1,0.00003193,-0.00006130,-0.00006216,0.00003829,0.06787496,0.00000708,
 0.00000677,-0.00000167,-0.00000035,-0.00000889,0.00000641,0.00001310,0
 .00001365,-0.00000788,-0.00001839,-0.00002734,0.00002215,-0.00003916,-
 0.00001470,-0.00002351,-0.00005742,0.00000607,-0.00001308,0.00010333,0
 .00002741,0.00006705,-0.00005265,-0.00026640,-0.00008540,-0.00086328,-
 0.00056711,-0.00180568,0.00029032,-0.00045365,0.00010703,-0.00152979,-
 0.00003092,-0.00025588,0.00145693,0.00103632,-0.00100977,-0.00036533,0
 .00050485,0.00006060,0.00010657,-0.00009558,0.00015048,-0.00007491,-0.
 00001134,-0.00006949,-0.00015694,0.00008290,0.00000704,-0.00006150,0.0
 0038940,-0.00019932,0.03706459,-0.27108966,0.09554600,0.00523619,0.009
 45245,0.00055898,0.00008456,0.00005362,0.00002680,0.00000727,0.0000189
 5,-0.00001083,0.00000033,-0.00000041,-0.00000124,0.00000270,0.00000218
 ,0.00000004,0.00000333,0.00000727,-0.00000258,-0.00000887,-0.00002109,
 0.00001413,0.00001115,0.00000078,0.00001244,0.00001101,0.00000645,0.00
 000894,0.00000301,-0.00000186,0.00000367,0.00024259,0.00093297,0.00051
 437,0.00003836,-0.00004930,-0.00002877,-0.00002545,0.00002308,0.000003
 34,-0.00000884,-0.00001033,0.00000091,-0.00002304,0.00001043,0.0000113
 9,-0.00009131,-0.00017634,0.00000995,-0.04404220,0.27821708,-0.0000056
 1,-0.00000616,0.00000009,0.00000222,0.00000187,-0.00000636,-0.00001146
 ,-0.00001379,-0.00000084,0.00001309,0.00002874,-0.00002026,0.00003149,
 -0.00000151,0.00002452,0.00006198,0.00001543,0.00000441,-0.00024628,-0
 .00005415,-0.00013109,0.00024183,0.00022365,-0.00008932,-0.00002688,-0
 .00051183,-0.00091248,-0.00132080,-0.00016059,-0.00166514,-0.00039205,
 0.02311180,-0.00833223,-0.00143571,0.00195137,0.00148772,-0.00026529,-
 0.00053145,-0.00003558,-0.00000830,-0.00008177,-0.00005789,-0.00000511
 ,0.00008295,-0.00001581,0.00012530,-0.00002213,0.00004758,0.00028442,-
 0.00026379,0.00038439,-0.01722215,0.09165381,-0.09519609,-0.00613133,0
 .00530350,0.00029659,-0.00014091,-0.00005775,-0.00000254,-0.00000755,-
 0.00001888,0.00001051,-0.00000045,0.00000062,0.00000003,-0.00000261,-0
 .00000137,0.00000120,-0.00000353,-0.00000348,0.00000498,0.00000101,0.0
 0002286,-0.00000161,-0.00001546,0.00000005,-0.00001342,-0.00002174,-0.
 00000910,-0.00001329,-0.00001406,-0.00000056,-0.00000775,0.00140311,0.
 00041246,-0.00399779,0.00001433,0.00006744,-0.00007364,0.00001588,0.00
 002351,-0.00001335,-0.00000890,0.00000998,-0.00000244,-0.00000967,-0.0
 0001315,-0.00000735,0.00001057,0.00001395,-0.00009669,0.02123435,-0.10
 324790,0.09809429,-0.00000953,-0.00000868,0.00000202,-0.00000415,0.000
 01083,-0.00000862,-0.00000338,-0.00001284,0.00001452,0.00001220,0.0000
 4153,-0.00003889,0.00007388,-0.00000854,0.00002932,0.00007095,-0.00000
 091,-0.00007345,-0.00054840,0.00004359,-0.00027675,0.00027253,0.000675
 80,-0.00083602,-0.00571221,-0.00338794,0.00695784,0.00156481,0.0006289
 6,0.00121805,0.00525763,0.00971670,0.00786394,0.00015687,-0.00069522,0
 .00124161,-0.00020402,0.00042617,0.00004480,0.00027127,-0.00009785,-0.
 00003992,-0.00015900,-0.00005979,-0.00014731,-0.00000820,0.00025885,-0
 .00004808,-0.00001732,-0.00015626,-0.00012172,-0.05599849,-0.03749752,
 -0.03227828,-0.02258736,-0.02166465,-0.03202228,-0.00005913,-0.0000365
 5,-0.00010711,-0.00001254,-0.00002940,0.00001836,-0.00000453,0.0000024
 6,0.00000024,-0.00000446,-0.00000376,-0.00000050,-0.00000186,-0.000007
 83,0.00000282,0.00001400,0.00002508,-0.00001566,-0.00003278,0.00000254
 ,-0.00003202,-0.00002612,-0.00000312,-0.00001404,-0.00003366,-0.000001
 78,-0.00002163,0.00084027,0.00033772,-0.00020214,-0.00000576,0.0000041
 6,0.00003702,-0.00001639,-0.00000119,0.00002999,-0.00001330,-0.0000214
 1,0.00001327,-0.00000475,0.00000162,0.00000180,-0.00022044,-0.00007665
 ,0.00016546,0.00439477,0.00273938,0.00385499,0.07275804,-0.00000253,-0
 .00000062,0.00000091,-0.00000423,0.00000547,-0.00000092,0.00000315,-0.
 00000060,0.00000995,0.00000074,0.00000775,-0.00001146,0.00002193,-0.00
 000269,0.00000902,0.00001982,0.00000486,0.00001448,0.00003568,0.000010
 26,0.00001696,-0.00015231,-0.00012775,0.00018968,0.00091344,-0.0003866
 6,0.00264719,0.00091925,-0.00037436,0.00148770,0.00017064,0.00499869,0
 .00553836,0.00057942,0.00033375,0.00012842,-0.00003568,0.00030459,-0.0
 0000570,0.00005515,0.00012229,0.00007183,0.00003500,-0.00000909,0.0000
 1156,0.00003174,-0.00000800,0.00004739,-0.00035767,-0.00017732,-0.0003
 5435,-0.04547723,-0.20640241,-0.12997312,-0.00033902,0.01028051,0.0033
 0311,-0.00001473,0.00000552,-0.00003436,-0.00000329,-0.00000668,0.0000
 0465,-0.00000259,0.00000065,0.00000016,-0.00000182,-0.00000226,-0.0000
 0110,0.00000261,-0.00000252,-0.00000160,0.00000732,0.00000039,-0.00000
 850,-0.00000985,0.00000185,-0.00000994,0.00000461,-0.00000188,0.000000
 51,0.00000161,0.00000203,-0.00000173,0.00053571,0.00162215,0.00016228,
 0.00002105,-0.00000766,0.00007516,-0.00001766,-0.00000219,0.00001720,0
 .00000666,0.00000285,0.00001201,0.00001788,-0.00001032,0.00000147,0.00
 008257,0.00014276,0.00009157,-0.00590575,-0.01796996,-0.01792343,0.048
 85923,0.20764706,-0.00000573,-0.00000551,0.00000145,-0.00000211,0.0000
 0647,-0.00000613,-0.00000684,-0.00000893,0.00000791,0.00001166,0.00002
 653,-0.00002182,0.00002440,0.00001699,0.00002258,0.00007727,0.00000146
 ,0.00001901,-0.00028742,0.00003432,-0.00009816,0.00031119,-0.00021389,
 -0.00013895,0.00004003,0.00012160,-0.00144040,-0.00097631,-0.00034940,
 -0.00310717,-0.00423374,-0.01755879,-0.01206579,0.00029604,0.00125534,
 -0.00277064,0.00039188,-0.00039376,0.00001702,-0.00020234,-0.00005203,
 0.00012261,0.00014170,0.00000542,0.00004822,0.00009620,-0.00013840,0.0
 0013090,-0.00021709,-0.00030762,-0.00021195,-0.03877707,-0.12541845,-0
 .15810135,-0.00483239,-0.00147242,-0.00094781,-0.00016043,0.00003923,0
 .00001139,-0.00000777,-0.00001931,0.00001243,-0.00000171,0.00000216,0.
 00000065,-0.00000272,-0.00000247,-0.00000015,-0.00000127,-0.00000451,0
 .00000182,0.00000543,0.00001638,-0.00001064,-0.00003415,0.00000200,-0.
 00001836,-0.00001398,-0.00000373,-0.00000774,-0.00002165,0.00000160,-0
 .00001430,-0.00034910,0.00003647,0.00170440,-0.00003666,0.00014592,-0.
 00004979,0.00003039,-0.00003281,-0.00002901,0.00002176,0.00001346,-0.0
 0000303,0.00003201,-0.00002572,0.00000308,0.00019285,0.00016392,0.0000
 2338,0.00370577,0.00963257,0.01033543,0.04479126,0.13448774,0.16658342
 ,-0.00155370,-0.00412256,-0.00144240,-0.00091535,-0.00039067,0.0001435
 8,-0.00371836,-0.00221087,-0.00366760,-0.00095614,0.02136818,-0.017388
 26,0.00038332,0.00182932,0.00077389,-0.00057697,-0.00018335,0.00014645
 ,0.00022808,0.00000667,0.00030085,0.00007124,0.00001116,-0.00016343,-0
 .00007586,0.00003109,-0.00011984,0.00007318,-0.00001123,0.00004541,-0.
 00002220,0.00000270,-0.00002334,-0.00000348,0.00001197,0.00001515,-0.0
 0000071,-0.00000545,-0.00000352,0.00000117,0.00000217,0.00000408,0.000
 00267,-0.00000255,0.00000044,0.00000139,0.00000008,0.00000057,0.000004
 00,-0.00001049,-0.00000479,-0.00002636,0.00000799,-0.00000800,0.000072
 57,-0.00001616,0.00007930,0.00042002,-0.00022947,0.00025034,-0.0686789
 0,0.03888186,-0.04328691,0.00847739,-0.01675427,0.01445357,0.00026196,
 -0.00082428,0.00059954,-0.00007985,0.00027246,0.00032349,-0.00007415,0
 .00111215,-0.00093921,-0.00018816,-0.00036747,-0.00022927,-0.00005989,
 0.00008994,0.00000818,-0.00021862,-0.00008103,0.00019270,0.00000920,0.
 00000030,0.00000929,-0.00000231,0.00000922,0.00000148,0.00000010,-0.00
 000102,-0.00000205,0.00000228,-0.00000131,-0.00000055,0.00000291,-0.00
 000077,0.00000058,-0.00000182,0.00000142,-0.00000030,0.00000940,-0.000
 00528,0.00000472,0.00000643,0.00000140,0.00000457,0.06679958,-0.005210
 82,0.00021015,0.00228400,-0.00034627,0.00009040,-0.00075388,-0.0010559
 6,0.00306216,0.00198720,-0.00109704,0.00203648,0.00015584,-0.00011574,
 -0.00054033,-0.00172052,0.00030160,0.00047860,0.00015136,-0.00009038,-
 0.00005090,-0.00044735,-0.00018417,-0.00002452,0.00039095,-0.00005447,
 0.00000758,-0.00000800,0.00003052,-0.00000620,-0.00001049,-0.00000757,
 0.00000329,-0.00000692,-0.00000349,0.00000592,0.00000455,0.00000415,-0
 .00000195,-0.00000230,0.00000066,0.00000299,0.00000063,0.00000155,-0.0
 0000075,-0.00000082,0.00000034,0.00000052,-0.00000080,0.00000182,-0.00
 000416,-0.00000346,-0.00001383,-0.00000331,-0.00000532,0.00001845,0.00
 000516,-0.00001315,0.00025161,0.00005865,-0.00007642,0.03842950,-0.203
 07524,0.13628485,0.00717896,-0.01246769,0.01507622,0.00031271,-0.00063
 532,0.00074154,0.00027403,-0.00036329,-0.00038827,-0.00021839,0.000041
 54,0.00008055,0.00042085,0.00002752,0.00006753,0.00006160,-0.00017472,
 -0.00001241,0.00007883,0.00014052,-0.00016489,0.00000608,0.00000058,0.
 00000482,-0.00000131,0.00000254,0.00000473,-0.00000006,-0.00000197,0.0
 0000046,0.00000050,-0.00000101,0.00000054,0.00000069,-0.00000078,0.000
 00071,-0.00000142,-0.00000021,0.00000041,-0.00000081,0.00000018,0.0000
 0055,0.00000096,0.00000066,0.00000061,-0.03997283,0.21153863,-0.000689
 72,0.00287323,0.00485007,0.00007252,-0.00076134,-0.00006210,-0.0045557
 6,0.00163892,0.00323726,-0.00196410,0.01169909,-0.00541323,0.00181455,
 -0.00023549,-0.00154392,-0.00024430,0.00032072,-0.00029838,0.00003010,
 -0.00005814,0.00010461,0.00007830,0.00002857,-0.00001655,0.00001164,0.
 00006273,-0.00001767,0.00000706,-0.00000786,0.00000747,0.00000236,-0.0
 0000595,-0.00000125,-0.00000117,0.00000240,0.00000251,0.00000201,-0.00
 000218,0.00000194,-0.00000095,-0.00000017,0.00000124,0.00000051,-0.000
 00150,0.,-0.00000024,-0.00000026,0.00000018,0.00000067,-0.00000089,0.0
 0000040,0.00000341,0.00000848,0.00000270,0.00000172,-0.00001548,0.0000
 0796,0.00004709,-0.00046669,-0.00003034,-0.04274084,0.13599807,-0.1544
 5276,-0.00248147,0.00298577,0.00004645,-0.00020747,0.00020530,0.000019
 53,0.00033926,-0.00041239,-0.00066458,-0.00000912,0.00068139,-0.000264
 01,-0.00006209,-0.00105902,0.00018460,0.00003813,-0.00001022,-0.000096
 46,0.00016509,-0.00009097,0.00002357,-0.00000369,-0.00000097,-0.000000
 99,0.00000024,0.00000275,-0.00000138,0.00000133,-0.00000063,-0.0000014
 1,0.00000024,0.00000042,-0.00000033,-0.00000034,0.00000012,-0.00000055
 ,-0.00000028,-0.00000041,-0.00000107,0.00000270,-0.00000180,0.00000151
 ,-0.00000102,-0.00000153,-0.00000105,0.04871959,-0.15138720,0.15645297
 ,-0.00173230,-0.00197420,-0.00134786,0.00228871,-0.00006879,-0.0022703
 9,0.00056082,-0.00008062,0.00069754,0.00015456,-0.00481788,-0.00010867
 ,-0.00023370,0.00047567,-0.00066634,-0.00001349,-0.00005946,-0.0001253
 0,-0.00006080,-0.00000351,0.00020652,0.00005513,0.00001015,-0.00028389
 ,0.00012041,0.00002869,0.00006972,-0.00008928,0.00000953,-0.00001200,0
 .00002439,-0.00001087,0.00002169,0.00000670,-0.00001491,-0.00001361,-0
 .00000337,0.00000594,0.00000605,-0.00000181,-0.00000561,-0.00000399,-0
 .00000342,0.00000254,0.00000057,-0.00000123,-0.00000055,0.00000055,-0.
 00000464,0.00001155,0.00000708,0.00003864,0.00000044,0.00001238,-0.000
 07581,-0.00000335,-0.00002737,-0.00041713,-0.00023471,0.00017569,-0.01
 431504,0.00305879,-0.01119718,-0.27139147,0.00348870,-0.12101067,0.000
 05102,0.00120132,0.00122927,-0.00016838,-0.00016334,-0.00007068,-0.000
 21874,0.00022910,0.00025188,-0.00000440,-0.00000736,-0.00001227,-0.000
 00775,0.00002306,-0.00000996,-0.00000477,-0.00001766,0.00003218,-0.000
 01477,-0.00000096,-0.00001143,0.00000334,-0.00000876,-0.00000679,0.000
 00027,0.00000282,0.00000098,-0.00000244,0.00000216,-0.00000025,-0.0000
 0292,0.00000132,-0.00000128,0.00000291,-0.00000069,-0.00000033,-0.0000
 0410,0.00000294,-0.00000344,-0.00000587,-0.00000223,-0.00000392,0.0003
 2592,0.00099915,0.00162405,0.28514481,0.02163923,0.00392408,0.01084426
 ,-0.00094983,-0.00127045,0.00537809,-0.00011963,-0.00105597,0.00015113
 ,-0.00416736,-0.00092826,0.00388973,-0.00068694,0.00051498,-0.00057211
 ,0.00005544,-0.00000085,-0.00005773,0.00000276,-0.00001500,0.00008959,
 0.00000832,-0.00001592,-0.00020734,0.00005737,0.00004566,0.00007053,-0
 .00004150,0.00000429,-0.00001708,0.00000818,-0.00001093,0.00001201,0.0
 0000224,-0.00000507,-0.00000614,-0.00000001,0.00000211,0.00000163,-0.0
 0000053,-0.00000061,-0.00000118,-0.00000135,0.00000109,-0.00000019,-0.
 00000073,-0.00000016,-0.00000029,-0.00000163,0.00000471,0.00000236,0.0
 0001480,-0.00000223,0.00000731,-0.00003359,0.00000082,-0.00003252,-0.0
 0028111,-0.00026238,0.00007851,-0.02044048,0.00491370,-0.01130801,0.00
 363343,-0.05342581,0.01297557,0.00058899,-0.00032885,-0.00239645,0.000
 96736,0.00008418,0.00060017,0.00022963,-0.00024548,-0.00044248,0.00004
 203,-0.00002938,-0.00000696,0.00001992,0.00001021,0.00001318,-0.000001
 74,-0.00001008,0.00002589,-0.00000764,-0.00000012,-0.00000691,0.000000
 92,-0.00000368,-0.00000137,0.,0.00000045,0.00000057,-0.00000078,0.0000
 0056,0.00000021,-0.00000133,0.00000045,-0.00000028,0.00000077,-0.00000
 078,-0.00000012,-0.00000410,0.00000210,-0.00000177,-0.00000370,-0.0000
 0112,-0.00000245,0.00155101,-0.00036174,-0.00198687,-0.00207842,0.0484
 6546,-0.01839370,-0.00096131,-0.00487466,-0.00155905,0.00585525,0.0018
 9214,0.00069240,0.00008040,-0.00038164,-0.00096233,0.00345602,0.004297
 15,0.00013808,0.00018210,0.00027475,0.00003321,0.00001168,0.00000488,-
 0.00003895,-0.00000838,-0.00001651,0.00008316,-0.00003595,-0.00000021,
 0.00002012,0.00000962,0.00000675,-0.00001378,-0.00000110,-0.00000653,0
 .00000757,0.00000056,0.00000505,0.00000034,-0.00000271,-0.00000335,0.0
 0000096,0.00000023,0.00000226,-0.00000094,-0.00000076,-0.00000032,-0.0
 0000038,-0.00000038,-0.00000018,-0.00000033,-0.00000017,0.00000010,-0.
 00000105,0.00000284,0.00000180,0.00001166,0.00000310,0.00000401,-0.000
 02123,-0.00000461,-0.00000938,0.00008063,-0.00000810,-0.00005157,0.005
 75595,0.00063670,0.00601513,-0.12099191,0.01270041,-0.10804496,0.00168
 608,-0.00208096,-0.00173761,-0.00086479,0.00000659,-0.00026176,0.00028
 462,-0.00045178,-0.00055797,-0.00002746,-0.00004560,0.00003530,0.00003
 161,-0.00001178,-0.00000714,0.00000178,-0.00000134,0.00000290,-0.00000
 338,-0.00000073,-0.00000183,0.00000068,-0.00000082,-0.00000144,0.00000
 099,-0.00000010,-0.00000032,-0.00000062,0.00000083,0.00000002,-0.00000
 127,0.00000027,-0.00000063,0.00000057,-0.00000070,-0.00000054,-0.00000
 050,0.00000053,-0.00000031,-0.00000186,-0.00000155,-0.00000144,0.00120
 170,-0.00223582,-0.00207692,0.13285147,-0.01709251,0.10549499\\0.00000
 245,0.00000092,0.00000084,-0.00000153,0.00000087,-0.00000174,-0.000000
 31,0.00000366,-0.00000109,-0.00000605,-0.00000401,-0.00000059,0.000018
 40,0.00000028,0.00001399,-0.00000345,0.00000036,-0.00000826,-0.0000006
 7,0.00000424,0.00001429,0.00001006,-0.00000389,-0.00002037,-0.00001073
 ,-0.00000248,0.00002277,0.00001938,0.00000158,-0.00000177,-0.00001820,
 0.00000420,-0.00001638,0.00000794,-0.00000267,0.00000079,-0.00000044,0
 .00000110,0.00000469,-0.00000071,0.00000094,0.00000106,-0.00000144,0.0
 0000181,0.00000047,-0.00000204,0.00000005,-0.00000029,-0.00000185,-0.0
 0000037,-0.00000350,0.00000051,-0.00000319,0.00000958,0.00000109,-0.00
 000017,-0.00001608,-0.00001795,0.00000017,-0.00000014,0.00000158,-0.00
 000181,0.00000128,0.00000236,0.00000187,-0.00000015,-0.00000106,-0.000
 00100,0.00000024,0.00000011,-0.00000109,0.00000114,0.00000171,0.000000
 10,0.00000020,-0.00000350,0.00000110,-0.00000012,-0.00000052,-0.000002
 04,0.00000006,-0.00000002,-0.00000060,-0.00000159,0.00000485,-0.000001
 14,0.00000268,-0.00000151,-0.00000011,-0.00000183,0.,-0.00000116,-0.00
 000106,0.00000091,-0.00000111,-0.00000023,0.00000130,-0.00000007,0.000
 00059,0.00000044,0.00000170,0.00000063,0.00000016,-0.00000038,0.000001
 32,0.00000060,0.00000126,0.00000053,-0.00000058,0.00000128,-0.00000132
 ,-0.00000129,-0.00000019,-0.00000064\\\@
 The archive entry for this job was punched.


 The impersonal hand of government can
 never replace the helping hand of a neighbor.
                        -- Hubert H. Humphrey
 Job cpu time:       0 days  1 hours  7 minutes 18.1 seconds.
 Elapsed time:       0 days  0 hours  1 minutes 43.5 seconds.
 File lengths (MBytes):  RWF=    525 Int=      0 D2E=      0 Chk=     11 Scr=      1
 Normal termination of Gaussian 16 at Sun Feb 25 22:44:47 2024.
