 Entering Gaussian System, Link 0=g16
 Initial command:
 /public/software/apps/Gaussian/g16/l1.exe "/tmp/Gau-55890.inp" -scrdir="/tmp/"
 Entering Link 1 = /public/software/apps/Gaussian/g16/l1.exe PID=     55891.
  
 Copyright (c) 1988-2019, Gaussian, Inc.  All Rights Reserved.
  
 This is part of the Gaussian(R) 16 program.  It is based on
 the Gaussian(R) 09 system (copyright 2009, Gaussian, Inc.),
 the Gaussian(R) 03 system (copyright 2003, Gaussian, Inc.),
 the Gaussian(R) 98 system (copyright 1998, Gaussian, Inc.),
 the Gaussian(R) 94 system (copyright 1995, Gaussian, Inc.),
 the Gaussian 92(TM) system (copyright 1992, Gaussian, Inc.),
 the Gaussian 90(TM) system (copyright 1990, Gaussian, Inc.),
 the Gaussian 88(TM) system (copyright 1988, Gaussian, Inc.),
 the Gaussian 86(TM) system (copyright 1986, Carnegie Mellon
 University), and the Gaussian 82(TM) system (copyright 1983,
 Carnegie Mellon University). Gaussian is a federally registered
 trademark of Gaussian, Inc.
  
 This software contains proprietary and confidential information,
 including trade secrets, belonging to Gaussian, Inc.
  
 This software is provided under written license and may be
 used, copied, transmitted, or stored only in accord with that
 written license.
  
 The following legend is applicable only to US Government
 contracts under FAR:
  
                    RESTRICTED RIGHTS LEGEND
  
 Use, reproduction and disclosure by the US Government is
 subject to restrictions as set forth in subparagraphs (a)
 and (c) of the Commercial Computer Software - Restricted
 Rights clause in FAR 52.227-19.
  
 Gaussian, Inc.
 340 Quinnipiac St., Bldg. 40, Wallingford CT 06492
  
  
 ---------------------------------------------------------------
 Warning -- This program may not be used in any manner that
 competes with the business of Gaussian, Inc. or will provide
 assistance to any competitor of Gaussian, Inc.  The licensee
 of this program is prohibited from giving any competitor of
 Gaussian, Inc. access to this program.  By using this program,
 the user acknowledges that Gaussian, Inc. is engaged in the
 business of creating and licensing software in the field of
 computational chemistry and represents and warrants to the
 licensee that it is not a competitor of Gaussian, Inc. and that
 it will not use this program in any manner prohibited above.
 ---------------------------------------------------------------
  

 Cite this work as:
 Gaussian 16, Revision C.01,
 M. J. Frisch, G. W. Trucks, H. B. Schlegel, G. E. Scuseria, 
 M. A. Robb, J. R. Cheeseman, G. Scalmani, V. Barone, 
 G. A. Petersson, H. Nakatsuji, X. Li, M. Caricato, A. V. Marenich, 
 J. Bloino, B. G. Janesko, R. Gomperts, B. Mennucci, H. P. Hratchian, 
 J. V. Ortiz, A. F. Izmaylov, J. L. Sonnenberg, D. Williams-Young, 
 F. Ding, F. Lipparini, F. Egidi, J. Goings, B. Peng, A. Petrone, 
 T. Henderson, D. Ranasinghe, V. G. Zakrzewski, J. Gao, N. Rega, 
 G. Zheng, W. Liang, M. Hada, M. Ehara, K. Toyota, R. Fukuda, 
 J. Hasegawa, M. Ishida, T. Nakajima, Y. Honda, O. Kitao, H. Nakai, 
 T. Vreven, K. Throssell, J. A. Montgomery, Jr., J. E. Peralta, 
 F. Ogliaro, M. J. Bearpark, J. J. Heyd, E. N. Brothers, K. N. Kudin, 
 V. N. Staroverov, T. A. Keith, R. Kobayashi, J. Normand, 
 K. Raghavachari, A. P. Rendell, J. C. Burant, S. S. Iyengar, 
 J. Tomasi, M. Cossi, J. M. Millam, M. Klene, C. Adamo, R. Cammi, 
 J. W. Ochterski, R. L. Martin, K. Morokuma, O. Farkas, 
 J. B. Foresman, and D. J. Fox, Gaussian, Inc., Wallingford CT, 2019.
 
 ******************************************
 Gaussian 16:  ES64L-G16RevC.01  3-Jul-2019
                31-Jul-2024 
 ******************************************
 %nprocshared=32
 Will use up to   32 processors via shared memory.
 %mem=100GB
 ------------------------------------------
 #p opt freq b3lyp/def2svpp em=gd3bj nosymm
 ------------------------------------------
 1/18=20,19=15,26=3,38=1/1,3;
 2/9=110,12=2,15=1,17=6,18=5,40=1/2;
 3/5=43,7=202,11=2,25=1,30=1,71=1,74=-5,124=41/1,2,3;
 4//1;
 5/5=2,38=5/2;
 6/7=2,8=2,9=2,10=2,28=1/1;
 7/30=1/1,2,3,16;
 1/18=20,19=15,26=3/3(2);
 2/9=110,15=1/2;
 99//99;
 2/9=110,15=1/2;
 3/5=43,7=202,11=2,25=1,30=1,71=1,74=-5,124=41/1,2,3;
 4/5=5,16=3,69=1/1;
 5/5=2,38=5/2;
 7/30=1/1,2,3,16;
 1/18=20,19=15,26=3/3(-5);
 2/9=110,15=1/2;
 6/7=2,8=2,9=2,10=2,19=2,28=1/1;
 99/9=1/99;
 Leave Link    1 at Wed Jul 31 20:31:28 2024, MaxMem= 13421772800 cpu:               0.7 elap:               0.0
 (Enter /public/software/apps/Gaussian/g16/l101.exe)
 ----------------------
 $$$$Singlemol####0????
 ----------------------
 Symbolic Z-matrix:
 Charge =  0 Multiplicity = 1
 C                    -5.46552  -0.73248  -1.37909 
 C                    -4.20973  -1.19554  -1.73258 
 C                    -3.08647  -0.74115  -1.06467 
 C                    -3.21119   0.1886   -0.04113 
 C                    -1.99751   0.65288   0.72419 
 C                    -1.59064  -0.36594   1.83545 
 O                    -0.27504  -0.76733   1.47681 
 C                     0.03403  -0.08882   0.34376 
 C                     1.36178  -0.35206  -0.24977 
 N                     1.40426  -1.22856  -1.2178 
 C                     2.58905  -1.51101  -1.77811 
 C                     3.7674   -0.93698  -1.38716 
 C                     3.75379   0.01306  -0.34424 
 C                     4.91522   0.65845   0.12893 
 C                     4.83298   1.57172   1.14212 
 C                     3.59333   1.88428   1.72489 
 C                     2.44899   1.27681   1.28979 
 C                     2.50335   0.32621   0.2506 
 N                    -0.81961   0.71733  -0.11464 
 C                    -4.47233   0.65273   0.30782 
 C                    -5.59488   0.19268  -0.35714 
 H                    -6.34202  -1.08922  -1.89986 
 H                    -4.10349  -1.91464  -2.53142 
 H                    -2.105    -1.0952   -1.34346 
 H                    -2.18819   1.64896   1.13864 
 H                    -2.24045  -1.24539   1.84332 
 H                    -1.56423   0.07831   2.83397 
 H                     2.54857  -2.24301  -2.57329 
 H                     4.70111  -1.19925  -1.86153 
 H                     5.86557   0.41738  -0.32496 
 H                     5.72386   2.0644    1.50335 
 H                     3.55417   2.61238   2.52158 
 H                     1.49295   1.51693   1.72986 
 H                    -4.57522   1.37722   1.10352 
 H                    -6.57217   0.55893  -0.07841 
 
 ITRead=  0  0  0  0  0  0  0  0  0  0  0  0  0  0  0  0  0  0  0  0
 ITRead=  0  0  0  0  0  0  0  0  0  0  0  0  0  0  0
 MicOpt= -1 -1 -1 -1 -1 -1 -1 -1 -1 -1 -1 -1 -1 -1 -1 -1 -1 -1 -1 -1
 MicOpt= -1 -1 -1 -1 -1 -1 -1 -1 -1 -1 -1 -1 -1 -1 -1
 NAtoms=     35 NQM=       35 NQMF=       0 NMMI=      0 NMMIF=      0
                NMic=       0 NMicF=      0.
                    Isotopes and Nuclear Properties:
 (Nuclear quadrupole moments (NQMom) in fm**2, nuclear magnetic moments (NMagM)
  in nuclear magnetons)

  Atom         1           2           3           4           5           6           7           8           9          10
 IAtWgt=          12          12          12          12          12          12          16          12          12          14
 AtmWgt=  12.0000000  12.0000000  12.0000000  12.0000000  12.0000000  12.0000000  15.9949146  12.0000000  12.0000000  14.0030740
 NucSpn=           0           0           0           0           0           0           0           0           0           2
 AtZEff=  -0.0000000  -0.0000000  -0.0000000  -0.0000000  -0.0000000  -0.0000000  -0.0000000  -0.0000000  -0.0000000  -0.0000000
 NQMom=    0.0000000   0.0000000   0.0000000   0.0000000   0.0000000   0.0000000   0.0000000   0.0000000   0.0000000   2.0440000
 NMagM=    0.0000000   0.0000000   0.0000000   0.0000000   0.0000000   0.0000000   0.0000000   0.0000000   0.0000000   0.4037610
 AtZNuc=   6.0000000   6.0000000   6.0000000   6.0000000   6.0000000   6.0000000   8.0000000   6.0000000   6.0000000   7.0000000

  Atom        11          12          13          14          15          16          17          18          19          20
 IAtWgt=          12          12          12          12          12          12          12          12          14          12
 AtmWgt=  12.0000000  12.0000000  12.0000000  12.0000000  12.0000000  12.0000000  12.0000000  12.0000000  14.0030740  12.0000000
 NucSpn=           0           0           0           0           0           0           0           0           2           0
 AtZEff=  -0.0000000  -0.0000000  -0.0000000  -0.0000000  -0.0000000  -0.0000000  -0.0000000  -0.0000000  -0.0000000  -0.0000000
 NQMom=    0.0000000   0.0000000   0.0000000   0.0000000   0.0000000   0.0000000   0.0000000   0.0000000   2.0440000   0.0000000
 NMagM=    0.0000000   0.0000000   0.0000000   0.0000000   0.0000000   0.0000000   0.0000000   0.0000000   0.4037610   0.0000000
 AtZNuc=   6.0000000   6.0000000   6.0000000   6.0000000   6.0000000   6.0000000   6.0000000   6.0000000   7.0000000   6.0000000

  Atom        21          22          23          24          25          26          27          28          29          30
 IAtWgt=          12           1           1           1           1           1           1           1           1           1
 AtmWgt=  12.0000000   1.0078250   1.0078250   1.0078250   1.0078250   1.0078250   1.0078250   1.0078250   1.0078250   1.0078250
 NucSpn=           0           1           1           1           1           1           1           1           1           1
 AtZEff=  -0.0000000  -0.0000000  -0.0000000  -0.0000000  -0.0000000  -0.0000000  -0.0000000  -0.0000000  -0.0000000  -0.0000000
 NQMom=    0.0000000   0.0000000   0.0000000   0.0000000   0.0000000   0.0000000   0.0000000   0.0000000   0.0000000   0.0000000
 NMagM=    0.0000000   2.7928460   2.7928460   2.7928460   2.7928460   2.7928460   2.7928460   2.7928460   2.7928460   2.7928460
 AtZNuc=   6.0000000   1.0000000   1.0000000   1.0000000   1.0000000   1.0000000   1.0000000   1.0000000   1.0000000   1.0000000

  Atom        31          32          33          34          35
 IAtWgt=           1           1           1           1           1
 AtmWgt=   1.0078250   1.0078250   1.0078250   1.0078250   1.0078250
 NucSpn=           1           1           1           1           1
 AtZEff=  -0.0000000  -0.0000000  -0.0000000  -0.0000000  -0.0000000
 NQMom=    0.0000000   0.0000000   0.0000000   0.0000000   0.0000000
 NMagM=    2.7928460   2.7928460   2.7928460   2.7928460   2.7928460
 AtZNuc=   1.0000000   1.0000000   1.0000000   1.0000000   1.0000000
 Leave Link  101 at Wed Jul 31 20:31:29 2024, MaxMem= 13421772800 cpu:               4.8 elap:               0.2
 (Enter /public/software/apps/Gaussian/g16/l103.exe)

 GradGradGradGradGradGradGradGradGradGradGradGradGradGradGradGradGradGrad
 Berny optimization.
 Initialization pass.
                           ----------------------------
                           !    Initial Parameters    !
                           ! (Angstroms and Degrees)  !
 --------------------------                            --------------------------
 ! Name  Definition              Value          Derivative Info.                !
 --------------------------------------------------------------------------------
 ! R1    R(1,2)                  1.3843         estimate D2E/DX2                !
 ! R2    R(1,21)                 1.3846         estimate D2E/DX2                !
 ! R3    R(1,22)                 1.0801         estimate D2E/DX2                !
 ! R4    R(2,3)                  1.3836         estimate D2E/DX2                !
 ! R5    R(2,23)                 1.0801         estimate D2E/DX2                !
 ! R6    R(3,4)                  1.3884         estimate D2E/DX2                !
 ! R7    R(3,24)                 1.08           estimate D2E/DX2                !
 ! R8    R(4,5)                  1.5081         estimate D2E/DX2                !
 ! R9    R(4,20)                 1.3884         estimate D2E/DX2                !
 ! R10   R(5,6)                  1.5615         estimate D2E/DX2                !
 ! R11   R(5,19)                 1.4475         estimate D2E/DX2                !
 ! R12   R(5,25)                 1.0956         estimate D2E/DX2                !
 ! R13   R(6,7)                  1.4215         estimate D2E/DX2                !
 ! R14   R(6,26)                 1.0935         estimate D2E/DX2                !
 ! R15   R(6,27)                 1.0932         estimate D2E/DX2                !
 ! R16   R(7,8)                  1.3564         estimate D2E/DX2                !
 ! R17   R(8,9)                  1.478          estimate D2E/DX2                !
 ! R18   R(8,19)                 1.2604         estimate D2E/DX2                !
 ! R19   R(9,10)                 1.3066         estimate D2E/DX2                !
 ! R20   R(9,18)                 1.419          estimate D2E/DX2                !
 ! R21   R(10,11)                1.3407         estimate D2E/DX2                !
 ! R22   R(11,12)                1.3678         estimate D2E/DX2                !
 ! R23   R(11,28)                1.0816         estimate D2E/DX2                !
 ! R24   R(12,13)                1.4108         estimate D2E/DX2                !
 ! R25   R(12,29)                1.0796         estimate D2E/DX2                !
 ! R26   R(13,14)                1.4104         estimate D2E/DX2                !
 ! R27   R(13,18)                1.4197         estimate D2E/DX2                !
 ! R28   R(14,15)                1.3665         estimate D2E/DX2                !
 ! R29   R(14,30)                1.0804         estimate D2E/DX2                !
 ! R30   R(15,16)                1.405          estimate D2E/DX2                !
 ! R31   R(15,31)                1.0802         estimate D2E/DX2                !
 ! R32   R(16,17)                1.3667         estimate D2E/DX2                !
 ! R33   R(16,32)                1.08           estimate D2E/DX2                !
 ! R34   R(17,18)                1.4094         estimate D2E/DX2                !
 ! R35   R(17,33)                1.0795         estimate D2E/DX2                !
 ! R36   R(20,21)                1.3835         estimate D2E/DX2                !
 ! R37   R(20,34)                1.081          estimate D2E/DX2                !
 ! R38   R(21,35)                1.0802         estimate D2E/DX2                !
 ! A1    A(2,1,21)             119.7841         estimate D2E/DX2                !
 ! A2    A(2,1,22)             120.1673         estimate D2E/DX2                !
 ! A3    A(21,1,22)            120.0485         estimate D2E/DX2                !
 ! A4    A(1,2,3)              120.2216         estimate D2E/DX2                !
 ! A5    A(1,2,23)             120.0526         estimate D2E/DX2                !
 ! A6    A(3,2,23)             119.7258         estimate D2E/DX2                !
 ! A7    A(2,3,4)              120.191          estimate D2E/DX2                !
 ! A8    A(2,3,24)             120.3657         estimate D2E/DX2                !
 ! A9    A(4,3,24)             119.4377         estimate D2E/DX2                !
 ! A10   A(3,4,5)              120.5302         estimate D2E/DX2                !
 ! A11   A(3,4,20)             119.3891         estimate D2E/DX2                !
 ! A12   A(5,4,20)             120.0373         estimate D2E/DX2                !
 ! A13   A(4,5,6)              111.7138         estimate D2E/DX2                !
 ! A14   A(4,5,19)             111.9945         estimate D2E/DX2                !
 ! A15   A(4,5,25)             109.3784         estimate D2E/DX2                !
 ! A16   A(6,5,19)             103.2631         estimate D2E/DX2                !
 ! A17   A(6,5,25)             111.6736         estimate D2E/DX2                !
 ! A18   A(19,5,25)            108.6861         estimate D2E/DX2                !
 ! A19   A(5,6,7)              104.2313         estimate D2E/DX2                !
 ! A20   A(5,6,26)             112.025          estimate D2E/DX2                !
 ! A21   A(5,6,27)             113.0272         estimate D2E/DX2                !
 ! A22   A(7,6,26)             108.9475         estimate D2E/DX2                !
 ! A23   A(7,6,27)             108.8354         estimate D2E/DX2                !
 ! A24   A(26,6,27)            109.5485         estimate D2E/DX2                !
 ! A25   A(6,7,8)              106.284          estimate D2E/DX2                !
 ! A26   A(7,8,9)              116.8119         estimate D2E/DX2                !
 ! A27   A(7,8,19)             117.9975         estimate D2E/DX2                !
 ! A28   A(9,8,19)             125.1888         estimate D2E/DX2                !
 ! A29   A(8,9,10)             116.5011         estimate D2E/DX2                !
 ! A30   A(8,9,18)             119.7334         estimate D2E/DX2                !
 ! A31   A(10,9,18)            123.7618         estimate D2E/DX2                !
 ! A32   A(9,10,11)            118.666          estimate D2E/DX2                !
 ! A33   A(10,11,12)           123.6039         estimate D2E/DX2                !
 ! A34   A(10,11,28)           114.6311         estimate D2E/DX2                !
 ! A35   A(12,11,28)           121.7642         estimate D2E/DX2                !
 ! A36   A(11,12,13)           119.0507         estimate D2E/DX2                !
 ! A37   A(11,12,29)           121.1657         estimate D2E/DX2                !
 ! A38   A(13,12,29)           119.7836         estimate D2E/DX2                !
 ! A39   A(12,13,14)           123.2423         estimate D2E/DX2                !
 ! A40   A(12,13,18)           117.8244         estimate D2E/DX2                !
 ! A41   A(14,13,18)           118.9333         estimate D2E/DX2                !
 ! A42   A(13,14,15)           120.3309         estimate D2E/DX2                !
 ! A43   A(13,14,30)           118.7692         estimate D2E/DX2                !
 ! A44   A(15,14,30)           120.8999         estimate D2E/DX2                !
 ! A45   A(14,15,16)           120.6176         estimate D2E/DX2                !
 ! A46   A(14,15,31)           120.2067         estimate D2E/DX2                !
 ! A47   A(16,15,31)           119.1756         estimate D2E/DX2                !
 ! A48   A(15,16,17)           120.5199         estimate D2E/DX2                !
 ! A49   A(15,16,32)           119.2058         estimate D2E/DX2                !
 ! A50   A(17,16,32)           120.2743         estimate D2E/DX2                !
 ! A51   A(16,17,18)           120.1464         estimate D2E/DX2                !
 ! A52   A(16,17,33)           120.8567         estimate D2E/DX2                !
 ! A53   A(18,17,33)           118.9965         estimate D2E/DX2                !
 ! A54   A(9,18,13)            117.0909         estimate D2E/DX2                !
 ! A55   A(9,18,17)            123.4586         estimate D2E/DX2                !
 ! A56   A(13,18,17)           119.4505         estimate D2E/DX2                !
 ! A57   A(5,19,8)             108.1728         estimate D2E/DX2                !
 ! A58   A(4,20,21)            120.3364         estimate D2E/DX2                !
 ! A59   A(4,20,34)            119.7019         estimate D2E/DX2                !
 ! A60   A(21,20,34)           119.9618         estimate D2E/DX2                !
 ! A61   A(1,21,20)            120.0767         estimate D2E/DX2                !
 ! A62   A(1,21,35)            120.1005         estimate D2E/DX2                !
 ! A63   A(20,21,35)           119.8227         estimate D2E/DX2                !
 ! D1    D(21,1,2,3)             0.2706         estimate D2E/DX2                !
 ! D2    D(21,1,2,23)         -179.7863         estimate D2E/DX2                !
 ! D3    D(22,1,2,3)          -179.8837         estimate D2E/DX2                !
 ! D4    D(22,1,2,23)            0.0594         estimate D2E/DX2                !
 ! D5    D(2,1,21,20)            0.0213         estimate D2E/DX2                !
 ! D6    D(2,1,21,35)          179.8797         estimate D2E/DX2                !
 ! D7    D(22,1,21,20)        -179.8246         estimate D2E/DX2                !
 ! D8    D(22,1,21,35)           0.0338         estimate D2E/DX2                !
 ! D9    D(1,2,3,4)             -0.4043         estimate D2E/DX2                !
 ! D10   D(1,2,3,24)          -179.5375         estimate D2E/DX2                !
 ! D11   D(23,2,3,4)           179.6524         estimate D2E/DX2                !
 ! D12   D(23,2,3,24)            0.5193         estimate D2E/DX2                !
 ! D13   D(2,3,4,5)            177.8489         estimate D2E/DX2                !
 ! D14   D(2,3,4,20)             0.2436         estimate D2E/DX2                !
 ! D15   D(24,3,4,5)            -3.0099         estimate D2E/DX2                !
 ! D16   D(24,3,4,20)          179.3849         estimate D2E/DX2                !
 ! D17   D(3,4,5,6)            -81.1129         estimate D2E/DX2                !
 ! D18   D(3,4,5,19)            34.1757         estimate D2E/DX2                !
 ! D19   D(3,4,5,25)           154.7297         estimate D2E/DX2                !
 ! D20   D(20,4,5,6)            96.4767         estimate D2E/DX2                !
 ! D21   D(20,4,5,19)         -148.2346         estimate D2E/DX2                !
 ! D22   D(20,4,5,25)          -27.6806         estimate D2E/DX2                !
 ! D23   D(3,4,20,21)            0.048          estimate D2E/DX2                !
 ! D24   D(3,4,20,34)         -179.9549         estimate D2E/DX2                !
 ! D25   D(5,4,20,21)         -177.5692         estimate D2E/DX2                !
 ! D26   D(5,4,20,34)            2.4278         estimate D2E/DX2                !
 ! D27   D(4,5,6,7)            119.1704         estimate D2E/DX2                !
 ! D28   D(4,5,6,26)             1.5281         estimate D2E/DX2                !
 ! D29   D(4,5,6,27)          -122.8143         estimate D2E/DX2                !
 ! D30   D(19,5,6,7)            -1.3626         estimate D2E/DX2                !
 ! D31   D(19,5,6,26)         -119.0049         estimate D2E/DX2                !
 ! D32   D(19,5,6,27)          116.6527         estimate D2E/DX2                !
 ! D33   D(25,5,6,7)          -117.9702         estimate D2E/DX2                !
 ! D34   D(25,5,6,26)          124.3875         estimate D2E/DX2                !
 ! D35   D(25,5,6,27)            0.0451         estimate D2E/DX2                !
 ! D36   D(4,5,19,8)          -118.1706         estimate D2E/DX2                !
 ! D37   D(6,5,19,8)             2.1709         estimate D2E/DX2                !
 ! D38   D(25,5,19,8)          120.8741         estimate D2E/DX2                !
 ! D39   D(5,6,7,8)              0.1663         estimate D2E/DX2                !
 ! D40   D(26,6,7,8)           119.9097         estimate D2E/DX2                !
 ! D41   D(27,6,7,8)          -120.6909         estimate D2E/DX2                !
 ! D42   D(6,7,8,9)           -179.068          estimate D2E/DX2                !
 ! D43   D(6,7,8,19)             1.3989         estimate D2E/DX2                !
 ! D44   D(7,8,9,10)            96.4314         estimate D2E/DX2                !
 ! D45   D(7,8,9,18)           -82.8958         estimate D2E/DX2                !
 ! D46   D(19,8,9,10)          -84.073          estimate D2E/DX2                !
 ! D47   D(19,8,9,18)           96.5998         estimate D2E/DX2                !
 ! D48   D(7,8,19,5)            -2.3778         estimate D2E/DX2                !
 ! D49   D(9,8,19,5)           178.132          estimate D2E/DX2                !
 ! D50   D(8,9,10,11)         -179.308          estimate D2E/DX2                !
 ! D51   D(18,9,10,11)          -0.0108         estimate D2E/DX2                !
 ! D52   D(8,9,18,13)          178.8933         estimate D2E/DX2                !
 ! D53   D(8,9,18,17)           -1.129          estimate D2E/DX2                !
 ! D54   D(10,9,18,13)          -0.3824         estimate D2E/DX2                !
 ! D55   D(10,9,18,17)         179.5953         estimate D2E/DX2                !
 ! D56   D(9,10,11,12)           0.4289         estimate D2E/DX2                !
 ! D57   D(9,10,11,28)        -179.8895         estimate D2E/DX2                !
 ! D58   D(10,11,12,13)         -0.4189         estimate D2E/DX2                !
 ! D59   D(10,11,12,29)        179.539          estimate D2E/DX2                !
 ! D60   D(28,11,12,13)        179.9215         estimate D2E/DX2                !
 ! D61   D(28,11,12,29)         -0.1206         estimate D2E/DX2                !
 ! D62   D(11,12,13,14)        179.978          estimate D2E/DX2                !
 ! D63   D(11,12,13,18)         -0.003          estimate D2E/DX2                !
 ! D64   D(29,12,13,14)          0.0195         estimate D2E/DX2                !
 ! D65   D(29,12,13,18)       -179.9615         estimate D2E/DX2                !
 ! D66   D(12,13,14,15)        179.8942         estimate D2E/DX2                !
 ! D67   D(12,13,14,30)         -0.0438         estimate D2E/DX2                !
 ! D68   D(18,13,14,15)         -0.125          estimate D2E/DX2                !
 ! D69   D(18,13,14,30)        179.9369         estimate D2E/DX2                !
 ! D70   D(12,13,18,9)           0.3702         estimate D2E/DX2                !
 ! D71   D(12,13,18,17)       -179.6084         estimate D2E/DX2                !
 ! D72   D(14,13,18,9)        -179.6116         estimate D2E/DX2                !
 ! D73   D(14,13,18,17)          0.4098         estimate D2E/DX2                !
 ! D74   D(13,14,15,16)         -0.1663         estimate D2E/DX2                !
 ! D75   D(13,14,15,31)        179.9644         estimate D2E/DX2                !
 ! D76   D(30,14,15,16)        179.7704         estimate D2E/DX2                !
 ! D77   D(30,14,15,31)         -0.0989         estimate D2E/DX2                !
 ! D78   D(14,15,16,17)          0.172          estimate D2E/DX2                !
 ! D79   D(14,15,16,32)       -179.7589         estimate D2E/DX2                !
 ! D80   D(31,15,16,17)       -179.9574         estimate D2E/DX2                !
 ! D81   D(31,15,16,32)          0.1118         estimate D2E/DX2                !
 ! D82   D(15,16,17,18)          0.1205         estimate D2E/DX2                !
 ! D83   D(15,16,17,33)       -179.6533         estimate D2E/DX2                !
 ! D84   D(32,16,17,18)       -179.9494         estimate D2E/DX2                !
 ! D85   D(32,16,17,33)          0.2768         estimate D2E/DX2                !
 ! D86   D(16,17,18,9)         179.6133         estimate D2E/DX2                !
 ! D87   D(16,17,18,13)         -0.4096         estimate D2E/DX2                !
 ! D88   D(33,17,18,9)          -0.6087         estimate D2E/DX2                !
 ! D89   D(33,17,18,13)        179.3684         estimate D2E/DX2                !
 ! D90   D(4,20,21,1)           -0.1805         estimate D2E/DX2                !
 ! D91   D(4,20,21,35)         179.9607         estimate D2E/DX2                !
 ! D92   D(34,20,21,1)         179.8225         estimate D2E/DX2                !
 ! D93   D(34,20,21,35)         -0.0363         estimate D2E/DX2                !
 --------------------------------------------------------------------------------
 Trust Radius=3.00D-01 FncErr=1.00D-07 GrdErr=1.00D-06 EigMax=2.50D+02 EigMin=1.00D-04
 Number of steps in this run=    204 maximum allowed number of steps=    210.
 GradGradGradGradGradGradGradGradGradGradGradGradGradGradGradGradGradGrad

 Leave Link  103 at Wed Jul 31 20:31:29 2024, MaxMem= 13421772800 cpu:               0.7 elap:               0.0
 (Enter /public/software/apps/Gaussian/g16/l202.exe)
                          Input orientation:                          
 ---------------------------------------------------------------------
 Center     Atomic      Atomic             Coordinates (Angstroms)
 Number     Number       Type             X           Y           Z
 ---------------------------------------------------------------------
      1          6           0       -5.465521   -0.732478   -1.379092
      2          6           0       -4.209728   -1.195538   -1.732578
      3          6           0       -3.086472   -0.741149   -1.064674
      4          6           0       -3.211187    0.188602   -0.041128
      5          6           0       -1.997506    0.652882    0.724186
      6          6           0       -1.590638   -0.365936    1.835449
      7          8           0       -0.275039   -0.767332    1.476807
      8          6           0        0.034026   -0.088817    0.343762
      9          6           0        1.361778   -0.352061   -0.249769
     10          7           0        1.404262   -1.228556   -1.217799
     11          6           0        2.589052   -1.511009   -1.778109
     12          6           0        3.767402   -0.936978   -1.387159
     13          6           0        3.753790    0.013060   -0.344240
     14          6           0        4.915219    0.658454    0.128933
     15          6           0        4.832983    1.571718    1.142124
     16          6           0        3.593332    1.884284    1.724887
     17          6           0        2.448986    1.276811    1.289793
     18          6           0        2.503352    0.326208    0.250597
     19          7           0       -0.819614    0.717327   -0.114642
     20          6           0       -4.472325    0.652725    0.307821
     21          6           0       -5.594877    0.192683   -0.357143
     22          1           0       -6.342021   -1.089224   -1.899862
     23          1           0       -4.103493   -1.914636   -2.531416
     24          1           0       -2.105002   -1.095205   -1.343462
     25          1           0       -2.188193    1.648955    1.138643
     26          1           0       -2.240449   -1.245385    1.843315
     27          1           0       -1.564234    0.078305    2.833965
     28          1           0        2.548570   -2.243013   -2.573288
     29          1           0        4.701110   -1.199251   -1.861526
     30          1           0        5.865566    0.417383   -0.324958
     31          1           0        5.723859    2.064399    1.503352
     32          1           0        3.554170    2.612380    2.521582
     33          1           0        1.492952    1.516932    1.729861
     34          1           0       -4.575216    1.377220    1.103520
     35          1           0       -6.572171    0.558930   -0.078408
 ---------------------------------------------------------------------
                    Distance matrix (angstroms):
                    1          2          3          4          5
     1  C    0.000000
     2  C    1.384338   0.000000
     3  C    2.399752   1.383571   0.000000
     4  C    2.778589   2.402900   1.388394   0.000000
     5  C    4.286039   3.787647   2.515788   1.508073   0.000000
     6  C    5.048004   4.503186   3.284664   2.540715   1.561550
     7  O    5.924397   5.095615   3.789982   3.440770   2.355916
     8  C    5.798926   4.852367   3.485217   3.279712   2.195897
     9  C    6.930519   5.826822   4.538985   4.609540   3.639133
    10  N    6.889559   5.637639   4.519702   4.969433   4.345474
    11  C    8.101942   6.806247   5.771763   6.288764   5.655123
    12  C    9.235191   7.988790   6.864250   7.195793   6.341892
    13  C    9.307118   8.173482   6.919324   6.973779   5.884583
    14  C   10.581521   9.495639   8.210399   8.141754   6.938308
    15  C   10.850117   9.883938   8.540321   8.247531   6.904673
    16  C    9.926981   9.073429   7.700281   7.231571   5.811645
    17  C    8.590670   7.719178   6.344838   5.915497   4.525538
    18  C    8.202417   7.163389   5.840832   5.723635   4.537480
    19  N    5.028441   4.215405   2.858034   2.450424   1.447486
    20  C    2.398104   2.765549   2.397335   1.388396   2.509599
    21  C    1.384571   2.395332   2.768526   2.404550   3.784459
    22  H    1.080149   2.141485   3.378949   3.858737   5.366132
    23  H    2.140203   1.080060   2.136056   3.379549   4.650406
    24  H    3.380226   2.142743   1.079982   2.137260   2.709711
    25  H    4.769810   4.519032   3.372552   2.137991   1.095581
    26  H    4.587818   4.082592   3.070246   2.559253   2.216955
    27  H    5.798902   5.429054   4.264751   3.315234   2.229132
    28  H    8.242177   6.890471   6.023721   6.745323   6.318730
    29  H   10.188769   8.911772   7.841637   8.236773   7.415373
    30  H   11.437959  10.300216   9.056951   9.084071   7.936250
    31  H   11.888365  10.944157   9.596238   9.259540   7.887899
    32  H   10.380663   9.637231   8.258663   7.629694   6.155597
    33  H    7.946432   7.201843   5.820608   5.199018   3.733800
    34  H    3.377400   3.846572   3.377116   2.140936   2.704283
    35  H    2.141072   3.375733   3.848769   3.381530   4.645486
                    6          7          8          9         10
     6  C    0.000000
     7  O    1.421458   0.000000
     8  C    2.222939   1.356353   0.000000
     9  C    3.614566   2.415095   1.478006   0.000000
    10  N    4.363011   3.208377   2.369604   1.306572   0.000000
    11  C    5.642588   4.398926   3.612911   2.277100   1.340692
    12  C    6.278526   4.957057   4.201614   2.724484   2.387076
    13  C    5.784254   4.489620   3.784226   2.421561   2.797320
    14  C    6.803510   5.548730   4.942733   3.713691   4.207293
    15  C    6.745229   5.628060   5.140501   4.205658   5.016662
    16  C    5.652368   4.696478   4.297592   3.725633   4.810530
    17  C    4.394874   3.410837   2.931202   2.491083   3.695447
    18  C    4.444274   3.227829   2.505693   1.419016   2.404470
    19  N    2.360252   2.243543   1.260438   2.433171   3.154210
    20  C    3.416934   4.582608   4.567097   5.946197   6.356179
    21  C    4.599287   5.708387   5.679354   6.978777   7.193650
    22  H    6.086981   6.950811   6.832908   7.912947   7.777501
    23  H    5.270903   5.660320   5.359042   6.125091   5.703653
    24  H    3.301799   3.377896   2.904304   3.710390   3.514044
    25  H    2.214136   3.100477   2.930861   4.305119   5.170940
    26  H    1.093502   2.055651   2.959653   4.260876   4.759687
    27  H    1.093198   2.054021   2.963693   4.272725   5.190053
    28  H    6.331937   5.153025   4.412785   3.222253   2.043505
    29  H    7.344939   6.007752   5.279965   3.803502   3.359234
    30  H    7.802303   6.508221   5.891543   4.569661   4.838338
    31  H    7.714835   6.633716   6.193157   5.285874   6.075124
    32  H    5.984162   5.213142   4.942750   4.612470   5.775627
    33  H    3.614536   2.899602   2.574522   2.725670   4.029177
    34  H    3.532990   4.819748   4.896081   6.330063   6.923348
    35  H    5.416078   6.620539   6.651289   7.987917   8.253290
                   11         12         13         14         15
    11  C    0.000000
    12  C    1.367795   0.000000
    13  C    2.394866   1.410829   0.000000
    14  C    3.708697   2.482221   1.410441   0.000000
    15  C    4.802728   3.718372   2.409014   1.366517   0.000000
    16  C    4.980720   4.204123   2.794372   2.407720   1.405007
    17  C    4.147720   3.715529   2.443285   2.795043   2.406703
    18  C    2.738313   2.423986   1.419679   2.437682   2.788063
    19  N    4.399046   5.039518   4.633005   5.740305   5.853315
    20  C    7.674366   8.561146   8.276673   9.389250   9.387724
    21  C    8.479293   9.486271   9.350401  10.531635  10.624961
    22  H    8.941856  10.123560  10.274259  11.571337  11.883392
    23  H    6.746891   8.013497   8.380731   9.748611  10.271814
    24  H    4.732436   5.874698   6.045837   7.384224   7.837490
    25  H    6.427666   6.966767   6.338948   7.242863   7.021602
    26  H    6.042297   6.828276   6.503844   7.600480   7.645991
    27  H    6.406788   6.875684   6.195694   7.045359   6.783583
    28  H    1.081563   2.144337   3.392798   4.617525   5.794394
    29  H    2.136572   1.079640   2.160849   2.731087   4.088713
    30  H    4.070121   2.713827   2.150220   1.080413   2.133318
    31  H    5.777417   4.603373   3.391572   2.125937   1.080222
    32  H    6.034992   5.284096   3.874177   3.375656   2.149708
    33  H    4.761903   4.572812   3.416857   3.874515   3.391791
    34  H    8.244537   9.008788   8.563252   9.567382   9.410288
    35  H    9.544718  10.528881  10.343796  11.489692  11.514902
                   16         17         18         19         20
    16  C    0.000000
    17  C    1.366696   0.000000
    18  C    2.406073   1.409443   0.000000
    19  N    4.921356   3.601278   3.365780   0.000000
    20  C    8.281282   7.018426   6.983549   3.677628   0.000000
    21  C    9.571810   8.281996   8.122099   4.810114   1.383452
    22  H   10.985982   9.646441   9.212413   6.078455   3.376983
    23  H    9.580659   8.229335   7.510751   4.853029   3.845601
    24  H    7.124825   5.770554   5.079209   2.539191   3.374346
    25  H    5.815934   4.654543   4.954683   2.076454   2.626785
    26  H    6.621318   5.353378   5.245027   3.115222   3.307844
    27  H    5.576029   4.463947   4.824987   3.107586   3.894657
    28  H    6.049828   5.227090   3.818019   5.114022   8.122749
    29  H    4.857748   4.597147   3.408552   6.099448   9.606653
    30  H    3.393628   3.875443   3.412339   6.695210  10.359912
    31  H    2.149573   3.375010   3.868122   6.873831  10.362639
    32  H    1.079991   2.126612   3.389421   5.447099   8.553690
    33  H    2.132268   1.079499   2.151036   3.064233   6.193027
    34  H    8.207825   7.027389   7.206818   4.002989   1.081026
    35  H   10.408933   9.152519   9.084466   5.754851   2.137130
                   21         22         23         24         25
    21  C    0.000000
    22  H    2.140442   0.000000
    23  H    3.375275   2.468030   0.000000
    24  H    3.848468   4.273400   2.465090   0.000000
    25  H    3.995447   5.829616   5.462315   3.701105   0.000000
    26  H    4.261718   5.555057   4.801781   3.193188   2.979345
    27  H    5.142211   6.826382   6.261546   4.372694   2.393822
    28  H    8.784056   8.990403   6.660295   4.948299   7.166782
    29  H   10.498000  11.043746   8.858982   6.826593   8.035906
    30  H   11.462691  12.400620  10.473247   8.176505   8.277798
    31  H   11.622330  12.927206  11.344114   8.909462   7.931341
    32  H    9.891767  11.453630  10.230663   7.791725   5.984600
    33  H    7.506433   9.019631   7.826515   5.404984   3.730656
    34  H    2.139246   4.269104   4.926621   4.266446   2.402697
    35  H    1.080247   2.467200   4.269678   4.928704   4.678529
                   26         27         28         29         30
    26  H    0.000000
    27  H    1.786284   0.000000
    28  H    6.590626   7.179280   0.000000
    29  H    7.868495   7.933115   2.495891   0.000000
    30  H    8.554162   8.080575   4.809902   2.516049   0.000000
    31  H    8.631364   7.670163   6.727202   4.797899   2.464845
    32  H    6.994284   5.719893   7.109414   5.920780   4.273564
    33  H    4.645595   3.554586   5.811076   5.528832   4.954901
    34  H    3.588383   3.707780   8.796211  10.073724  10.581671
    35  H    5.070738   5.813119   9.862212  11.548055  12.440986
                   31         32         33         34         35
    31  H    0.000000
    32  H    2.458582   0.000000
    33  H    4.272189   2.464842   0.000000
    34  H   10.329716   8.344066   6.102007   0.000000
    35  H   12.488425  10.654548   8.320686   2.460565   0.000000
 Symmetry turned off by external request.
 Stoichiometry    C18H14N2O
 Framework group  C1[X(C18H14N2O)]
 Deg. of freedom    99
 Full point group                 C1      NOp   1
 Rotational constants (GHZ):           0.8763415           0.1562754           0.1392462
 Leave Link  202 at Wed Jul 31 20:31:29 2024, MaxMem= 13421772800 cpu:               1.3 elap:               0.1
 (Enter /public/software/apps/Gaussian/g16/l301.exe)
 Standard basis: def2SVPP (5D, 7F)
 Ernie: Thresh=  0.10000D-02 Tol=  0.10000D-05 Strict=F.
   322 basis functions,   581 primitive gaussians,   343 cartesian basis functions
    72 alpha electrons       72 beta electrons
       nuclear repulsion energy      1505.8616350709 Hartrees.
 IExCor=  402 DFT=T Ex+Corr=B3LYP ExCW=0 ScaHFX=  0.200000
 ScaDFX=  0.800000  0.720000  1.000000  0.810000 ScalE2=  1.000000  1.000000
 IRadAn=      5 IRanWt=     -1 IRanGd=            0 ICorTp=0 IEmpDi=141
 NAtoms=   35 NActive=   35 NUniq=   35 SFac= 1.00D+00 NAtFMM=   60 NAOKFM=F Big=F
 Integral buffers will be    131072 words long.
 Raffenetti 2 integral format.
 Two-electron integral symmetry is turned off.
 R6Disp:  Grimme-D3(BJ) Dispersion energy=       -0.0798463602 Hartrees.
 Nuclear repulsion after empirical dispersion term =     1505.7817887106 Hartrees.
 Leave Link  301 at Wed Jul 31 20:31:29 2024, MaxMem= 13421772800 cpu:               1.0 elap:               0.0
 (Enter /public/software/apps/Gaussian/g16/l302.exe)
 NPDir=0 NMtPBC=     1 NCelOv=     1 NCel=       1 NClECP=     1 NCelD=      1
         NCelK=      1 NCelE2=     1 NClLst=     1 CellRange=     0.0.
 One-electron integrals computed using PRISM.
   1 Symmetry operations used in ECPInt.
 ECPInt:  NShTT=   11935 NPrTT=   47901 LenC2=   10763 LenP2D=   29278.
 LDataN:  DoStor=T MaxTD1= 4 Len=   56
 NBasis=   322 RedAO= T EigKep=  2.66D-04  NBF=   322
 NBsUse=   322 1.00D-06 EigRej= -1.00D+00 NBFU=   322
 Precomputing XC quadrature grid using
 IXCGrd= 4 IRadAn=           5 IRanWt=          -1 IRanGd=           0 AccXCQ= 0.00D+00.
 Generated NRdTot=       0 NPtTot=           0 NUsed=           0 NTot=          32
 NSgBfM=   339   339   339   339   339 MxSgAt=    35 MxSgA2=    35.
 Leave Link  302 at Wed Jul 31 20:31:29 2024, MaxMem= 13421772800 cpu:               7.4 elap:               0.2
 (Enter /public/software/apps/Gaussian/g16/l303.exe)
 DipDrv:  MaxL=1.
 Leave Link  303 at Wed Jul 31 20:31:29 2024, MaxMem= 13421772800 cpu:               0.9 elap:               0.0
 (Enter /public/software/apps/Gaussian/g16/l401.exe)
 ExpMin= 1.22D-01 ExpMax= 2.27D+03 ExpMxC= 3.41D+02 IAcc=3 IRadAn=         5 AccDes= 0.00D+00
 Harris functional with IExCor=  402 and IRadAn=       5 diagonalized for initial guess.
 HarFok:  IExCor=  402 AccDes= 0.00D+00 IRadAn=         5 IDoV= 1 UseB2=F ITyADJ=14
 ICtDFT=  3500011 ScaDFX=  1.000000  1.000000  1.000000  1.000000
 FoFCou: FMM=F IPFlag=           0 FMFlag=      100000 FMFlg1=           0
         NFxFlg=           0 DoJE=T BraDBF=F KetDBF=T FulRan=T
         wScrn=  0.000000 ICntrl=       500 IOpCl=  0 I1Cent=   200000004 NGrid=           0
         NMat0=    1 NMatS0=      1 NMatT0=    0 NMatD0=    1 NMtDS0=    0 NMtDT0=    0
 Symmetry not used in FoFCou.
 Harris En= -878.420950295304    
 JPrj=0 DoOrth=F DoCkMO=F.
 Leave Link  401 at Wed Jul 31 20:31:30 2024, MaxMem= 13421772800 cpu:              17.4 elap:               0.6
 (Enter /public/software/apps/Gaussian/g16/l502.exe)
 Two-electron integral symmetry not used.
 Closed shell SCF:
 Using DIIS extrapolation, IDIIS=  1040.
 NGot= 13421772800 LenX= 13421522755 LenY= 13421404665
 Requested convergence on RMS density matrix=1.00D-08 within 128 cycles.
 Requested convergence on MAX density matrix=1.00D-06.
 Requested convergence on             energy=1.00D-06.
 No special actions if energy rises.
 Fock matrices will be formed incrementally for  20 cycles.
 Integral accuracy reduced to 1.0D-05 until final iterations.

 Cycle   1  Pass 0  IDiag  1:
 FoFJK:  IHMeth= 1 ICntrl=       0 DoSepK=F KAlg= 0 I1Cent=           0 FoldK=F
 IRaf= 830000000 NMat=       1 IRICut=       1 DoRegI=T DoRafI=F ISym2E= 0 IDoP0=0 IntGTp=1.
 FoFCou: FMM=F IPFlag=           0 FMFlag=      100000 FMFlg1=           0
         NFxFlg=           0 DoJE=F BraDBF=F KetDBF=F FulRan=T
         wScrn=  0.000000 ICntrl=         0 IOpCl=  0 I1Cent=           0 NGrid=           0
         NMat0=    1 NMatS0=      1 NMatT0=    0 NMatD0=    1 NMtDS0=    0 NMtDT0=    0
 Symmetry not used in FoFCou.
 E= -878.094277010217    
 DIIS: error= 3.32D-02 at cycle   1 NSaved=   1.
 NSaved= 1 IEnMin= 1 EnMin= -878.094277010217     IErMin= 1 ErrMin= 3.32D-02
 ErrMax= 3.32D-02  0.00D+00 EMaxC= 1.00D-01 BMatC= 3.28D-01 BMatP= 3.28D-01
 IDIUse=3 WtCom= 6.68D-01 WtEn= 3.32D-01
 Coeff-Com:  0.100D+01
 Coeff-En:   0.100D+01
 Coeff:      0.100D+01
 Gap=     0.173 Goal=   None    Shift=    0.000
 GapD=    0.173 DampG=1.000 DampE=0.500 DampFc=0.5000 IDamp=-1.
 Damping current iteration by 5.00D-01
 RMSDP=6.16D-03 MaxDP=1.28D-01              OVMax= 1.90D-01

 Cycle   2  Pass 0  IDiag  1:
 RMSU=  2.78D-03    CP:  9.42D-01
 E= -878.253317145907     Delta-E=       -0.159040135690 Rises=F Damp=T
 DIIS: error= 5.46D-03 at cycle   2 NSaved=   2.
 NSaved= 2 IEnMin= 2 EnMin= -878.253317145907     IErMin= 2 ErrMin= 5.46D-03
 ErrMax= 5.46D-03  0.00D+00 EMaxC= 1.00D-01 BMatC= 2.97D-02 BMatP= 3.28D-01
 IDIUse=3 WtCom= 9.45D-01 WtEn= 5.46D-02
 Coeff-Com:  0.870D-01 0.913D+00
 Coeff-En:   0.121D+00 0.879D+00
 Coeff:      0.889D-01 0.911D+00
 Gap=     0.202 Goal=   None    Shift=    0.000
 RMSDP=2.12D-03 MaxDP=5.71D-02 DE=-1.59D-01 OVMax= 1.85D-01

 Cycle   3  Pass 0  IDiag  1:
 RMSU=  1.98D-03    CP:  9.11D-01  1.10D+00
 E= -878.422573348031     Delta-E=       -0.169256202125 Rises=F Damp=F
 DIIS: error= 1.05D-02 at cycle   3 NSaved=   3.
 NSaved= 3 IEnMin= 3 EnMin= -878.422573348031     IErMin= 2 ErrMin= 5.46D-03
 ErrMax= 1.05D-02  0.00D+00 EMaxC= 1.00D-01 BMatC= 4.84D-02 BMatP= 2.97D-02
 IDIUse=2 WtCom= 0.00D+00 WtEn= 1.00D+00
 Coeff-En:   0.000D+00 0.000D+00 0.100D+01
 Coeff:      0.000D+00 0.000D+00 0.100D+01
 Gap=     0.174 Goal=   None    Shift=    0.000
 RMSDP=2.56D-03 MaxDP=1.03D-01 DE=-1.69D-01 OVMax= 2.54D-01

 Cycle   4  Pass 0  IDiag  1:
 RMSU=  1.71D-03    CP:  9.11D-01  1.36D+00  1.13D-01
 E= -878.204532943526     Delta-E=        0.218040404505 Rises=F Damp=F
 DIIS: error= 2.54D-02 at cycle   4 NSaved=   4.
 NSaved= 4 IEnMin= 3 EnMin= -878.422573348031     IErMin= 2 ErrMin= 5.46D-03
 ErrMax= 2.54D-02  0.00D+00 EMaxC= 1.00D-01 BMatC= 2.77D-01 BMatP= 2.97D-02
 IDIUse=2 WtCom= 0.00D+00 WtEn= 1.00D+00
 Coeff-En:   0.000D+00 0.000D+00 0.791D+00 0.209D+00
 Coeff:      0.000D+00 0.000D+00 0.791D+00 0.209D+00
 Gap=     0.187 Goal=   None    Shift=    0.000
 RMSDP=1.31D-03 MaxDP=5.47D-02 DE= 2.18D-01 OVMax= 1.31D-01

 Cycle   5  Pass 0  IDiag  1:
 RMSU=  2.66D-04    CP:  9.11D-01  1.21D+00  5.58D-01  5.05D-01
 E= -878.450284192508     Delta-E=       -0.245751248982 Rises=F Damp=F
 DIIS: error= 7.21D-03 at cycle   5 NSaved=   5.
 NSaved= 5 IEnMin= 5 EnMin= -878.450284192508     IErMin= 2 ErrMin= 5.46D-03
 ErrMax= 7.21D-03  0.00D+00 EMaxC= 1.00D-01 BMatC= 2.07D-02 BMatP= 2.97D-02
 IDIUse=3 WtCom= 9.28D-01 WtEn= 7.21D-02
 Coeff-Com:  0.482D-02 0.894D-02 0.315D+00-0.739D-01 0.745D+00
 Coeff-En:   0.000D+00 0.000D+00 0.343D+00 0.000D+00 0.657D+00
 Coeff:      0.448D-02 0.830D-02 0.317D+00-0.686D-01 0.739D+00
 Gap=     0.177 Goal=   None    Shift=    0.000
 RMSDP=5.10D-04 MaxDP=1.95D-02 DE=-2.46D-01 OVMax= 4.37D-02

 Cycle   6  Pass 0  IDiag  1:
 RMSU=  9.18D-05    CP:  9.10D-01  1.17D+00  7.29D-01  3.04D-01  8.68D-01
 E= -878.470234923627     Delta-E=       -0.019950731119 Rises=F Damp=F
 DIIS: error= 4.64D-04 at cycle   6 NSaved=   6.
 NSaved= 6 IEnMin= 6 EnMin= -878.470234923627     IErMin= 6 ErrMin= 4.64D-04
 ErrMax= 4.64D-04  0.00D+00 EMaxC= 1.00D-01 BMatC= 9.57D-05 BMatP= 2.07D-02
 IDIUse=3 WtCom= 9.95D-01 WtEn= 4.64D-03
 Coeff-Com:  0.749D-03 0.184D-02 0.139D+00-0.612D-01 0.437D+00 0.483D+00
 Coeff-En:   0.000D+00 0.000D+00 0.000D+00 0.000D+00 0.000D+00 0.100D+01
 Coeff:      0.745D-03 0.183D-02 0.138D+00-0.609D-01 0.435D+00 0.486D+00
 Gap=     0.176 Goal=   None    Shift=    0.000
 RMSDP=4.56D-05 MaxDP=1.48D-03 DE=-2.00D-02 OVMax= 4.05D-03

 Cycle   7  Pass 0  IDiag  1:
 RMSU=  2.14D-05    CP:  9.10D-01  1.17D+00  7.29D-01  3.10D-01  8.97D-01
                    CP:  5.88D-01
 E= -878.470329654299     Delta-E=       -0.000094730672 Rises=F Damp=F
 DIIS: error= 2.01D-04 at cycle   7 NSaved=   7.
 NSaved= 7 IEnMin= 7 EnMin= -878.470329654299     IErMin= 7 ErrMin= 2.01D-04
 ErrMax= 2.01D-04  0.00D+00 EMaxC= 1.00D-01 BMatC= 7.50D-06 BMatP= 9.57D-05
 IDIUse=3 WtCom= 9.98D-01 WtEn= 2.01D-03
 Coeff-Com:  0.289D-03-0.123D-04 0.571D-01-0.295D-01 0.193D+00 0.274D+00
 Coeff-Com:  0.505D+00
 Coeff-En:   0.000D+00 0.000D+00 0.000D+00 0.000D+00 0.000D+00 0.000D+00
 Coeff-En:   0.100D+01
 Coeff:      0.289D-03-0.123D-04 0.570D-01-0.295D-01 0.193D+00 0.273D+00
 Coeff:      0.506D+00
 Gap=     0.176 Goal=   None    Shift=    0.000
 RMSDP=1.21D-05 MaxDP=3.05D-04 DE=-9.47D-05 OVMax= 1.26D-03

 Cycle   8  Pass 0  IDiag  1:
 RMSU=  7.48D-06    CP:  9.10D-01  1.17D+00  7.30D-01  3.09D-01  8.96D-01
                    CP:  6.35D-01  6.40D-01
 E= -878.470338030916     Delta-E=       -0.000008376617 Rises=F Damp=F
 DIIS: error= 3.59D-05 at cycle   8 NSaved=   8.
 NSaved= 8 IEnMin= 8 EnMin= -878.470338030916     IErMin= 8 ErrMin= 3.59D-05
 ErrMax= 3.59D-05  0.00D+00 EMaxC= 1.00D-01 BMatC= 9.12D-07 BMatP= 7.50D-06
 IDIUse=1 WtCom= 1.00D+00 WtEn= 0.00D+00
 Coeff-Com:  0.200D-03-0.734D-03 0.995D-02-0.564D-02 0.335D-01 0.718D-01
 Coeff-Com:  0.287D+00 0.604D+00
 Coeff:      0.200D-03-0.734D-03 0.995D-02-0.564D-02 0.335D-01 0.718D-01
 Coeff:      0.287D+00 0.604D+00
 Gap=     0.176 Goal=   None    Shift=    0.000
 RMSDP=4.47D-06 MaxDP=1.06D-04 DE=-8.38D-06 OVMax= 3.52D-04

 Initial convergence to 1.0D-05 achieved.  Increase integral accuracy.
 Cycle   9  Pass 1  IDiag  1:
 E= -878.470353883532     Delta-E=       -0.000015852616 Rises=F Damp=F
 DIIS: error= 7.29D-05 at cycle   1 NSaved=   1.
 NSaved= 1 IEnMin= 1 EnMin= -878.470353883532     IErMin= 1 ErrMin= 7.29D-05
 ErrMax= 7.29D-05  0.00D+00 EMaxC= 1.00D-01 BMatC= 2.08D-06 BMatP= 2.08D-06
 IDIUse=1 WtCom= 1.00D+00 WtEn= 0.00D+00
 Coeff-Com:  0.100D+01
 Coeff:      0.100D+01
 Gap=     0.176 Goal=   None    Shift=    0.000
 RMSDP=4.47D-06 MaxDP=1.06D-04 DE=-1.59D-05 OVMax= 3.50D-04

 Cycle  10  Pass 1  IDiag  1:
 RMSU=  9.91D-05    CP:  1.00D+00
 E= -878.470355956383     Delta-E=       -0.000002072851 Rises=F Damp=F
 DIIS: error= 3.01D-05 at cycle   2 NSaved=   2.
 NSaved= 2 IEnMin= 2 EnMin= -878.470355956383     IErMin= 2 ErrMin= 3.01D-05
 ErrMax= 3.01D-05  0.00D+00 EMaxC= 1.00D-01 BMatC= 2.71D-07 BMatP= 2.08D-06
 IDIUse=1 WtCom= 1.00D+00 WtEn= 0.00D+00
 Coeff-Com:  0.151D+00 0.849D+00
 Coeff:      0.151D+00 0.849D+00
 Gap=     0.176 Goal=   None    Shift=    0.000
 RMSDP=5.90D-06 MaxDP=1.54D-04 DE=-2.07D-06 OVMax= 6.38D-04

 Cycle  11  Pass 1  IDiag  1:
 RMSU=  5.81D-06    CP:  1.00D+00  1.01D+00
 E= -878.470355478373     Delta-E=        0.000000478010 Rises=F Damp=F
 DIIS: error= 5.21D-05 at cycle   3 NSaved=   3.
 NSaved= 3 IEnMin= 2 EnMin= -878.470355956383     IErMin= 2 ErrMin= 3.01D-05
 ErrMax= 5.21D-05  0.00D+00 EMaxC= 1.00D-01 BMatC= 6.73D-07 BMatP= 2.71D-07
 IDIUse=1 WtCom= 1.00D+00 WtEn= 0.00D+00
 Coeff-Com: -0.150D-02 0.614D+00 0.388D+00
 Coeff:     -0.150D-02 0.614D+00 0.388D+00
 Gap=     0.176 Goal=   None    Shift=    0.000
 RMSDP=3.52D-06 MaxDP=9.86D-05 DE= 4.78D-07 OVMax= 4.32D-04

 Cycle  12  Pass 1  IDiag  1:
 RMSU=  7.63D-07    CP:  1.00D+00  1.01D+00  4.11D-01
 E= -878.470356265904     Delta-E=       -0.000000787531 Rises=F Damp=F
 DIIS: error= 3.80D-06 at cycle   4 NSaved=   4.
 NSaved= 4 IEnMin= 4 EnMin= -878.470356265904     IErMin= 4 ErrMin= 3.80D-06
 ErrMax= 3.80D-06  0.00D+00 EMaxC= 1.00D-01 BMatC= 8.56D-09 BMatP= 2.71D-07
 IDIUse=1 WtCom= 1.00D+00 WtEn= 0.00D+00
 Coeff-Com: -0.404D-02 0.350D+00 0.231D+00 0.423D+00
 Coeff:     -0.404D-02 0.350D+00 0.231D+00 0.423D+00
 Gap=     0.176 Goal=   None    Shift=    0.000
 RMSDP=3.77D-07 MaxDP=1.12D-05 DE=-7.88D-07 OVMax= 3.56D-05

 Cycle  13  Pass 1  IDiag  1:
 RMSU=  2.08D-07    CP:  1.00D+00  1.01D+00  4.16D-01  5.90D-01
 E= -878.470356274610     Delta-E=       -0.000000008706 Rises=F Damp=F
 DIIS: error= 5.91D-07 at cycle   5 NSaved=   5.
 NSaved= 5 IEnMin= 5 EnMin= -878.470356274610     IErMin= 5 ErrMin= 5.91D-07
 ErrMax= 5.91D-07  0.00D+00 EMaxC= 1.00D-01 BMatC= 2.13D-10 BMatP= 8.56D-09
 IDIUse=1 WtCom= 1.00D+00 WtEn= 0.00D+00
 Coeff-Com: -0.245D-02 0.202D+00 0.134D+00 0.260D+00 0.407D+00
 Coeff:     -0.245D-02 0.202D+00 0.134D+00 0.260D+00 0.407D+00
 Gap=     0.176 Goal=   None    Shift=    0.000
 RMSDP=6.18D-08 MaxDP=2.14D-06 DE=-8.71D-09 OVMax= 4.82D-06

 Cycle  14  Pass 1  IDiag  1:
 RMSU=  5.72D-08    CP:  1.00D+00  1.01D+00  4.14D-01  5.90D-01  9.08D-01
 E= -878.470356274812     Delta-E=       -0.000000000202 Rises=F Damp=F
 DIIS: error= 1.62D-07 at cycle   6 NSaved=   6.
 NSaved= 6 IEnMin= 6 EnMin= -878.470356274812     IErMin= 6 ErrMin= 1.62D-07
 ErrMax= 1.62D-07  0.00D+00 EMaxC= 1.00D-01 BMatC= 1.43D-11 BMatP= 2.13D-10
 IDIUse=1 WtCom= 1.00D+00 WtEn= 0.00D+00
 Coeff-Com: -0.816D-03 0.653D-01 0.432D-01 0.880D-01 0.234D+00 0.571D+00
 Coeff:     -0.816D-03 0.653D-01 0.432D-01 0.880D-01 0.234D+00 0.571D+00
 Gap=     0.176 Goal=   None    Shift=    0.000
 RMSDP=1.95D-08 MaxDP=7.69D-07 DE=-2.02D-10 OVMax= 1.56D-06

 Cycle  15  Pass 1  IDiag  1:
 RMSU=  1.69D-08    CP:  1.00D+00  1.01D+00  4.13D-01  5.92D-01  9.35D-01
                    CP:  8.78D-01
 E= -878.470356274830     Delta-E=       -0.000000000018 Rises=F Damp=F
 DIIS: error= 5.06D-08 at cycle   7 NSaved=   7.
 NSaved= 7 IEnMin= 7 EnMin= -878.470356274830     IErMin= 7 ErrMin= 5.06D-08
 ErrMax= 5.06D-08  0.00D+00 EMaxC= 1.00D-01 BMatC= 2.74D-12 BMatP= 1.43D-11
 IDIUse=1 WtCom= 1.00D+00 WtEn= 0.00D+00
 Coeff-Com: -0.846D-04 0.576D-02 0.381D-02 0.101D-01 0.780D-01 0.356D+00
 Coeff-Com:  0.547D+00
 Coeff:     -0.846D-04 0.576D-02 0.381D-02 0.101D-01 0.780D-01 0.356D+00
 Coeff:      0.547D+00
 Gap=     0.176 Goal=   None    Shift=    0.000
 RMSDP=7.47D-09 MaxDP=2.45D-07 DE=-1.82D-11 OVMax= 5.27D-07

 SCF Done:  E(RB3LYP) =  -878.470356275     A.U. after   15 cycles
            NFock= 15  Conv=0.75D-08     -V/T= 2.0092
 KE= 8.704954196138D+02 PE=-5.050058734301D+03 EE= 1.795311169702D+03
 Leave Link  502 at Wed Jul 31 20:31:41 2024, MaxMem= 13421772800 cpu:             375.9 elap:              11.8
 (Enter /public/software/apps/Gaussian/g16/l601.exe)
 Copying SCF densities to generalized density rwf, IOpCl= 0 IROHF=0.

 **********************************************************************

            Population analysis using the SCF Density.

 **********************************************************************

 Alpha  occ. eigenvalues --  -19.16978 -14.32697 -14.30346 -10.27260 -10.23945
 Alpha  occ. eigenvalues --  -10.23723 -10.21974 -10.21896 -10.21339 -10.20934
 Alpha  occ. eigenvalues --  -10.20258 -10.20175 -10.20032 -10.20009 -10.19913
 Alpha  occ. eigenvalues --  -10.18816 -10.18173 -10.18125 -10.18000 -10.17954
 Alpha  occ. eigenvalues --  -10.17614  -1.09004  -0.95399  -0.90680  -0.87030
 Alpha  occ. eigenvalues --   -0.85220  -0.80686  -0.78537  -0.77032  -0.74487
 Alpha  occ. eigenvalues --   -0.73900  -0.72367  -0.66296  -0.64577  -0.63966
 Alpha  occ. eigenvalues --   -0.62824  -0.60369  -0.58235  -0.57096  -0.54495
 Alpha  occ. eigenvalues --   -0.53084  -0.52358  -0.51061  -0.50135  -0.48737
 Alpha  occ. eigenvalues --   -0.47070  -0.46685  -0.45629  -0.44859  -0.44291
 Alpha  occ. eigenvalues --   -0.44082  -0.42698  -0.42272  -0.41887  -0.40844
 Alpha  occ. eigenvalues --   -0.39993  -0.38539  -0.38037  -0.36878  -0.36719
 Alpha  occ. eigenvalues --   -0.35863  -0.35471  -0.34510  -0.34076  -0.31053
 Alpha  occ. eigenvalues --   -0.27865  -0.27596  -0.26333  -0.25591  -0.25402
 Alpha  occ. eigenvalues --   -0.24664  -0.24100
 Alpha virt. eigenvalues --   -0.06541  -0.03282  -0.00596  -0.00473   0.00801
 Alpha virt. eigenvalues --    0.01725   0.05434   0.06375   0.07074   0.07756
 Alpha virt. eigenvalues --    0.08225   0.09251   0.10520   0.11356   0.11842
 Alpha virt. eigenvalues --    0.12331   0.12956   0.13981   0.14440   0.15041
 Alpha virt. eigenvalues --    0.15753   0.16270   0.16702   0.17735   0.20777
 Alpha virt. eigenvalues --    0.21381   0.24046   0.24653   0.25620   0.25909
 Alpha virt. eigenvalues --    0.27301   0.27964   0.28967   0.29835   0.30556
 Alpha virt. eigenvalues --    0.31435   0.31709   0.32607   0.33508   0.33602
 Alpha virt. eigenvalues --    0.35376   0.36119   0.36498   0.37595   0.38945
 Alpha virt. eigenvalues --    0.40310   0.41360   0.42037   0.42584   0.43377
 Alpha virt. eigenvalues --    0.43733   0.44419   0.44678   0.45660   0.45972
 Alpha virt. eigenvalues --    0.46656   0.47472   0.47995   0.48337   0.49009
 Alpha virt. eigenvalues --    0.49305   0.49830   0.49925   0.51024   0.51065
 Alpha virt. eigenvalues --    0.52145   0.53804   0.54261   0.55737   0.56266
 Alpha virt. eigenvalues --    0.56803   0.57429   0.57634   0.58696   0.60274
 Alpha virt. eigenvalues --    0.60672   0.61940   0.62072   0.63088   0.63835
 Alpha virt. eigenvalues --    0.64672   0.65278   0.66442   0.67183   0.67243
 Alpha virt. eigenvalues --    0.67714   0.68221   0.68328   0.68566   0.68804
 Alpha virt. eigenvalues --    0.69004   0.69938   0.70303   0.71469   0.72021
 Alpha virt. eigenvalues --    0.72789   0.73154   0.73936   0.74259   0.74693
 Alpha virt. eigenvalues --    0.75370   0.75717   0.76766   0.77426   0.77730
 Alpha virt. eigenvalues --    0.78430   0.80665   0.81738   0.82407   0.82878
 Alpha virt. eigenvalues --    0.83622   0.85197   0.86188   0.87131   0.88071
 Alpha virt. eigenvalues --    0.90297   0.92473   0.93976   0.95290   0.95786
 Alpha virt. eigenvalues --    0.98363   1.01305   1.01842   1.05523   1.07494
 Alpha virt. eigenvalues --    1.08806   1.10268   1.11113   1.11630   1.13013
 Alpha virt. eigenvalues --    1.18115   1.19484   1.22244   1.22805   1.25136
 Alpha virt. eigenvalues --    1.25748   1.26271   1.28248   1.29102   1.31698
 Alpha virt. eigenvalues --    1.33479   1.35592   1.37604   1.38225   1.38717
 Alpha virt. eigenvalues --    1.42094   1.43306   1.45393   1.47054   1.47856
 Alpha virt. eigenvalues --    1.48634   1.49281   1.49955   1.50980   1.51909
 Alpha virt. eigenvalues --    1.53315   1.57324   1.59894   1.61242   1.62849
 Alpha virt. eigenvalues --    1.67022   1.68612   1.71186   1.73122   1.74601
 Alpha virt. eigenvalues --    1.76233   1.76591   1.78478   1.79303   1.80184
 Alpha virt. eigenvalues --    1.81691   1.82280   1.83781   1.84029   1.85223
 Alpha virt. eigenvalues --    1.87211   1.88390   1.88660   1.93435   1.94148
 Alpha virt. eigenvalues --    1.95377   1.97162   1.97702   1.99011   2.00448
 Alpha virt. eigenvalues --    2.02561   2.05623   2.05761   2.07667   2.08813
 Alpha virt. eigenvalues --    2.09093   2.11306   2.13104   2.14266   2.15528
 Alpha virt. eigenvalues --    2.18148   2.18214   2.20592   2.21176   2.23854
 Alpha virt. eigenvalues --    2.24402   2.24865   2.26969   2.29373   2.30115
 Alpha virt. eigenvalues --    2.31647   2.32402   2.32635   2.36016   2.37234
 Alpha virt. eigenvalues --    2.39814   2.44198   2.44999   2.47009   2.48413
 Alpha virt. eigenvalues --    2.51616   2.54767   2.56253   2.58697   2.59285
 Alpha virt. eigenvalues --    2.60940   2.61516   2.64436   2.66043   2.67736
 Alpha virt. eigenvalues --    2.68293   2.72469   2.72675   2.74393   2.75450
 Alpha virt. eigenvalues --    2.78473   2.80467   2.80822   2.82278   2.83951
 Alpha virt. eigenvalues --    2.85217   2.90046   2.93091   2.96373   2.98372
 Alpha virt. eigenvalues --    3.05213   3.06853   3.13137   3.23863   3.26894
 Alpha virt. eigenvalues --    3.37382   3.40446   3.41407   3.53696   3.57408
          Condensed to atoms (all electrons):
               1          2          3          4          5          6
     1  C    5.293542   0.160526   0.165254  -0.209682  -0.000717   0.000070
     2  C    0.160526   5.231248   0.184681   0.175914   0.016299  -0.000157
     3  C    0.165254   0.184681   5.390224   0.188883  -0.096646  -0.011923
     4  C   -0.209682   0.175914   0.188883   5.317913   0.284001  -0.023791
     5  C   -0.000717   0.016299  -0.096646   0.284001   5.104345   0.312051
     6  C    0.000070  -0.000157  -0.011923  -0.023791   0.312051   4.793621
     7  O    0.000001  -0.000012   0.001367   0.000466  -0.064052   0.327989
     8  C    0.000017  -0.000126   0.007183  -0.007312  -0.052732  -0.118563
     9  C    0.000000  -0.000004  -0.001535   0.000022   0.013794   0.007532
    10  N    0.000000  -0.000006  -0.001228   0.000115  -0.000452  -0.000395
    11  C    0.000000  -0.000000  -0.000014  -0.000004   0.000028   0.000010
    12  C    0.000000  -0.000000  -0.000001   0.000000   0.000003   0.000000
    13  C    0.000000  -0.000000  -0.000001   0.000001   0.000016   0.000009
    14  C    0.000000  -0.000000  -0.000000  -0.000000  -0.000000  -0.000000
    15  C   -0.000000   0.000000  -0.000000  -0.000000   0.000000  -0.000000
    16  C    0.000000  -0.000000  -0.000000   0.000000  -0.000005   0.000003
    17  C   -0.000000   0.000000   0.000002  -0.000033   0.000287  -0.000137
    18  C   -0.000000   0.000000  -0.000041   0.000028  -0.000798  -0.000709
    19  N   -0.000036   0.000657  -0.001588  -0.059738   0.350672  -0.053854
    20  C    0.168515  -0.193787   0.095876   0.180714  -0.108151  -0.004590
    21  C    0.169386   0.168465  -0.180607   0.176537   0.015284  -0.000566
    22  H    0.441447  -0.084981   0.016389  -0.001859   0.000038   0.000001
    23  H   -0.089663   0.445584  -0.085903   0.017657  -0.000418   0.000005
    24  H    0.015549  -0.082043   0.423118  -0.067991  -0.034100   0.002609
    25  H   -0.000042  -0.000362   0.013130  -0.026862   0.331163  -0.021786
    26  H   -0.000116  -0.000517   0.006670  -0.006715  -0.009891   0.352024
    27  H    0.000005   0.000008   0.000115   0.003796  -0.000153   0.338375
    28  H   -0.000000   0.000000   0.000007   0.000000  -0.000000  -0.000000
    29  H   -0.000000   0.000000   0.000000  -0.000000   0.000000   0.000000
    30  H   -0.000000   0.000000   0.000000   0.000000   0.000000   0.000000
    31  H    0.000000  -0.000000  -0.000000   0.000000  -0.000000  -0.000000
    32  H   -0.000000   0.000000   0.000000  -0.000000   0.000001   0.000000
    33  H   -0.000000   0.000000   0.000001   0.000017   0.000157   0.000179
    34  H    0.016100  -0.002127   0.018002  -0.088102  -0.019600   0.000398
    35  H   -0.088059   0.016862  -0.002274   0.018260  -0.000403   0.000010
               7          8          9         10         11         12
     1  C    0.000001   0.000017   0.000000   0.000000   0.000000   0.000000
     2  C   -0.000012  -0.000126  -0.000004  -0.000006  -0.000000  -0.000000
     3  C    0.001367   0.007183  -0.001535  -0.001228  -0.000014  -0.000001
     4  C    0.000466  -0.007312   0.000022   0.000115  -0.000004   0.000000
     5  C   -0.064052  -0.052732   0.013794  -0.000452   0.000028   0.000003
     6  C    0.327989  -0.118563   0.007532  -0.000395   0.000010   0.000000
     7  O    7.887422   0.364637  -0.071894  -0.001784  -0.000110  -0.000009
     8  C    0.364637   5.164681   0.084298  -0.090371   0.009250   0.001138
     9  C   -0.071894   0.084298   5.365650   0.618473  -0.053222  -0.069531
    10  N   -0.001784  -0.090371   0.618473   6.187272   0.482774  -0.017811
    11  C   -0.000110   0.009250  -0.053222   0.482774   4.863948   0.402843
    12  C   -0.000009   0.001138  -0.069531  -0.017811   0.402843   5.266873
    13  C   -0.000196   0.020047  -0.092792  -0.056410   0.041535   0.376982
    14  C   -0.000002  -0.000534   0.025578  -0.000121   0.013744  -0.141459
    15  C    0.000001   0.000174  -0.002164   0.000014  -0.000970   0.018085
    16  C    0.000015  -0.003009   0.022441  -0.000132  -0.000062  -0.001650
    17  C   -0.000443  -0.023349  -0.105523   0.007005   0.000398   0.022245
    18  C    0.001211  -0.074561   0.378390  -0.035612  -0.078096  -0.055107
    19  N   -0.086621   0.604672  -0.061364  -0.005063   0.000008  -0.000011
    20  C   -0.000051   0.000612   0.000066   0.000002   0.000000   0.000000
    21  C    0.000002  -0.000013  -0.000001  -0.000000  -0.000000  -0.000000
    22  H   -0.000000   0.000000  -0.000000   0.000000  -0.000000   0.000000
    23  H   -0.000000   0.000002  -0.000001  -0.000004  -0.000000  -0.000000
    24  H   -0.000746   0.002758   0.001093   0.007057   0.000132   0.000014
    25  H    0.003658   0.001021  -0.001101  -0.000002   0.000000  -0.000000
    26  H   -0.027064   0.007710  -0.000224   0.000027   0.000001   0.000000
    27  H   -0.029432   0.008557  -0.000177   0.000004  -0.000000  -0.000000
    28  H    0.000003  -0.000847   0.004895  -0.046091   0.409469  -0.079686
    29  H   -0.000000   0.000126   0.000528   0.006332  -0.057669   0.402524
    30  H   -0.000000   0.000010  -0.000361   0.000009   0.000387  -0.020269
    31  H    0.000000  -0.000000   0.000041  -0.000000   0.000008  -0.000469
    32  H   -0.000002  -0.000001  -0.000470   0.000003   0.000001   0.000048
    33  H    0.002131   0.028188  -0.044911  -0.000292   0.000012  -0.000291
    34  H   -0.000003   0.000004   0.000002   0.000000   0.000000   0.000000
    35  H   -0.000000  -0.000000   0.000000  -0.000000   0.000000  -0.000000
              13         14         15         16         17         18
     1  C    0.000000   0.000000  -0.000000   0.000000  -0.000000  -0.000000
     2  C   -0.000000  -0.000000   0.000000  -0.000000   0.000000   0.000000
     3  C   -0.000001  -0.000000  -0.000000  -0.000000   0.000002  -0.000041
     4  C    0.000001  -0.000000  -0.000000   0.000000  -0.000033   0.000028
     5  C    0.000016  -0.000000   0.000000  -0.000005   0.000287  -0.000798
     6  C    0.000009  -0.000000  -0.000000   0.000003  -0.000137  -0.000709
     7  O   -0.000196  -0.000002   0.000001   0.000015  -0.000443   0.001211
     8  C    0.020047  -0.000534   0.000174  -0.003009  -0.023349  -0.074561
     9  C   -0.092792   0.025578  -0.002164   0.022441  -0.105523   0.378390
    10  N   -0.056410  -0.000121   0.000014  -0.000132   0.007005  -0.035612
    11  C    0.041535   0.013744  -0.000970  -0.000062   0.000398  -0.078096
    12  C    0.376982  -0.141459   0.018085  -0.001650   0.022245  -0.055107
    13  C    5.326968   0.205490   0.160543  -0.185466   0.049913   0.114588
    14  C    0.205490   5.419732   0.199110   0.163817  -0.174354   0.055931
    15  C    0.160543   0.199110   5.237864   0.137874   0.153888  -0.167732
    16  C   -0.185466   0.163817   0.137874   5.263584   0.201712   0.149753
    17  C    0.049913  -0.174354   0.153888   0.201712   5.398909   0.214453
    18  C    0.114588   0.055931  -0.167732   0.149753   0.214453   5.378117
    19  N   -0.000106  -0.000001  -0.000003   0.000009  -0.003444  -0.002614
    20  C   -0.000000   0.000000  -0.000000   0.000000   0.000000  -0.000001
    21  C    0.000000  -0.000000   0.000000  -0.000000  -0.000000   0.000000
    22  H   -0.000000   0.000000  -0.000000   0.000000   0.000000  -0.000000
    23  H   -0.000000  -0.000000  -0.000000  -0.000000   0.000000  -0.000000
    24  H    0.000008   0.000000  -0.000000   0.000000  -0.000012   0.000144
    25  H   -0.000001   0.000000   0.000000  -0.000000   0.000052   0.000092
    26  H   -0.000001  -0.000000   0.000000  -0.000000   0.000010   0.000048
    27  H    0.000002   0.000000  -0.000000  -0.000004   0.000030  -0.000014
    28  H    0.006730  -0.000500   0.000009  -0.000004   0.000140   0.002791
    29  H   -0.063840  -0.019478   0.000349  -0.000014  -0.000283   0.015847
    30  H   -0.077670   0.440972  -0.087400   0.015677  -0.002275   0.019319
    31  H    0.016463  -0.083501   0.441651  -0.083607   0.016360  -0.001612
    32  H   -0.001248   0.015807  -0.083450   0.439524  -0.079750   0.015562
    33  H    0.019662  -0.002504   0.014699  -0.092902   0.422480  -0.041669
    34  H   -0.000000   0.000000  -0.000000   0.000000   0.000000  -0.000000
    35  H   -0.000000   0.000000   0.000000   0.000000   0.000000  -0.000000
              19         20         21         22         23         24
     1  C   -0.000036   0.168515   0.169386   0.441447  -0.089663   0.015549
     2  C    0.000657  -0.193787   0.168465  -0.084981   0.445584  -0.082043
     3  C   -0.001588   0.095876  -0.180607   0.016389  -0.085903   0.423118
     4  C   -0.059738   0.180714   0.176537  -0.001859   0.017657  -0.067991
     5  C    0.350672  -0.108151   0.015284   0.000038  -0.000418  -0.034100
     6  C   -0.053854  -0.004590  -0.000566   0.000001   0.000005   0.002609
     7  O   -0.086621  -0.000051   0.000002  -0.000000  -0.000000  -0.000746
     8  C    0.604672   0.000612  -0.000013   0.000000   0.000002   0.002758
     9  C   -0.061364   0.000066  -0.000001  -0.000000  -0.000001   0.001093
    10  N   -0.005063   0.000002  -0.000000   0.000000  -0.000004   0.007057
    11  C    0.000008   0.000000  -0.000000  -0.000000  -0.000000   0.000132
    12  C   -0.000011   0.000000  -0.000000   0.000000  -0.000000   0.000014
    13  C   -0.000106  -0.000000   0.000000  -0.000000  -0.000000   0.000008
    14  C   -0.000001   0.000000  -0.000000   0.000000  -0.000000   0.000000
    15  C   -0.000003  -0.000000   0.000000  -0.000000  -0.000000  -0.000000
    16  C    0.000009   0.000000  -0.000000   0.000000  -0.000000   0.000000
    17  C   -0.003444   0.000000  -0.000000   0.000000   0.000000  -0.000012
    18  C   -0.002614  -0.000001   0.000000  -0.000000  -0.000000   0.000144
    19  N    6.488755   0.004717  -0.000248   0.000000  -0.000001   0.010369
    20  C    0.004717   5.437475   0.171786   0.016543  -0.002102   0.018584
    21  C   -0.000248   0.171786   5.233178  -0.085580   0.016773  -0.002578
    22  H    0.000000   0.016543  -0.085580   0.678697  -0.013221  -0.000272
    23  H   -0.000001  -0.002102   0.016773  -0.013221   0.676935  -0.012596
    24  H    0.010369   0.018584  -0.002578  -0.000272  -0.012596   0.650980
    25  H   -0.026959  -0.013672   0.000623  -0.000001   0.000013   0.000428
    26  H    0.002391  -0.002203   0.000068  -0.000002   0.000017   0.000741
    27  H    0.002523   0.001438  -0.000023  -0.000000  -0.000000  -0.000135
    28  H    0.000003  -0.000000   0.000000  -0.000000   0.000000  -0.000063
    29  H   -0.000000  -0.000000   0.000000  -0.000000   0.000000  -0.000001
    30  H   -0.000000  -0.000000   0.000000  -0.000000   0.000000  -0.000000
    31  H    0.000000   0.000000  -0.000000  -0.000000  -0.000000   0.000000
    32  H    0.000001  -0.000000   0.000000  -0.000000   0.000000  -0.000000
    33  H   -0.000286  -0.000001   0.000000  -0.000000   0.000000  -0.000002
    34  H    0.000297   0.439183  -0.084082  -0.000320   0.000046  -0.000218
    35  H    0.000003  -0.087008   0.442638  -0.013316  -0.000316   0.000037
              25         26         27         28         29         30
     1  C   -0.000042  -0.000116   0.000005  -0.000000  -0.000000  -0.000000
     2  C   -0.000362  -0.000517   0.000008   0.000000   0.000000   0.000000
     3  C    0.013130   0.006670   0.000115   0.000007   0.000000   0.000000
     4  C   -0.026862  -0.006715   0.003796   0.000000  -0.000000   0.000000
     5  C    0.331163  -0.009891  -0.000153  -0.000000   0.000000   0.000000
     6  C   -0.021786   0.352024   0.338375  -0.000000   0.000000   0.000000
     7  O    0.003658  -0.027064  -0.029432   0.000003  -0.000000  -0.000000
     8  C    0.001021   0.007710   0.008557  -0.000847   0.000126   0.000010
     9  C   -0.001101  -0.000224  -0.000177   0.004895   0.000528  -0.000361
    10  N   -0.000002   0.000027   0.000004  -0.046091   0.006332   0.000009
    11  C    0.000000   0.000001  -0.000000   0.409469  -0.057669   0.000387
    12  C   -0.000000   0.000000  -0.000000  -0.079686   0.402524  -0.020269
    13  C   -0.000001  -0.000001   0.000002   0.006730  -0.063840  -0.077670
    14  C    0.000000  -0.000000   0.000000  -0.000500  -0.019478   0.440972
    15  C    0.000000   0.000000  -0.000000   0.000009   0.000349  -0.087400
    16  C   -0.000000  -0.000000  -0.000004  -0.000004  -0.000014   0.015677
    17  C    0.000052   0.000010   0.000030   0.000140  -0.000283  -0.002275
    18  C    0.000092   0.000048  -0.000014   0.002791   0.015847   0.019319
    19  N   -0.026959   0.002391   0.002523   0.000003  -0.000000  -0.000000
    20  C   -0.013672  -0.002203   0.001438  -0.000000  -0.000000  -0.000000
    21  C    0.000623   0.000068  -0.000023   0.000000   0.000000   0.000000
    22  H   -0.000001  -0.000002  -0.000000  -0.000000  -0.000000  -0.000000
    23  H    0.000013   0.000017  -0.000000   0.000000   0.000000   0.000000
    24  H    0.000428   0.000741  -0.000135  -0.000063  -0.000001  -0.000000
    25  H    0.671429   0.007217  -0.013727  -0.000000   0.000000  -0.000000
    26  H    0.007217   0.604748  -0.034962   0.000000  -0.000000  -0.000000
    27  H   -0.013727  -0.034962   0.638576  -0.000000  -0.000000  -0.000000
    28  H   -0.000000   0.000000  -0.000000   0.645839  -0.006641  -0.000009
    29  H    0.000000  -0.000000  -0.000000  -0.006641   0.666573   0.007611
    30  H   -0.000000  -0.000000  -0.000000  -0.000009   0.007611   0.675816
    31  H   -0.000000   0.000000  -0.000000  -0.000000  -0.000014  -0.012948
    32  H   -0.000000  -0.000000   0.000000   0.000000  -0.000000  -0.000297
    33  H    0.000004   0.000022  -0.000138   0.000001   0.000008   0.000034
    34  H    0.010333   0.000482  -0.000204  -0.000000  -0.000000  -0.000000
    35  H   -0.000002   0.000008  -0.000003   0.000000   0.000000   0.000000
              31         32         33         34         35
     1  C    0.000000  -0.000000  -0.000000   0.016100  -0.088059
     2  C   -0.000000   0.000000   0.000000  -0.002127   0.016862
     3  C   -0.000000   0.000000   0.000001   0.018002  -0.002274
     4  C    0.000000  -0.000000   0.000017  -0.088102   0.018260
     5  C   -0.000000   0.000001   0.000157  -0.019600  -0.000403
     6  C   -0.000000   0.000000   0.000179   0.000398   0.000010
     7  O    0.000000  -0.000002   0.002131  -0.000003  -0.000000
     8  C   -0.000000  -0.000001   0.028188   0.000004  -0.000000
     9  C    0.000041  -0.000470  -0.044911   0.000002   0.000000
    10  N   -0.000000   0.000003  -0.000292   0.000000  -0.000000
    11  C    0.000008   0.000001   0.000012   0.000000   0.000000
    12  C   -0.000469   0.000048  -0.000291   0.000000  -0.000000
    13  C    0.016463  -0.001248   0.019662  -0.000000  -0.000000
    14  C   -0.083501   0.015807  -0.002504   0.000000   0.000000
    15  C    0.441651  -0.083450   0.014699  -0.000000   0.000000
    16  C   -0.083607   0.439524  -0.092902   0.000000   0.000000
    17  C    0.016360  -0.079750   0.422480   0.000000   0.000000
    18  C   -0.001612   0.015562  -0.041669  -0.000000  -0.000000
    19  N    0.000000   0.000001  -0.000286   0.000297   0.000003
    20  C    0.000000  -0.000000  -0.000001   0.439183  -0.087008
    21  C   -0.000000   0.000000   0.000000  -0.084082   0.442638
    22  H   -0.000000  -0.000000  -0.000000  -0.000320  -0.013316
    23  H   -0.000000   0.000000   0.000000   0.000046  -0.000316
    24  H    0.000000  -0.000000  -0.000002  -0.000218   0.000037
    25  H   -0.000000  -0.000000   0.000004   0.010333  -0.000002
    26  H    0.000000  -0.000000   0.000022   0.000482   0.000008
    27  H   -0.000000   0.000000  -0.000138  -0.000204  -0.000003
    28  H   -0.000000   0.000000   0.000001  -0.000000   0.000000
    29  H   -0.000014  -0.000000   0.000008  -0.000000   0.000000
    30  H   -0.012948  -0.000297   0.000034  -0.000000   0.000000
    31  H    0.664221  -0.012713  -0.000280  -0.000000  -0.000000
    32  H   -0.012713   0.665048  -0.012077  -0.000000  -0.000000
    33  H   -0.000280  -0.012077   0.646080  -0.000000   0.000000
    34  H   -0.000000  -0.000000  -0.000000   0.693341  -0.013360
    35  H   -0.000000  -0.000000   0.000000  -0.013360   0.682375
 Mulliken charges:
               1
     1  C   -0.042098
     2  C   -0.036126
     3  C   -0.129140
     4  C    0.127765
     5  C   -0.040021
     6  C    0.101585
     7  O   -0.306481
     8  C    0.066335
     9  C   -0.017525
    10  N   -0.053314
    11  C   -0.034402
    12  C   -0.104460
    13  C    0.138775
    14  C   -0.117727
    15  C   -0.022540
    16  C   -0.027554
    17  C   -0.098280
    18  C    0.112290
    19  N   -0.163140
    20  C   -0.123946
    21  C   -0.041041
    22  H    0.046437
    23  H    0.047195
    24  H    0.067136
    25  H    0.065358
    26  H    0.099514
    27  H    0.085545
    28  H    0.063953
    29  H    0.048041
    30  H    0.041394
    31  H    0.056400
    32  H    0.054014
    33  H    0.061680
    34  H    0.029829
    35  H    0.044549
 Sum of Mulliken charges =  -0.00000
 Mulliken charges with hydrogens summed into heavy atoms:
               1
     1  C    0.004339
     2  C    0.011069
     3  C   -0.062004
     4  C    0.127765
     5  C    0.025336
     6  C    0.286644
     7  O   -0.306481
     8  C    0.066335
     9  C   -0.017525
    10  N   -0.053314
    11  C    0.029551
    12  C   -0.056419
    13  C    0.138775
    14  C   -0.076333
    15  C    0.033860
    16  C    0.026460
    17  C   -0.036599
    18  C    0.112290
    19  N   -0.163140
    20  C   -0.094117
    21  C    0.003508
 Electronic spatial extent (au):  <R**2>=           7473.3981
 Charge=             -0.0000 electrons
 Dipole moment (field-independent basis, Debye):
    X=              1.6653    Y=              0.7067    Z=              1.8621  Tot=              2.5962
 Quadrupole moment (field-independent basis, Debye-Ang):
   XX=            -97.8470   YY=           -120.6502   ZZ=           -116.4641
   XY=              2.2782   XZ=             -3.8161   YZ=              9.7340
 Traceless Quadrupole moment (field-independent basis, Debye-Ang):
   XX=             13.8067   YY=             -8.9964   ZZ=             -4.8103
   XY=              2.2782   XZ=             -3.8161   YZ=              9.7340
 Octapole moment (field-independent basis, Debye-Ang**2):
  XXX=             51.4105  YYY=             -3.2119  ZZZ=              6.2039  XYY=              8.7251
  XXY=             10.0211  XXZ=             -6.6336  XZZ=              2.4143  YZZ=             -2.2422
  YYZ=              6.0886  XYZ=              5.5700
 Hexadecapole moment (field-independent basis, Debye-Ang**3):
 XXXX=          -7693.2659 YYYY=           -820.9450 ZZZZ=          -1091.9964 XXXY=           -256.8362
 XXXZ=           -267.4744 YYYX=           -310.8906 YYYZ=           -265.0047 ZZZX=           -306.5822
 ZZZY=           -250.2216 XXYY=          -1535.8517 XXZZ=          -1551.6167 YYZZ=           -284.4321
 XXYZ=             48.8907 YYXZ=            -76.8823 ZZXY=            -75.3489
 N-N= 1.505781788711D+03 E-N=-5.050058742690D+03  KE= 8.704954196138D+02
 No NMR shielding tensors so no spin-rotation constants.
 Leave Link  601 at Wed Jul 31 20:31:42 2024, MaxMem= 13421772800 cpu:               3.9 elap:               0.1
 (Enter /public/software/apps/Gaussian/g16/l701.exe)
 ... and contract with generalized density number  0.
 Compute integral first derivatives.
 R6Disp: Adding Grimme-D3(BJ) dispersion energy 1st derivatives to the gradient.
   1 Symmetry operations used in ECPInt.
 ECPInt:  NShTT=   11935 NPrTT=   47901 LenC2=   10763 LenP2D=   29278.
 LDataN:  DoStor=T MaxTD1= 5 Len=  102
 Leave Link  701 at Wed Jul 31 20:31:42 2024, MaxMem= 13421772800 cpu:               6.5 elap:               0.2
 (Enter /public/software/apps/Gaussian/g16/l702.exe)
 L702 exits ... SP integral derivatives will be done elsewhere.
 Leave Link  702 at Wed Jul 31 20:31:42 2024, MaxMem= 13421772800 cpu:               0.7 elap:               0.0
 (Enter /public/software/apps/Gaussian/g16/l703.exe)
 Integral derivatives from FoFJK, PRISM(SPDF).
 Compute integral first derivatives, UseDBF=F ICtDFT=           0.
 Calling FoFJK, ICntrl=      2127 FMM=F ISym2X=0 I1Cent= 0 IOpClX= 0 NMat=1 NMatS=1 NMatT=0.
[...]
 004084,0.00001148,-0.00002555,0.00000634,0.00000524,0.00006702,0.00002
 423,0.00003290,-0.00015858,-0.00017014,-0.00012420,-0.00076441,0.00005
 349,0.00031175,-0.00007894,0.00020703,0.00024450,0.00038006,0.00005612
 ,0.00005583,-0.00103852,0.00176559,0.00023740,-0.01260777,0.00365327,0
 .00907773,0.10503448,-0.04372184,-0.11019550,0.02548162,-0.00791231,-0
 .00766062,-0.00196986,-0.00513712,-0.00246325,-0.00056534,0.00008300,-
 0.00051312,-0.00227595,-0.00239769,-0.00018289,-0.00000304,0.00000502,
 0.00001186,0.00000276,0.00000481,0.00000334,0.00000038,-0.00000032,0.0
 0000011,0.00000158,0.00000085,0.00000055,-0.00000055,0.00000047,0.0000
 0113,-0.00000366,-0.00000252,-0.00000085,-0.00000666,-0.00000128,0.000
 00540,0.00000395,0.00000117,-0.00000152,-0.00000341,0.00000049,0.00000
 111,0.00002208,-0.00008124,0.00006369,0.00041319,-0.00015755,-0.000091
 79,-0.11303576,0.05103925,0.11175396,-0.00000545,-0.00000264,-0.000000
 57,-0.00000125,0.00000514,0.00000528,-0.00000385,-0.00000661,-0.000008
 07,0.00000667,0.00001855,0.00002014,0.00003516,-0.00000268,-0.00002009
 ,0.00010139,-0.00003868,-0.00004194,-0.00022385,-0.00006136,-0.0001091
 9,0.00014255,-0.00002580,0.00017832,-0.00003325,-0.00013034,-0.0000929
 2,-0.00009074,0.00005730,0.00004106,0.00014781,-0.00009958,-0.00005234
 ,-0.00008268,0.00001506,0.00002735,0.00152788,0.00070467,0.00030649,0.
 00321233,0.00093151,0.00160169,-0.27259737,-0.03918494,-0.11147334,-0.
 01761333,-0.00565606,-0.01433371,-0.00279721,0.00228946,0.00338677,0.0
 0056390,0.00032622,0.00080325,-0.00009590,0.00004378,-0.00003495,-0.00
 000594,-0.00001430,-0.00001068,-0.00000151,0.00000037,-0.00000048,-0.0
 0000356,-0.00000217,-0.00000095,0.00000033,-0.00000262,-0.00000194,0.0
 0000640,0.00000972,0.00000712,-0.00001240,0.00000446,0.00000435,-0.000
 01508,-0.00000287,0.00000662,0.00000192,0.00000946,0.00000091,-0.00000
 070,0.00000086,-0.00000248,0.00001450,0.00000545,-0.00001642,0.0007845
 8,-0.00045762,-0.00006727,0.28663237,-0.00000048,-0.00000057,0.0000006
 1,-0.00000031,0.00000035,0.00000161,0.00000249,-0.00000125,-0.00000134
 ,-0.00000223,0.,0.00000751,0.00000857,-0.00000200,-0.00001451,-0.00000
 591,0.00001571,0.00001867,0.00006461,0.00000505,0.00004677,0.00002685,
 0.00004437,-0.00016287,-0.00001485,-0.00071073,0.00053118,0.00010093,0
 .00026590,-0.00022563,-0.00011220,-0.00071045,0.00010288,-0.00062644,0
 .00005269,0.00008963,0.00112173,0.00611818,-0.00581703,-0.01313200,0.0
 0262714,-0.00640451,-0.03894134,-0.05138335,-0.02863550,0.00832519,0.0
 0536723,0.00417762,0.00183420,0.00381396,-0.00284080,0.00011991,-0.000
 63903,-0.00006051,-0.00002998,-0.00000145,0.00004478,-0.00000064,-0.00
 000205,-0.00000021,-0.00000085,-0.00000053,0.00000021,-0.00000081,0.00
 000004,-0.00000052,0.00000011,0.00000028,-0.00000103,0.00000180,0.0000
 0262,-0.00000082,0.00000055,-0.00000039,0.00000155,0.00000027,-0.00000
 217,0.00000015,-0.00000558,0.00000019,-0.00000173,-0.00006210,0.000011
 13,-0.00003494,0.00003751,0.00015256,-0.00007796,-0.00014993,-0.003815
 72,0.00257049,0.04166211,0.04091329,-0.00000156,-0.00000008,-0.0000000
 3,-0.00000155,0.00000276,0.00000217,0.00000306,-0.00000109,-0.00000486
 ,-0.00000392,0.00000524,0.00001270,0.00001183,-0.00001036,-0.00001684,
 -0.00000805,-0.00000145,0.00000252,-0.00000617,0.00005809,0.00009303,0
 .00009347,-0.00006537,-0.00014541,0.00014162,0.00052259,0.00010744,0.0
 0015754,-0.00026319,-0.00012412,-0.00015393,0.00013680,-0.00053298,-0.
 00117832,0.00020471,0.00020931,0.00111155,-0.00588595,-0.00249581,-0.0
 2634511,-0.00442697,-0.00768561,-0.11098033,-0.02864573,-0.11279290,0.
 01358414,0.00212040,0.01007150,0.00242387,-0.00277014,0.00018985,0.000
 38848,-0.00004762,-0.00061280,-0.00005783,0.00002869,0.00003491,-0.000
 00204,-0.00000575,-0.00000463,-0.00000204,0.00000051,-0.00000016,-0.00
 000158,-0.00000106,-0.00000006,0.00000100,-0.00000072,-0.00000013,0.00
 000587,0.00000290,0.00000312,-0.00000852,0.00000267,0.00000618,0.00000
 009,0.00000052,0.00000311,-0.00000762,0.00000162,0.00000448,-0.0001219
 0,-0.00002405,-0.00004459,0.00004281,-0.00008503,0.00003082,0.00051787
 ,0.00253193,0.00003043,0.12034473,0.03496880,0.11328549,-0.00000043,-0
 .00000016,0.00000058,-0.00000194,0.00000161,0.00000236,0.00000929,0.00
 000004,-0.00000386,-0.00000849,-0.00000130,0.00001559,0.00000744,0.000
 01004,-0.00002784,0.00001834,-0.00004301,-0.00003882,-0.00006531,0.000
 04618,0.00014790,0.00018779,-0.00003138,-0.00021528,0.00097684,-0.0003
 8630,-0.00059251,-0.00032537,-0.00034173,-0.00065995,-0.00036716,0.000
 10677,0.00016405,0.00030740,0.00003616,0.00024534,-0.00097394,-0.00009
 103,-0.00022159,-0.00434916,0.00145786,0.00153068,0.00505738,0.0123909
 8,0.02491885,-0.05891681,-0.00291253,-0.00854959,0.00310661,-0.0130702
 4,-0.02620899,-0.00482001,0.00004838,-0.00197205,-0.00007299,0.0000141
 3,0.00008070,0.00000033,-0.00000567,-0.00000343,-0.00000381,0.00000068
 ,0.00000179,-0.00000054,0.00000040,0.00000004,0.00000070,0.00000099,0.
 00000033,0.00000655,0.00000312,0.00000106,-0.00001284,0.00000312,0.000
 00711,-0.00001057,0.00000369,0.00000620,-0.00001841,0.00002187,0.00001
 233,0.00002164,0.00000291,-0.00002031,0.00000816,-0.00003054,-0.000063
 79,0.00008617,0.00057466,0.00113829,0.00115489,-0.00055961,-0.00053293
 ,0.05783472,-0.00000220,-0.00000221,0.00000032,-0.00000141,0.00000117,
 0.00000369,0.00000105,-0.00000467,-0.00000310,0.00000375,0.00000278,0.
 00001035,0.00001061,0.00001553,-0.00000400,0.00004013,-0.00001660,-0.0
 0003013,-0.00016518,-0.00004335,0.00003164,0.00005476,0.00004121,-0.00
 009465,0.00023991,0.00036678,-0.00034877,-0.00025127,-0.00070467,0.000
 25617,0.00004219,0.00006487,0.00004806,-0.00008424,-0.00079667,0.00034
 314,0.00004602,-0.00026367,0.00059592,0.00203371,0.00408551,-0.0019797
 1,-0.00171758,-0.00025273,-0.00756106,-0.00302481,-0.09806281,-0.11934
 547,0.00069807,0.00221833,-0.00443231,-0.00039036,0.00731063,-0.003076
 30,-0.00003793,-0.00003435,0.00002441,-0.00000240,-0.00000613,-0.00000
 248,-0.00000119,-0.00000051,0.00000088,-0.00000184,-0.00000021,-0.0000
 0108,0.00000014,-0.00000010,-0.00000171,0.00000487,0.00000614,0.000000
 71,-0.00000227,0.00000092,0.00000392,-0.00001322,-0.00000547,-0.000000
 69,-0.00000255,0.00001611,0.00000419,0.00001457,0.00019842,-0.00011188
 ,0.00000791,0.00001332,0.00000177,-0.00008427,0.00000157,-0.00039635,-
 0.00018106,-0.00218753,0.00156312,0.00289433,0.09204231,-0.00000287,-0
 .00000030,0.00000036,-0.00000269,0.00000446,0.00000406,0.00000957,-0.0
 0000159,-0.00000932,-0.00000789,0.00001053,0.00002199,0.00002679,-0.00
 001185,-0.00003610,0.00004187,-0.00003548,-0.00002365,-0.00007288,0.00
 002760,0.00008225,0.00019997,-0.00007628,-0.00013118,0.00064283,-0.000
 43191,-0.00008625,-0.00035945,0.00024963,-0.00044026,-0.00002671,0.000
 03874,0.00013858,0.00001572,0.00039114,-0.00019697,0.00008471,0.000544
 31,0.00052772,0.00256597,-0.00208841,0.00145262,-0.00316814,-0.0054726
 6,-0.00801096,-0.00892230,-0.11948069,-0.27792104,0.00154668,-0.006445
 10,-0.00809890,-0.00272452,-0.00304019,0.00227169,-0.00011515,0.000067
 07,0.00005223,-0.00000258,-0.00001160,-0.00000878,-0.00000434,0.000000
 96,0.00000075,-0.00000239,-0.00000134,-0.00000016,0.00000166,-0.000000
 39,0.00000008,0.00001085,0.00000579,0.00000502,-0.00001884,0.00000569,
 0.00000947,-0.00000965,0.00000348,0.00000895,-0.00000923,0.00001247,0.
 00001072,-0.00001079,-0.00011639,0.00002632,0.00001517,-0.00000316,0.0
 0000705,-0.00018388,-0.00029091,-0.00041440,0.00022019,0.00150205,0.00
 005241,0.01021886,0.13212356,0.29095855,0.00002083,0.00000851,0.000002
 16,-0.00000464,-0.00001433,-0.00001311,0.00003904,0.00002792,0.0000058
 9,-0.00001170,-0.00008285,-0.00002098,-0.00015578,0.00008085,0.0001115
 7,-0.00125575,-0.00023968,-0.00005439,-0.00438005,-0.00151499,0.000453
 07,-0.00026704,0.00004990,-0.00312488,0.00010740,-0.00035569,-0.000372
 49,-0.00014185,0.00023156,0.00044035,0.00021438,-0.00006511,-0.0001204
 0,0.00005737,-0.00008059,-0.00018254,0.00113504,-0.00043750,-0.0010834
 7,0.00033701,-0.00042337,-0.00071850,-0.00268084,-0.00122309,-0.003293
 51,-0.01740240,0.00793584,0.01350524,-0.26373559,0.07057843,0.11231238
 ,0.00571204,-0.00125301,-0.00135111,0.00042441,-0.00030267,0.00071446,
 0.00001427,0.00004359,0.00003596,0.00000318,0.00000354,0.00000118,0.00
 000836,0.00000511,0.00000226,0.00000377,0.00001048,0.00000715,-0.00000
 120,-0.00003169,-0.00002046,0.00004765,-0.00000870,-0.00003027,0.00007
 405,0.00007123,-0.00000352,0.00006922,0.00002948,0.00005268,-0.0000111
 0,0.00000683,0.00001522,0.00000520,-0.00003672,-0.00008199,-0.00003596
 ,0.00000620,0.00006293,-0.00074729,0.00033900,0.00058676,0.00116632,-0
 .00012688,0.00004692,0.28138906,0.00001494,0.00000814,0.00000572,-0.00
 000345,-0.00001363,-0.00001022,0.00003523,0.00001723,0.00000792,-0.000
 02900,-0.00008991,0.00000300,0.00001463,-0.00003026,0.00005506,-0.0010
 3331,0.00064112,0.00066861,-0.00026581,-0.00035191,0.00120119,0.000217
 16,0.00075918,-0.00318503,0.00028016,-0.00221697,0.00181288,-0.0001330
 3,0.00031541,-0.00022352,-0.00006270,-0.00030550,0.00015834,0.00077399
 ,0.00009763,-0.00010650,-0.00077049,0.00319267,-0.00420989,-0.00043099
 ,-0.00054514,0.00009486,-0.00047452,0.00672199,-0.00337821,-0.00478548
 ,0.00647712,0.00127658,0.06762440,-0.06399745,-0.04289014,0.01217818,-
 0.00016267,-0.00579032,0.00022919,-0.00044051,0.00089648,0.00001715,0.
 00003867,0.00002847,-0.00000274,-0.00000422,-0.00000090,0.00000612,0.0
 0000508,0.00000065,0.00000300,0.00001050,0.00000349,0.00000089,-0.0000
 2282,-0.00002722,0.00006961,-0.00002903,0.00003066,0.00009450,-0.00004
 239,-0.00008232,0.00006629,-0.00012708,-0.00013972,-0.00002831,0.00002
 310,-0.00001011,0.00000340,0.00009439,-0.00028743,-0.00001616,-0.00093
 621,0.00047218,-0.00021501,0.00006571,0.00008312,-0.00014632,-0.004005
 97,0.00251957,-0.07323180,0.05484942,0.00001578,0.00001068,0.00000367,
 -0.00000127,-0.00001192,-0.00001299,0.00003840,0.00002581,0.00001021,-
 0.00005484,-0.00003691,-0.00002505,-0.00013110,-0.00021887,0.00001661,
 -0.00059363,0.00041465,0.00053315,0.00118646,0.00075440,0.00097881,-0.
 00092669,-0.00048401,-0.00271225,0.00119825,0.00143438,0.00054184,-0.0
 0009227,-0.00010639,0.00000668,-0.00009036,0.00015912,-0.00003190,0.00
 146733,-0.00019301,0.00000813,-0.00222332,-0.00400789,-0.00300615,-0.0
 0052484,0.00016196,-0.00037172,-0.00275631,-0.00359683,0.00054889,-0.0
 1426738,0.00376703,0.01087935,0.11119185,-0.04468347,-0.11647951,0.024
 21784,-0.00714840,-0.00825320,0.00005354,0.00011171,0.00032014,0.00001
 297,0.00003529,0.00002489,-0.00000033,-0.00000043,0.00000068,0.0000072
 9,0.00000371,0.00000239,0.00000427,0.00000932,0.00000653,0.00000863,-0
 .00003042,-0.00001972,0.00002891,-0.00000054,-0.00000331,0.00012598,-0
 .00002020,-0.00006286,0.00004086,-0.00017767,-0.00003649,-0.00005434,-
 0.00001275,0.00001582,-0.00003403,-0.00025434,-0.00031230,0.00010351,0
 .00047324,-0.00019065,-0.00068878,0.00021615,0.00031971,0.00061848,0.0
 0237877,-0.00025578,-0.11788166,0.05102859,0.11755706,-0.00281122,-0.0
 0331029,-0.00006352,-0.00098063,-0.00033016,-0.00018215,-0.00488786,-0
 .00109176,0.00230084,-0.00050213,0.02129843,0.01927087,0.00079904,0.00
 183611,-0.00010769,-0.00052536,-0.00009984,-0.00018329,0.00029594,-0.0
 0001588,-0.00013732,0.00002954,0.00002766,0.00006000,-0.00003947,0.000
 04596,0.00007692,-0.00002176,-0.00005241,-0.00004123,0.00003733,0.0000
 0794,0.00001174,-0.00000513,-0.00001008,-0.00002616,0.00000301,0.00000
 627,0.00001662,0.00000092,-0.00000357,-0.00000707,-0.00000648,0.000001
 75,0.00000387,0.00001126,-0.00000307,-0.00000516,-0.00001748,0.0000059
 3,0.00000955,0.00003766,-0.00001688,-0.00003833,0.00048523,-0.00037102
 ,-0.00019560,-0.06802630,0.03420956,0.03776887,0.00843621,-0.01767431,
 -0.01655529,0.00023868,-0.00085719,-0.00072061,0.00004487,0.00017922,-
 0.00016632,-0.00001943,0.00111588,0.00100001,-0.00022990,-0.00059022,0
 .00010092,-0.00006468,0.00013469,-0.00004720,-0.00011881,0.00001163,-0
 .00009659,0.00000719,-0.00000386,-0.00000672,0.00000274,-0.00000102,-0
 .00000097,0.00000351,-0.00000075,-0.00000135,0.00000374,0.00000012,0.0
 0000074,-0.00000163,0.00000094,0.00000043,-0.00001051,-0.00000979,-0.0
 0000992,0.06693350,-0.00441875,0.00189091,-0.00322724,-0.00027146,0.00
 007364,0.00073528,0.00002954,0.00370120,-0.00248660,-0.00071354,-0.000
 18491,-0.00252383,-0.00046213,-0.00089234,0.00195958,0.00046822,0.0005
 6856,0.00000551,-0.00020826,-0.00012815,0.00037882,-0.00019628,0.00014
 110,-0.00035696,-0.00002925,-0.00000740,-0.00000342,0.00002495,0.00000
 628,0.00001536,-0.00000313,0.00001057,0.00000546,0.00000333,-0.0000028
 2,-0.00000335,-0.00000573,-0.00000038,0.00000107,-0.00000231,0.0000026
 7,0.00000456,0.00000183,0.00000069,0.00000146,-0.00000022,-0.00000026,
 0.00000192,0.00000737,-0.00000367,-0.00000624,0.00000923,-0.00000122,-
 0.00000481,0.00013923,0.00000801,0.00005197,0.03388941,-0.19127885,-0.
 14028400,0.00593259,-0.00957619,-0.01287104,0.00026255,-0.00048016,-0.
 00066269,0.00018271,-0.00049871,0.00046795,-0.00021105,-0.00004983,-0.
 00021858,0.00043281,0.00001682,-0.00005060,0.00002471,-0.00023983,0.00
 008287,0.00012146,-0.00000652,0.00018293,-0.00000333,0.00000116,-0.000
 00033,0.00000134,-0.00000091,0.00000066,0.00000056,-0.00000026,-0.0000
 0021,0.00000110,0.00000053,0.00000059,0.00000206,0.00000181,0.00000201
 ,-0.00000317,0.00000072,-0.00000271,-0.03561628,0.19795112,-0.00098668
 ,-0.00358336,0.00445412,-0.00010461,0.00074165,0.00002252,0.00332526,-
 0.00241553,0.00368096,0.00120534,-0.00888536,-0.00408199,-0.00167110,0
 .00053260,-0.00176594,0.00016966,-0.00026585,-0.00017640,-0.00004958,0
 .00008413,0.00012375,-0.00011275,0.00003733,-0.00007606,-0.00005596,-0
 .00003373,-0.00003065,0.00003180,0.00001987,0.00000147,-0.00000125,0.0
 0001031,0.00001141,0.00000242,-0.00000478,-0.00000632,-0.00000644,0.00
 000044,-0.00000132,-0.00000297,0.00000333,0.00000333,0.00000014,0.0000
 0146,0.00000156,0.00000227,0.00000271,0.00000040,0.00000492,0.00000043
 ,-0.00000451,0.00000166,-0.00000204,0.00000547,0.00016238,0.00040330,0
 .00001828,0.03705944,-0.13981555,-0.16586376,0.00357080,-0.00620818,-0
 .00294878,0.00022714,-0.00038713,-0.00010610,-0.00018208,0.00049005,-0
 .00065740,-0.00011988,-0.00053812,-0.00021685,0.00018180,0.00103029,0.
 00038643,-0.00003960,0.00000589,-0.00011482,-0.00007724,0.00010833,-0.
 00000233,-0.00000257,-0.00000131,-0.00000100,0.00000217,-0.00000148,0.
 00000113,0.00000061,-0.00000110,-0.00000035,0.00000122,-0.00000050,0.0
 0000122,0.00000096,-0.00000056,0.00000251,-0.00000238,-0.00000433,-0.0
 0000091,-0.04160217,0.15624663,0.16930651,-0.00146266,-0.00139907,0.00
 020758,0.00181363,0.00015281,0.00154728,0.00065937,-0.00024390,-0.0006
 0669,-0.00101038,-0.00426452,-0.00140734,-0.00029263,0.00051771,0.0006
 9201,-0.00003208,-0.00008581,0.00009446,-0.00003672,0.00006585,-0.0002
 2458,0.00010649,-0.00013529,0.00029967,0.00009891,0.00002174,-0.000022
 95,-0.00004949,0.00002462,0.00001783,-0.00002149,-0.00003031,-0.000029
 51,-0.00000339,0.00001512,0.00002885,0.00000601,-0.00000644,-0.0000112
 1,0.00000379,-0.00000139,-0.00000166,0.00000356,-0.00000273,-0.0000056
 0,-0.00001057,0.00000073,0.00000104,0.00000256,-0.00000110,0.00000032,
 -0.00004002,0.00001602,0.00002988,-0.00051138,-0.00010731,-0.00021951,
 -0.01685129,0.00526774,0.01015246,-0.29287342,0.02904313,0.09686545,0.
 00054060,0.00087279,-0.00054240,-0.00017068,-0.00013009,-0.00000065,-0
 .00010568,0.00016157,-0.00012205,0.00000066,-0.00001496,0.00000139,0.0
 0000675,0.00001632,0.00001633,-0.00001752,-0.00001378,-0.00005593,-0.0
 0000082,0.00000295,0.00000814,-0.00000625,0.00000296,-0.00000100,-0.00
 000415,0.00000129,0.00000187,-0.00000506,-0.00000069,-0.00000203,-0.00
 000119,-0.00000230,-0.00000391,0.00001311,0.00001007,0.00001070,0.0008
 9841,0.00060988,-0.00093272,0.30935302,0.02191317,0.00183291,-0.007733
 83,-0.00075664,-0.00024954,-0.00593047,-0.00028672,-0.00100034,-0.0001
 2030,-0.00358966,0.00091776,-0.00456493,-0.00063018,0.00048293,0.00039
 434,0.00005358,-0.00002712,0.00004503,0.00002088,0.00000652,-0.0000370
 5,0.00000338,-0.00009536,0.00012640,0.00004422,0.00002440,-0.00002533,
 -0.00000507,0.00002445,0.00001709,-0.00001504,-0.00001270,-0.00000695,
 -0.00000060,0.00000567,0.00001306,0.00000126,-0.00000358,-0.00000482,0
 .00000076,0.00000049,0.00000179,0.00000171,-0.00000115,-0.00000158,-0.
 00000281,-0.00000045,0.00000050,0.00000287,-0.00000032,0.00000058,-0.0
 0001291,0.00000341,0.00001335,-0.00024723,-0.00013112,-0.00008074,-0.0
 1800240,0.00628422,0.00743013,0.02922432,-0.05491661,-0.02307810,0.000
 25281,-0.00090624,0.00265870,0.00098972,0.00002157,-0.00047518,0.00016
 557,-0.00037396,0.00050808,0.00003954,-0.00003436,-0.00000034,0.000030
 68,0.00000963,-0.00000926,-0.00000462,-0.00000536,-0.00002691,-0.00000
 341,0.00000159,0.00000318,-0.00000116,0.00000173,-0.00000085,-0.000001
 00,0.00000044,0.00000009,-0.00000088,0.00000029,-0.00000047,-0.0000001
 5,0.00000025,-0.00000078,0.00000335,0.00000362,0.00000194,0.00117628,-
 0.00102339,0.00243013,-0.03036363,0.04915970,0.02038413,-0.00135055,-0
 .00322428,0.00067487,-0.00620605,0.00136247,-0.00057670,-0.00003163,-0
 .00055737,-0.00041053,-0.00434463,0.00360337,-0.00028242,-0.00009312,0
 .00035144,-0.00004060,-0.00000638,0.00000813,0.00003208,0.00000453,-0.
 00007747,-0.00006095,0.00005275,0.00007173,0.00000816,-0.00000098,-0.0
 0001395,0.00000659,0.00001150,0.00000706,-0.00000396,-0.00000298,0.000
 00340,-0.00000177,0.00000128,0.00000184,0.00000107,-0.00000055,-0.0000
 0002,-0.00000013,0.00000106,0.00000057,-0.00000051,0.,-0.00000038,0.00
 000072,0.00000057,-0.00000079,-0.00000055,0.00000107,0.00000151,-0.000
 00069,-0.00000153,-0.00000018,-0.00014168,-0.00002232,-0.00009051,-0.0
 0989045,0.00090305,0.00704624,0.09682729,-0.02283350,-0.08418390,-0.00
 110007,0.00248178,-0.00164251,0.00094370,-0.00013717,-0.00018917,-0.00
 016066,0.00052052,-0.00052426,0.00002827,0.00002833,0.00004065,-0.0000
 3000,0.00001628,-0.00000951,0.00000769,0.00000101,-0.00000132,-0.00000
 181,-0.00000109,0.00000028,0.00000112,0.00000003,-0.00000021,0.0000005
 0,-0.00000065,-0.00000032,0.00000064,-0.00000025,0.00000055,-0.0000005
 7,-0.00000038,0.00000041,-0.00000053,-0.00000150,0.00000028,-0.0004267
 2,0.00255797,-0.00196559,-0.10578551,0.02845352,0.07998182\\0.00000278
 ,0.00000249,0.00000160,-0.00000103,-0.00000080,-0.00000107,-0.00000166
 ,0.00000399,0.00000567,-0.00000596,0.00000049,0.00000087,0.00001960,-0
 .00000711,-0.00000228,-0.00001544,0.00000729,-0.00000589,0.00000958,0.
 00000468,-0.00003019,0.00001940,-0.00001921,0.00005290,-0.00000969,-0.
 00000706,-0.00003091,0.00000657,0.00000307,0.00001863,-0.00000188,0.00
 000039,0.00000260,-0.00000256,-0.00000374,-0.00000644,-0.00000927,0.00
 000373,0.00000460,-0.00000149,-0.00000129,-0.00000190,-0.00000118,0.00
 000052,0.00000114,0.00000326,-0.00000179,-0.00000485,0.00000301,-0.000
 00684,-0.00000570,0.00000890,0.00000736,0.00001107,-0.00002569,0.00000
 866,-0.00001324,-0.00000006,-0.00000305,-0.00000237,0.00000446,0.00000
 104,0.00000121,-0.00000108,0.00000001,0.00000115,-0.00000034,-0.000000
 73,0.00000164,0.00000132,0.00000031,-0.00000006,-0.00000254,0.00000362
 ,0.00000109,0.00000107,-0.00000037,0.00000171,0.00000091,0.00000059,-0
 .00000097,0.00000029,-0.00000081,-0.00000030,0.00000186,-0.00000043,0.
 00000236,0.00000003,-0.00000120,-0.00000089,0.00000016,-0.00000016,-0.
 00000043,-0.00000106,0.00000059,0.00000006,-0.00000197,0.00000243,-0.0
 0000124,0.00000024,0.00000216,0.00000026,-0.00000055,0.00000118,0.0000
 0017\\\@
 The archive entry for this job was punched.


 ALMOST ANYTHING IS EASIER TO GET INTO THAN OUT OF.

                         -- AGNES ALLEN'S LAW FROM
                PAUL DICKSON'S "THE OFFICIAL RULES"
 Job cpu time:       0 days  0 hours 59 minutes 50.0 seconds.
 Elapsed time:       0 days  0 hours  1 minutes 53.0 seconds.
 File lengths (MBytes):  RWF=    437 Int=      0 D2E=      0 Chk=     10 Scr=      1
 Normal termination of Gaussian 16 at Wed Jul 31 20:37:26 2024.
