 Entering Gaussian System, Link 0=g16
 Initial command:
 /public/apps/g16-C01//g16/l1.exe "/public/home/ljq/tmp/Gau-73177.inp" -scrdir="/public/home/ljq/tmp/"
 Entering Link 1 = /public/apps/g16-C01//g16/l1.exe PID=     73178.
  
 Copyright (c) 1988-2019, Gaussian, Inc.  All Rights Reserved.
  
 This is part of the Gaussian(R) 16 program.  It is based on
 the Gaussian(R) 09 system (copyright 2009, Gaussian, Inc.),
 the Gaussian(R) 03 system (copyright 2003, Gaussian, Inc.),
 the Gaussian(R) 98 system (copyright 1998, Gaussian, Inc.),
 the Gaussian(R) 94 system (copyright 1995, Gaussian, Inc.),
 the Gaussian 92(TM) system (copyright 1992, Gaussian, Inc.),
 the Gaussian 90(TM) system (copyright 1990, Gaussian, Inc.),
 the Gaussian 88(TM) system (copyright 1988, Gaussian, Inc.),
 the Gaussian 86(TM) system (copyright 1986, Carnegie Mellon
 University), and the Gaussian 82(TM) system (copyright 1983,
 Carnegie Mellon University). Gaussian is a federally registered
 trademark of Gaussian, Inc.
  
 This software contains proprietary and confidential information,
 including trade secrets, belonging to Gaussian, Inc.
  
 This software is provided under written license and may be
 used, copied, transmitted, or stored only in accord with that
 written license.
  
 The following legend is applicable only to US Government
 contracts under FAR:
  
                    RESTRICTED RIGHTS LEGEND
  
 Use, reproduction and disclosure by the US Government is
 subject to restrictions as set forth in subparagraphs (a)
 and (c) of the Commercial Computer Software - Restricted
 Rights clause in FAR 52.227-19.
  
 Gaussian, Inc.
 340 Quinnipiac St., Bldg. 40, Wallingford CT 06492
  
  
 ---------------------------------------------------------------
 Warning -- This program may not be used in any manner that
 competes with the business of Gaussian, Inc. or will provide
 assistance to any competitor of Gaussian, Inc.  The licensee
 of this program is prohibited from giving any competitor of
 Gaussian, Inc. access to this program.  By using this program,
 the user acknowledges that Gaussian, Inc. is engaged in the
 business of creating and licensing software in the field of
 computational chemistry and represents and warrants to the
 licensee that it is not a competitor of Gaussian, Inc. and that
 it will not use this program in any manner prohibited above.
 ---------------------------------------------------------------
  

 Cite this work as:
 Gaussian 16, Revision C.01,
 M. J. Frisch, G. W. Trucks, H. B. Schlegel, G. E. Scuseria, 
 M. A. Robb, J. R. Cheeseman, G. Scalmani, V. Barone, 
 G. A. Petersson, H. Nakatsuji, X. Li, M. Caricato, A. V. Marenich, 
 J. Bloino, B. G. Janesko, R. Gomperts, B. Mennucci, H. P. Hratchian, 
 J. V. Ortiz, A. F. Izmaylov, J. L. Sonnenberg, D. Williams-Young, 
 F. Ding, F. Lipparini, F. Egidi, J. Goings, B. Peng, A. Petrone, 
 T. Henderson, D. Ranasinghe, V. G. Zakrzewski, J. Gao, N. Rega, 
 G. Zheng, W. Liang, M. Hada, M. Ehara, K. Toyota, R. Fukuda, 
 J. Hasegawa, M. Ishida, T. Nakajima, Y. Honda, O. Kitao, H. Nakai, 
 T. Vreven, K. Throssell, J. A. Montgomery, Jr., J. E. Peralta, 
 F. Ogliaro, M. J. Bearpark, J. J. Heyd, E. N. Brothers, K. N. Kudin, 
 V. N. Staroverov, T. A. Keith, R. Kobayashi, J. Normand, 
 K. Raghavachari, A. P. Rendell, J. C. Burant, S. S. Iyengar, 
 J. Tomasi, M. Cossi, J. M. Millam, M. Klene, C. Adamo, R. Cammi, 
 J. W. Ochterski, R. L. Martin, K. Morokuma, O. Farkas, 
 J. B. Foresman, and D. J. Fox, Gaussian, Inc., Wallingford CT, 2019.
 
 ******************************************
 Gaussian 16:  ES64L-G16RevC.01  3-Jul-2019
                14-Aug-2022 
 ******************************************
 %nproc=40
 Will use up to   40 processors via shared memory.
 %mem=56GB
 ------------------------------------------
 #p opt freq b3lyp/def2svpp em=gd3bj nosymm
 ------------------------------------------
 1/18=20,19=15,26=3,38=1/1,3;
 2/9=110,12=2,15=1,17=6,18=5,40=1/2;
 3/5=43,7=202,11=2,25=1,30=1,71=1,74=-5,124=41/1,2,3;
 4//1;
 5/5=2,38=5/2;
 6/7=2,8=2,9=2,10=2,28=1/1;
 7/30=1/1,2,3,16;
 1/18=20,19=15,26=3/3(2);
 2/9=110,15=1/2;
 99//99;
 2/9=110,15=1/2;
 3/5=43,7=202,11=2,25=1,30=1,71=1,74=-5,124=41/1,2,3;
 4/5=5,16=3,69=1/1;
 5/5=2,38=5/2;
 7/30=1/1,2,3,16;
 1/18=20,19=15,26=3/3(-5);
 2/9=110,15=1/2;
 6/7=2,8=2,9=2,10=2,19=2,28=1/1;
 99/9=1/99;
 Leave Link    1 at Sun Aug 14 18:15:37 2022, MaxMem=  7516192768 cpu:               1.2 elap:               0.1
 (Enter /public/apps/g16-C01//g16/l101.exe)
 ----------------------
 $$$$Singlemol####0????
 ----------------------
 Symbolic Z-matrix:
 Charge =  0 Multiplicity = 1
 C                    -3.1696   -3.75781  -0.35879 
 C                    -3.68447  -2.47945  -0.48642 
 C                    -2.98998  -1.51686  -1.19781 
 C                    -1.77077  -1.82002  -1.78816 
 C                    -0.99471  -0.77202  -2.53261 
 C                    -0.00012  -0.00043  -1.62866 
 C                     0.99395   0.77106  -2.53325 
 C                     1.77068   1.81887  -1.78923 
 C                     2.98978   1.51522  -1.19891 
 C                     3.68476   2.47757  -0.4877 
 C                     3.17058   3.75624  -0.36034 
 C                     1.96094   4.07158  -0.95637 
 C                     1.26851   3.1096   -1.66927 
 C                    -0.72183   0.96394  -0.73875 
 N                    -1.86508   1.45368  -0.95177 
 C                    -2.2043    2.30344   0.17411 
 C                    -3.35711   1.69647   0.93613 
 C                    -4.55286   2.38195   1.09178 
 C                    -5.60113   1.80895   1.79104 
 C                    -5.46248   0.54515   2.33818 
 C                    -4.27232  -0.14542   2.18193 
 C                    -3.2243    0.42566   1.48375 
 C                    -0.89015   2.33157   1.00465 
 O                    -0.06264   1.36546   0.37352 
 C                     0.72199  -0.96454  -0.73883 
 N                     1.86543  -1.45383  -0.95183 
 C                     2.20509  -2.30321   0.17417 
 C                     3.3572   -1.69528   0.93651 
 C                     3.22322  -0.42451   1.48393 
 C                     4.27043   0.14733   2.1827 
 C                     5.46094  -0.54245   2.33978 
 C                     5.60077  -1.80619   1.7928 
 C                     4.55333  -2.37993   1.09291 
 C                     0.89083  -2.33217   1.00451 
 O                     0.063    -1.36628   0.37349 
 C                    -1.26792  -3.11047  -1.66792 
 C                    -1.95978  -4.07264  -0.95473 
 H                    -3.70966  -4.5092    0.19915 
 H                    -4.63039  -2.22698  -0.02944 
 H                    -3.38602  -0.51704  -1.29053 
 H                    -0.41667  -1.24283  -3.33062 
 H                    -1.67811  -0.03835  -2.96086 
 H                     0.41545   1.24203  -3.33083 
 H                     1.67694   0.03732  -2.96204 
 H                     3.3853    0.51519  -1.29148 
 H                     4.63054   2.2247   -0.03067 
 H                     3.71104   4.50745   0.19745 
 H                     1.55789   5.07087  -0.86708 
 H                     0.32367   3.35876  -2.13386 
 H                    -2.48062   3.29575  -0.19447 
 H                    -4.6648    3.36773   0.66335 
 H                    -6.52853   2.35047   1.90758 
 H                    -6.28133   0.09831   2.88292 
 H                    -4.15839  -1.13379   2.60257 
 H                    -2.30384  -0.12523   1.35047 
 H                    -0.38492   3.30163   0.96204 
 H                    -1.04649   2.04328   2.04659 
 H                     2.48226  -3.29535  -0.19422 
 H                     2.30247   0.12577   1.35006 
 H                     4.15556   1.13564   2.60322 
 H                     6.27913  -0.09505   2.88504 
 H                     6.52847  -2.34709   1.90989 
 H                     4.66622  -3.36566   0.66461 
 H                     0.38604  -3.30245   0.96155 
 H                     1.04688  -2.0441    2.04655 
 H                    -0.32295  -3.35922  -2.13248 
 H                    -1.55616  -5.07168  -0.86516 
 
 ITRead=  0  0  0  0  0  0  0  0  0  0  0  0  0  0  0  0  0  0  0  0
 ITRead=  0  0  0  0  0  0  0  0  0  0  0  0  0  0  0  0  0  0  0  0
 ITRead=  0  0  0  0  0  0  0  0  0  0  0  0  0  0  0  0  0  0  0  0
 ITRead=  0  0  0  0  0  0  0
 MicOpt= -1 -1 -1 -1 -1 -1 -1 -1 -1 -1 -1 -1 -1 -1 -1 -1 -1 -1 -1 -1
 MicOpt= -1 -1 -1 -1 -1 -1 -1 -1 -1 -1 -1 -1 -1 -1 -1 -1 -1 -1 -1 -1
 MicOpt= -1 -1 -1 -1 -1 -1 -1 -1 -1 -1 -1 -1 -1 -1 -1 -1 -1 -1 -1 -1
 MicOpt= -1 -1 -1 -1 -1 -1 -1
 NAtoms=     67 NQM=       67 NQMF=       0 NMMI=      0 NMMIF=      0
                NMic=       0 NMicF=      0.
                    Isotopes and Nuclear Properties:
 (Nuclear quadrupole moments (NQMom) in fm**2, nuclear magnetic moments (NMagM)
  in nuclear magnetons)

  Atom         1           2           3           4           5           6           7           8           9          10
 IAtWgt=          12          12          12          12          12          12          12          12          12          12
 AtmWgt=  12.0000000  12.0000000  12.0000000  12.0000000  12.0000000  12.0000000  12.0000000  12.0000000  12.0000000  12.0000000
 NucSpn=           0           0           0           0           0           0           0           0           0           0
 AtZEff=  -0.0000000  -0.0000000  -0.0000000  -0.0000000  -0.0000000  -0.0000000  -0.0000000  -0.0000000  -0.0000000  -0.0000000
 NQMom=    0.0000000   0.0000000   0.0000000   0.0000000   0.0000000   0.0000000   0.0000000   0.0000000   0.0000000   0.0000000
 NMagM=    0.0000000   0.0000000   0.0000000   0.0000000   0.0000000   0.0000000   0.0000000   0.0000000   0.0000000   0.0000000
 AtZNuc=   6.0000000   6.0000000   6.0000000   6.0000000   6.0000000   6.0000000   6.0000000   6.0000000   6.0000000   6.0000000

  Atom        11          12          13          14          15          16          17          18          19          20
 IAtWgt=          12          12          12          12          14          12          12          12          12          12
 AtmWgt=  12.0000000  12.0000000  12.0000000  12.0000000  14.0030740  12.0000000  12.0000000  12.0000000  12.0000000  12.0000000
 NucSpn=           0           0           0           0           2           0           0           0           0           0
 AtZEff=  -0.0000000  -0.0000000  -0.0000000  -0.0000000  -0.0000000  -0.0000000  -0.0000000  -0.0000000  -0.0000000  -0.0000000
 NQMom=    0.0000000   0.0000000   0.0000000   0.0000000   2.0440000   0.0000000   0.0000000   0.0000000   0.0000000   0.0000000
 NMagM=    0.0000000   0.0000000   0.0000000   0.0000000   0.4037610   0.0000000   0.0000000   0.0000000   0.0000000   0.0000000
 AtZNuc=   6.0000000   6.0000000   6.0000000   6.0000000   7.0000000   6.0000000   6.0000000   6.0000000   6.0000000   6.0000000

  Atom        21          22          23          24          25          26          27          28          29          30
 IAtWgt=          12          12          12          16          12          14          12          12          12          12
 AtmWgt=  12.0000000  12.0000000  12.0000000  15.9949146  12.0000000  14.0030740  12.0000000  12.0000000  12.0000000  12.0000000
 NucSpn=           0           0           0           0           0           2           0           0           0           0
 AtZEff=  -0.0000000  -0.0000000  -0.0000000  -0.0000000  -0.0000000  -0.0000000  -0.0000000  -0.0000000  -0.0000000  -0.0000000
 NQMom=    0.0000000   0.0000000   0.0000000   0.0000000   0.0000000   2.0440000   0.0000000   0.0000000   0.0000000   0.0000000
 NMagM=    0.0000000   0.0000000   0.0000000   0.0000000   0.0000000   0.4037610   0.0000000   0.0000000   0.0000000   0.0000000
 AtZNuc=   6.0000000   6.0000000   6.0000000   8.0000000   6.0000000   7.0000000   6.0000000   6.0000000   6.0000000   6.0000000

  Atom        31          32          33          34          35          36          37          38          39          40
 IAtWgt=          12          12          12          12          16          12          12           1           1           1
 AtmWgt=  12.0000000  12.0000000  12.0000000  12.0000000  15.9949146  12.0000000  12.0000000   1.0078250   1.0078250   1.0078250
 NucSpn=           0           0           0           0           0           0           0           1           1           1
 AtZEff=  -0.0000000  -0.0000000  -0.0000000  -0.0000000  -0.0000000  -0.0000000  -0.0000000  -0.0000000  -0.0000000  -0.0000000
 NQMom=    0.0000000   0.0000000   0.0000000   0.0000000   0.0000000   0.0000000   0.0000000   0.0000000   0.0000000   0.0000000
 NMagM=    0.0000000   0.0000000   0.0000000   0.0000000   0.0000000   0.0000000   0.0000000   2.7928460   2.7928460   2.7928460
 AtZNuc=   6.0000000   6.0000000   6.0000000   6.0000000   8.0000000   6.0000000   6.0000000   1.0000000   1.0000000   1.0000000

  Atom        41          42          43          44          45          46          47          48          49          50
 IAtWgt=           1           1           1           1           1           1           1           1           1           1
 AtmWgt=   1.0078250   1.0078250   1.0078250   1.0078250   1.0078250   1.0078250   1.0078250   1.0078250   1.0078250   1.0078250
 NucSpn=           1           1           1           1           1           1           1           1           1           1
 AtZEff=  -0.0000000  -0.0000000  -0.0000000  -0.0000000  -0.0000000  -0.0000000  -0.0000000  -0.0000000  -0.0000000  -0.0000000
 NQMom=    0.0000000   0.0000000   0.0000000   0.0000000   0.0000000   0.0000000   0.0000000   0.0000000   0.0000000   0.0000000
 NMagM=    2.7928460   2.7928460   2.7928460   2.7928460   2.7928460   2.7928460   2.7928460   2.7928460   2.7928460   2.7928460
 AtZNuc=   1.0000000   1.0000000   1.0000000   1.0000000   1.0000000   1.0000000   1.0000000   1.0000000   1.0000000   1.0000000

  Atom        51          52          53          54          55          56          57          58          59          60
 IAtWgt=           1           1           1           1           1           1           1           1           1           1
 AtmWgt=   1.0078250   1.0078250   1.0078250   1.0078250   1.0078250   1.0078250   1.0078250   1.0078250   1.0078250   1.0078250
 NucSpn=           1           1           1           1           1           1           1           1           1           1
 AtZEff=  -0.0000000  -0.0000000  -0.0000000  -0.0000000  -0.0000000  -0.0000000  -0.0000000  -0.0000000  -0.0000000  -0.0000000
 NQMom=    0.0000000   0.0000000   0.0000000   0.0000000   0.0000000   0.0000000   0.0000000   0.0000000   0.0000000   0.0000000
 NMagM=    2.7928460   2.7928460   2.7928460   2.7928460   2.7928460   2.7928460   2.7928460   2.7928460   2.7928460   2.7928460
 AtZNuc=   1.0000000   1.0000000   1.0000000   1.0000000   1.0000000   1.0000000   1.0000000   1.0000000   1.0000000   1.0000000

  Atom        61          62          63          64          65          66          67
 IAtWgt=           1           1           1           1           1           1           1
 AtmWgt=   1.0078250   1.0078250   1.0078250   1.0078250   1.0078250   1.0078250   1.0078250
 NucSpn=           1           1           1           1           1           1           1
 AtZEff=  -0.0000000  -0.0000000  -0.0000000  -0.0000000  -0.0000000  -0.0000000  -0.0000000
 NQMom=    0.0000000   0.0000000   0.0000000   0.0000000   0.0000000   0.0000000   0.0000000
 NMagM=    2.7928460   2.7928460   2.7928460   2.7928460   2.7928460   2.7928460   2.7928460
 AtZNuc=   1.0000000   1.0000000   1.0000000   1.0000000   1.0000000   1.0000000   1.0000000
 Leave Link  101 at Sun Aug 14 18:15:38 2022, MaxMem=  7516192768 cpu:              11.4 elap:               0.7
 (Enter /public/apps/g16-C01//g16/l103.exe)

 GradGradGradGradGradGradGradGradGradGradGradGradGradGradGradGradGradGrad
 Berny optimization.
 Initialization pass.
                           ----------------------------
                           !    Initial Parameters    !
                           ! (Angstroms and Degrees)  !
 --------------------------                            --------------------------
 ! Name  Definition              Value          Derivative Info.                !
 --------------------------------------------------------------------------------
 ! R1    R(1,2)                  1.3841         estimate D2E/DX2                !
 ! R2    R(1,37)                 1.3849         estimate D2E/DX2                !
 ! R3    R(1,38)                 1.0805         estimate D2E/DX2                !
 ! R4    R(2,3)                  1.3838         estimate D2E/DX2                !
 ! R5    R(2,39)                 1.0804         estimate D2E/DX2                !
 ! R6    R(3,4)                  1.3881         estimate D2E/DX2                !
 ! R7    R(3,40)                 1.0794         estimate D2E/DX2                !
 ! R8    R(4,5)                  1.5016         estimate D2E/DX2                !
 ! R9    R(4,36)                 1.3902         estimate D2E/DX2                !
 ! R10   R(5,6)                  1.5497         estimate D2E/DX2                !
 ! R11   R(5,41)                 1.0921         estimate D2E/DX2                !
 ! R12   R(5,42)                 1.0903         estimate D2E/DX2                !
 ! R13   R(6,7)                  1.5497         estimate D2E/DX2                !
 ! R14   R(6,14)                 1.4976         estimate D2E/DX2                !
 ! R15   R(6,25)                 1.4976         estimate D2E/DX2                !
 ! R16   R(7,8)                  1.5016         estimate D2E/DX2                !
 ! R17   R(7,43)                 1.0921         estimate D2E/DX2                !
 ! R18   R(7,44)                 1.0903         estimate D2E/DX2                !
 ! R19   R(8,9)                  1.3881         estimate D2E/DX2                !
 ! R20   R(8,13)                 1.3902         estimate D2E/DX2                !
 ! R21   R(9,10)                 1.3838         estimate D2E/DX2                !
 ! R22   R(9,45)                 1.0794         estimate D2E/DX2                !
 ! R23   R(10,11)                1.384          estimate D2E/DX2                !
 ! R24   R(10,46)                1.0804         estimate D2E/DX2                !
 ! R25   R(11,12)                1.3849         estimate D2E/DX2                !
 ! R26   R(11,47)                1.0805         estimate D2E/DX2                !
 ! R27   R(12,13)                1.3831         estimate D2E/DX2                !
 ! R28   R(12,48)                1.0812         estimate D2E/DX2                !
 ! R29   R(13,49)                1.082          estimate D2E/DX2                !
 ! R30   R(14,15)                1.2618         estimate D2E/DX2                !
 ! R31   R(14,24)                1.3538         estimate D2E/DX2                !
 ! R32   R(15,16)                1.4508         estimate D2E/DX2                !
 ! R33   R(16,17)                1.5093         estimate D2E/DX2                !
 ! R34   R(16,23)                1.5549         estimate D2E/DX2                !
 ! R35   R(16,50)                1.094          estimate D2E/DX2                !
 ! R36   R(17,18)                1.3871         estimate D2E/DX2                !
 ! R37   R(17,22)                1.3901         estimate D2E/DX2                !
 ! R38   R(18,19)                1.3842         estimate D2E/DX2                !
 ! R39   R(18,51)                1.0807         estimate D2E/DX2                !
 ! R40   R(19,20)                1.3841         estimate D2E/DX2                !
 ! R41   R(19,52)                1.0802         estimate D2E/DX2                !
 ! R42   R(20,21)                1.3848         estimate D2E/DX2                !
 ! R43   R(20,53)                1.0802         estimate D2E/DX2                !
 ! R44   R(21,22)                1.3827         estimate D2E/DX2                !
 ! R45   R(21,54)                1.0802         estimate D2E/DX2                !
 ! R46   R(22,55)                1.081          estimate D2E/DX2                !
 ! R47   R(23,24)                1.42           estimate D2E/DX2                !
 ! R48   R(23,56)                1.0946         estimate D2E/DX2                !
 ! R49   R(23,57)                1.0923         estimate D2E/DX2                !
 ! R50   R(25,26)                1.2618         estimate D2E/DX2                !
 ! R51   R(25,35)                1.3538         estimate D2E/DX2                !
 ! R52   R(26,27)                1.4508         estimate D2E/DX2                !
 ! R53   R(27,28)                1.5093         estimate D2E/DX2                !
 ! R54   R(27,34)                1.5549         estimate D2E/DX2                !
 ! R55   R(27,58)                1.094          estimate D2E/DX2                !
 ! R56   R(28,29)                1.3901         estimate D2E/DX2                !
 ! R57   R(28,33)                1.3871         estimate D2E/DX2                !
 ! R58   R(29,30)                1.3827         estimate D2E/DX2                !
 ! R59   R(29,59)                1.081          estimate D2E/DX2                !
 ! R60   R(30,31)                1.3848         estimate D2E/DX2                !
 ! R61   R(30,60)                1.0802         estimate D2E/DX2                !
 ! R62   R(31,32)                1.3841         estimate D2E/DX2                !
 ! R63   R(31,61)                1.0802         estimate D2E/DX2                !
 ! R64   R(32,33)                1.3843         estimate D2E/DX2                !
 ! R65   R(32,62)                1.0802         estimate D2E/DX2                !
 ! R66   R(33,63)                1.0807         estimate D2E/DX2                !
 ! R67   R(34,35)                1.42           estimate D2E/DX2                !
 ! R68   R(34,64)                1.0946         estimate D2E/DX2                !
 ! R69   R(34,65)                1.0923         estimate D2E/DX2                !
 ! R70   R(36,37)                1.3831         estimate D2E/DX2                !
 ! R71   R(36,66)                1.082          estimate D2E/DX2                !
 ! R72   R(37,67)                1.0812         estimate D2E/DX2                !
 ! A1    A(2,1,37)             119.6874         estimate D2E/DX2                !
 ! A2    A(2,1,38)             120.2629         estimate D2E/DX2                !
 ! A3    A(37,1,38)            120.0491         estimate D2E/DX2                !
 ! A4    A(1,2,3)              120.2111         estimate D2E/DX2                !
 ! A5    A(1,2,39)             120.1665         estimate D2E/DX2                !
 ! A6    A(3,2,39)             119.6223         estimate D2E/DX2                !
 ! A7    A(2,3,4)              120.4983         estimate D2E/DX2                !
 ! A8    A(2,3,40)             120.2873         estimate D2E/DX2                !
 ! A9    A(4,3,40)             119.2109         estimate D2E/DX2                !
 ! A10   A(3,4,5)              120.8208         estimate D2E/DX2                !
 ! A11   A(3,4,36)             118.9238         estimate D2E/DX2                !
 ! A12   A(5,4,36)             120.2517         estimate D2E/DX2                !
 ! A13   A(4,5,6)              112.9543         estimate D2E/DX2                !
 ! A14   A(4,5,41)             109.5691         estimate D2E/DX2                !
 ! A15   A(4,5,42)             109.9037         estimate D2E/DX2                !
 ! A16   A(6,5,41)             107.5285         estimate D2E/DX2                !
 ! A17   A(6,5,42)             107.2384         estimate D2E/DX2                !
 ! A18   A(41,5,42)            109.5637         estimate D2E/DX2                !
 ! A19   A(5,6,7)              108.6058         estimate D2E/DX2                !
 ! A20   A(5,6,14)             110.9733         estimate D2E/DX2                !
 ! A21   A(5,6,25)             109.6035         estimate D2E/DX2                !
 ! A22   A(7,6,14)             109.5975         estimate D2E/DX2                !
 ! A23   A(7,6,25)             110.9781         estimate D2E/DX2                !
 ! A24   A(14,6,25)            107.0889         estimate D2E/DX2                !
 ! A25   A(6,7,8)              112.9521         estimate D2E/DX2                !
 ! A26   A(6,7,43)             107.5298         estimate D2E/DX2                !
 ! A27   A(6,7,44)             107.2401         estimate D2E/DX2                !
 ! A28   A(8,7,43)             109.5692         estimate D2E/DX2                !
 ! A29   A(8,7,44)             109.9035         estimate D2E/DX2                !
 ! A30   A(43,7,44)            109.5629         estimate D2E/DX2                !
 ! A31   A(7,8,9)              120.8209         estimate D2E/DX2                !
 ! A32   A(7,8,13)             120.2515         estimate D2E/DX2                !
 ! A33   A(9,8,13)             118.924          estimate D2E/DX2                !
 ! A34   A(8,9,10)             120.4983         estimate D2E/DX2                !
 ! A35   A(8,9,45)             119.2098         estimate D2E/DX2                !
 ! A36   A(10,9,45)            120.2884         estimate D2E/DX2                !
 ! A37   A(9,10,11)            120.2116         estimate D2E/DX2                !
 ! A38   A(9,10,46)            119.6222         estimate D2E/DX2                !
 ! A39   A(11,10,46)           120.1661         estimate D2E/DX2                !
 ! A40   A(10,11,12)           119.6867         estimate D2E/DX2                !
 ! A41   A(10,11,47)           120.2631         estimate D2E/DX2                !
 ! A42   A(12,11,47)           120.0497         estimate D2E/DX2                !
 ! A43   A(11,12,13)           120.0482         estimate D2E/DX2                !
 ! A44   A(11,12,48)           120.0346         estimate D2E/DX2                !
 ! A45   A(13,12,48)           119.917          estimate D2E/DX2                !
 ! A46   A(8,13,12)            120.6235         estimate D2E/DX2                !
 ! A47   A(8,13,49)            119.4859         estimate D2E/DX2                !
 ! A48   A(12,13,49)           119.8894         estimate D2E/DX2                !
 ! A49   A(6,14,15)            125.8901         estimate D2E/DX2                !
 ! A50   A(6,14,24)            116.3932         estimate D2E/DX2                !
 ! A51   A(15,14,24)           117.6924         estimate D2E/DX2                !
 ! A52   A(14,15,16)           107.9492         estimate D2E/DX2                !
 ! A53   A(15,16,17)           109.5637         estimate D2E/DX2                !
 ! A54   A(15,16,23)           103.1502         estimate D2E/DX2                !
 ! A55   A(15,16,50)           109.2008         estimate D2E/DX2                !
 ! A56   A(17,16,23)           112.5279         estimate D2E/DX2                !
 ! A57   A(17,16,50)           109.9953         estimate D2E/DX2                !
 ! A58   A(23,16,50)           112.1493         estimate D2E/DX2                !
 ! A59   A(16,17,18)           121.0884         estimate D2E/DX2                !
 ! A60   A(16,17,22)           119.5743         estimate D2E/DX2                !
 ! A61   A(18,17,22)           119.3356         estimate D2E/DX2                !
 ! A62   A(17,18,19)           120.3283         estimate D2E/DX2                !
 ! A63   A(17,18,51)           119.7102         estimate D2E/DX2                !
 ! A64   A(19,18,51)           119.9614         estimate D2E/DX2                !
 ! A65   A(18,19,20)           120.1184         estimate D2E/DX2                !
 ! A66   A(18,19,52)           119.8106         estimate D2E/DX2                !
 ! A67   A(20,19,52)           120.071          estimate D2E/DX2                !
 ! A68   A(19,20,21)           119.7884         estimate D2E/DX2                !
 ! A69   A(19,20,53)           120.0729         estimate D2E/DX2                !
 ! A70   A(21,20,53)           120.1384         estimate D2E/DX2                !
 ! A71   A(20,21,22)           120.1593         estimate D2E/DX2                !
 ! A72   A(20,21,54)           120.1974         estimate D2E/DX2                !
 ! A73   A(22,21,54)           119.6431         estimate D2E/DX2                !
 ! A74   A(17,22,21)           120.269          estimate D2E/DX2                !
 ! A75   A(17,22,55)           119.9113         estimate D2E/DX2                !
 ! A76   A(21,22,55)           119.8128         estimate D2E/DX2                !
 ! A77   A(16,23,24)           104.0522         estimate D2E/DX2                !
 ! A78   A(16,23,56)           112.6658         estimate D2E/DX2                !
 ! A79   A(16,23,57)           112.5677         estimate D2E/DX2                !
 ! A80   A(24,23,56)           108.4618         estimate D2E/DX2                !
 ! A81   A(24,23,57)           109.1354         estimate D2E/DX2                !
 ! A82   A(56,23,57)           109.7002         estimate D2E/DX2                !
 ! A83   A(14,24,23)           106.4507         estimate D2E/DX2                !
 ! A84   A(6,25,26)            125.8932         estimate D2E/DX2                !
 ! A85   A(6,25,35)            116.3914         estimate D2E/DX2                !
 ! A86   A(26,25,35)           117.6912         estimate D2E/DX2                !
 ! A87   A(25,26,27)           107.9488         estimate D2E/DX2                !
 ! A88   A(26,27,28)           109.5672         estimate D2E/DX2                !
 ! A89   A(26,27,34)           103.1495         estimate D2E/DX2                !
 ! A90   A(26,27,58)           109.2035         estimate D2E/DX2                !
 ! A91   A(28,27,34)           112.5181         estimate D2E/DX2                !
 ! A92   A(28,27,58)           109.9966         estimate D2E/DX2                !
 ! A93   A(34,27,58)           112.1527         estimate D2E/DX2                !
 ! A94   A(27,28,29)           119.5726         estimate D2E/DX2                !
 ! A95   A(27,28,33)           121.09           estimate D2E/DX2                !
 ! A96   A(29,28,33)           119.3359         estimate D2E/DX2                !
 ! A97   A(28,29,30)           120.2687         estimate D2E/DX2                !
 ! A98   A(28,29,59)           119.9126         estimate D2E/DX2                !
 ! A99   A(30,29,59)           119.8117         estimate D2E/DX2                !
 ! A100  A(29,30,31)           120.1598         estimate D2E/DX2                !
 ! A101  A(29,30,60)           119.6421         estimate D2E/DX2                !
 ! A102  A(31,30,60)           120.198          estimate D2E/DX2                !
 ! A103  A(30,31,32)           119.7879         estimate D2E/DX2                !
 ! A104  A(30,31,61)           120.1386         estimate D2E/DX2                !
 ! A105  A(32,31,61)           120.0733         estimate D2E/DX2                !
 ! A106  A(31,32,33)           120.1188         estimate D2E/DX2                !
 ! A107  A(31,32,62)           120.0726         estimate D2E/DX2                !
 ! A108  A(33,32,62)           119.8085         estimate D2E/DX2                !
 ! A109  A(28,33,32)           120.328          estimate D2E/DX2                !
 ! A110  A(28,33,63)           119.7112         estimate D2E/DX2                !
 ! A111  A(32,33,63)           119.9608         estimate D2E/DX2                !
 ! A112  A(27,34,35)           104.0505         estimate D2E/DX2                !
 ! A113  A(27,34,64)           112.6661         estimate D2E/DX2                !
 ! A114  A(27,34,65)           112.5673         estimate D2E/DX2                !
 ! A115  A(35,34,64)           108.4618         estimate D2E/DX2                !
 ! A116  A(35,34,65)           109.1365         estimate D2E/DX2                !
 ! A117  A(64,34,65)           109.7007         estimate D2E/DX2                !
 ! A118  A(25,35,34)           106.4502         estimate D2E/DX2                !
 ! A119  A(4,36,37)            120.6241         estimate D2E/DX2                !
 ! A120  A(4,36,66)            119.4848         estimate D2E/DX2                !
 ! A121  A(37,36,66)           119.8899         estimate D2E/DX2                !
 ! A122  A(1,37,36)            120.0475         estimate D2E/DX2                !
 ! A123  A(1,37,67)            120.0342         estimate D2E/DX2                !
 ! A124  A(36,37,67)           119.9181         estimate D2E/DX2                !
 ! D1    D(37,1,2,3)            -0.4617         estimate D2E/DX2                !
 ! D2    D(37,1,2,39)          179.6498         estimate D2E/DX2                !
 ! D3    D(38,1,2,3)           179.8044         estimate D2E/DX2                !
 ! D4    D(38,1,2,39)           -0.084          estimate D2E/DX2                !
 ! D5    D(2,1,37,36)            0.3233         estimate D2E/DX2                !
 ! D6    D(2,1,37,67)         -179.5192         estimate D2E/DX2                !
 ! D7    D(38,1,37,36)        -179.9422         estimate D2E/DX2                !
 ! D8    D(38,1,37,67)           0.2153         estimate D2E/DX2                !
 ! D9    D(1,2,3,4)             -0.1264         estimate D2E/DX2                !
 ! D10   D(1,2,3,40)          -179.4418         estimate D2E/DX2                !
 ! D11   D(39,2,3,4)           179.7627         estimate D2E/DX2                !
 ! D12   D(39,2,3,40)            0.4473         estimate D2E/DX2                !
 ! D13   D(2,3,4,5)           -178.4629         estimate D2E/DX2                !
 ! D14   D(2,3,4,36)             0.8402         estimate D2E/DX2                !
 ! D15   D(40,3,4,5)             0.8598         estimate D2E/DX2                !
 ! D16   D(40,3,4,36)         -179.8371         estimate D2E/DX2                !
 ! D17   D(3,4,5,6)             90.5118         estimate D2E/DX2                !
 ! D18   D(3,4,5,41)          -149.6412         estimate D2E/DX2                !
 ! D19   D(3,4,5,42)           -29.1992         estimate D2E/DX2                !
 ! D20   D(36,4,5,6)           -88.7821         estimate D2E/DX2                !
 ! D21   D(36,4,5,41)           31.0649         estimate D2E/DX2                !
 ! D22   D(36,4,5,42)          151.5069         estimate D2E/DX2                !
 ! D23   D(3,4,36,37)           -0.9798         estimate D2E/DX2                !
 ! D24   D(3,4,36,66)          179.4223         estimate D2E/DX2                !
 ! D25   D(5,4,36,37)          178.3274         estimate D2E/DX2                !
 ! D26   D(5,4,36,66)           -1.2706         estimate D2E/DX2                !
 ! D27   D(4,5,6,7)            165.2455         estimate D2E/DX2                !
 ! D28   D(4,5,6,14)           -74.2195         estimate D2E/DX2                !
 ! D29   D(4,5,6,25)            43.8532         estimate D2E/DX2                !
 ! D30   D(41,5,6,7)            44.2327         estimate D2E/DX2                !
 ! D31   D(41,5,6,14)          164.7677         estimate D2E/DX2                !
 ! D32   D(41,5,6,25)          -77.1596         estimate D2E/DX2                !
 ! D33   D(42,5,6,7)           -73.5214         estimate D2E/DX2                !
 ! D34   D(42,5,6,14)           47.0136         estimate D2E/DX2                !
 ! D35   D(42,5,6,25)          165.0863         estimate D2E/DX2                !
 ! D36   D(5,6,7,8)            165.2617         estimate D2E/DX2                !
 ! D37   D(5,6,7,43)            44.2492         estimate D2E/DX2                !
 ! D38   D(5,6,7,44)           -73.5056         estimate D2E/DX2                !
 ! D39   D(14,6,7,8)            43.8789         estimate D2E/DX2                !
 ! D40   D(14,6,7,43)          -77.1336         estimate D2E/DX2                !
 ! D41   D(14,6,7,44)          165.1116         estimate D2E/DX2                !
 ! D42   D(25,6,7,8)           -74.1929         estimate D2E/DX2                !
 ! D43   D(25,6,7,43)          164.7946         estimate D2E/DX2                !
 ! D44   D(25,6,7,44)           47.0398         estimate D2E/DX2                !
 ! D45   D(5,6,14,15)          -22.9626         estimate D2E/DX2                !
 ! D46   D(5,6,14,24)          158.8823         estimate D2E/DX2                !
 ! D47   D(7,6,14,15)           96.9833         estimate D2E/DX2                !
 ! D48   D(7,6,14,24)          -81.1718         estimate D2E/DX2                !
 ! D49   D(25,6,14,15)        -142.5504         estimate D2E/DX2                !
 ! D50   D(25,6,14,24)          39.2945         estimate D2E/DX2                !
 ! D51   D(5,6,25,26)           97.0255         estimate D2E/DX2                !
 ! D52   D(5,6,25,35)          -81.1358         estimate D2E/DX2                !
 ! D53   D(7,6,25,26)          -22.9273         estimate D2E/DX2                !
 ! D54   D(7,6,25,35)          158.9114         estimate D2E/DX2                !
 ! D55   D(14,6,25,26)        -142.5105         estimate D2E/DX2                !
 ! D56   D(14,6,25,35)          39.3282         estimate D2E/DX2                !
 ! D57   D(6,7,8,9)             90.4655         estimate D2E/DX2                !
 ! D58   D(6,7,8,13)           -88.8239         estimate D2E/DX2                !
 ! D59   D(43,7,8,9)          -149.6871         estimate D2E/DX2                !
 ! D60   D(43,7,8,13)           31.0235         estimate D2E/DX2                !
 ! D61   D(44,7,8,9)           -29.2461         estimate D2E/DX2                !
 ! D62   D(44,7,8,13)          151.4645         estimate D2E/DX2                !
 ! D63   D(7,8,9,10)          -178.4501         estimate D2E/DX2                !
 ! D64   D(7,8,9,45)             0.8675         estimate D2E/DX2                !
 ! D65   D(13,8,9,10)            0.8486         estimate D2E/DX2                !
 ! D66   D(13,8,9,45)         -179.8338         estimate D2E/DX2                !
 ! D67   D(7,8,13,12)          178.3217         estimate D2E/DX2                !
 ! D68   D(7,8,13,49)           -1.2799         estimate D2E/DX2                !
 ! D69   D(9,8,13,12)           -0.9811         estimate D2E/DX2                !
 ! D70   D(9,8,13,49)          179.4173         estimate D2E/DX2                !
 ! D71   D(8,9,10,11)           -0.1347         estimate D2E/DX2                !
 ! D72   D(8,9,10,46)          179.7565         estimate D2E/DX2                !
 ! D73   D(45,9,10,11)        -179.4449         estimate D2E/DX2                !
 ! D74   D(45,9,10,46)           0.4463         estimate D2E/DX2                !
 ! D75   D(9,10,11,12)          -0.4606         estimate D2E/DX2                !
 ! D76   D(9,10,11,47)         179.8063         estimate D2E/DX2                !
 ! D77   D(46,10,11,12)        179.6488         estimate D2E/DX2                !
 ! D78   D(46,10,11,47)         -0.0843         estimate D2E/DX2                !
 ! D79   D(10,11,12,13)          0.3293         estimate D2E/DX2                !
 ! D80   D(10,11,12,48)       -179.5144         estimate D2E/DX2                !
 ! D81   D(47,11,12,13)       -179.937          estimate D2E/DX2                !
 ! D82   D(47,11,12,48)          0.2193         estimate D2E/DX2                !
 ! D83   D(11,12,13,8)           0.3981         estimate D2E/DX2                !
 ! D84   D(11,12,13,49)        179.9981         estimate D2E/DX2                !
 ! D85   D(48,12,13,8)        -179.758          estimate D2E/DX2                !
 ! D86   D(48,12,13,49)         -0.158          estimate D2E/DX2                !
 ! D87   D(6,14,15,16)         178.218          estimate D2E/DX2                !
 ! D88   D(24,14,15,16)         -3.6484         estimate D2E/DX2                !
 ! D89   D(6,14,24,23)         176.1466         estimate D2E/DX2                !
 ! D90   D(15,14,24,23)         -2.1655         estimate D2E/DX2                !
 ! D91   D(14,15,16,17)       -112.809          estimate D2E/DX2                !
 ! D92   D(14,15,16,23)          7.2295         estimate D2E/DX2                !
 ! D93   D(14,15,16,50)        126.6585         estimate D2E/DX2                !
 ! D94   D(15,16,17,18)       -120.1437         estimate D2E/DX2                !
 ! D95   D(15,16,17,22)         59.3855         estimate D2E/DX2                !
 ! D96   D(23,16,17,18)        125.7273         estimate D2E/DX2                !
 ! D97   D(23,16,17,22)        -54.7434         estimate D2E/DX2                !
 ! D98   D(50,16,17,18)         -0.0955         estimate D2E/DX2                !
 ! D99   D(50,16,17,22)        179.4338         estimate D2E/DX2                !
 ! D100  D(15,16,23,24)         -8.2267         estimate D2E/DX2                !
 ! D101  D(15,16,23,56)        109.05           estimate D2E/DX2                !
 ! D102  D(15,16,23,57)       -126.2582         estimate D2E/DX2                !
 ! D103  D(17,16,23,24)        109.7548         estimate D2E/DX2                !
 ! D104  D(17,16,23,56)       -132.9686         estimate D2E/DX2                !
 ! D105  D(17,16,23,57)         -8.2767         estimate D2E/DX2                !
 ! D106  D(50,16,23,24)       -125.5975         estimate D2E/DX2                !
 ! D107  D(50,16,23,56)         -8.3209         estimate D2E/DX2                !
 ! D108  D(50,16,23,57)        116.371          estimate D2E/DX2                !
 ! D109  D(16,17,18,19)        179.8445         estimate D2E/DX2                !
 ! D110  D(16,17,18,51)         -0.0958         estimate D2E/DX2                !
 ! D111  D(22,17,18,19)          0.3141         estimate D2E/DX2                !
 ! D112  D(22,17,18,51)       -179.6261         estimate D2E/DX2                !
 ! D113  D(16,17,22,21)       -179.8488         estimate D2E/DX2                !
 ! D114  D(16,17,22,55)         -0.8084         estimate D2E/DX2                !
 ! D115  D(18,17,22,21)         -0.3113         estimate D2E/DX2                !
 ! D116  D(18,17,22,55)        178.7292         estimate D2E/DX2                !
 ! D117  D(17,18,19,20)         -0.1056         estimate D2E/DX2                !
 ! D118  D(17,18,19,52)        179.9715         estimate D2E/DX2                !
 ! D119  D(51,18,19,20)        179.8345         estimate D2E/DX2                !
 ! D120  D(51,18,19,52)         -0.0884         estimate D2E/DX2                !
 ! D121  D(18,19,20,21)         -0.1088         estimate D2E/DX2                !
 ! D122  D(18,19,20,53)       -179.9416         estimate D2E/DX2                !
 ! D123  D(52,19,20,21)        179.814          estimate D2E/DX2                !
 ! D124  D(52,19,20,53)         -0.0188         estimate D2E/DX2                !
 ! D125  D(19,20,21,22)          0.1115         estimate D2E/DX2                !
 ! D126  D(19,20,21,54)       -179.7396         estimate D2E/DX2                !
 ! D127  D(53,20,21,22)        179.9442         estimate D2E/DX2                !
 ! D128  D(53,20,21,54)          0.0931         estimate D2E/DX2                !
 ! D129  D(20,21,22,17)          0.0998         estimate D2E/DX2                !
 ! D130  D(20,21,22,55)       -178.9416         estimate D2E/DX2                !
 ! D131  D(54,21,22,17)        179.9517         estimate D2E/DX2                !
 ! D132  D(54,21,22,55)          0.9103         estimate D2E/DX2                !
 ! D133  D(16,23,24,14)          6.4379         estimate D2E/DX2                !
 ! D134  D(56,23,24,14)       -113.7182         estimate D2E/DX2                !
 ! D135  D(57,23,24,14)        126.8088         estimate D2E/DX2                !
 ! D136  D(6,25,26,27)         178.2036         estimate D2E/DX2                !
 ! D137  D(35,25,26,27)         -3.6565         estimate D2E/DX2                !
 ! D138  D(6,25,35,34)         176.1421         estimate D2E/DX2                !
 ! D139  D(26,25,35,34)         -2.1757         estimate D2E/DX2                !
 ! D140  D(25,26,27,28)       -112.7779         estimate D2E/DX2                !
 ! D141  D(25,26,27,34)          7.2505         estimate D2E/DX2                !
 ! D142  D(25,26,27,58)        126.6842         estimate D2E/DX2                !
 ! D143  D(26,27,28,29)         59.3791         estimate D2E/DX2                !
 ! D144  D(26,27,28,33)       -120.1651         estimate D2E/DX2                !
 ! D145  D(34,27,28,29)        -54.7455         estimate D2E/DX2                !
 ! D146  D(34,27,28,33)        125.7104         estimate D2E/DX2                !
 ! D147  D(58,27,28,29)        179.4336         estimate D2E/DX2                !
 ! D148  D(58,27,28,33)         -0.1105         estimate D2E/DX2                !
 ! D149  D(26,27,34,35)         -8.2526         estimate D2E/DX2                !
 ! D150  D(26,27,34,64)        109.0232         estimate D2E/DX2                !
 ! D151  D(26,27,34,65)       -126.2843         estimate D2E/DX2                !
 ! D152  D(28,27,34,35)        109.7278         estimate D2E/DX2                !
 ! D153  D(28,27,34,64)       -132.9963         estimate D2E/DX2                !
 ! D154  D(28,27,34,65)         -8.3038         estimate D2E/DX2                !
 ! D155  D(58,27,34,35)       -125.6278         estimate D2E/DX2                !
 ! D156  D(58,27,34,64)         -8.3519         estimate D2E/DX2                !
 ! D157  D(58,27,34,65)        116.3406         estimate D2E/DX2                !
 ! D158  D(27,28,29,30)       -179.8659         estimate D2E/DX2                !
 ! D159  D(27,28,29,59)         -0.8244         estimate D2E/DX2                !
 ! D160  D(33,28,29,30)         -0.3137         estimate D2E/DX2                !
 ! D161  D(33,28,29,59)        178.7278         estimate D2E/DX2                !
 ! D162  D(27,28,33,32)        179.8642         estimate D2E/DX2                !
 ! D163  D(27,28,33,63)         -0.0779         estimate D2E/DX2                !
 ! D164  D(29,28,33,32)          0.319          estimate D2E/DX2                !
 ! D165  D(29,28,33,63)       -179.6231         estimate D2E/DX2                !
 ! D166  D(28,29,30,31)          0.0975         estimate D2E/DX2                !
 ! D167  D(28,29,30,60)        179.9551         estimate D2E/DX2                !
 ! D168  D(59,29,30,31)       -178.945          estimate D2E/DX2                !
 ! D169  D(59,29,30,60)          0.9127         estimate D2E/DX2                !
 ! D170  D(29,30,31,32)          0.1161         estimate D2E/DX2                !
 ! D171  D(29,30,31,61)        179.9486         estimate D2E/DX2                !
 ! D172  D(60,30,31,32)       -179.7408         estimate D2E/DX2                !
 ! D173  D(60,30,31,61)          0.0917         estimate D2E/DX2                !
 ! D174  D(30,31,32,33)         -0.111          estimate D2E/DX2                !
 ! D175  D(30,31,32,62)        179.8084         estimate D2E/DX2                !
 ! D176  D(61,31,32,33)       -179.9436         estimate D2E/DX2                !
 ! D177  D(61,31,32,62)         -0.0242         estimate D2E/DX2                !
 ! D178  D(31,32,33,28)         -0.1081         estimate D2E/DX2                !
 ! D179  D(31,32,33,63)        179.8338         estimate D2E/DX2                !
 ! D180  D(62,32,33,28)        179.9723         estimate D2E/DX2                !
 ! D181  D(62,32,33,63)         -0.0858         estimate D2E/DX2                !
 ! D182  D(27,34,35,25)          6.4599         estimate D2E/DX2                !
 ! D183  D(64,34,35,25)       -113.6958         estimate D2E/DX2                !
 ! D184  D(65,34,35,25)        126.83           estimate D2E/DX2                !
 ! D185  D(4,36,37,1)            0.404          estimate D2E/DX2                !
 ! D186  D(4,36,37,67)        -179.7533         estimate D2E/DX2                !
 ! D187  D(66,36,37,1)        -179.9997         estimate D2E/DX2                !
 ! D188  D(66,36,37,67)         -0.157          estimate D2E/DX2                !
 --------------------------------------------------------------------------------
 Trust Radius=3.00D-01 FncErr=1.00D-07 GrdErr=1.00D-06 EigMax=2.50D+02 EigMin=1.00D-04
 Number of steps in this run=    394 maximum allowed number of steps=    402.
 GradGradGradGradGradGradGradGradGradGradGradGradGradGradGradGradGradGrad

 Leave Link  103 at Sun Aug 14 18:15:38 2022, MaxMem=  7516192768 cpu:               1.1 elap:               0.1
 (Enter /public/apps/g16-C01//g16/l202.exe)
 Symmetry turned off by external request.
 Stoichiometry    C33H30N2O2
 Framework group  C1[X(C33H30N2O2)]
 Deg. of freedom   195
 Full point group                 C1      NOp   1
                          Input orientation:                          
 ---------------------------------------------------------------------
 Center     Atomic      Atomic             Coordinates (Angstroms)
 Number     Number       Type             X           Y           Z
 ---------------------------------------------------------------------
      1          6           0       -3.169599   -3.757811   -0.358794
      2          6           0       -3.684471   -2.479445   -0.486418
      3          6           0       -2.989976   -1.516863   -1.197808
      4          6           0       -1.770771   -1.820021   -1.788163
      5          6           0       -0.994714   -0.772017   -2.532608
      6          6           0       -0.000124   -0.000426   -1.628659
      7          6           0        0.993950    0.771055   -2.533247
      8          6           0        1.770678    1.818869   -1.789227
      9          6           0        2.989781    1.515223   -1.198913
     10          6           0        3.684763    2.477570   -0.487695
     11          6           0        3.170582    3.756236   -0.360340
     12          6           0        1.960943    4.071578   -0.956366
     13          6           0        1.268514    3.109600   -1.669269
     14          6           0       -0.721832    0.963939   -0.738754
     15          7           0       -1.865075    1.453676   -0.951767
     16          6           0       -2.204303    2.303436    0.174105
     17          6           0       -3.357105    1.696465    0.936132
     18          6           0       -4.552862    2.381947    1.091782
     19          6           0       -5.601126    1.808954    1.791039
     20          6           0       -5.462482    0.545147    2.338182
     21          6           0       -4.272319   -0.145416    2.181933
     22          6           0       -3.224303    0.425664    1.483754
     23          6           0       -0.890147    2.331566    1.004654
     24          8           0       -0.062644    1.365460    0.373515
     25          6           0        0.721992   -0.964538   -0.738830
     26          7           0        1.865433   -1.453825   -0.951832
     27          6           0        2.205094   -2.303210    0.174165
     28          6           0        3.357199   -1.695275    0.936509
     29          6           0        3.223218   -0.424512    1.483929
     30          6           0        4.270433    0.147325    2.182695
     31          6           0        5.460943   -0.542449    2.339780
     32          6           0        5.600770   -1.806194    1.792798
     33          6           0        4.553331   -2.379932    1.092909
     34          6           0        0.890825   -2.332173    1.004511
     35          8           0        0.063004   -1.366276    0.373486
     36          6           0       -1.267918   -3.110467   -1.667922
     37          6           0       -1.959777   -4.072638   -0.954732
     38          1           0       -3.709659   -4.509198    0.199154
     39          1           0       -4.630388   -2.226984   -0.029443
     40          1           0       -3.386024   -0.517039   -1.290534
     41          1           0       -0.416673   -1.242831   -3.330622
     42          1           0       -1.678108   -0.038345   -2.960864
     43          1           0        0.415446    1.242032   -3.330830
     44          1           0        1.676940    0.037324   -2.962042
     45          1           0        3.385301    0.515185   -1.291478
     46          1           0        4.630544    2.224701   -0.030666
     47          1           0        3.711041    4.507448    0.197451
     48          1           0        1.557887    5.070866   -0.867084
     49          1           0        0.323671    3.358761   -2.133858
     50          1           0       -2.480623    3.295746   -0.194471
     51          1           0       -4.664802    3.367732    0.663354
     52          1           0       -6.528530    2.350471    1.907576
     53          1           0       -6.281326    0.098310    2.882917
     54          1           0       -4.158394   -1.133787    2.602573
     55          1           0       -2.303839   -0.125233    1.350471
     56          1           0       -0.384919    3.301627    0.962039
     57          1           0       -1.046489    2.043278    2.046592
     58          1           0        2.482262   -3.295347   -0.194219
     59          1           0        2.302474    0.125774    1.350058
     60          1           0        4.155561    1.135638    2.603215
     61          1           0        6.279131   -0.095046    2.885035
     62          1           0        6.528467   -2.347091    1.909889
     63          1           0        4.666218   -3.365662    0.664607
     64          1           0        0.386039   -3.302453    0.961550
     65          1           0        1.046884   -2.044098    2.046545
     66          1           0       -0.322945   -3.359215   -2.132479
     67          1           0       -1.556160   -5.071677   -0.865163
 ---------------------------------------------------------------------
 Rotational constants (GHZ):           0.1593115           0.0910473           0.0750495
 Leave Link  202 at Sun Aug 14 18:15:39 2022, MaxMem=  7516192768 cpu:               3.4 elap:               0.4
 (Enter /public/apps/g16-C01//g16/l301.exe)
 Standard basis: def2SVPP (5D, 7F)
 Ernie: Thresh=  0.10000D-02 Tol=  0.10000D-05 Strict=F.
   578 basis functions,  1045 primitive gaussians,   615 cartesian basis functions
   129 alpha electrons      129 beta electrons
       nuclear repulsion energy      4143.1191466919 Hartrees.
 IExCor=  402 DFT=T Ex+Corr=B3LYP ExCW=0 ScaHFX=  0.200000
 ScaDFX=  0.800000  0.720000  1.000000  0.810000 ScalE2=  1.000000  1.000000
 IRadAn=      5 IRanWt=     -1 IRanGd=            0 ICorTp=0 IEmpDi=141
 NAtoms=   67 NActive=   67 NUniq=   67 SFac= 1.00D+00 NAtFMM=   60 NAOKFM=T Big=T
 Integral buffers will be    131072 words long.
 Raffenetti 2 integral format.
 Two-electron integral symmetry is turned off.
 R6Disp:  Grimme-D3(BJ) Dispersion energy=       -0.1808318537 Hartrees.
 Nuclear repulsion after empirical dispersion term =     4142.9383148382 Hartrees.
 Leave Link  301 at Sun Aug 14 18:15:39 2022, MaxMem=  7516192768 cpu:               1.9 elap:               0.2
 (Enter /public/apps/g16-C01//g16/l302.exe)
 NPDir=0 NMtPBC=     1 NCelOv=     1 NCel=       1 NClECP=     1 NCelD=      1
         NCelK=      1 NCelE2=     1 NClLst=     1 CellRange=     0.0.
 One-electron integrals computed using PRISM.
   1 Symmetry operations used in ECPInt.
 ECPInt:  NShTT=   39903 NPrTT=  159901 LenC2=   35435 LenP2D=   90963.
 LDataN:  DoStor=T MaxTD1= 4 Len=   56
 NBasis=   578 RedAO= T EigKep=  2.42D-04  NBF=   578
 NBsUse=   578 1.00D-06 EigRej= -1.00D+00 NBFU=   578
 Precomputing XC quadrature grid using
 IXCGrd= 4 IRadAn=           5 IRanWt=          -1 IRanGd=           0 AccXCQ= 0.00D+00.
 Generated NRdTot=       0 NPtTot=           0 NUsed=           0 NTot=          32
 NSgBfM=   606   605   605   606   606 MxSgAt=    67 MxSgA2=    67.
 Leave Link  302 at Sun Aug 14 18:15:48 2022, MaxMem=  7516192768 cpu:             153.0 elap:               9.1
 (Enter /public/apps/g16-C01//g16/l303.exe)
 DipDrv:  MaxL=1.
 Leave Link  303 at Sun Aug 14 18:15:49 2022, MaxMem=  7516192768 cpu:               9.4 elap:               0.7
 (Enter /public/apps/g16-C01//g16/l401.exe)
 ExpMin= 1.22D-01 ExpMax= 2.27D+03 ExpMxC= 3.41D+02 IAcc=3 IRadAn=         5 AccDes= 0.00D+00
 Harris functional with IExCor=  402 and IRadAn=       5 diagonalized for initial guess.
 HarFok:  IExCor=  402 AccDes= 0.00D+00 IRadAn=         5 IDoV= 1 UseB2=F ITyADJ=14
 ICtDFT=  3500011 ScaDFX=  1.000000  1.000000  1.000000  1.000000
 FoFCou: FMM=F IPFlag=           0 FMFlag=      100000 FMFlg1=        2001
         NFxFlg=           0 DoJE=T BraDBF=F KetDBF=T FulRan=T
         wScrn=  0.000000 ICntrl=       500 IOpCl=  0 I1Cent=   200000004 NGrid=           0
         NMat0=    1 NMatS0=      1 NMatT0=    0 NMatD0=    1 NMtDS0=    0 NMtDT0=    0
 Symmetry not used in FoFCou.
 Harris En= -1534.44732178892    
 JPrj=0 DoOrth=F DoCkMO=F.
 Leave Link  401 at Sun Aug 14 18:16:02 2022, MaxMem=  7516192768 cpu:             197.5 elap:              11.8
 (Enter /public/apps/g16-C01//g16/l502.exe)
 Two-electron integral symmetry not used.
 Closed shell SCF:
 Using DIIS extrapolation, IDIIS=  1040.
 NGot=  7516192768 LenX=  7515404859 LenY=  7515026019
 Requested convergence on RMS density matrix=1.00D-08 within 128 cycles.
 Requested convergence on MAX density matrix=1.00D-06.
 Requested convergence on             energy=1.00D-06.
 No special actions if energy rises.
 Fock matrices will be formed incrementally for  20 cycles.
 Integral accuracy reduced to 1.0D-05 until final iterations.

 Cycle   1  Pass 0  IDiag  1:
 FoFJK:  IHMeth= 1 ICntrl=       0 DoSepK=F KAlg= 0 I1Cent=           0 FoldK=F
 IRaf= 990000000 NMat=       1 IRICut=       1 DoRegI=T DoRafI=F ISym2E= 0 IDoP0=0 IntGTp=1.
 FoFCou: FMM=T IPFlag=           0 FMFlag=      100000 FMFlg1=        2001
         NFxFlg=           0 DoJE=F BraDBF=F KetDBF=F FulRan=T
         wScrn=  0.000000 ICntrl=         0 IOpCl=  0 I1Cent=           0 NGrid=           0
         NMat0=    1 NMatS0=      1 NMatT0=    0 NMatD0=    1 NMtDS0=    0 NMtDT0=    0
 Symmetry not used in FoFCou.
 FMM levels:  10  Number of levels for PrismC:   9
 E= -1533.76336823894    
 DIIS: error= 2.62D-02 at cycle   1 NSaved=   1.
 NSaved= 1 IEnMin= 1 EnMin= -1533.76336823894     IErMin= 1 ErrMin= 2.62D-02
 ErrMax= 2.62D-02  0.00D+00 EMaxC= 1.00D-01 BMatC= 6.40D-01 BMatP= 6.40D-01
 IDIUse=3 WtCom= 7.38D-01 WtEn= 2.62D-01
 Coeff-Com:  0.100D+01
 Coeff-En:   0.100D+01
 Coeff:      0.100D+01
 Gap=     0.275 Goal=   None    Shift=    0.000
 GapD=    0.275 DampG=1.000 DampE=0.500 DampFc=0.5000 IDamp=-1.
 Damping current iteration by 5.00D-01
 RMSDP=4.96D-03 MaxDP=3.41D-01              OVMax= 1.88D-01

 Cycle   2  Pass 0  IDiag  1:
 RMSU=  2.28D-03    CP:  9.44D-01
 E= -1534.09433741637     Delta-E=       -0.330969177430 Rises=F Damp=T
 DIIS: error= 4.52D-03 at cycle   2 NSaved=   2.
 NSaved= 2 IEnMin= 2 EnMin= -1534.09433741637     IErMin= 2 ErrMin= 4.52D-03
 ErrMax= 4.52D-03  0.00D+00 EMaxC= 1.00D-01 BMatC= 4.15D-02 BMatP= 6.40D-01
 IDIUse=3 WtCom= 9.55D-01 WtEn= 4.52D-02
 Coeff-Com:  0.557D-01 0.944D+00
 Coeff-En:   0.717D-01 0.928D+00
 Coeff:      0.564D-01 0.944D+00
 Gap=     0.247 Goal=   None    Shift=    0.000
 RMSDP=1.57D-03 MaxDP=1.62D-01 DE=-3.31D-01 OVMax= 1.51D-01

 Cycle   3  Pass 0  IDiag  1:
 RMSU=  1.47D-03    CP:  9.12D-01  1.02D+00
 E= -1534.44674879765     Delta-E=       -0.352411381281 Rises=F Damp=F
 DIIS: error= 8.49D-03 at cycle   3 NSaved=   3.
 NSaved= 3 IEnMin= 3 EnMin= -1534.44674879765     IErMin= 2 ErrMin= 4.52D-03
 ErrMax= 8.49D-03  0.00D+00 EMaxC= 1.00D-01 BMatC= 6.13D-02 BMatP= 4.15D-02
 IDIUse=3 WtCom= 9.79D-02 WtEn= 9.02D-01
 Coeff-Com: -0.172D-01 0.564D+00 0.453D+00
 Coeff-En:   0.000D+00 0.000D+00 0.100D+01
 Coeff:     -0.168D-02 0.552D-01 0.946D+00
 Gap=     0.239 Goal=   None    Shift=    0.000
 RMSDP=1.78D-03 MaxDP=2.53D-01 DE=-3.52D-01 OVMax= 1.91D-01

 Cycle   4  Pass 0  IDiag  1:
 RMSU=  1.33D-03    CP:  9.17D-01  1.30D+00  3.14D-01
 E= -1534.23542321211     Delta-E=        0.211325585545 Rises=F Damp=F
 DIIS: error= 1.74D-02 at cycle   4 NSaved=   4.
 NSaved= 4 IEnMin= 3 EnMin= -1534.44674879765     IErMin= 2 ErrMin= 4.52D-03
 ErrMax= 1.74D-02  0.00D+00 EMaxC= 1.00D-01 BMatC= 2.99D-01 BMatP= 4.15D-02
 IDIUse=2 WtCom= 0.00D+00 WtEn= 1.00D+00
 Coeff-En:   0.000D+00 0.000D+00 0.769D+00 0.231D+00
 Coeff:      0.000D+00 0.000D+00 0.769D+00 0.231D+00
 Gap=     0.242 Goal=   None    Shift=    0.000
 RMSDP=9.44D-04 MaxDP=1.44D-01 DE= 2.11D-01 OVMax= 7.52D-02

 Cycle   5  Pass 0  IDiag  1:
 RMSU=  1.95D-04    CP:  9.13D-01  1.17D+00  6.67D-01  4.72D-01
 E= -1534.48450103829     Delta-E=       -0.249077826180 Rises=F Damp=F
 DIIS: error= 4.53D-03 at cycle   5 NSaved=   5.
 NSaved= 5 IEnMin= 5 EnMin= -1534.48450103829     IErMin= 2 ErrMin= 4.52D-03
 ErrMax= 4.53D-03  0.00D+00 EMaxC= 1.00D-01 BMatC= 1.98D-02 BMatP= 4.15D-02
 IDIUse=3 WtCom= 9.55D-01 WtEn= 4.53D-02
 Coeff-Com:  0.532D-02 0.744D-02 0.323D+00-0.343D-01 0.699D+00
 Coeff-En:   0.000D+00 0.000D+00 0.296D+00 0.000D+00 0.704D+00
 Coeff:      0.507D-02 0.711D-02 0.321D+00-0.327D-01 0.699D+00
 Gap=     0.221 Goal=   None    Shift=    0.000
 RMSDP=3.32D-04 MaxDP=4.91D-02 DE=-2.49D-01 OVMax= 2.65D-02

 Cycle   6  Pass 0  IDiag  1:
 RMSU=  6.78D-05    CP:  9.12D-01  1.11D+00  7.94D-01  2.97D-01  8.47D-01
 E= -1534.50207163317     Delta-E=       -0.017570594883 Rises=F Damp=F
 DIIS: error= 3.95D-04 at cycle   6 NSaved=   6.
 NSaved= 6 IEnMin= 6 EnMin= -1534.50207163317     IErMin= 6 ErrMin= 3.95D-04
 ErrMax= 3.95D-04  0.00D+00 EMaxC= 1.00D-01 BMatC= 1.88D-04 BMatP= 1.98D-02
 IDIUse=3 WtCom= 9.96D-01 WtEn= 3.95D-03
 Coeff-Com:  0.252D-02-0.557D-02 0.132D+00-0.513D-01 0.443D+00 0.479D+00
 Coeff-En:   0.000D+00 0.000D+00 0.000D+00 0.000D+00 0.000D+00 0.100D+01
 Coeff:      0.251D-02-0.555D-02 0.131D+00-0.511D-01 0.442D+00 0.481D+00
 Gap=     0.220 Goal=   None    Shift=    0.000
 RMSDP=3.40D-05 MaxDP=2.47D-03 DE=-1.76D-02 OVMax= 2.88D-03

 Cycle   7  Pass 0  IDiag  1:
 RMSU=  1.98D-05    CP:  9.12D-01  1.12D+00  7.91D-01  3.01D-01  8.81D-01
                    CP:  6.24D-01
 E= -1534.50229568505     Delta-E=       -0.000224051882 Rises=F Damp=F
 DIIS: error= 7.93D-05 at cycle   7 NSaved=   7.
 NSaved= 7 IEnMin= 7 EnMin= -1534.50229568505     IErMin= 7 ErrMin= 7.93D-05
 ErrMax= 7.93D-05  0.00D+00 EMaxC= 1.00D-01 BMatC= 7.16D-06 BMatP= 1.88D-04
 IDIUse=1 WtCom= 1.00D+00 WtEn= 0.00D+00
 Coeff-Com:  0.122D-02-0.335D-02 0.585D-01-0.276D-01 0.214D+00 0.263D+00
 Coeff-Com:  0.494D+00
 Coeff:      0.122D-02-0.335D-02 0.585D-01-0.276D-01 0.214D+00 0.263D+00
 Coeff:      0.494D+00
 Gap=     0.220 Goal=   None    Shift=    0.000
 RMSDP=8.72D-06 MaxDP=5.28D-04 DE=-2.24D-04 OVMax= 6.84D-04

 Initial convergence to 1.0D-05 achieved.  Increase integral accuracy.
 Cycle   8  Pass 1  IDiag  1:
 E= -1534.50206901034     Delta-E=        0.000226674711 Rises=F Damp=F
 DIIS: error= 8.32D-04 at cycle   1 NSaved=   1.
 NSaved= 1 IEnMin= 1 EnMin= -1534.50206901034     IErMin= 1 ErrMin= 8.32D-04
 ErrMax= 8.32D-04  0.00D+00 EMaxC= 1.00D-01 BMatC= 9.36D-05 BMatP= 9.36D-05
 IDIUse=3 WtCom= 9.92D-01 WtEn= 8.32D-03
 Coeff-Com:  0.100D+01
 Coeff-En:   0.100D+01
 Coeff:      0.100D+01
 Gap=     0.220 Goal=   None    Shift=    0.000
 RMSDP=8.72D-06 MaxDP=5.28D-04 DE= 2.27D-04 OVMax= 1.63D-03

 Cycle   9  Pass 1  IDiag  1:
 RMSU=  7.53D-04    CP:  9.96D-01
 E= -1534.50217361427     Delta-E=       -0.000104603932 Rises=F Damp=F
 DIIS: error= 4.62D-05 at cycle   2 NSaved=   2.
 NSaved= 2 IEnMin= 2 EnMin= -1534.50217361427     IErMin= 2 ErrMin= 4.62D-05
 ErrMax= 4.62D-05  0.00D+00 EMaxC= 1.00D-01 BMatC= 2.82D-06 BMatP= 9.36D-05
 IDIUse=1 WtCom= 1.00D+00 WtEn= 0.00D+00
 Coeff-Com:  0.337D-01 0.966D+00
 Coeff:      0.337D-01 0.966D+00
 Gap=     0.220 Goal=   None    Shift=    0.000
 RMSDP=1.43D-05 MaxDP=9.99D-04 DE=-1.05D-04 OVMax= 9.29D-04

 Cycle  10  Pass 1  IDiag  1:
 RMSU=  1.19D-05    CP:  9.96D-01  1.01D+00
 E= -1534.50216517282     Delta-E=        0.000008441456 Rises=F Damp=F
 DIIS: error= 8.21D-05 at cycle   3 NSaved=   3.
 NSaved= 3 IEnMin= 2 EnMin= -1534.50217361427     IErMin= 2 ErrMin= 4.62D-05
 ErrMax= 8.21D-05  0.00D+00 EMaxC= 1.00D-01 BMatC= 1.10D-05 BMatP= 2.82D-06
 IDIUse=1 WtCom= 1.00D+00 WtEn= 0.00D+00
 Coeff-Com: -0.590D-02 0.669D+00 0.337D+00
 Coeff:     -0.590D-02 0.669D+00 0.337D+00
 Gap=     0.220 Goal=   None    Shift=    0.000
 RMSDP=7.94D-06 MaxDP=7.71D-04 DE= 8.44D-06 OVMax= 6.40D-04

 Cycle  11  Pass 1  IDiag  1:
 RMSU=  1.99D-06    CP:  9.96D-01  1.01D+00  3.60D-01
 E= -1534.50217643870     Delta-E=       -0.000011265886 Rises=F Damp=F
 DIIS: error= 1.91D-05 at cycle   4 NSaved=   4.
 NSaved= 4 IEnMin= 4 EnMin= -1534.50217643870     IErMin= 4 ErrMin= 1.91D-05
 ErrMax= 1.91D-05  0.00D+00 EMaxC= 1.00D-01 BMatC= 1.26D-07 BMatP= 2.82D-06
 IDIUse=1 WtCom= 1.00D+00 WtEn= 0.00D+00
 Coeff-Com: -0.438D-02 0.430D+00 0.223D+00 0.352D+00
 Coeff:     -0.438D-02 0.430D+00 0.223D+00 0.352D+00
 Gap=     0.220 Goal=   None    Shift=    0.000
 RMSDP=6.95D-07 MaxDP=3.90D-05 DE=-1.13D-05 OVMax= 6.12D-05

 Cycle  12  Pass 1  IDiag  1:
 RMSU=  5.87D-07    CP:  9.96D-01  1.01D+00  3.71D-01  8.26D-01
 E= -1534.50217654181     Delta-E=       -0.000000103102 Rises=F Damp=F
 DIIS: error= 1.34D-06 at cycle   5 NSaved=   5.
 NSaved= 5 IEnMin= 5 EnMin= -1534.50217654181     IErMin= 5 ErrMin= 1.34D-06
 ErrMax= 1.34D-06  0.00D+00 EMaxC= 1.00D-01 BMatC= 1.74D-09 BMatP= 1.26D-07
 IDIUse=1 WtCom= 1.00D+00 WtEn= 0.00D+00
 Coeff-Com: -0.199D-02 0.192D+00 0.100D+00 0.180D+00 0.529D+00
 Coeff:     -0.199D-02 0.192D+00 0.100D+00 0.180D+00 0.529D+00
 Gap=     0.220 Goal=   None    Shift=    0.000
 RMSDP=1.43D-07 MaxDP=1.59D-05 DE=-1.03D-07 OVMax= 1.11D-05

 Cycle  13  Pass 1  IDiag  1:
 RMSU=  1.29D-07    CP:  9.96D-01  1.01D+00  3.71D-01  8.41D-01  9.18D-01
 E= -1534.50217654324     Delta-E=       -0.000000001432 Rises=F Damp=F
 DIIS: error= 5.46D-07 at cycle   6 NSaved=   6.
 NSaved= 6 IEnMin= 6 EnMin= -1534.50217654324     IErMin= 6 ErrMin= 5.46D-07
 ErrMax= 5.46D-07  0.00D+00 EMaxC= 1.00D-01 BMatC= 3.67D-10 BMatP= 1.74D-09
 IDIUse=1 WtCom= 1.00D+00 WtEn= 0.00D+00
 Coeff-Com: -0.369D-03 0.341D-01 0.180D-01 0.413D-01 0.330D+00 0.577D+00
 Coeff:     -0.369D-03 0.341D-01 0.180D-01 0.413D-01 0.330D+00 0.577D+00
 Gap=     0.220 Goal=   None    Shift=    0.000
 RMSDP=5.50D-08 MaxDP=5.67D-06 DE=-1.43D-09 OVMax= 3.85D-06

 Cycle  14  Pass 1  IDiag  1:
 RMSU=  3.22D-08    CP:  9.96D-01  1.01D+00  3.71D-01  8.46D-01  9.42D-01
                    CP:  6.87D-01
 E= -1534.50217654356     Delta-E=       -0.000000000327 Rises=F Damp=F
 DIIS: error= 1.88D-07 at cycle   7 NSaved=   7.
 NSaved= 7 IEnMin= 7 EnMin= -1534.50217654356     IErMin= 7 ErrMin= 1.88D-07
 ErrMax= 1.88D-07  0.00D+00 EMaxC= 1.00D-01 BMatC= 2.58D-11 BMatP= 3.67D-10
 IDIUse=1 WtCom= 1.00D+00 WtEn= 0.00D+00
 Coeff-Com: -0.333D-04 0.239D-02 0.145D-02 0.679D-02 0.135D+00 0.308D+00
 Coeff-Com:  0.547D+00
 Coeff:     -0.333D-04 0.239D-02 0.145D-02 0.679D-02 0.135D+00 0.308D+00
 Coeff:      0.547D+00
 Gap=     0.220 Goal=   None    Shift=    0.000
 RMSDP=1.45D-08 MaxDP=9.93D-07 DE=-3.27D-10 OVMax= 7.97D-07

 Cycle  15  Pass 1  IDiag  1:
 RMSU=  9.41D-09    CP:  9.96D-01  1.01D+00  3.71D-01  8.47D-01  9.45D-01
                    CP:  7.09D-01  7.00D-01
 E= -1534.50217654364     Delta-E=       -0.000000000075 Rises=F Damp=F
 DIIS: error= 3.85D-08 at cycle   8 NSaved=   8.
 NSaved= 8 IEnMin= 8 EnMin= -1534.50217654364     IErMin= 8 ErrMin= 3.85D-08
 ErrMax= 3.85D-08  0.00D+00 EMaxC= 1.00D-01 BMatC= 1.98D-12 BMatP= 2.58D-11
 IDIUse=1 WtCom= 1.00D+00 WtEn= 0.00D+00
 Coeff-Com:  0.148D-04-0.172D-02-0.787D-03-0.277D-03 0.413D-01 0.107D+00
 Coeff-Com:  0.283D+00 0.571D+00
 Coeff:      0.148D-04-0.172D-02-0.787D-03-0.277D-03 0.413D-01 0.107D+00
 Coeff:      0.283D+00 0.571D+00
 Gap=     0.220 Goal=   None    Shift=    0.000
 RMSDP=3.69D-09 MaxDP=1.81D-07 DE=-7.55D-11 OVMax= 2.76D-07

 SCF Done:  E(RB3LYP) =  -1534.50217654     A.U. after   15 cycles
            NFock= 15  Conv=0.37D-08     -V/T= 2.0093
 KE= 1.520390318668D+03 PE=-1.184596046839D+04 EE= 4.648129658344D+03
 Leave Link  502 at Sun Aug 14 18:20:38 2022, MaxMem=  7516192768 cpu:            5013.1 elap:             276.2
 (Enter /public/apps/g16-C01//g16/l601.exe)
 Copying SCF densities to generalized density rwf, IOpCl= 0 IROHF=0.

 **********************************************************************

            Population analysis using the SCF Density.

 **********************************************************************

 Alpha  occ. eigenvalues --  -19.17149 -19.17148 -14.30651 -14.30650 -10.27625
 Alpha  occ. eigenvalues --  -10.27621 -10.23676 -10.23674 -10.22472 -10.22170
 Alpha  occ. eigenvalues --  -10.22169 -10.19106 -10.19106 -10.18617 -10.18617
 Alpha  occ. eigenvalues --  -10.18490 -10.18489 -10.18448 -10.18447 -10.18414
 Alpha  occ. eigenvalues --  -10.18414 -10.18375 -10.18374 -10.18321 -10.18318
 Alpha  occ. eigenvalues --  -10.18087 -10.18086 -10.17817 -10.17816 -10.17641
 Alpha  occ. eigenvalues --  -10.17640 -10.17556 -10.17555 -10.17436 -10.17434
 Alpha  occ. eigenvalues --  -10.16826 -10.16823  -1.09889  -1.08873  -0.91268
 Alpha  occ. eigenvalues --   -0.91045  -0.86608  -0.85551  -0.85317  -0.84963
 Alpha  occ. eigenvalues --   -0.83292  -0.78189  -0.77326  -0.76594  -0.74411
 Alpha  occ. eigenvalues --   -0.74371  -0.74210  -0.73427  -0.73397  -0.72629
 Alpha  occ. eigenvalues --   -0.71775  -0.67286  -0.65758  -0.64662  -0.63941
 Alpha  occ. eigenvalues --   -0.60841  -0.60811  -0.60341  -0.59883  -0.59043
 Alpha  occ. eigenvalues --   -0.58627  -0.58364  -0.57687  -0.57209  -0.54008
 Alpha  occ. eigenvalues --   -0.53142  -0.53025  -0.52472  -0.51806  -0.50544
 Alpha  occ. eigenvalues --   -0.49906  -0.48865  -0.48150  -0.47226  -0.46605
 Alpha  occ. eigenvalues --   -0.46561  -0.46138  -0.45622  -0.45411  -0.45272
 Alpha  occ. eigenvalues --   -0.44588  -0.44456  -0.43804  -0.43515  -0.42724
 Alpha  occ. eigenvalues --   -0.42553  -0.42400  -0.41899  -0.41870  -0.41411
 Alpha  occ. eigenvalues --   -0.41395  -0.40991  -0.39835  -0.39389  -0.38265
 Alpha  occ. eigenvalues --   -0.38185  -0.37593  -0.37434  -0.36899  -0.36161
 Alpha  occ. eigenvalues --   -0.36025  -0.35851  -0.35641  -0.35132  -0.35116
 Alpha  occ. eigenvalues --   -0.34807  -0.34414  -0.34219  -0.33924  -0.33673
 Alpha  occ. eigenvalues --   -0.33593  -0.32380  -0.28031  -0.27896  -0.26807
 Alpha  occ. eigenvalues --   -0.26201  -0.26008  -0.25671  -0.25260  -0.24992
 Alpha  occ. eigenvalues --   -0.24623  -0.24605  -0.23994  -0.23612
 Alpha virt. eigenvalues --   -0.01640  -0.01380  -0.01157  -0.01071  -0.00771
 Alpha virt. eigenvalues --    0.00130   0.00250   0.00683   0.02151   0.02152
 Alpha virt. eigenvalues --    0.05384   0.05703   0.06517   0.06916   0.07801
 Alpha virt. eigenvalues --    0.08317   0.08706   0.08938   0.09495   0.10151
 Alpha virt. eigenvalues --    0.10869   0.11258   0.11400   0.11847   0.12017
 Alpha virt. eigenvalues --    0.12156   0.12563   0.12954   0.13298   0.13638
 Alpha virt. eigenvalues --    0.13686   0.13791   0.14553   0.14585   0.15129
 Alpha virt. eigenvalues --    0.15227   0.15754   0.16024   0.16627   0.17104
 Alpha virt. eigenvalues --    0.17658   0.17779   0.18552   0.18569   0.18756
 Alpha virt. eigenvalues --    0.18818   0.20128   0.20578   0.22064   0.22694
 Alpha virt. eigenvalues --    0.23349   0.23663   0.24618   0.25198   0.25650
 Alpha virt. eigenvalues --    0.26886   0.28337   0.28480   0.28971   0.29515
 Alpha virt. eigenvalues --    0.29887   0.30443   0.30572   0.30643   0.31535
 Alpha virt. eigenvalues --    0.31850   0.32148   0.32224   0.32522   0.33296
 Alpha virt. eigenvalues --    0.33313   0.33842   0.34114   0.34542   0.34930
 Alpha virt. eigenvalues --    0.35401   0.36784   0.37400   0.37405   0.38333
 Alpha virt. eigenvalues --    0.39431   0.39771   0.39983   0.40425   0.40787
 Alpha virt. eigenvalues --    0.40941   0.42497   0.42914   0.42950   0.43521
 Alpha virt. eigenvalues --    0.43804   0.43881   0.44155   0.44601   0.44998
 Alpha virt. eigenvalues --    0.46204   0.46365   0.46677   0.47168   0.47714
 Alpha virt. eigenvalues --    0.47918   0.48325   0.48597   0.49057   0.49061
 Alpha virt. eigenvalues --    0.49348   0.49443   0.49941   0.50127   0.50382
 Alpha virt. eigenvalues --    0.50988   0.51119   0.51178   0.51905   0.52485
 Alpha virt. eigenvalues --    0.52810   0.53037   0.53344   0.54260   0.54549
 Alpha virt. eigenvalues --    0.55181   0.55213   0.55278   0.55924   0.56463
 Alpha virt. eigenvalues --    0.56497   0.57277   0.57677   0.57920   0.57922
 Alpha virt. eigenvalues --    0.58951   0.59650   0.60714   0.60937   0.61770
 Alpha virt. eigenvalues --    0.61831   0.61990   0.62200   0.62890   0.63358
 Alpha virt. eigenvalues --    0.64110   0.64317   0.64895   0.65779   0.65977
 Alpha virt. eigenvalues --    0.66554   0.66779   0.67021   0.67525   0.67670
 Alpha virt. eigenvalues --    0.67783   0.68442   0.68483   0.68768   0.68997
 Alpha virt. eigenvalues --    0.69562   0.69742   0.70124   0.70475   0.70537
 Alpha virt. eigenvalues --    0.70563   0.71102   0.71252   0.71535   0.71749
 Alpha virt. eigenvalues --    0.72032   0.72264   0.72663   0.72664   0.73413
 Alpha virt. eigenvalues --    0.73862   0.73866   0.74111   0.74694   0.74828
 Alpha virt. eigenvalues --    0.75477   0.75623   0.75866   0.76009   0.76185
 Alpha virt. eigenvalues --    0.76654   0.77515   0.77985   0.78149   0.78362
 Alpha virt. eigenvalues --    0.78394   0.78555   0.79514   0.79670   0.79850
 Alpha virt. eigenvalues --    0.80388   0.80742   0.81140   0.81611   0.82189
 Alpha virt. eigenvalues --    0.82673   0.82839   0.84241   0.84966   0.85226
 Alpha virt. eigenvalues --    0.85422   0.86147   0.86312   0.87252   0.87296
 Alpha virt. eigenvalues --    0.88209   0.89609   0.90424   0.90729   0.92290
 Alpha virt. eigenvalues --    0.92525   0.93877   0.94341   0.94561   0.95247
 Alpha virt. eigenvalues --    0.96250   0.96330   0.97709   0.98381   1.00909
 Alpha virt. eigenvalues --    1.01514   1.02962   1.04374   1.06121   1.06298
 Alpha virt. eigenvalues --    1.06987   1.08835   1.09405   1.10666   1.12330
 Alpha virt. eigenvalues --    1.12908   1.13160   1.13449   1.14685   1.15186
 Alpha virt. eigenvalues --    1.17900   1.18535   1.20910   1.21472   1.24110
 Alpha virt. eigenvalues --    1.26283   1.26409   1.27140   1.27544   1.28322
 Alpha virt. eigenvalues --    1.29277   1.29342   1.29682   1.30472   1.30825
 Alpha virt. eigenvalues --    1.32048   1.32164   1.33722   1.34455   1.38079
 Alpha virt. eigenvalues --    1.38325   1.39056   1.40216   1.41048   1.41532
 Alpha virt. eigenvalues --    1.42568   1.43561   1.45446   1.45745   1.47028
 Alpha virt. eigenvalues --    1.47452   1.47784   1.48264   1.48904   1.48969
 Alpha virt. eigenvalues --    1.49729   1.50039   1.50240   1.50467   1.50848
 Alpha virt. eigenvalues --    1.51290   1.52084   1.53244   1.53348   1.54664
 Alpha virt. eigenvalues --    1.54817   1.55657   1.55862   1.57613   1.58529
 Alpha virt. eigenvalues --    1.59481   1.64012   1.67469   1.67586   1.69324
 Alpha virt. eigenvalues --    1.71429   1.71597   1.72195   1.75723   1.75726
 Alpha virt. eigenvalues --    1.76711   1.77183   1.77368   1.78134   1.79160
 Alpha virt. eigenvalues --    1.79494   1.79503   1.80870   1.81253   1.82325
 Alpha virt. eigenvalues --    1.82623   1.83321   1.83952   1.84075   1.84277
 Alpha virt. eigenvalues --    1.84448   1.86034   1.86127   1.86254   1.87429
 Alpha virt. eigenvalues --    1.88508   1.89492   1.90339   1.90794   1.91609
 Alpha virt. eigenvalues --    1.92083   1.92171   1.93864   1.94442   1.95902
 Alpha virt. eigenvalues --    1.97489   1.97805   1.98895   1.99918   2.00177
 Alpha virt. eigenvalues --    2.01693   2.01921   2.02363   2.02697   2.04259
 Alpha virt. eigenvalues --    2.05169   2.07017   2.07420   2.07802   2.09122
 Alpha virt. eigenvalues --    2.09307   2.09521   2.10140   2.11379   2.11604
 Alpha virt. eigenvalues --    2.11971   2.12578   2.13159   2.14403   2.14611
 Alpha virt. eigenvalues --    2.15035   2.15483   2.16052   2.16899   2.17656
 Alpha virt. eigenvalues --    2.19090   2.20228   2.20814   2.21780   2.22462
 Alpha virt. eigenvalues --    2.22996   2.26258   2.26868   2.26984   2.27635
 Alpha virt. eigenvalues --    2.28502   2.29029   2.31116   2.31415   2.31435
 Alpha virt. eigenvalues --    2.31791   2.32263   2.32379   2.32784   2.33237
 Alpha virt. eigenvalues --    2.37016   2.37093   2.37479   2.38877   2.39400
 Alpha virt. eigenvalues --    2.41129   2.43281   2.45015   2.46396   2.47389
 Alpha virt. eigenvalues --    2.47764   2.48938   2.49303   2.49318   2.50657
 Alpha virt. eigenvalues --    2.50955   2.52059   2.52759   2.55239   2.55644
 Alpha virt. eigenvalues --    2.56402   2.56948   2.60576   2.62769   2.63363
 Alpha virt. eigenvalues --    2.64098   2.67280   2.67432   2.68572   2.68616
 Alpha virt. eigenvalues --    2.69748   2.72016   2.72641   2.72804   2.73543
 Alpha virt. eigenvalues --    2.73776   2.74054   2.74240   2.74720   2.75128
 Alpha virt. eigenvalues --    2.75384   2.77382   2.78045   2.78398   2.78691
 Alpha virt. eigenvalues --    2.79460   2.81353   2.81360   2.83601   2.86098
 Alpha virt. eigenvalues --    2.88123   2.89484   2.90362   2.91575   2.97710
 Alpha virt. eigenvalues --    2.98537   2.99233   2.99910   3.04287   3.04540
 Alpha virt. eigenvalues --    3.06206   3.06358   3.18148   3.18980   3.27548
 Alpha virt. eigenvalues --    3.28426   3.38925   3.39799   3.41018   3.41072
 Alpha virt. eigenvalues --    3.42037   3.42570   3.59240   3.64172
          Condensed to atoms (all electrons):
 Mulliken charges:
               1
     1  C   -0.050038
     2  C   -0.043976
     3  C   -0.110178
     4  C    0.051151
     5  C    0.061819
     6  C   -0.173601
     7  C    0.061879
     8  C    0.051082
     9  C   -0.110137
    10  C   -0.043929
    11  C   -0.050043
    12  C   -0.040084
    13  C   -0.119107
    14  C    0.083765
    15  N   -0.138874
    16  C   -0.032554
    17  C    0.137203
    18  C   -0.132904
    19  C   -0.043625
    20  C   -0.044615
    21  C   -0.043222
    22  C   -0.136941
    23  C    0.099971
    24  O   -0.306876
    25  C    0.083717
    26  N   -0.138826
    27  C   -0.032527
    28  C    0.137128
    29  C   -0.136897
    30  C   -0.043246
    31  C   -0.044604
    32  C   -0.043633
    33  C   -0.132920
    34  C    0.099949
    35  O   -0.306876
    36  C   -0.119046
    37  C   -0.040057
    38  H    0.040338
    39  H    0.050129
    40  H    0.066680
    41  H    0.071061
    42  H    0.086955
    43  H    0.071062
    44  H    0.086928
    45  H    0.066693
    46  H    0.050160
    47  H    0.040329
    48  H    0.039166
    49  H    0.035995
    50  H    0.054270
    51  H    0.032839
    52  H    0.045948
    53  H    0.046481
    54  H    0.047762
    55  H    0.085037
    56  H    0.092899
    57  H    0.100258
    58  H    0.054255
    59  H    0.085089
    60  H    0.047742
    61  H    0.046477
    62  H    0.045944
    63  H    0.032832
    64  H    0.092882
    65  H    0.100274
    66  H    0.036009
    67  H    0.039179
 Sum of Mulliken charges =  -0.00000
 Mulliken charges with hydrogens summed into heavy atoms:
               1
     1  C   -0.009700
     2  C    0.006153
     3  C   -0.043498
     4  C    0.051151
     5  C    0.219836
     6  C   -0.173601
     7  C    0.219869
     8  C    0.051082
     9  C   -0.043444
    10  C    0.006231
    11  C   -0.009714
    12  C   -0.000918
    13  C   -0.083113
    14  C    0.083765
    15  N   -0.138874
    16  C    0.021716
    17  C    0.137203
    18  C   -0.100065
    19  C    0.002322
    20  C    0.001866
    21  C    0.004541
    22  C   -0.051904
    23  C    0.293128
    24  O   -0.306876
    25  C    0.083717
    26  N   -0.138826
    27  C    0.021728
    28  C    0.137128
    29  C   -0.051807
[...]
 00008207,-0.00009917,0.00008781,0.00001062,0.00001014,-0.00003279,0.00
 001877,0.00001319,0.00000982,-0.00001395,-0.00000631,0.00000160,-0.000
 00198,-0.00000382,0.00000068,-0.00000202,-0.00000362,-0.00000056,-0.00
 000487,0.00000424,0.00000319,-0.00000424,-0.00000499,-0.00000778,-0.00
 000085,0.00000031,0.00000006,-0.00000012,-0.00000028,-0.00000012,-0.00
 000237,0.00000056,-0.00000019,-0.00000808,-0.00000063,-0.00000259,-0.0
 0000854,0.00003018,0.00003455,0.00000358,-0.00000088,-0.00000575,0.000
 01372,-0.00001520,-0.00001358,-0.00022476,0.00008714,0.00021334,-0.000
 01909,-0.00029690,0.00014270,-0.00000619,-0.00000366,0.00004041,0.0000
 2664,-0.00000234,0.00000172,0.00002915,0.00000916,-0.00002961,0.000044
 96,-0.00005433,-0.00005800,-0.00072183,-0.00083670,-0.02551896,0.00080
 604,0.06265098,0.00002009,-0.00002138,0.00000889,0.00000498,0.00002816
 ,0.00000552,-0.00000689,-0.00002701,-0.00000729,0.00003483,0.00002962,
 0.00001266,0.00005517,0.00002904,0.00007327,0.00040008,0.00006492,-0.0
 0021459,-0.00017685,0.00007210,-0.00012071,-0.00006516,-0.00005329,-0.
 00004236,0.00005133,-0.00000643,0.00002936,-0.00003449,0.00000466,-0.0
 0000371,0.00000677,0.00002574,0.00002098,0.00000574,0.00000111,0.00000
 630,0.00002639,0.00000941,0.00001845,0.00010195,-0.00027130,-0.0001965
 0,-0.00003976,0.00010465,0.00009786,-0.00000205,-0.00002792,-0.0000342
 9,0.00002435,0.00003209,0.00000553,0.00000212,-0.00001690,0.00000835,0
 .00000126,-0.00000692,0.00000136,-0.00001038,-0.00000607,0.00001197,0.
 00000702,0.00003268,-0.00000347,-0.00000514,-0.00002280,0.00002525,0.0
 0002739,-0.00002635,-0.00006690,-0.00002127,0.00016784,0.00015948,-0.0
 0194068,-0.00056004,0.00036926,0.00021370,0.00036861,-0.00089527,-0.00
 038974,-0.00295418,-0.00734294,-0.00181948,-0.00034606,0.00036650,-0.0
 0030504,-0.00016165,0.00056046,0.00030603,0.00020609,0.00021425,-0.000
 21849,0.00023875,0.00000726,-0.00008222,-0.00025438,-0.00026390,0.0004
 4950,-0.00006923,0.00059130,-0.01550772,-0.04613763,-0.31494683,-0.002
 29036,0.00679365,-0.00985289,-0.00001500,-0.00001334,-0.00000347,-0.00
 001873,0.00003810,-0.00001363,-0.00001690,-0.00001267,0.00000131,-0.00
 001545,-0.00000039,0.00000095,0.00000386,0.00000173,-0.00000180,-0.000
 00329,-0.00000004,0.00001043,-0.00002949,-0.00001307,-0.00002071,0.000
 03758,0.00008402,-0.00003514,-0.00003088,-0.00001386,0.00007385,-0.000
 05002,-0.00002590,-0.00002346,0.00002340,0.00001022,-0.00000111,0.0000
 0353,0.00000928,0.00000038,0.00000163,0.00000658,0.00000186,0.00000309
 ,-0.00000870,-0.00000084,-0.00000341,0.00000927,0.00001094,0.00000302,
 -0.00000308,-0.00000196,-0.00000248,-0.00000236,0.00000033,-0.00000270
 ,-0.00000100,-0.00000130,-0.00002062,-0.00001150,-0.00000061,0.0000242
 8,0.00001644,-0.00004286,-0.00001134,0.00001483,0.00000888,-0.00001014
 ,0.00001361,0.00002327,0.00114494,0.00055638,-0.00066113,-0.00002529,0
 .00015656,-0.00017370,0.00001424,-0.00000952,0.00001355,-0.00001150,0.
 00001073,-0.00001587,0.00002026,0.00002586,-0.00002295,-0.00002586,0.0
 0003295,-0.00002670,0.00057707,-0.00176055,-0.00293189,0.01960581,0.04
 363145,0.33518908,0.00185857,-0.00236996,0.00367078,0.00044417,-0.0002
 6906,-0.00062631,0.00243081,0.00282042,0.00179309,-0.00690725,0.000928
 20,0.00582581,-0.00102246,-0.00176844,-0.00092987,0.00022944,-0.000089
 06,0.00007520,-0.00001263,0.00000770,0.00000931,0.00001234,-0.00000103
 ,-0.00000226,-0.00000711,0.00000997,0.00000066,0.00000203,-0.00000403,
 -0.00000233,-0.00000189,0.00000194,-0.00000245,0.00000474,-0.00000281,
 -0.00000165,-0.00000019,-0.00000184,-0.00000612,-0.00024176,0.00000660
 ,-0.00004643,0.00012984,0.00003397,-0.00003198,-0.00000971,-0.00002668
 ,0.00000477,-0.00000975,-0.00001777,0.00002000,0.00000487,-0.00000156,
 -0.00000316,-0.00000103,0.00000322,-0.00000033,0.00001622,0.00000504,-
 0.00000355,0.00000919,0.00001287,0.00001266,0.00001794,0.00000806,0.00
 001358,-0.00001067,-0.00000437,-0.00000927,0.00007519,-0.00001798,0.00
 001333,-0.00038958,-0.00025589,-0.00012335,-0.00016921,-0.00028469,-0.
 00028708,0.00001321,-0.00002214,0.00004358,-0.00000102,0.00001200,-0.0
 0000617,-0.00000393,0.00000698,-0.00001366,0.00000413,-0.00000112,-0.0
 0000028,-0.00000202,0.00000082,-0.00000110,-0.00000173,-0.00000228,-0.
 00000084,0.00000219,0.00000331,-0.00000186,-0.00003530,0.00018611,-0.0
 0001460,0.00012750,0.00014061,0.00028350,-0.25712206,0.05349579,0.1161
 9477,-0.00968283,0.00575543,0.00581404,-0.00044028,0.00032533,0.000420
 21,-0.00033861,-0.00011066,-0.00040077,-0.00041299,-0.00009264,0.00024
 235,0.00079554,0.00026813,-0.00062832,0.00015294,0.00003386,-0.0002027
 9,-0.00000585,0.00000058,0.00000988,0.00002632,0.00000180,0.00000004,0
 .00000255,-0.00000398,0.00000115,0.00000059,0.00000024,0.00000120,-0.0
 0000031,-0.00000053,0.00000115,-0.00000137,-0.00000156,0.00000184,-0.0
 0000017,-0.00000252,0.00000448,0.00000039,0.00000278,-0.00000273,-0.00
 000236,0.00000460,-0.00000295,-0.00000331,0.00000251,-0.00000054,-0.00
 000211,-0.00000297,-0.00000172,-0.00000098,-0.00000056,-0.00001915,-0.
 00002283,-0.00000691,-0.00001747,0.00000558,0.00000519,0.00000036,-0.0
 0000111,-0.00000491,-0.00000300,0.00003751,0.00000963,-0.00000234,-0.0
 0000606,-0.00000215,0.00000354,-0.00000170,-0.00000100,-0.00000043,-0.
 00000038,-0.00000025,0.00000082,0.00000024,-0.00000066,0.00000089,0.00
 000140,-0.00000090,0.00000091,-0.00007424,-0.00006022,-0.00006819,-0.0
 0001463,-0.00003507,-0.00000327,0.27087065,-0.00126484,-0.00256753,0.0
 0309211,-0.00034330,-0.00100729,0.00027082,0.00175709,-0.00512702,0.00
 165667,0.02540405,-0.00182882,-0.01318846,0.00067796,0.00090665,-0.002
 18365,-0.00010535,-0.00031507,0.00013730,-0.00003739,-0.00004290,-0.00
 004688,-0.00004424,-0.00001384,-0.00000442,0.00002337,0.00000532,0.000
 00908,-0.00000801,0.00000366,-0.00000865,0.00000139,0.00000976,0.00000
 423,0.00000244,0.00000702,0.00000409,0.00002148,0.00000688,0.00001305,
 0.00028127,-0.00006176,0.00000028,-0.00021828,0.00004970,0.00009677,0.
 00002513,0.00000946,-0.00000821,0.00001809,0.00003447,-0.00001781,-0.0
 0001440,-0.00000237,0.00000650,-0.00000167,-0.00000088,-0.00000130,-0.
 00001251,-0.00000372,0.00000670,-0.00001813,-0.00001737,-0.00000052,-0
 .00000634,-0.00001602,-0.00001134,0.00002155,-0.00001963,-0.00000382,-
 0.00011419,0.00009621,-0.00002207,0.00050521,-0.00050747,-0.00064049,-
 0.00006188,0.00039389,0.00035495,-0.00017252,0.00021135,-0.00019513,-0
 .00001424,-0.00007650,0.00002086,0.00001014,0.00001403,0.00000707,-0.0
 0000310,-0.00001601,-0.00000407,0.00001181,-0.00000176,0.00000594,0.00
 000914,0.00000258,0.00000085,-0.00000291,0.00003940,0.00002298,-0.0000
 7512,0.00017980,-0.00008015,-0.00017086,-0.00014310,0.00038103,0.05265
 096,-0.07060381,-0.02247394,-0.02073694,0.00881301,0.01069681,-0.00090
 949,0.00026673,0.00060600,-0.00008382,0.00004469,-0.00020956,0.0013547
 6,-0.00003379,-0.00067526,-0.00032873,-0.00036803,0.00077549,-0.000059
 19,0.00029998,0.00017997,0.00000649,0.00000848,-0.00000422,-0.00003072
 ,-0.00001396,0.00003687,-0.00002611,-0.00001024,-0.00000372,0.00000304
 ,0.,0.00000342,0.00000184,0.00000487,0.00000303,-0.00000007,0.00000778
 ,0.00000156,-0.00000223,-0.00000259,-0.00000313,-0.00000421,0.00000679
 ,0.00000623,0.00000457,-0.00000061,0.00000253,-0.00000106,-0.00000049,
 0.00000126,0.00000126,0.00000006,0.00000151,0.00000151,-0.00000135,0.0
 0000622,0.00003196,0.00000371,0.00001980,-0.00000804,0.00000274,0.0000
 0104,0.00000180,0.00000426,0.00000868,0.00001372,-0.00005782,-0.000014
 78,0.00000406,-0.00001884,-0.00001336,0.00000124,0.00000366,0.00000078
 ,0.00000461,0.00000120,0.00000163,0.00000877,0.00000054,0.00000232,-0.
 00000130,-0.00000553,-0.00000335,0.00001766,-0.00000789,-0.00000914,-0
 .00001289,-0.00001274,0.00002272,-0.05797953,0.07057145,0.00329797,0.0
 0394029,0.00426565,-0.00059175,0.00005618,-0.00035830,0.00197084,0.001
 15604,0.00503407,0.00039041,0.00211687,0.00305699,-0.00283305,-0.00003
 875,-0.00198802,-0.00003301,-0.00059424,0.00037179,-0.00010631,-0.0001
 0230,-0.00014121,-0.00001864,0.00001420,0.00004213,0.00001567,-0.00002
 715,-0.00000541,-0.00000266,0.00000839,-0.00001924,-0.00000672,-0.0000
 0094,-0.00000478,0.00000392,0.00000955,0.00000258,-0.00000514,-0.00001
 118,-0.00000700,0.00010019,-0.00000038,0.00008999,-0.00013382,0.000003
 41,-0.00000756,-0.00000272,-0.00000357,0.00000577,0.00000905,0.0000169
 2,0.00000182,-0.00000383,-0.00000699,0.00000293,-0.00000620,0.00000150
 ,-0.00000236,-0.00000918,-0.00000786,0.00000254,-0.00001007,0.00001277
 ,-0.00000919,0.00000408,-0.00001107,-0.00000468,0.00000988,-0.00002344
 ,-0.00002295,-0.00007592,0.00002052,-0.00011855,0.00066323,-0.00074843
 ,-0.00008563,-0.00016114,0.00074434,0.00024111,-0.00023237,-0.00005515
 ,-0.00023415,-0.00005724,-0.00000565,-0.00003746,0.00005776,0.00002263
 ,0.00002278,-0.00000402,-0.00000640,-0.00000589,0.00002017,0.00000484,
 0.00001107,0.00000003,0.00000780,0.00000337,0.00001043,0.00003373,0.00
 001941,-0.00008510,-0.00021279,0.00000165,-0.00014354,0.00024222,0.000
 14187,0.11550910,-0.02361410,-0.09904567,0.01294835,-0.00471870,-0.003
 07953,0.00068349,-0.00017161,-0.00009459,-0.00040845,-0.00022172,-0.00
 077254,0.00003587,0.00007228,0.00017525,0.00019172,-0.00023500,-0.0001
 1720,0.00015574,0.00027559,0.00000390,0.00000716,0.00004276,-0.0000298
 0,0.00000585,-0.00001456,0.00004192,-0.00002819,-0.00001153,0.00001327
 ,-0.00000794,-0.00000607,0.00000093,-0.00000126,0.00000181,0.00000311,
 -0.00000178,0.00000236,-0.00000027,-0.00000444,0.00000328,-0.00000025,
 -0.00000396,0.00000233,0.00000068,0.00000179,0.00000053,0.00000249,-0.
 00000028,-0.00000011,0.00000205,-0.00000144,0.00000229,0.00000479,0.00
 000486,-0.00000430,0.00001420,0.00003083,0.00000575,0.00000811,-0.0000
 0454,0.00000118,-0.00000042,0.00000559,-0.00000317,-0.00000089,-0.0001
 1992,-0.00000017,-0.00008266,-0.00000092,-0.00003426,-0.00000577,0.000
 00504,0.00001067,0.00001022,0.00000748,0.00000367,0.00000550,0.0000113
 5,-0.00000137,0.00000528,-0.00001482,0.00000155,-0.00000470,0.00017150
 ,0.00013993,-0.00020393,0.00004276,0.00013008,0.00004133,-0.12891155,0
 .02260499,0.09551814,-0.00475440,0.02664916,-0.00157363,-0.00252677,0.
 00058061,0.00550288,-0.00068241,-0.00062137,0.00014060,0.00052649,-0.0
 0149229,0.00419812,0.00038833,-0.00061937,0.00013243,0.00002629,-0.000
 00811,0.00004151,-0.00001511,-0.00001886,-0.00000484,-0.00000683,0.000
 00454,0.00000120,0.00000386,-0.00000644,-0.00000222,-0.00000127,0.0000
 0262,-0.00000304,-0.00000065,-0.00000084,-0.00000164,0.00000059,0.0000
 0009,-0.00000127,0.00000197,0.00000038,-0.00000139,-0.00000395,0.00000
 671,0.00001660,0.00001840,0.00000852,-0.00001956,-0.00001394,-0.000007
 31,0.00001133,-0.00000030,-0.00001594,0.00000830,-0.00001128,0.0000046
 3,0.00000232,0.00000640,0.00000608,-0.00000599,0.00003145,-0.00000316,
 0.00000173,0.00000176,0.00001601,0.00001874,-0.00000400,0.00001625,0.0
 0001441,-0.00000008,-0.00000898,-0.00000953,0.00000305,0.00000506,-0.0
 0000770,-0.00000095,-0.00009894,0.00008051,0.00000741,0.00006257,-0.00
 001891,-0.00000311,-0.00004104,0.00001136,-0.00001347,0.00000980,-0.00
 002081,0.00001491,0.00000424,0.00000704,-0.00000073,0.00000097,-0.0000
 0128,0.00000454,0.00000131,0.00000297,-0.00000291,0.00000292,0.0000016
 3,0.00000567,0.00000285,0.00000417,0.00001010,-0.00013868,0.00003941,-
 0.00002501,0.00010171,-0.00006496,0.00944179,-0.01585610,0.00025856,-0
 .08870062,0.09413161,0.00810598,-0.00002401,-0.00099515,-0.00220837,-0
 .00030722,0.00121727,-0.00002828,-0.00020797,-0.00005645,-0.00050315,0
 .00000363,0.00003069,-0.00001917,-0.00014372,-0.00016511,0.00008429,-0
 .00000026,0.00001236,-0.00001027,0.00000133,-0.00000310,0.00000376,-0.
 00000481,-0.00000219,0.00000223,-0.00000173,-0.00000194,0.00000082,0.0
 0000010,0.00000083,0.00000124,-0.00000116,0.00000068,0.00000058,-0.000
 00143,-0.00000006,0.00000174,-0.00000021,0.00000188,-0.00000195,-0.000
 00084,0.00000309,-0.00000181,-0.00000296,0.00000263,-0.00000114,-0.000
 00189,-0.00000244,-0.00000236,-0.00000363,0.00000447,-0.00002689,-0.00
 000819,-0.00000769,-0.00000057,0.00000238,0.00000250,-0.00000010,-0.00
 000178,-0.00000202,-0.00000163,-0.00002981,0.00001182,-0.00000689,-0.0
 0000198,-0.00000565,-0.00000003,0.00000093,0.00000323,0.00000234,0.000
 00236,0.00000181,0.00000188,0.00000347,-0.00000085,0.00000119,-0.00000
 610,0.00000227,-0.00000195,0.00001023,0.00004272,-0.00004993,0.0000212
 7,0.00004597,0.00001071,-0.00031468,-0.00000477,-0.00234020,0.08729350
 ,-0.00010216,-0.00264500,0.00151188,0.00178171,0.00183749,0.00013916,-
 0.00065829,0.00068804,0.00002793,-0.00275298,-0.00063799,0.00334242,0.
 00079592,-0.00054693,-0.00009548,0.00003656,-0.00005340,0.00012498,-0.
 00003784,-0.00003646,-0.00006519,-0.00000105,0.00002435,0.00003338,-0.
 00000521,-0.00002740,-0.00000912,0.00000338,0.00000543,-0.00000238,-0.
 00000342,-0.00000907,-0.00000415,-0.00000459,0.00000569,-0.00000061,-0
 .00001131,-0.00000848,-0.00000437,0.00007554,0.00007031,0.00014714,-0.
 00004277,-0.00006114,-0.00005232,-0.00001989,0.00002638,0.00001986,-0.
 00000077,-0.00000086,-0.00000880,-0.00000402,0.00000657,-0.00000279,-0
 .00000112,0.00000259,-0.00000203,-0.00001118,-0.00000456,-0.00000169,-
 0.00000745,-0.00001259,-0.00000635,-0.00000425,0.00000129,-0.00001330,
 -0.00000404,0.00001471,-0.00000372,-0.00003980,-0.00004842,-0.00012430
 ,0.00014882,-0.00014668,0.00018710,-0.00007698,0.00012889,-0.00008591,
 0.00000777,-0.00006812,0.00008937,0.00000223,0.00003039,-0.00004227,0.
 00002331,-0.00000361,0.00000595,-0.00000220,0.00000685,-0.00000245,0.0
 0000414,0.00000266,0.00000157,-0.00000625,0.00000382,0.00000151,0.0000
 0842,-0.00000579,-0.00000533,0.00004689,-0.00045327,0.00008813,-0.0001
 8664,0.00026166,-0.00023421,0.01060826,-0.01666815,-0.00152188,0.09440
 333,-0.29758301,0.00727199,-0.00022437,0.00056227,-0.00098865,-0.00001
 687,-0.00022105,0.00013561,-0.00005351,-0.00008684,-0.00018216,-0.0000
 3782,0.00003012,-0.00001464,-0.00021215,-0.00025428,0.00011556,0.00000
 416,0.00002312,-0.00002334,0.00000097,-0.00000880,0.00000635,0.0000010
 7,0.00000034,0.00000579,-0.00000767,-0.00000354,-0.00000284,-0.0000020
 3,-0.00000260,-0.00000154,0.00000068,-0.00000240,-0.00000233,-0.000001
 60,0.00000776,-0.00000238,0.00000189,-0.00000616,-0.00000272,-0.000000
 17,-0.00000157,0.00000324,0.00000423,-0.00000140,0.00000065,0.00000385
 ,0.00000271,0.00000196,0.00000541,0.00000050,0.00001908,0.00001968,0.0
 0000193,0.00001877,-0.00000114,-0.00000679,-0.00000067,0.00000196,-0.0
 0000362,-0.00000657,-0.00004515,0.00002422,-0.00000794,-0.00000067,-0.
 00000492,0.00000692,0.00000236,0.00000381,0.00000589,0.00000025,0.0000
 0095,0.00000174,-0.00000113,-0.00000077,0.00000141,-0.00000776,0.00000
 538,0.00000200,0.00003626,0.00004094,-0.00001845,0.00003111,0.00007310
 ,-0.00000435,-0.00064592,0.00089660,-0.00082032,-0.10281798,0.31483480
 ,0.00461321,-0.01410151,0.00413129,0.00511394,0.00082272,0.00372444,0.
 00025505,0.00003141,-0.00096118,0.00470007,0.00311371,0.00387194,-0.00
 046452,0.00049750,0.00032061,0.00001661,0.00000955,-0.00007461,0.00001
 383,0.00002285,0.00001457,0.00000580,-0.00000852,-0.00001457,0.0000067
 5,0.00000423,0.00000196,-0.00000008,0.00000116,-0.00000146,0.00000161,
 0.00000172,0.00000022,-0.00000045,-0.00000047,0.00000007,0.00000490,0.
 00000324,0.00000287,0.00006448,-0.00005263,-0.00002303,-0.00006176,0.0
 0000811,0.00001831,0.00000945,-0.00000232,-0.00000277,0.00001334,0.000
 00335,-0.00000496,-0.00001197,-0.00000041,0.00000656,0.00000015,0.0000
 0823,-0.00000796,-0.00000319,-0.00000894,-0.00000151,-0.00000720,-0.00
 000543,0.00000518,-0.00000479,0.00000646,-0.00000709,0.00000760,-0.000
 01292,-0.00000108,-0.00002824,0.00002786,-0.00000253,-0.00015680,-0.00
 004956,0.00010865,0.00006089,-0.00002242,-0.00007868,-0.00003344,0.000
 02964,0.00006416,0.00000790,-0.00001342,-0.00003308,0.00001080,0.00000
 252,0.00000248,-0.00000105,-0.00000273,-0.00000441,0.00000527,0.000000
 38,0.00000190,-0.00000013,0.00000165,0.00000049,0.00000487,0.00001585,
 0.00000543,0.00003466,-0.00022666,0.00006539,0.00000514,0.00013858,-0.
 00013511,-0.00623164,0.01438950,0.00350307,0.00835994,0.00681922,-0.04
 362974,-0.00236400,-0.00056909,-0.00254914,0.00034832,-0.00061920,0.00
 021911,-0.00047859,-0.00014383,-0.00073090,0.00002303,-0.00006673,-0.0
 0003536,0.00002059,0.00008765,-0.00008533,-0.00000057,0.00000153,0.000
 00455,0.00000081,-0.00000150,0.00000713,-0.00000553,-0.00000163,0.0000
 0268,-0.00000104,-0.00000098,0.00000202,0.00000044,0.00000094,0.000001
 34,-0.00000058,0.00000234,0.00000082,-0.00000179,-0.00000157,-0.000000
 25,-0.00000237,0.00000324,0.00000228,0.00000147,0.00000016,0.00000063,
 -0.00000084,0.00000116,0.00000142,0.00000058,0.00000053,0.00000473,0.0
 0000741,-0.00000110,0.00001076,0.00001327,0.00000088,0.00000812,-0.000
 00281,0.00000164,-0.00000022,0.00000173,0.00000056,0.00000186,0.000002
 81,-0.00000915,0.00000879,-0.00000108,-0.00000767,0.00000117,0.0000004
 3,0.00000233,0.00000236,0.00000173,0.00000082,0.00000223,0.00000283,-0
 .00000093,0.00000289,-0.00000491,-0.00000098,0.00000182,-0.00003499,0.
 00003158,-0.00000231,0.00001784,0.00003398,0.00000037,-0.00208405,-0.0
 0124671,-0.00267810,-0.01177115,-0.00894980,0.03492868\\-0.00000141,0.
 00000200,0.00000081,0.00000236,-0.00000253,0.00000085,0.00000030,-0.00
 000280,-0.00000417,-0.00000434,0.00000556,0.00000360,0.00000216,0.,0.0
 0000590,-0.00000039,0.00000234,0.00000372,-0.00000237,-0.00000099,0.00
 000430,0.00000361,-0.00000535,0.00000186,-0.00000118,0.00000241,-0.000
 00214,-0.00000301,0.00000082,0.00000066,0.00000092,-0.00000085,0.00000
 030,-0.00000026,0.00000201,-0.00000085,-0.00000213,-0.00000032,0.00000
 019,-0.00000623,-0.00000345,-0.00001882,0.00000407,0.00000322,0.000009
 22,0.00000269,-0.00000020,-0.00000415,0.00000111,-0.00000814,0.0000018
 1,-0.00000514,0.00000052,0.00000331,0.00000298,0.00000522,-0.00000345,
 0.00000412,-0.00000548,-0.00000122,-0.00000645,0.00000028,0.00000280,0
 .00000291,0.00000739,-0.00000178,-0.00000056,-0.00000222,-0.00000274,0
 .00000330,0.00000304,0.00000588,0.00000209,0.00000126,-0.00001890,-0.0
 0000198,-0.00000130,0.00001149,-0.00000358,-0.00000094,-0.00000450,0.0
 0000008,0.00000842,0.00000077,-0.00000335,-0.00000770,-0.00000088,0.00
 000665,-0.00000027,0.00000303,-0.00000382,0.00000536,-0.00000134,-0.00
 000311,-0.00000515,-0.00000321,0.00000462,-0.00000093,0.00000443,0.000
 00132,0.00000240,-0.00000150,0.00000092,-0.00000184,0.00000693,-0.0000
 0061,-0.00000176,-0.00000045,0.00000135,-0.00000108,-0.00000217,-0.000
 00051,0.00000023,-0.00000034,-0.00000038,-0.00000008,0.00000010,0.0000
 0080,-0.00000085,0.00000084,-0.00000031,0.00000077,0.00000002,-0.00000
 007,0.00000082,-0.00000306,0.00000085,0.00000055,0.00000138,-0.0000001
 7,-0.00000036,-0.00000426,0.00000044,0.00000096,-0.00000097,0.00000094
 ,-0.00000024,-0.00000020,0.00000054,-0.00000024,-0.00000033,-0.0000005
 1,-0.00000071,0.00000078,-0.00000083,0.00000015,0.00000083,-0.00000012
 ,0.00000101,0.00000153,0.00000033,0.,-0.00000026,-0.00000025,-0.000000
 56,-0.00000031,0.00000009,0.00000050,0.00000038,0.00000031,-0.00000013
 ,-0.00000041,-0.00000077,-0.00000113,-0.00000046,-0.00000097,0.0000014
 5,-0.00000059,0.00000045,0.00000069,0.00000095,0.00000053,-0.00000098,
 0.00000175,0.00000088,0.00000071,0.00000140,-0.00000055,0.00000013,-0.
 00000012,-0.00000013,-0.00000052,0.00000035,0.00000022,0.00000065,-0.0
 0000039,-0.00000033,0.00000002,-0.00000025,0.00000093,-0.00000126,-0.0
 0000014,-0.00000028,-0.00000083,0.00000112,0.00000070,-0.00000023,0.00
 000032,0.00000056,0.00000051,0.00000074\\\@
 The archive entry for this job was punched.


 MANHOOD BEGINS BY TRYING TO SHAVE FACE,
 AND ENDS BY TRYING TO SAVE FACE.
 Job cpu time:       0 days 15 hours 46 minutes  2.3 seconds.
 Elapsed time:       0 days  0 hours 54 minutes  8.9 seconds.
 File lengths (MBytes):  RWF=   2450 Int=      0 D2E=      0 Chk=     31 Scr=      1
 Normal termination of Gaussian 16 at Sun Aug 14 20:29:09 2022.
