 Entering Gaussian System, Link 0=g16
 Initial command:
 /public/apps/g16-C01//g16/l1.exe "/public/home/ljq/tmp/Gau-127559.inp" -scrdir="/public/home/ljq/tmp/"
 Entering Link 1 = /public/apps/g16-C01//g16/l1.exe PID=    127560.
  
 Copyright (c) 1988-2019, Gaussian, Inc.  All Rights Reserved.
  
 This is part of the Gaussian(R) 16 program.  It is based on
 the Gaussian(R) 09 system (copyright 2009, Gaussian, Inc.),
 the Gaussian(R) 03 system (copyright 2003, Gaussian, Inc.),
 the Gaussian(R) 98 system (copyright 1998, Gaussian, Inc.),
 the Gaussian(R) 94 system (copyright 1995, Gaussian, Inc.),
 the Gaussian 92(TM) system (copyright 1992, Gaussian, Inc.),
 the Gaussian 90(TM) system (copyright 1990, Gaussian, Inc.),
 the Gaussian 88(TM) system (copyright 1988, Gaussian, Inc.),
 the Gaussian 86(TM) system (copyright 1986, Carnegie Mellon
 University), and the Gaussian 82(TM) system (copyright 1983,
 Carnegie Mellon University). Gaussian is a federally registered
 trademark of Gaussian, Inc.
  
 This software contains proprietary and confidential information,
 including trade secrets, belonging to Gaussian, Inc.
  
 This software is provided under written license and may be
 used, copied, transmitted, or stored only in accord with that
 written license.
  
 The following legend is applicable only to US Government
 contracts under FAR:
  
                    RESTRICTED RIGHTS LEGEND
  
 Use, reproduction and disclosure by the US Government is
 subject to restrictions as set forth in subparagraphs (a)
 and (c) of the Commercial Computer Software - Restricted
 Rights clause in FAR 52.227-19.
  
 Gaussian, Inc.
 340 Quinnipiac St., Bldg. 40, Wallingford CT 06492
  
  
 ---------------------------------------------------------------
 Warning -- This program may not be used in any manner that
 competes with the business of Gaussian, Inc. or will provide
 assistance to any competitor of Gaussian, Inc.  The licensee
 of this program is prohibited from giving any competitor of
 Gaussian, Inc. access to this program.  By using this program,
 the user acknowledges that Gaussian, Inc. is engaged in the
 business of creating and licensing software in the field of
 computational chemistry and represents and warrants to the
 licensee that it is not a competitor of Gaussian, Inc. and that
 it will not use this program in any manner prohibited above.
 ---------------------------------------------------------------
  

 Cite this work as:
 Gaussian 16, Revision C.01,
 M. J. Frisch, G. W. Trucks, H. B. Schlegel, G. E. Scuseria, 
 M. A. Robb, J. R. Cheeseman, G. Scalmani, V. Barone, 
 G. A. Petersson, H. Nakatsuji, X. Li, M. Caricato, A. V. Marenich, 
 J. Bloino, B. G. Janesko, R. Gomperts, B. Mennucci, H. P. Hratchian, 
 J. V. Ortiz, A. F. Izmaylov, J. L. Sonnenberg, D. Williams-Young, 
 F. Ding, F. Lipparini, F. Egidi, J. Goings, B. Peng, A. Petrone, 
 T. Henderson, D. Ranasinghe, V. G. Zakrzewski, J. Gao, N. Rega, 
 G. Zheng, W. Liang, M. Hada, M. Ehara, K. Toyota, R. Fukuda, 
 J. Hasegawa, M. Ishida, T. Nakajima, Y. Honda, O. Kitao, H. Nakai, 
 T. Vreven, K. Throssell, J. A. Montgomery, Jr., J. E. Peralta, 
 F. Ogliaro, M. J. Bearpark, J. J. Heyd, E. N. Brothers, K. N. Kudin, 
 V. N. Staroverov, T. A. Keith, R. Kobayashi, J. Normand, 
 K. Raghavachari, A. P. Rendell, J. C. Burant, S. S. Iyengar, 
 J. Tomasi, M. Cossi, J. M. Millam, M. Klene, C. Adamo, R. Cammi, 
 J. W. Ochterski, R. L. Martin, K. Morokuma, O. Farkas, 
 J. B. Foresman, and D. J. Fox, Gaussian, Inc., Wallingford CT, 2019.
 
 ******************************************
 Gaussian 16:  ES64L-G16RevC.01  3-Jul-2019
                25-Feb-2024 
 ******************************************
 %nproc=40
 Will use up to   40 processors via shared memory.
 %mem=56GB
 ------------------------------------------
 #p opt freq b3lyp/def2svpp em=gd3bj nosymm
 ------------------------------------------
 1/18=20,19=15,26=3,38=1/1,3;
 2/9=110,12=2,15=1,17=6,18=5,40=1/2;
 3/5=43,7=202,11=2,25=1,30=1,71=1,74=-5,124=41/1,2,3;
 4//1;
 5/5=2,38=5/2;
 6/7=2,8=2,9=2,10=2,28=1/1;
 7/30=1/1,2,3,16;
 1/18=20,19=15,26=3/3(2);
 2/9=110,15=1/2;
 99//99;
 2/9=110,15=1/2;
 3/5=43,7=202,11=2,25=1,30=1,71=1,74=-5,124=41/1,2,3;
 4/5=5,16=3,69=1/1;
 5/5=2,38=5/2;
 7/30=1/1,2,3,16;
 1/18=20,19=15,26=3/3(-5);
 2/9=110,15=1/2;
 6/7=2,8=2,9=2,10=2,19=2,28=1/1;
 99/9=1/99;
 Leave Link    1 at Sun Feb 25 12:26:01 2024, MaxMem=  7516192768 cpu:               1.7 elap:               0.1
 (Enter /public/apps/g16-C01//g16/l101.exe)
 ----------------------
 $$$$Singlemol####0????
 ----------------------
 Symbolic Z-matrix:
 Charge =  0 Multiplicity = 1
 C                    -0.65044   3.55918  -0.6512 
 C                    -0.66935   2.03015  -0.65532 
 C                    -0.44813   1.45053  -2.07701 
 C                     1.00853   1.41091  -2.43885 
 C                     1.64      2.50202  -3.02106 
 C                     2.99958   2.47478  -3.2794 
 C                     3.74705   1.3553   -2.95756 
 C                     3.1236    0.25413  -2.39468 
 C                     1.76369   0.2811   -2.14531 
 C                     0.41125   1.49969   0.24207 
 N                     0.32659   0.42967   0.90651 
 C                     1.59554   0.20146   1.56425 
 C                     2.20052  -1.12556   1.17238 
 C                     1.44514  -2.08658   0.51521 
 C                     2.01416  -3.29566   0.15429 
 C                     3.34077  -3.55685   0.44917 
 C                     4.09548  -2.60567   1.11524 
 C                     3.52861  -1.39685   1.47727 
 C                     2.44925   1.42604   1.12069 
 O                     1.5661    2.19379   0.31532 
 C                    -1.95965   1.51453  -0.08985 
 N                    -2.67795   0.61091  -0.59701 
 C                    -3.74883   0.30923   0.33145 
 C                    -3.61218  -1.10511   0.83926 
 C                    -2.38688  -1.53941   1.33152 
 C                    -2.24886  -2.82955   1.81127 
 C                    -3.3323   -3.69233   1.81098 
 C                    -4.55455  -3.26195   1.32413 
 C                    -4.69375  -1.97363   0.83697 
 C                    -3.54484   1.36136   1.46261 
 O                    -2.35469   2.04553   1.09185 
 H                     0.32298   3.91385  -0.97845 
 H                    -1.42034   3.94151  -1.31816 
 H                    -0.84091   3.93091   0.35288 
 H                    -0.86672   0.44391  -2.08521 
 H                    -1.00853   2.06242  -2.78499 
 H                     1.06422   3.37968  -3.27867 
 H                     3.47828   3.33272  -3.72929 
 H                     4.81014   1.33886  -3.14917 
 H                     3.69585  -0.62834  -2.14464 
 H                     1.28236  -0.5808   -1.70702 
 H                     1.429     0.20225   2.65008 
 H                     0.41044  -1.8786    0.29037 
 H                     1.41715  -4.03449  -0.36012 
 H                     3.78593  -4.49906   0.16512 
 H                     5.12966  -2.80594   1.35505 
 H                     4.12023  -0.66053   2.00296 
 H                     3.30554   1.13073   0.50672 
 H                     2.78725   2.04261   1.9568 
 H                    -4.71085   0.43186  -0.17586 
 H                    -1.54101  -0.86596   1.32406 
 H                    -1.29104  -3.16123   2.18576 
 H                    -3.22435  -4.69923   2.18735 
 H                    -5.40218  -3.93188   1.32075 
 H                    -5.6482   -1.64209   0.45292 
 H                    -4.36326   2.08433   1.52262 
 H                    -3.39553   0.89308   2.43876 
 
 ITRead=  0  0  0  0  0  0  0  0  0  0  0  0  0  0  0  0  0  0  0  0
 ITRead=  0  0  0  0  0  0  0  0  0  0  0  0  0  0  0  0  0  0  0  0
 ITRead=  0  0  0  0  0  0  0  0  0  0  0  0  0  0  0  0  0
 MicOpt= -1 -1 -1 -1 -1 -1 -1 -1 -1 -1 -1 -1 -1 -1 -1 -1 -1 -1 -1 -1
 MicOpt= -1 -1 -1 -1 -1 -1 -1 -1 -1 -1 -1 -1 -1 -1 -1 -1 -1 -1 -1 -1
 MicOpt= -1 -1 -1 -1 -1 -1 -1 -1 -1 -1 -1 -1 -1 -1 -1 -1 -1
 NAtoms=     57 NQM=       57 NQMF=       0 NMMI=      0 NMMIF=      0
                NMic=       0 NMicF=      0.
                    Isotopes and Nuclear Properties:
 (Nuclear quadrupole moments (NQMom) in fm**2, nuclear magnetic moments (NMagM)
  in nuclear magnetons)

  Atom         1           2           3           4           5           6           7           8           9          10
 IAtWgt=          12          12          12          12          12          12          12          12          12          12
 AtmWgt=  12.0000000  12.0000000  12.0000000  12.0000000  12.0000000  12.0000000  12.0000000  12.0000000  12.0000000  12.0000000
 NucSpn=           0           0           0           0           0           0           0           0           0           0
 AtZEff=  -0.0000000  -0.0000000  -0.0000000  -0.0000000  -0.0000000  -0.0000000  -0.0000000  -0.0000000  -0.0000000  -0.0000000
 NQMom=    0.0000000   0.0000000   0.0000000   0.0000000   0.0000000   0.0000000   0.0000000   0.0000000   0.0000000   0.0000000
 NMagM=    0.0000000   0.0000000   0.0000000   0.0000000   0.0000000   0.0000000   0.0000000   0.0000000   0.0000000   0.0000000
 AtZNuc=   6.0000000   6.0000000   6.0000000   6.0000000   6.0000000   6.0000000   6.0000000   6.0000000   6.0000000   6.0000000

  Atom        11          12          13          14          15          16          17          18          19          20
 IAtWgt=          14          12          12          12          12          12          12          12          12          16
 AtmWgt=  14.0030740  12.0000000  12.0000000  12.0000000  12.0000000  12.0000000  12.0000000  12.0000000  12.0000000  15.9949146
 NucSpn=           2           0           0           0           0           0           0           0           0           0
 AtZEff=  -0.0000000  -0.0000000  -0.0000000  -0.0000000  -0.0000000  -0.0000000  -0.0000000  -0.0000000  -0.0000000  -0.0000000
 NQMom=    2.0440000   0.0000000   0.0000000   0.0000000   0.0000000   0.0000000   0.0000000   0.0000000   0.0000000   0.0000000
 NMagM=    0.4037610   0.0000000   0.0000000   0.0000000   0.0000000   0.0000000   0.0000000   0.0000000   0.0000000   0.0000000
 AtZNuc=   7.0000000   6.0000000   6.0000000   6.0000000   6.0000000   6.0000000   6.0000000   6.0000000   6.0000000   8.0000000

  Atom        21          22          23          24          25          26          27          28          29          30
 IAtWgt=          12          14          12          12          12          12          12          12          12          12
 AtmWgt=  12.0000000  14.0030740  12.0000000  12.0000000  12.0000000  12.0000000  12.0000000  12.0000000  12.0000000  12.0000000
 NucSpn=           0           2           0           0           0           0           0           0           0           0
 AtZEff=  -0.0000000  -0.0000000  -0.0000000  -0.0000000  -0.0000000  -0.0000000  -0.0000000  -0.0000000  -0.0000000  -0.0000000
 NQMom=    0.0000000   2.0440000   0.0000000   0.0000000   0.0000000   0.0000000   0.0000000   0.0000000   0.0000000   0.0000000
 NMagM=    0.0000000   0.4037610   0.0000000   0.0000000   0.0000000   0.0000000   0.0000000   0.0000000   0.0000000   0.0000000
 AtZNuc=   6.0000000   7.0000000   6.0000000   6.0000000   6.0000000   6.0000000   6.0000000   6.0000000   6.0000000   6.0000000

  Atom        31          32          33          34          35          36          37          38          39          40
 IAtWgt=          16           1           1           1           1           1           1           1           1           1
 AtmWgt=  15.9949146   1.0078250   1.0078250   1.0078250   1.0078250   1.0078250   1.0078250   1.0078250   1.0078250   1.0078250
 NucSpn=           0           1           1           1           1           1           1           1           1           1
 AtZEff=  -0.0000000  -0.0000000  -0.0000000  -0.0000000  -0.0000000  -0.0000000  -0.0000000  -0.0000000  -0.0000000  -0.0000000
 NQMom=    0.0000000   0.0000000   0.0000000   0.0000000   0.0000000   0.0000000   0.0000000   0.0000000   0.0000000   0.0000000
 NMagM=    0.0000000   2.7928460   2.7928460   2.7928460   2.7928460   2.7928460   2.7928460   2.7928460   2.7928460   2.7928460
 AtZNuc=   8.0000000   1.0000000   1.0000000   1.0000000   1.0000000   1.0000000   1.0000000   1.0000000   1.0000000   1.0000000

  Atom        41          42          43          44          45          46          47          48          49          50
 IAtWgt=           1           1           1           1           1           1           1           1           1           1
 AtmWgt=   1.0078250   1.0078250   1.0078250   1.0078250   1.0078250   1.0078250   1.0078250   1.0078250   1.0078250   1.0078250
 NucSpn=           1           1           1           1           1           1           1           1           1           1
 AtZEff=  -0.0000000  -0.0000000  -0.0000000  -0.0000000  -0.0000000  -0.0000000  -0.0000000  -0.0000000  -0.0000000  -0.0000000
 NQMom=    0.0000000   0.0000000   0.0000000   0.0000000   0.0000000   0.0000000   0.0000000   0.0000000   0.0000000   0.0000000
 NMagM=    2.7928460   2.7928460   2.7928460   2.7928460   2.7928460   2.7928460   2.7928460   2.7928460   2.7928460   2.7928460
 AtZNuc=   1.0000000   1.0000000   1.0000000   1.0000000   1.0000000   1.0000000   1.0000000   1.0000000   1.0000000   1.0000000

  Atom        51          52          53          54          55          56          57
 IAtWgt=           1           1           1           1           1           1           1
 AtmWgt=   1.0078250   1.0078250   1.0078250   1.0078250   1.0078250   1.0078250   1.0078250
 NucSpn=           1           1           1           1           1           1           1
 AtZEff=  -0.0000000  -0.0000000  -0.0000000  -0.0000000  -0.0000000  -0.0000000  -0.0000000
 NQMom=    0.0000000   0.0000000   0.0000000   0.0000000   0.0000000   0.0000000   0.0000000
 NMagM=    2.7928460   2.7928460   2.7928460   2.7928460   2.7928460   2.7928460   2.7928460
 AtZNuc=   1.0000000   1.0000000   1.0000000   1.0000000   1.0000000   1.0000000   1.0000000
 Leave Link  101 at Sun Feb 25 12:26:02 2024, MaxMem=  7516192768 cpu:               6.6 elap:               0.2
 (Enter /public/apps/g16-C01//g16/l103.exe)

 GradGradGradGradGradGradGradGradGradGradGradGradGradGradGradGradGradGrad
 Berny optimization.
 Initialization pass.
                           ----------------------------
                           !    Initial Parameters    !
                           ! (Angstroms and Degrees)  !
 --------------------------                            --------------------------
 ! Name  Definition              Value          Derivative Info.                !
 --------------------------------------------------------------------------------
 ! R1    R(1,2)                  1.5291         estimate D2E/DX2                !
 ! R2    R(1,32)                 1.0865         estimate D2E/DX2                !
 ! R3    R(1,33)                 1.088          estimate D2E/DX2                !
 ! R4    R(1,34)                 1.0875         estimate D2E/DX2                !
 ! R5    R(2,3)                  1.5512         estimate D2E/DX2                !
 ! R6    R(2,10)                 1.5015         estimate D2E/DX2                !
 ! R7    R(2,21)                 1.5002         estimate D2E/DX2                !
 ! R8    R(3,4)                  1.5014         estimate D2E/DX2                !
 ! R9    R(3,35)                 1.0902         estimate D2E/DX2                !
 ! R10   R(3,36)                 1.0907         estimate D2E/DX2                !
 ! R11   R(4,5)                  1.3886         estimate D2E/DX2                !
 ! R12   R(4,9)                  1.3903         estimate D2E/DX2                !
 ! R13   R(5,6)                  1.3842         estimate D2E/DX2                !
 ! R14   R(5,37)                 1.0808         estimate D2E/DX2                !
 ! R15   R(6,7)                  1.384          estimate D2E/DX2                !
 ! R16   R(6,38)                 1.0806         estimate D2E/DX2                !
 ! R17   R(7,8)                  1.385          estimate D2E/DX2                !
 ! R18   R(7,39)                 1.0803         estimate D2E/DX2                !
 ! R19   R(8,9)                  1.3828         estimate D2E/DX2                !
 ! R20   R(8,40)                 1.0811         estimate D2E/DX2                !
 ! R21   R(9,41)                 1.0801         estimate D2E/DX2                !
 ! R22   R(10,11)                1.2624         estimate D2E/DX2                !
 ! R23   R(10,20)                1.3494         estimate D2E/DX2                !
 ! R24   R(11,12)                1.4474         estimate D2E/DX2                !
 ! R25   R(12,13)                1.5101         estimate D2E/DX2                !
 ! R26   R(12,19)                1.5573         estimate D2E/DX2                !
 ! R27   R(12,42)                1.0985         estimate D2E/DX2                !
 ! R28   R(13,14)                1.3878         estimate D2E/DX2                !
 ! R29   R(13,18)                1.3894         estimate D2E/DX2                !
 ! R30   R(14,15)                1.3842         estimate D2E/DX2                !
 ! R31   R(14,43)                1.0791         estimate D2E/DX2                !
 ! R32   R(15,16)                1.3839         estimate D2E/DX2                !
 ! R33   R(15,44)                1.0802         estimate D2E/DX2                !
 ! R34   R(16,17)                1.3849         estimate D2E/DX2                !
 ! R35   R(16,45)                1.0801         estimate D2E/DX2                !
 ! R36   R(17,18)                1.3833         estimate D2E/DX2                !
 ! R37   R(17,46)                1.0803         estimate D2E/DX2                !
 ! R38   R(18,47)                1.081          estimate D2E/DX2                !
 ! R39   R(19,20)                1.4206         estimate D2E/DX2                !
 ! R40   R(19,48)                1.0943         estimate D2E/DX2                !
 ! R41   R(19,49)                1.0925         estimate D2E/DX2                !
 ! R42   R(21,22)                1.2608         estimate D2E/DX2                !
 ! R43   R(21,31)                1.3544         estimate D2E/DX2                !
 ! R44   R(22,23)                1.4491         estimate D2E/DX2                !
 ! R45   R(23,24)                1.5089         estimate D2E/DX2                !
 ! R46   R(23,30)                1.5582         estimate D2E/DX2                !
 ! R47   R(23,50)                1.0945         estimate D2E/DX2                !
 ! R48   R(24,25)                1.3901         estimate D2E/DX2                !
 ! R49   R(24,29)                1.3871         estimate D2E/DX2                !
 ! R50   R(25,26)                1.3834         estimate D2E/DX2                !
 ! R51   R(25,51)                1.0812         estimate D2E/DX2                !
 ! R52   R(26,27)                1.385          estimate D2E/DX2                !
 ! R53   R(26,52)                1.0806         estimate D2E/DX2                !
 ! R54   R(27,28)                1.3842         estimate D2E/DX2                !
 ! R55   R(27,53)                1.0804         estimate D2E/DX2                !
 ! R56   R(28,29)                1.3844         estimate D2E/DX2                !
 ! R57   R(28,54)                1.0804         estimate D2E/DX2                !
 ! R58   R(29,55)                1.0809         estimate D2E/DX2                !
 ! R59   R(30,31)                1.422          estimate D2E/DX2                !
 ! R60   R(30,56)                1.0937         estimate D2E/DX2                !
 ! R61   R(30,57)                1.0929         estimate D2E/DX2                !
 ! A1    A(2,1,32)             109.6751         estimate D2E/DX2                !
 ! A2    A(2,1,33)             109.9359         estimate D2E/DX2                !
 ! A3    A(2,1,34)             110.0059         estimate D2E/DX2                !
 ! A4    A(32,1,33)            109.5509         estimate D2E/DX2                !
 ! A5    A(32,1,34)            108.8709         estimate D2E/DX2                !
 ! A6    A(33,1,34)            108.7797         estimate D2E/DX2                !
 ! A7    A(1,2,3)              111.9839         estimate D2E/DX2                !
 ! A8    A(1,2,10)             110.0449         estimate D2E/DX2                !
 ! A9    A(1,2,21)             110.6894         estimate D2E/DX2                !
 ! A10   A(3,2,10)             108.248          estimate D2E/DX2                !
 ! A11   A(3,2,21)             109.8595         estimate D2E/DX2                !
 ! A12   A(10,2,21)            105.8007         estimate D2E/DX2                !
 ! A13   A(2,3,4)              111.6601         estimate D2E/DX2                !
 ! A14   A(2,3,35)             107.2865         estimate D2E/DX2                !
 ! A15   A(2,3,36)             108.1802         estimate D2E/DX2                !
 ! A16   A(4,3,35)             110.2625         estimate D2E/DX2                !
 ! A17   A(4,3,36)             110.9064         estimate D2E/DX2                !
 ! A18   A(35,3,36)            108.4104         estimate D2E/DX2                !
 ! A19   A(3,4,5)              121.4323         estimate D2E/DX2                !
 ! A20   A(3,4,9)              119.8367         estimate D2E/DX2                !
 ! A21   A(5,4,9)              118.689          estimate D2E/DX2                !
 ! A22   A(4,5,6)              120.6279         estimate D2E/DX2                !
 ! A23   A(4,5,37)             119.718          estimate D2E/DX2                !
 ! A24   A(6,5,37)             119.6536         estimate D2E/DX2                !
 ! A25   A(5,6,7)              120.1981         estimate D2E/DX2                !
 ! A26   A(5,6,38)             119.8162         estimate D2E/DX2                !
 ! A27   A(7,6,38)             119.985          estimate D2E/DX2                !
 ! A28   A(6,7,8)              119.6375         estimate D2E/DX2                !
 ! A29   A(6,7,39)             120.1662         estimate D2E/DX2                !
 ! A30   A(8,7,39)             120.1955         estimate D2E/DX2                !
 ! A31   A(7,8,9)              120.0317         estimate D2E/DX2                !
 ! A32   A(7,8,40)             120.3142         estimate D2E/DX2                !
 ! A33   A(9,8,40)             119.6537         estimate D2E/DX2                !
 ! A34   A(4,9,8)              120.7925         estimate D2E/DX2                !
 ! A35   A(4,9,41)             119.4778         estimate D2E/DX2                !
 ! A36   A(8,9,41)             119.7262         estimate D2E/DX2                !
 ! A37   A(2,10,11)            124.4565         estimate D2E/DX2                !
 ! A38   A(2,10,20)            117.8175         estimate D2E/DX2                !
 ! A39   A(11,10,20)           117.6992         estimate D2E/DX2                !
 ! A40   A(10,11,12)           108.3024         estimate D2E/DX2                !
 ! A41   A(11,12,13)           111.83           estimate D2E/DX2                !
 ! A42   A(11,12,19)           103.1326         estimate D2E/DX2                !
 ! A43   A(11,12,42)           108.4301         estimate D2E/DX2                !
 ! A44   A(13,12,19)           113.4199         estimate D2E/DX2                !
 ! A45   A(13,12,42)           108.5331         estimate D2E/DX2                !
 ! A46   A(19,12,42)           111.3512         estimate D2E/DX2                !
 ! A47   A(12,13,14)           120.8851         estimate D2E/DX2                !
 ! A48   A(12,13,18)           119.8403         estimate D2E/DX2                !
 ! A49   A(14,13,18)           119.2737         estimate D2E/DX2                !
 ! A50   A(13,14,15)           120.304          estimate D2E/DX2                !
 ! A51   A(13,14,43)           119.1511         estimate D2E/DX2                !
 ! A52   A(15,14,43)           120.5448         estimate D2E/DX2                !
 ! A53   A(14,15,16)           120.2246         estimate D2E/DX2                !
 ! A54   A(14,15,44)           119.6304         estimate D2E/DX2                !
 ! A55   A(16,15,44)           120.145          estimate D2E/DX2                !
 ! A56   A(15,16,17)           119.6869         estimate D2E/DX2                !
 ! A57   A(15,16,45)           120.2454         estimate D2E/DX2                !
 ! A58   A(17,16,45)           120.0673         estimate D2E/DX2                !
 ! A59   A(16,17,18)           120.1803         estimate D2E/DX2                !
 ! A60   A(16,17,46)           120.073          estimate D2E/DX2                !
 ! A61   A(18,17,46)           119.7467         estimate D2E/DX2                !
 ! A62   A(13,18,17)           120.325          estimate D2E/DX2                !
 ! A63   A(13,18,47)           119.7923         estimate D2E/DX2                !
 ! A64   A(17,18,47)           119.8824         estimate D2E/DX2                !
 ! A65   A(12,19,20)           104.2202         estimate D2E/DX2                !
 ! A66   A(12,19,48)           112.1224         estimate D2E/DX2                !
 ! A67   A(12,19,49)           113.2921         estimate D2E/DX2                !
 ! A68   A(20,19,48)           108.3153         estimate D2E/DX2                !
 ! A69   A(20,19,49)           108.7366         estimate D2E/DX2                !
 ! A70   A(48,19,49)           109.8543         estimate D2E/DX2                !
 ! A71   A(10,20,19)           106.5494         estimate D2E/DX2                !
 ! A72   A(2,21,22)            125.7824         estimate D2E/DX2                !
 ! A73   A(2,21,31)            116.4227         estimate D2E/DX2                !
 ! A74   A(22,21,31)           117.7599         estimate D2E/DX2                !
 ! A75   A(21,22,23)           108.2091         estimate D2E/DX2                !
 ! A76   A(22,23,24)           110.1108         estimate D2E/DX2                !
 ! A77   A(22,23,30)           103.1678         estimate D2E/DX2                !
 ! A78   A(22,23,50)           109.2233         estimate D2E/DX2                !
 ! A79   A(24,23,30)           112.1309         estimate D2E/DX2                !
 ! A80   A(24,23,50)           109.914          estimate D2E/DX2                !
 ! A81   A(30,23,50)           112.0795         estimate D2E/DX2                !
 ! A82   A(23,24,25)           119.4619         estimate D2E/DX2                !
 ! A83   A(23,24,29)           121.0446         estimate D2E/DX2                !
 ! A84   A(25,24,29)           119.4892         estimate D2E/DX2                !
 ! A85   A(24,25,26)           120.1417         estimate D2E/DX2                !
 ! A86   A(24,25,51)           119.5077         estimate D2E/DX2                !
 ! A87   A(26,25,51)           120.3456         estimate D2E/DX2                !
 ! A88   A(25,26,27)           120.188          estimate D2E/DX2                !
 ! A89   A(25,26,52)           119.6627         estimate D2E/DX2                !
 ! A90   A(27,26,52)           120.1493         estimate D2E/DX2                !
 ! A91   A(26,27,28)           119.8096         estimate D2E/DX2                !
 ! A92   A(26,27,53)           120.1556         estimate D2E/DX2                !
 ! A93   A(28,27,53)           120.0347         estimate D2E/DX2                !
 ! A94   A(27,28,29)           120.1248         estimate D2E/DX2                !
 ! A95   A(27,28,54)           120.0692         estimate D2E/DX2                !
 ! A96   A(29,28,54)           119.8057         estimate D2E/DX2                !
 ! A97   A(24,29,28)           120.2453         estimate D2E/DX2                !
 ! A98   A(24,29,55)           119.8044         estimate D2E/DX2                !
 ! A99   A(28,29,55)           119.9503         estimate D2E/DX2                !
 ! A100  A(23,30,31)           104.1917         estimate D2E/DX2                !
 ! A101  A(23,30,56)           112.8437         estimate D2E/DX2                !
 ! A102  A(23,30,57)           112.1449         estimate D2E/DX2                !
 ! A103  A(31,30,56)           108.8184         estimate D2E/DX2                !
 ! A104  A(31,30,57)           108.9465         estimate D2E/DX2                !
 ! A105  A(56,30,57)           109.6619         estimate D2E/DX2                !
 ! A106  A(21,31,30)           106.4375         estimate D2E/DX2                !
 ! D1    D(32,1,2,3)           -62.1505         estimate D2E/DX2                !
 ! D2    D(32,1,2,10)           58.2972         estimate D2E/DX2                !
 ! D3    D(32,1,2,21)          174.8885         estimate D2E/DX2                !
 ! D4    D(33,1,2,3)            58.3628         estimate D2E/DX2                !
 ! D5    D(33,1,2,10)          178.8105         estimate D2E/DX2                !
 ! D6    D(33,1,2,21)          -64.5982         estimate D2E/DX2                !
 ! D7    D(34,1,2,3)           178.1315         estimate D2E/DX2                !
 ! D8    D(34,1,2,10)          -61.4208         estimate D2E/DX2                !
 ! D9    D(34,1,2,21)           55.1705         estimate D2E/DX2                !
 ! D10   D(1,2,3,4)             81.7856         estimate D2E/DX2                !
 ! D11   D(1,2,3,35)          -157.2934         estimate D2E/DX2                !
 ! D12   D(1,2,3,36)           -40.5277         estimate D2E/DX2                !
 ! D13   D(10,2,3,4)           -39.7017         estimate D2E/DX2                !
 ! D14   D(10,2,3,35)           81.2192         estimate D2E/DX2                !
 ! D15   D(10,2,3,36)         -162.0151         estimate D2E/DX2                !
 ! D16   D(21,2,3,4)          -154.7848         estimate D2E/DX2                !
 ! D17   D(21,2,3,35)          -33.8638         estimate D2E/DX2                !
 ! D18   D(21,2,3,36)           82.9018         estimate D2E/DX2                !
 ! D19   D(1,2,10,11)          147.4647         estimate D2E/DX2                !
 ! D20   D(1,2,10,20)          -34.4646         estimate D2E/DX2                !
 ! D21   D(3,2,10,11)          -89.8597         estimate D2E/DX2                !
 ! D22   D(3,2,10,20)           88.211          estimate D2E/DX2                !
 ! D23   D(21,2,10,11)          27.8541         estimate D2E/DX2                !
 ! D24   D(21,2,10,20)        -154.0752         estimate D2E/DX2                !
 ! D25   D(1,2,21,22)          133.0616         estimate D2E/DX2                !
 ! D26   D(1,2,21,31)          -49.1496         estimate D2E/DX2                !
 ! D27   D(3,2,21,22)            8.8769         estimate D2E/DX2                !
 ! D28   D(3,2,21,31)         -173.3343         estimate D2E/DX2                !
 ! D29   D(10,2,21,22)        -107.7525         estimate D2E/DX2                !
 ! D30   D(10,2,21,31)          70.0363         estimate D2E/DX2                !
 ! D31   D(2,3,4,5)            -87.3287         estimate D2E/DX2                !
 ! D32   D(2,3,4,9)             90.2826         estimate D2E/DX2                !
 ! D33   D(35,3,4,5)           153.4996         estimate D2E/DX2                !
 ! D34   D(35,3,4,9)           -28.8891         estimate D2E/DX2                !
 ! D35   D(36,3,4,5)            33.4069         estimate D2E/DX2                !
 ! D36   D(36,3,4,9)          -148.9819         estimate D2E/DX2                !
 ! D37   D(3,4,5,6)            176.3694         estimate D2E/DX2                !
 ! D38   D(3,4,5,37)            -3.8702         estimate D2E/DX2                !
 ! D39   D(9,4,5,6)             -1.2686         estimate D2E/DX2                !
 ! D40   D(9,4,5,37)           178.4919         estimate D2E/DX2                !
 ! D41   D(3,4,9,8)           -176.0035         estimate D2E/DX2                !
 ! D42   D(3,4,9,41)             3.3065         estimate D2E/DX2                !
 ! D43   D(5,4,9,8)              1.6731         estimate D2E/DX2                !
 ! D44   D(5,4,9,41)          -179.0169         estimate D2E/DX2                !
 ! D45   D(4,5,6,7)             -0.0583         estimate D2E/DX2                !
 ! D46   D(4,5,6,38)          -179.7578         estimate D2E/DX2                !
 ! D47   D(37,5,6,7)          -179.8189         estimate D2E/DX2                !
 ! D48   D(37,5,6,38)            0.4816         estimate D2E/DX2                !
 ! D49   D(5,6,7,8)              1.0058         estimate D2E/DX2                !
 ! D50   D(5,6,7,39)          -179.308          estimate D2E/DX2                !
 ! D51   D(38,6,7,8)          -179.2952         estimate D2E/DX2                !
 ! D52   D(38,6,7,39)            0.3909         estimate D2E/DX2                !
 ! D53   D(6,7,8,9)             -0.6053         estimate D2E/DX2                !
 ! D54   D(6,7,8,40)           179.6225         estimate D2E/DX2                !
 ! D55   D(39,7,8,9)           179.7086         estimate D2E/DX2                !
 ! D56   D(39,7,8,40)           -0.0636         estimate D2E/DX2                !
 ! D57   D(7,8,9,4)             -0.7482         estimate D2E/DX2                !
 ! D58   D(7,8,9,41)           179.9436         estimate D2E/DX2                !
 ! D59   D(40,8,9,4)           179.0256         estimate D2E/DX2                !
 ! D60   D(40,8,9,41)           -0.2827         estimate D2E/DX2                !
 ! D61   D(2,10,11,12)         175.6645         estimate D2E/DX2                !
 ! D62   D(20,10,11,12)         -2.4083         estimate D2E/DX2                !
 ! D63   D(2,10,20,19)        -174.7832         estimate D2E/DX2                !
 ! D64   D(11,10,20,19)          3.4201         estimate D2E/DX2                !
 ! D65   D(10,11,12,13)       -121.8149         estimate D2E/DX2                !
 ! D66   D(10,11,12,19)          0.4021         estimate D2E/DX2                !
 ! D67   D(10,11,12,42)        118.5546         estimate D2E/DX2                !
 ! D68   D(11,12,13,14)        -13.6732         estimate D2E/DX2                !
 ! D69   D(11,12,13,18)        166.6702         estimate D2E/DX2                !
 ! D70   D(19,12,13,14)       -129.7925         estimate D2E/DX2                !
 ! D71   D(19,12,13,18)         50.5508         estimate D2E/DX2                !
 ! D72   D(42,12,13,14)        105.8968         estimate D2E/DX2                !
 ! D73   D(42,12,13,18)        -73.7599         estimate D2E/DX2                !
 ! D74   D(11,12,19,20)          1.4556         estimate D2E/DX2                !
 ! D75   D(11,12,19,48)       -115.478          estimate D2E/DX2                !
 ! D76   D(11,12,19,49)        119.4815         estimate D2E/DX2                !
 ! D77   D(13,12,19,20)        122.5988         estimate D2E/DX2                !
 ! D78   D(13,12,19,48)          5.6652         estimate D2E/DX2                !
 ! D79   D(13,12,19,49)       -119.3753         estimate D2E/DX2                !
 ! D80   D(42,12,19,20)       -114.6332         estimate D2E/DX2                !
 ! D81   D(42,12,19,48)        128.4332         estimate D2E/DX2                !
 ! D82   D(42,12,19,49)          3.3927         estimate D2E/DX2                !
 ! D83   D(12,13,14,15)        179.6008         estimate D2E/DX2                !
 ! D84   D(12,13,14,43)         -0.4169         estimate D2E/DX2                !
 ! D85   D(18,13,14,15)         -0.7406         estimate D2E/DX2                !
 ! D86   D(18,13,14,43)        179.2417         estimate D2E/DX2                !
 ! D87   D(12,13,18,17)       -179.5736         estimate D2E/DX2                !
 ! D88   D(12,13,18,47)          0.6347         estimate D2E/DX2                !
 ! D89   D(14,13,18,17)          0.7642         estimate D2E/DX2                !
 ! D90   D(14,13,18,47)       -179.0275         estimate D2E/DX2                !
 ! D91   D(13,14,15,16)          0.1588         estimate D2E/DX2                !
 ! D92   D(13,14,15,44)       -179.7753         estimate D2E/DX2                !
 ! D93   D(43,14,15,16)       -179.8232         estimate D2E/DX2                !
 ! D94   D(43,14,15,44)          0.2427         estimate D2E/DX2                !
 ! D95   D(14,15,16,17)          0.406          estimate D2E/DX2                !
 ! D96   D(14,15,16,45)       -179.8202         estimate D2E/DX2                !
 ! D97   D(44,15,16,17)       -179.6603         estimate D2E/DX2                !
 ! D98   D(44,15,16,45)          0.1135         estimate D2E/DX2                !
 ! D99   D(15,16,17,18)         -0.3824         estimate D2E/DX2                !
 ! D100  D(15,16,17,46)        179.5478         estimate D2E/DX2                !
 ! D101  D(45,16,17,18)        179.8434         estimate D2E/DX2                !
 ! D102  D(45,16,17,46)         -0.2264         estimate D2E/DX2                !
 ! D103  D(16,17,18,13)         -0.2058         estimate D2E/DX2                !
 ! D104  D(16,17,18,47)        179.5857         estimate D2E/DX2                !
 ! D105  D(46,17,18,13)        179.8638         estimate D2E/DX2                !
 ! D106  D(46,17,18,47)         -0.3447         estimate D2E/DX2                !
 ! D107  D(12,19,20,10)         -2.7003         estimate D2E/DX2                !
 ! D108  D(48,19,20,10)        116.8445         estimate D2E/DX2                !
 ! D109  D(49,19,20,10)       -123.8115         estimate D2E/DX2                !
 ! D110  D(2,21,22,23)         173.7107         estimate D2E/DX2                !
 ! D111  D(31,21,22,23)         -4.0514         estimate D2E/DX2                !
 ! D112  D(2,21,31,30)        -176.8269         estimate D2E/DX2                !
 ! D113  D(22,21,31,30)          1.146          estimate D2E/DX2                !
 ! D114  D(21,22,23,24)       -115.0265         estimate D2E/DX2                !
 ! D115  D(21,22,23,30)          4.8203         estimate D2E/DX2                !
 ! D116  D(21,22,23,50)        124.1883         estimate D2E/DX2                !
 ! D117  D(22,23,24,25)         49.7212         estimate D2E/DX2                !
 ! D118  D(22,23,24,29)       -131.0353         estimate D2E/DX2                !
 ! D119  D(30,23,24,25)        -64.5341         estimate D2E/DX2                !
 ! D120  D(30,23,24,29)        114.7094         estimate D2E/DX2                !
 ! D121  D(50,23,24,25)        170.0909         estimate D2E/DX2                !
 ! D122  D(50,23,24,29)        -10.6656         estimate D2E/DX2                !
 ! D123  D(22,23,30,31)         -4.077          estimate D2E/DX2                !
 ! D124  D(22,23,30,56)        113.7998         estimate D2E/DX2                !
 ! D125  D(22,23,30,57)       -121.7546         estimate D2E/DX2                !
 ! D126  D(24,23,30,31)        114.3705         estimate D2E/DX2                !
 ! D127  D(24,23,30,56)       -127.7527         estimate D2E/DX2                !
 ! D128  D(24,23,30,57)         -3.3071         estimate D2E/DX2                !
 ! D129  D(50,23,30,31)       -121.4515         estimate D2E/DX2                !
 ! D130  D(50,23,30,56)         -3.5746         estimate D2E/DX2                !
 ! D131  D(50,23,30,57)        120.8709         estimate D2E/DX2                !
 ! D132  D(23,24,25,26)        179.4411         estimate D2E/DX2                !
 ! D133  D(23,24,25,51)         -1.3706         estimate D2E/DX2                !
 ! D134  D(29,24,25,26)          0.1857         estimate D2E/DX2                !
 ! D135  D(29,24,25,51)        179.3739         estimate D2E/DX2                !
 ! D136  D(23,24,29,28)       -179.0918         estimate D2E/DX2                !
 ! D137  D(23,24,29,55)          0.9209         estimate D2E/DX2                !
 ! D138  D(25,24,29,28)          0.1515         estimate D2E/DX2                !
 ! D139  D(25,24,29,55)       -179.8358         estimate D2E/DX2                !
 ! D140  D(24,25,26,27)         -0.3836         estimate D2E/DX2                !
 ! D141  D(24,25,26,52)        179.5739         estimate D2E/DX2                !
 ! D142  D(51,25,26,27)       -179.565          estimate D2E/DX2                !
 ! D143  D(51,25,26,52)          0.3925         estimate D2E/DX2                !
 ! D144  D(25,26,27,28)          0.2428         estimate D2E/DX2                !
 ! D145  D(25,26,27,53)       -179.8945         estimate D2E/DX2                !
 ! D146  D(52,26,27,28)       -179.7145         estimate D2E/DX2                !
 ! D147  D(52,26,27,53)          0.1482         estimate D2E/DX2                !
 ! D148  D(26,27,28,29)          0.0948         estimate D2E/DX2                !
 ! D149  D(26,27,28,54)        179.922          estimate D2E/DX2                !
 ! D150  D(53,27,28,29)       -179.7681         estimate D2E/DX2                !
 ! D151  D(53,27,28,54)          0.0591         estimate D2E/DX2                !
 ! D152  D(27,28,29,24)         -0.2923         estimate D2E/DX2                !
 ! D153  D(27,28,29,55)        179.6951         estimate D2E/DX2                !
 ! D154  D(54,28,29,24)        179.8801         estimate D2E/DX2                !
 ! D155  D(54,28,29,55)         -0.1326         estimate D2E/DX2                !
 ! D156  D(23,30,31,21)          2.0528         estimate D2E/DX2                !
 ! D157  D(56,30,31,21)       -118.56           estimate D2E/DX2                !
 ! D158  D(57,30,31,21)        121.914          estimate D2E/DX2                !
 --------------------------------------------------------------------------------
 Trust Radius=3.00D-01 FncErr=1.00D-07 GrdErr=1.00D-06 EigMax=2.50D+02 EigMin=1.00D-04
 Number of steps in this run=    335 maximum allowed number of steps=    342.
 GradGradGradGradGradGradGradGradGradGradGradGradGradGradGradGradGradGrad

 Leave Link  103 at Sun Feb 25 12:26:02 2024, MaxMem=  7516192768 cpu:               1.3 elap:               0.1
 (Enter /public/apps/g16-C01//g16/l202.exe)
 Symmetry turned off by external request.
 Stoichiometry    C27H26N2O2
 Framework group  C1[X(C27H26N2O2)]
 Deg. of freedom   165
 Full point group                 C1      NOp   1
                          Input orientation:                          
 ---------------------------------------------------------------------
 Center     Atomic      Atomic             Coordinates (Angstroms)
 Number     Number       Type             X           Y           Z
 ---------------------------------------------------------------------
      1          6           0       -0.650438    3.559179   -0.651202
      2          6           0       -0.669352    2.030153   -0.655324
      3          6           0       -0.448128    1.450533   -2.077013
      4          6           0        1.008526    1.410910   -2.438845
      5          6           0        1.640001    2.502019   -3.021055
      6          6           0        2.999580    2.474777   -3.279399
      7          6           0        3.747046    1.355304   -2.957563
      8          6           0        3.123597    0.254133   -2.394677
      9          6           0        1.763688    0.281097   -2.145307
     10          6           0        0.411249    1.499687    0.242067
     11          7           0        0.326588    0.429670    0.906509
     12          6           0        1.595541    0.201463    1.564245
     13          6           0        2.200523   -1.125555    1.172383
     14          6           0        1.445135   -2.086577    0.515206
     15          6           0        2.014161   -3.295662    0.154286
     16          6           0        3.340770   -3.556853    0.449167
     17          6           0        4.095482   -2.605669    1.115236
     18          6           0        3.528613   -1.396854    1.477270
     19          6           0        2.449255    1.426036    1.120686
     20          8           0        1.566100    2.193786    0.315315
     21          6           0       -1.959652    1.514534   -0.089845
     22          7           0       -2.677951    0.610905   -0.597011
     23          6           0       -3.748829    0.309226    0.331453
     24          6           0       -3.612181   -1.105110    0.839262
     25          6           0       -2.386880   -1.539414    1.331518
     26          6           0       -2.248855   -2.829550    1.811270
     27          6           0       -3.332303   -3.692326    1.810977
     28          6           0       -4.554554   -3.261952    1.324130
     29          6           0       -4.693753   -1.973625    0.836972
     30          6           0       -3.544841    1.361358    1.462608
     31          8           0       -2.354690    2.045533    1.091852
     32          1           0        0.322975    3.913848   -0.978447
     33          1           0       -1.420344    3.941507   -1.318158
     34          1           0       -0.840911    3.930908    0.352877
     35          1           0       -0.866724    0.443908   -2.085212
     36          1           0       -1.008532    2.062423   -2.784990
     37          1           0        1.064218    3.379677   -3.278674
     38          1           0        3.478279    3.332715   -3.729285
     39          1           0        4.810136    1.338864   -3.149173
     40          1           0        3.695847   -0.628340   -2.144635
     41          1           0        1.282358   -0.580795   -1.707017
     42          1           0        1.428996    0.202250    2.650082
     43          1           0        0.410444   -1.878601    0.290366
     44          1           0        1.417149   -4.034485   -0.360119
     45          1           0        3.785930   -4.499061    0.165118
     46          1           0        5.129658   -2.805942    1.355049
     47          1           0        4.120226   -0.660534    2.002956
     48          1           0        3.305542    1.130728    0.506719
     49          1           0        2.787246    2.042605    1.956795
     50          1           0       -4.710847    0.431855   -0.175860
     51          1           0       -1.541009   -0.865963    1.324059
     52          1           0       -1.291044   -3.161232    2.185759
     53          1           0       -3.224352   -4.699233    2.187347
     54          1           0       -5.402181   -3.931875    1.320753
     55          1           0       -5.648205   -1.642093    0.452924
     56          1           0       -4.363258    2.084332    1.522618
     57          1           0       -3.395528    0.893084    2.438758
 ---------------------------------------------------------------------
 Rotational constants (GHZ):           0.2034027           0.1316132           0.0954787
 Leave Link  202 at Sun Feb 25 12:26:02 2024, MaxMem=  7516192768 cpu:               2.2 elap:               0.1
 (Enter /public/apps/g16-C01//g16/l301.exe)
 Standard basis: def2SVPP (5D, 7F)
 Ernie: Thresh=  0.10000D-02 Tol=  0.10000D-05 Strict=F.
   486 basis functions,   879 primitive gaussians,   517 cartesian basis functions
   109 alpha electrons      109 beta electrons
       nuclear repulsion energy      3107.9355993704 Hartrees.
 IExCor=  402 DFT=T Ex+Corr=B3LYP ExCW=0 ScaHFX=  0.200000
 ScaDFX=  0.800000  0.720000  1.000000  0.810000 ScalE2=  1.000000  1.000000
 IRadAn=      5 IRanWt=     -1 IRanGd=            0 ICorTp=0 IEmpDi=141
 NAtoms=   57 NActive=   57 NUniq=   57 SFac= 1.00D+00 NAtFMM=   60 NAOKFM=F Big=F
 Integral buffers will be    131072 words long.
 Raffenetti 2 integral format.
 Two-electron integral symmetry is turned off.
 R6Disp:  Grimme-D3(BJ) Dispersion energy=       -0.1431462239 Hartrees.
 Nuclear repulsion after empirical dispersion term =     3107.7924531466 Hartrees.
 Leave Link  301 at Sun Feb 25 12:26:02 2024, MaxMem=  7516192768 cpu:               2.1 elap:               0.1
 (Enter /public/apps/g16-C01//g16/l302.exe)
 NPDir=0 NMtPBC=     1 NCelOv=     1 NCel=       1 NClECP=     1 NCelD=      1
         NCelK=      1 NCelE2=     1 NClLst=     1 CellRange=     0.0.
 One-electron integrals computed using PRISM.
   1 Symmetry operations used in ECPInt.
 ECPInt:  NShTT=   28441 NPrTT=  114007 LenC2=   25710 LenP2D=   67265.
 LDataN:  DoStor=T MaxTD1= 4 Len=   56
 NBasis=   486 RedAO= T EigKep=  2.43D-04  NBF=   486
 NBsUse=   486 1.00D-06 EigRej= -1.00D+00 NBFU=   486
 Precomputing XC quadrature grid using
 IXCGrd= 4 IRadAn=           5 IRanWt=          -1 IRanGd=           0 AccXCQ= 0.00D+00.
 Generated NRdTot=       0 NPtTot=           0 NUsed=           0 NTot=          32
 NSgBfM=   515   514   515   515   515 MxSgAt=    57 MxSgA2=    57.
 Leave Link  302 at Sun Feb 25 12:26:03 2024, MaxMem=  7516192768 cpu:              24.0 elap:               0.6
 (Enter /public/apps/g16-C01//g16/l303.exe)
 DipDrv:  MaxL=1.
 Leave Link  303 at Sun Feb 25 12:26:04 2024, MaxMem=  7516192768 cpu:              19.2 elap:               0.6
 (Enter /public/apps/g16-C01//g16/l401.exe)
 ExpMin= 1.22D-01 ExpMax= 2.27D+03 ExpMxC= 3.41D+02 IAcc=3 IRadAn=         5 AccDes= 0.00D+00
 Harris functional with IExCor=  402 and IRadAn=       5 diagonalized for initial guess.
 HarFok:  IExCor=  402 AccDes= 0.00D+00 IRadAn=         5 IDoV= 1 UseB2=F ITyADJ=14
 ICtDFT=  3500011 ScaDFX=  1.000000  1.000000  1.000000  1.000000
 FoFCou: FMM=F IPFlag=           0 FMFlag=      100000 FMFlg1=           0
         NFxFlg=           0 DoJE=T BraDBF=F KetDBF=T FulRan=T
         wScrn=  0.000000 ICntrl=       500 IOpCl=  0 I1Cent=   200000004 NGrid=           0
         NMat0=    1 NMatS0=      1 NMatT0=    0 NMatD0=    1 NMtDS0=    0 NMtDT0=    0
 Symmetry not used in FoFCou.
 Harris En= -1303.54701626717    
 JPrj=0 DoOrth=F DoCkMO=F.
 Leave Link  401 at Sun Feb 25 12:26:05 2024, MaxMem=  7516192768 cpu:              43.6 elap:               1.2
 (Enter /public/apps/g16-C01//g16/l502.exe)
 Two-electron integral symmetry not used.
 Closed shell SCF:
 Using DIIS extrapolation, IDIIS=  1040.
 NGot=  7516192768 LenX=  7515631681 LenY=  7515363875
 Requested convergence on RMS density matrix=1.00D-08 within 128 cycles.
 Requested convergence on MAX density matrix=1.00D-06.
 Requested convergence on             energy=1.00D-06.
 No special actions if energy rises.
 Fock matrices will be formed incrementally for  20 cycles.
 Integral accuracy reduced to 1.0D-05 until final iterations.

 Cycle   1  Pass 0  IDiag  1:
 FoFJK:  IHMeth= 1 ICntrl=       0 DoSepK=F KAlg= 0 I1Cent=           0 FoldK=F
 IRaf= 830000000 NMat=       1 IRICut=       1 DoRegI=T DoRafI=F ISym2E= 0 IDoP0=0 IntGTp=1.
 FoFCou: FMM=F IPFlag=           0 FMFlag=      100000 FMFlg1=           0
         NFxFlg=           0 DoJE=F BraDBF=F KetDBF=F FulRan=T
         wScrn=  0.000000 ICntrl=         0 IOpCl=  0 I1Cent=           0 NGrid=           0
         NMat0=    1 NMatS0=      1 NMatT0=    0 NMatD0=    1 NMtDS0=    0 NMtDT0=    0
 Symmetry not used in FoFCou.
 E= -1302.96540340834    
 DIIS: error= 2.26D-02 at cycle   1 NSaved=   1.
 NSaved= 1 IEnMin= 1 EnMin= -1302.96540340834     IErMin= 1 ErrMin= 2.26D-02
 ErrMax= 2.26D-02  0.00D+00 EMaxC= 1.00D-01 BMatC= 5.54D-01 BMatP= 5.54D-01
 IDIUse=3 WtCom= 7.74D-01 WtEn= 2.26D-01
 Coeff-Com:  0.100D+01
 Coeff-En:   0.100D+01
 Coeff:      0.100D+01
 Gap=     0.287 Goal=   None    Shift=    0.000
 GapD=    0.287 DampG=1.000 DampE=0.500 DampFc=0.5000 IDamp=-1.
 Damping current iteration by 5.00D-01
 RMSDP=5.35D-03 MaxDP=3.88D-01              OVMax= 1.98D-01

 Cycle   2  Pass 0  IDiag  1:
 RMSU=  2.51D-03    CP:  9.50D-01
 E= -1303.24325560587     Delta-E=       -0.277852197525 Rises=F Damp=T
 DIIS: error= 4.68D-03 at cycle   2 NSaved=   2.
 NSaved= 2 IEnMin= 2 EnMin= -1303.24325560587     IErMin= 2 ErrMin= 4.68D-03
 ErrMax= 4.68D-03  0.00D+00 EMaxC= 1.00D-01 BMatC= 3.72D-02 BMatP= 5.54D-01
 IDIUse=3 WtCom= 9.53D-01 WtEn= 4.68D-02
 Coeff-Com:  0.656D-01 0.934D+00
 Coeff-En:   0.896D-01 0.910D+00
 Coeff:      0.668D-01 0.933D+00
 Gap=     0.260 Goal=   None    Shift=    0.000
 RMSDP=1.68D-03 MaxDP=1.33D-01 DE=-2.78D-01 OVMax= 1.83D-01

 Cycle   3  Pass 0  IDiag  1:
 RMSU=  1.58D-03    CP:  9.19D-01  9.56D-01
 E= -1303.54607592511     Delta-E=       -0.302820319244 Rises=F Damp=F
 DIIS: error= 6.14D-03 at cycle   3 NSaved=   3.
 NSaved= 3 IEnMin= 3 EnMin= -1303.54607592511     IErMin= 2 ErrMin= 4.68D-03
 ErrMax= 6.14D-03  0.00D+00 EMaxC= 1.00D-01 BMatC= 5.29D-02 BMatP= 3.72D-02
 IDIUse=3 WtCom= 1.13D-01 WtEn= 8.87D-01
 Coeff-Com: -0.115D-01 0.555D+00 0.456D+00
 Coeff-En:   0.000D+00 0.000D+00 0.100D+01
 Coeff:     -0.130D-02 0.628D-01 0.938D+00
 Gap=     0.241 Goal=   None    Shift=    0.000
 RMSDP=1.86D-03 MaxDP=1.83D-01 DE=-3.03D-01 OVMax= 1.82D-01

 Cycle   4  Pass 0  IDiag  1:
 RMSU=  1.28D-03    CP:  9.24D-01  1.26D+00  2.97D-01
 E= -1303.38296203660     Delta-E=        0.163113888513 Rises=F Damp=F
 DIIS: error= 1.48D-02 at cycle   4 NSaved=   4.
 NSaved= 4 IEnMin= 3 EnMin= -1303.54607592511     IErMin= 2 ErrMin= 4.68D-03
 ErrMax= 1.48D-02  0.00D+00 EMaxC= 1.00D-01 BMatC= 2.35D-01 BMatP= 3.72D-02
 IDIUse=2 WtCom= 0.00D+00 WtEn= 1.00D+00
 Coeff-En:   0.000D+00 0.000D+00 0.757D+00 0.243D+00
 Coeff:      0.000D+00 0.000D+00 0.757D+00 0.243D+00
 Gap=     0.247 Goal=   None    Shift=    0.000
 RMSDP=1.00D-03 MaxDP=1.11D-01 DE= 1.63D-01 OVMax= 9.37D-02

 Cycle   5  Pass 0  IDiag  1:
 RMSU=  2.17D-04    CP:  9.20D-01  1.10D+00  6.63D-01  4.69D-01
 E= -1303.58104982422     Delta-E=       -0.198087787621 Rises=F Damp=F
 DIIS: error= 3.08D-03 at cycle   5 NSaved=   5.
 NSaved= 5 IEnMin= 5 EnMin= -1303.58104982422     IErMin= 5 ErrMin= 3.08D-03
 ErrMax= 3.08D-03  0.00D+00 EMaxC= 1.00D-01 BMatC= 1.44D-02 BMatP= 3.72D-02
 IDIUse=3 WtCom= 9.69D-01 WtEn= 3.08D-02
 Coeff-Com:  0.549D-02 0.319D-02 0.309D+00-0.296D-01 0.712D+00
 Coeff-En:   0.000D+00 0.000D+00 0.265D+00 0.000D+00 0.735D+00
 Coeff:      0.533D-02 0.309D-02 0.307D+00-0.286D-01 0.713D+00
 Gap=     0.228 Goal=   None    Shift=    0.000
 RMSDP=3.20D-04 MaxDP=3.40D-02 DE=-1.98D-01 OVMax= 2.78D-02

 Cycle   6  Pass 0  IDiag  1:
 RMSU=  7.55D-05    CP:  9.19D-01  1.05D+00  7.81D-01  3.09D-01  8.30D-01
 E= -1303.59378797805     Delta-E=       -0.012738153830 Rises=F Damp=F
 DIIS: error= 4.76D-04 at cycle   6 NSaved=   6.
 NSaved= 6 IEnMin= 6 EnMin= -1303.59378797805     IErMin= 6 ErrMin= 4.76D-04
 ErrMax= 4.76D-04  0.00D+00 EMaxC= 1.00D-01 BMatC= 1.55D-04 BMatP= 1.44D-02
 IDIUse=3 WtCom= 9.95D-01 WtEn= 4.76D-03
 Coeff-Com:  0.242D-02-0.616D-02 0.134D+00-0.465D-01 0.456D+00 0.460D+00
 Coeff-En:   0.000D+00 0.000D+00 0.000D+00 0.000D+00 0.000D+00 0.100D+01
 Coeff:      0.241D-02-0.613D-02 0.134D+00-0.463D-01 0.454D+00 0.463D+00
 Gap=     0.227 Goal=   None    Shift=    0.000
 RMSDP=3.70D-05 MaxDP=1.58D-03 DE=-1.27D-02 OVMax= 2.88D-03

 Cycle   7  Pass 0  IDiag  1:
 RMSU=  1.95D-05    CP:  9.19D-01  1.05D+00  7.82D-01  3.12D-01  8.45D-01
                    CP:  5.94D-01
 E= -1303.59393631165     Delta-E=       -0.000148333596 Rises=F Damp=F
 DIIS: error= 1.08D-04 at cycle   7 NSaved=   7.
 NSaved= 7 IEnMin= 7 EnMin= -1303.59393631165     IErMin= 7 ErrMin= 1.08D-04
 ErrMax= 1.08D-04  0.00D+00 EMaxC= 1.00D-01 BMatC= 8.47D-06 BMatP= 1.55D-04
 IDIUse=3 WtCom= 9.99D-01 WtEn= 1.08D-03
 Coeff-Com:  0.113D-02-0.357D-02 0.602D-01-0.267D-01 0.226D+00 0.270D+00
 Coeff-Com:  0.472D+00
 Coeff-En:   0.000D+00 0.000D+00 0.000D+00 0.000D+00 0.000D+00 0.000D+00
 Coeff-En:   0.100D+01
 Coeff:      0.113D-02-0.356D-02 0.601D-01-0.267D-01 0.226D+00 0.270D+00
 Coeff:      0.473D+00
 Gap=     0.227 Goal=   None    Shift=    0.000
 RMSDP=9.17D-06 MaxDP=5.11D-04 DE=-1.48D-04 OVMax= 7.68D-04

 Initial convergence to 1.0D-05 achieved.  Increase integral accuracy.
 Cycle   8  Pass 1  IDiag  1:
 E= -1303.59388709928     Delta-E=        0.000049212365 Rises=F Damp=F
 DIIS: error= 1.62D-04 at cycle   1 NSaved=   1.
 NSaved= 1 IEnMin= 1 EnMin= -1303.59388709928     IErMin= 1 ErrMin= 1.62D-04
 ErrMax= 1.62D-04  0.00D+00 EMaxC= 1.00D-01 BMatC= 1.23D-05 BMatP= 1.23D-05
 IDIUse=3 WtCom= 9.98D-01 WtEn= 1.62D-03
 Coeff-Com:  0.100D+01
 Coeff-En:   0.100D+01
 Coeff:      0.100D+01
 Gap=     0.227 Goal=   None    Shift=    0.000
 RMSDP=9.17D-06 MaxDP=5.11D-04 DE= 4.92D-05 OVMax= 8.28D-04

 Cycle   9  Pass 1  IDiag  1:
 RMSU=  1.95D-04    CP:  1.00D+00
 E= -1303.59389833256     Delta-E=       -0.000011233279 Rises=F Damp=F
 DIIS: error= 6.41D-05 at cycle   2 NSaved=   2.
 NSaved= 2 IEnMin= 2 EnMin= -1303.59389833256     IErMin= 2 ErrMin= 6.41D-05
 ErrMax= 6.41D-05  0.00D+00 EMaxC= 1.00D-01 BMatC= 3.70D-06 BMatP= 1.23D-05
 IDIUse=1 WtCom= 1.00D+00 WtEn= 0.00D+00
 Coeff-Com:  0.275D+00 0.725D+00
 Coeff:      0.275D+00 0.725D+00
 Gap=     0.227 Goal=   None    Shift=    0.000
 RMSDP=1.18D-05 MaxDP=7.82D-04 DE=-1.12D-05 OVMax= 1.30D-03

 Cycle  10  Pass 1  IDiag  1:
 RMSU=  1.16D-05    CP:  1.00D+00  1.01D+00
 E= -1303.59389560577     Delta-E=        0.000002726787 Rises=F Damp=F
 DIIS: error= 1.03D-04 at cycle   3 NSaved=   3.
 NSaved= 3 IEnMin= 2 EnMin= -1303.59389833256     IErMin= 2 ErrMin= 6.41D-05
 ErrMax= 1.03D-04  0.00D+00 EMaxC= 1.00D-01 BMatC= 6.66D-06 BMatP= 3.70D-06
 IDIUse=3 WtCom= 4.96D-01 WtEn= 5.04D-01
 Coeff-Com: -0.447D-03 0.574D+00 0.427D+00
 Coeff-En:   0.000D+00 0.608D+00 0.392D+00
 Coeff:     -0.222D-03 0.591D+00 0.409D+00
 Gap=     0.227 Goal=   None    Shift=    0.000
 RMSDP=6.45D-06 MaxDP=4.01D-04 DE= 2.73D-06 OVMax= 7.50D-04

 Cycle  11  Pass 1  IDiag  1:
 RMSU=  1.19D-06    CP:  1.00D+00  1.01D+00  4.62D-01
 E= -1303.59390160088     Delta-E=       -0.000005995110 Rises=F Damp=F
 DIIS: error= 1.38D-05 at cycle   4 NSaved=   4.
 NSaved= 4 IEnMin= 4 EnMin= -1303.59390160088     IErMin= 4 ErrMin= 1.38D-05
 ErrMax= 1.38D-05  0.00D+00 EMaxC= 1.00D-01 BMatC= 1.00D-07 BMatP= 3.70D-06
 IDIUse=1 WtCom= 1.00D+00 WtEn= 0.00D+00
 Coeff-Com: -0.451D-02 0.361D+00 0.250D+00 0.393D+00
 Coeff:     -0.451D-02 0.361D+00 0.250D+00 0.393D+00
 Gap=     0.227 Goal=   None    Shift=    0.000
 RMSDP=7.19D-07 MaxDP=6.97D-05 DE=-6.00D-06 OVMax= 3.41D-05

 Cycle  12  Pass 1  IDiag  1:
 RMSU=  3.69D-07    CP:  1.00D+00  1.01D+00  4.36D-01  5.52D-01
 E= -1303.59390167943     Delta-E=       -0.000000078543 Rises=F Damp=F
 DIIS: error= 1.53D-06 at cycle   5 NSaved=   5.
 NSaved= 5 IEnMin= 5 EnMin= -1303.59390167943     IErMin= 5 ErrMin= 1.53D-06
 ErrMax= 1.53D-06  0.00D+00 EMaxC= 1.00D-01 BMatC= 7.61D-10 BMatP= 1.00D-07
 IDIUse=1 WtCom= 1.00D+00 WtEn= 0.00D+00
 Coeff-Com: -0.220D-02 0.165D+00 0.113D+00 0.194D+00 0.530D+00
 Coeff:     -0.220D-02 0.165D+00 0.113D+00 0.194D+00 0.530D+00
 Gap=     0.227 Goal=   None    Shift=    0.000
 RMSDP=1.13D-07 MaxDP=5.08D-06 DE=-7.85D-08 OVMax= 9.34D-06

 Cycle  13  Pass 1  IDiag  1:
 RMSU=  1.00D-07    CP:  1.00D+00  1.01D+00  4.35D-01  5.46D-01  8.69D-01
 E= -1303.59390167998     Delta-E=       -0.000000000553 Rises=F Damp=F
 DIIS: error= 5.25D-07 at cycle   6 NSaved=   6.
 NSaved= 6 IEnMin= 6 EnMin= -1303.59390167998     IErMin= 6 ErrMin= 5.25D-07
 ErrMax= 5.25D-07  0.00D+00 EMaxC= 1.00D-01 BMatC= 1.62D-10 BMatP= 7.61D-10
 IDIUse=1 WtCom= 1.00D+00 WtEn= 0.00D+00
 Coeff-Com: -0.982D-03 0.708D-01 0.487D-01 0.868D-01 0.344D+00 0.451D+00
 Coeff:     -0.982D-03 0.708D-01 0.487D-01 0.868D-01 0.344D+00 0.451D+00
 Gap=     0.227 Goal=   None    Shift=    0.000
 RMSDP=3.95D-08 MaxDP=3.27D-06 DE=-5.53D-10 OVMax= 4.25D-06

 Cycle  14  Pass 1  IDiag  1:
 RMSU=  3.30D-08    CP:  1.00D+00  1.01D+00  4.35D-01  5.50D-01  8.91D-01
                    CP:  8.10D-01
 E= -1303.59390168009     Delta-E=       -0.000000000109 Rises=F Damp=F
 DIIS: error= 1.09D-07 at cycle   7 NSaved=   7.
 NSaved= 7 IEnMin= 7 EnMin= -1303.59390168009     IErMin= 7 ErrMin= 1.09D-07
 ErrMax= 1.09D-07  0.00D+00 EMaxC= 1.00D-01 BMatC= 1.28D-11 BMatP= 1.62D-10
 IDIUse=1 WtCom= 1.00D+00 WtEn= 0.00D+00
 Coeff-Com: -0.216D-03 0.147D-01 0.101D-01 0.193D-01 0.117D+00 0.255D+00
 Coeff-Com:  0.585D+00
 Coeff:     -0.216D-03 0.147D-01 0.101D-01 0.193D-01 0.117D+00 0.255D+00
 Coeff:      0.585D+00
 Gap=     0.227 Goal=   None    Shift=    0.000
 RMSDP=1.23D-08 MaxDP=6.44D-07 DE=-1.09D-10 OVMax= 1.10D-06

 Cycle  15  Pass 1  IDiag  1:
 RMSU=  8.16D-09    CP:  1.00D+00  1.01D+00  4.35D-01  5.52D-01  8.94D-01
                    CP:  8.24D-01  7.39D-01
 E= -1303.59390168011     Delta-E=       -0.000000000018 Rises=F Damp=F
 DIIS: error= 2.90D-08 at cycle   8 NSaved=   8.
 NSaved= 8 IEnMin= 8 EnMin= -1303.59390168011     IErMin= 8 ErrMin= 2.90D-08
 ErrMax= 2.90D-08  0.00D+00 EMaxC= 1.00D-01 BMatC= 1.27D-12 BMatP= 1.28D-11
 IDIUse=1 WtCom= 1.00D+00 WtEn= 0.00D+00
 Coeff-Com:  0.110D-04-0.122D-02-0.831D-03-0.951D-03 0.168D-01 0.663D-01
 Coeff-Com:  0.302D+00 0.618D+00
 Coeff:      0.110D-04-0.122D-02-0.831D-03-0.951D-03 0.168D-01 0.663D-01
 Coeff:      0.302D+00 0.618D+00
 Gap=     0.227 Goal=   None    Shift=    0.000
 RMSDP=3.82D-09 MaxDP=1.52D-07 DE=-1.82D-11 OVMax= 1.97D-07

 SCF Done:  E(RB3LYP) =  -1303.59390168     A.U. after   15 cycles
            NFock= 15  Conv=0.38D-08     -V/T= 2.0092
 KE= 1.291705562606D+03 PE=-9.241214761219D+03 EE= 3.538122843786D+03
 Leave Link  502 at Sun Feb 25 12:26:52 2024, MaxMem=  7516192768 cpu:            1863.0 elap:              46.9
 (Enter /public/apps/g16-C01//g16/l601.exe)
 Copying SCF densities to generalized density rwf, IOpCl= 0 IROHF=0.

 **********************************************************************

            Population analysis using the SCF Density.

 **********************************************************************

 Alpha  occ. eigenvalues --  -19.17437 -19.16677 -14.30678 -14.29891 -10.27930
 Alpha  occ. eigenvalues --  -10.26985 -10.23971 -10.23425 -10.22443 -10.22201
 Alpha  occ. eigenvalues --  -10.21565 -10.19384 -10.18743 -10.18685 -10.18633
 Alpha  occ. eigenvalues --  -10.18463 -10.18419 -10.18300 -10.18111 -10.18003
 Alpha  occ. eigenvalues --  -10.17925 -10.17893 -10.17849 -10.17792 -10.17770
 Alpha  occ. eigenvalues --  -10.17744 -10.17650 -10.17552 -10.17521 -10.17409
 Alpha  occ. eigenvalues --  -10.16756  -1.09699  -1.08699  -0.91448  -0.90392
 Alpha  occ. eigenvalues --   -0.86251  -0.85551  -0.84799  -0.83365  -0.78026
 Alpha  occ. eigenvalues --   -0.77161  -0.75142  -0.74421  -0.73772  -0.73487
 Alpha  occ. eigenvalues --   -0.72788  -0.71657  -0.68478  -0.65479  -0.64197
 Alpha  occ. eigenvalues --   -0.63815  -0.61190  -0.60119  -0.59993  -0.58796
 Alpha  occ. eigenvalues --   -0.58419  -0.57698  -0.57404  -0.53979  -0.53124
 Alpha  occ. eigenvalues --   -0.52334  -0.52021  -0.50772  -0.50653  -0.48874
 Alpha  occ. eigenvalues --   -0.48130  -0.47295  -0.46612  -0.46276  -0.45538
 Alpha  occ. eigenvalues --   -0.45253  -0.44749  -0.44191  -0.43957  -0.43591
 Alpha  occ. eigenvalues --   -0.42978  -0.42746  -0.42119  -0.41738  -0.41628
 Alpha  occ. eigenvalues --   -0.40768  -0.40490  -0.40384  -0.39375  -0.38281
 Alpha  occ. eigenvalues --   -0.37711  -0.37266  -0.36852  -0.36602  -0.35980
 Alpha  occ. eigenvalues --   -0.35594  -0.35167  -0.34701  -0.34606  -0.34486
 Alpha  occ. eigenvalues --   -0.34188  -0.33750  -0.33659  -0.33253  -0.27898
 Alpha  occ. eigenvalues --   -0.27194  -0.26286  -0.25978  -0.25641  -0.25229
 Alpha  occ. eigenvalues --   -0.25013  -0.24787  -0.24290  -0.24190
 Alpha virt. eigenvalues --   -0.01450  -0.00997  -0.00655  -0.00378  -0.00216
 Alpha virt. eigenvalues --   -0.00111   0.01415   0.02620   0.05978   0.06541
 Alpha virt. eigenvalues --    0.06938   0.07193   0.07735   0.08335   0.08874
 Alpha virt. eigenvalues --    0.09923   0.10187   0.10594   0.11668   0.11692
 Alpha virt. eigenvalues --    0.11917   0.12183   0.12644   0.13055   0.13504
 Alpha virt. eigenvalues --    0.14073   0.14295   0.14884   0.15053   0.15109
 Alpha virt. eigenvalues --    0.15335   0.15944   0.16099   0.17036   0.17245
 Alpha virt. eigenvalues --    0.17746   0.17995   0.18766   0.19343   0.20380
 Alpha virt. eigenvalues --    0.21289   0.22058   0.22465   0.24093   0.24640
 Alpha virt. eigenvalues --    0.25017   0.25743   0.26321   0.27721   0.27746
 Alpha virt. eigenvalues --    0.29202   0.30020   0.30345   0.30740   0.31308
 Alpha virt. eigenvalues --    0.31684   0.31715   0.31937   0.32472   0.33132
 Alpha virt. eigenvalues --    0.33616   0.34049   0.34561   0.35990   0.36961
 Alpha virt. eigenvalues --    0.37321   0.38569   0.39493   0.39818   0.40515
 Alpha virt. eigenvalues --    0.40963   0.41420   0.42342   0.42784   0.43360
 Alpha virt. eigenvalues --    0.43737   0.44318   0.44371   0.44462   0.45559
 Alpha virt. eigenvalues --    0.45849   0.46549   0.46705   0.47400   0.47624
 Alpha virt. eigenvalues --    0.47923   0.48369   0.48799   0.48893   0.49453
 Alpha virt. eigenvalues --    0.49869   0.50703   0.50938   0.51162   0.51414
 Alpha virt. eigenvalues --    0.52199   0.52545   0.53058   0.53429   0.54164
 Alpha virt. eigenvalues --    0.54897   0.55543   0.55745   0.55942   0.57138
 Alpha virt. eigenvalues --    0.57496   0.58030   0.58264   0.58809   0.59462
 Alpha virt. eigenvalues --    0.59710   0.59964   0.61043   0.61952   0.62529
 Alpha virt. eigenvalues --    0.62669   0.63820   0.64098   0.64541   0.64878
 Alpha virt. eigenvalues --    0.65504   0.66305   0.66470   0.66573   0.67204
 Alpha virt. eigenvalues --    0.67483   0.67782   0.67893   0.68033   0.68190
 Alpha virt. eigenvalues --    0.68416   0.68726   0.68948   0.69713   0.69849
 Alpha virt. eigenvalues --    0.70072   0.70338   0.70607   0.70773   0.71621
 Alpha virt. eigenvalues --    0.71662   0.72034   0.72270   0.72653   0.72825
 Alpha virt. eigenvalues --    0.73676   0.73889   0.74221   0.74702   0.75182
 Alpha virt. eigenvalues --    0.75384   0.75967   0.76536   0.76825   0.76996
 Alpha virt. eigenvalues --    0.77897   0.78338   0.78398   0.78855   0.79782
 Alpha virt. eigenvalues --    0.80384   0.80840   0.81150   0.82087   0.82704
 Alpha virt. eigenvalues --    0.83613   0.84290   0.84858   0.85661   0.85898
 Alpha virt. eigenvalues --    0.86271   0.87166   0.87862   0.88942   0.89449
 Alpha virt. eigenvalues --    0.90200   0.91625   0.92534   0.93909   0.94485
 Alpha virt. eigenvalues --    0.95000   0.95721   0.96460   0.97851   0.98809
 Alpha virt. eigenvalues --    1.00784   1.01295   1.03819   1.05285   1.06395
 Alpha virt. eigenvalues --    1.07680   1.09151   1.09662   1.10906   1.12296
 Alpha virt. eigenvalues --    1.12867   1.14262   1.15135   1.15297   1.18951
 Alpha virt. eigenvalues --    1.21307   1.23092   1.23991   1.24897   1.26129
 Alpha virt. eigenvalues --    1.27405   1.27693   1.28516   1.29946   1.30101
 Alpha virt. eigenvalues --    1.31131   1.32632   1.33963   1.34615   1.36640
 Alpha virt. eigenvalues --    1.37542   1.38200   1.42523   1.43153   1.43524
 Alpha virt. eigenvalues --    1.45043   1.46218   1.47041   1.47904   1.48612
 Alpha virt. eigenvalues --    1.48768   1.49033   1.49387   1.50882   1.50906
 Alpha virt. eigenvalues --    1.51220   1.51528   1.52770   1.53134   1.53830
 Alpha virt. eigenvalues --    1.54931   1.56421   1.59456   1.62033   1.63702
 Alpha virt. eigenvalues --    1.64594   1.66570   1.68368   1.70068   1.71795
 Alpha virt. eigenvalues --    1.74159   1.74675   1.76427   1.76624   1.77331
 Alpha virt. eigenvalues --    1.77510   1.78023   1.78698   1.79602   1.80204
 Alpha virt. eigenvalues --    1.80878   1.81154   1.82668   1.83683   1.84040
 Alpha virt. eigenvalues --    1.84445   1.85010   1.87079   1.87188   1.88218
 Alpha virt. eigenvalues --    1.88847   1.89841   1.90320   1.91223   1.91356
 Alpha virt. eigenvalues --    1.93652   1.94526   1.95107   1.97795   1.99173
 Alpha virt. eigenvalues --    2.00261   2.00585   2.01338   2.01429   2.02741
 Alpha virt. eigenvalues --    2.02940   2.04514   2.05171   2.06855   2.07917
 Alpha virt. eigenvalues --    2.08454   2.08993   2.09364   2.10070   2.11064
 Alpha virt. eigenvalues --    2.11208   2.12323   2.13713   2.14165   2.14822
 Alpha virt. eigenvalues --    2.14941   2.15428   2.16374   2.17860   2.18447
 Alpha virt. eigenvalues --    2.20017   2.21542   2.22778   2.23241   2.24689
 Alpha virt. eigenvalues --    2.25219   2.27822   2.28383   2.30067   2.30673
 Alpha virt. eigenvalues --    2.31464   2.31781   2.32105   2.32919   2.33162
 Alpha virt. eigenvalues --    2.34266   2.36476   2.37286   2.38551   2.39883
 Alpha virt. eigenvalues --    2.43849   2.45274   2.47018   2.48075   2.48205
 Alpha virt. eigenvalues --    2.48693   2.49405   2.51152   2.52412   2.54366
 Alpha virt. eigenvalues --    2.55682   2.58177   2.59660   2.60089   2.61160
 Alpha virt. eigenvalues --    2.62219   2.65304   2.67406   2.68021   2.68381
 Alpha virt. eigenvalues --    2.69329   2.71082   2.72269   2.73165   2.73558
 Alpha virt. eigenvalues --    2.73948   2.74473   2.74839   2.75341   2.77435
 Alpha virt. eigenvalues --    2.78388   2.78920   2.80004   2.81389   2.82450
 Alpha virt. eigenvalues --    2.87248   2.88384   2.91124   2.91710   2.97186
 Alpha virt. eigenvalues --    2.97569   2.98456   2.99520   3.03823   3.07294
 Alpha virt. eigenvalues --    3.07610   3.15289   3.15426   3.24540   3.28355
 Alpha virt. eigenvalues --    3.38684   3.40762   3.41386   3.41700   3.41883
 Alpha virt. eigenvalues --    3.58315   3.64244
          Condensed to atoms (all electrons):
 Mulliken charges:
               1
     1  C   -0.185645
     2  C   -0.131349
     3  C    0.017251
     4  C    0.070135
     5  C   -0.109616
     6  C   -0.040905
     7  C   -0.051045
     8  C   -0.049228
     9  C   -0.125147
    10  C    0.077695
    11  N   -0.159430
    12  C    0.005038
    13  C    0.047438
    14  C   -0.105164
    15  C   -0.046469
    16  C   -0.041889
    17  C   -0.041484
    18  C   -0.116935
    19  C    0.091063
    20  O   -0.299189
    21  C    0.123960
    22  N   -0.153965
    23  C   -0.034437
    24  C    0.142717
    25  C   -0.162521
    26  C   -0.057636
    27  C   -0.040940
    28  C   -0.042542
    29  C   -0.136617
    30  C    0.100270
    31  O   -0.317246
    32  H    0.119933
    33  H    0.089593
    34  H    0.105014
    35  H    0.104729
    36  H    0.071466
    37  H    0.033716
    38  H    0.042163
    39  H    0.043422
    40  H    0.052957
    41  H    0.055868
    42  H    0.086723
    43  H    0.084274
    44  H    0.049026
    45  H    0.047850
    46  H    0.046059
    47  H    0.033674
    48  H    0.106731
    49  H    0.088033
    50  H    0.055455
    51  H    0.112154
    52  H    0.045641
    53  H    0.043599
    54  H    0.042613
    55  H    0.029261
    56  H    0.085531
    57  H    0.098347
 Sum of Mulliken charges =  -0.00000
 Mulliken charges with hydrogens summed into heavy atoms:
               1
     1  C    0.128895
     2  C   -0.131349
     3  C    0.193446
     4  C    0.070135
     5  C   -0.075900
     6  C    0.001258
     7  C   -0.007622
     8  C    0.003729
     9  C   -0.069279
    10  C    0.077695
    11  N   -0.159430
    12  C    0.091761
    13  C    0.047438
    14  C   -0.020889
    15  C    0.002557
    16  C    0.005961
    17  C    0.004575
    18  C   -0.083261
    19  C    0.285826
    20  O   -0.299189
    21  C    0.123960
    22  N   -0.153965
    23  C    0.021018
    24  C    0.142717
    25  C   -0.050367
    26  C   -0.011996
    27  C    0.002659
    28  C    0.000071
    29  C   -0.107356
    30  C    0.284148
    31  O   -0.317246
 Electronic spatial extent (au):  <R**2>=          11727.7625
 Charge=              0.0000 electrons
 Dipole moment (field-independent basis, Debye):
    X=              1.0253    Y=              0.8892    Z=              1.2964  Tot=              1.8769
 Quadrupole moment (field-independent basis, Debye-Ang):
   XX=           -163.4362   YY=           -173.3309   ZZ=           -183.8856
   XY=             -3.1713   XZ=              1.5213   YZ=             -1.6805
 Traceless Quadrupole moment (field-independent basis, Debye-Ang):
   XX=             10.1147   YY=              0.2200   ZZ=            -10.3347
   XY=             -3.1713   XZ=              1.5213   YZ=             -1.6805
 Octapole moment (field-independent basis, Debye-Ang**2):
  XXX=            -19.5665  YYY=             -0.6960  ZZZ=             24.4359  XYY=             -3.6675
  XXY=              5.9086  XXZ=             19.1275  XZZ=              8.4546  YZZ=             29.1447
  YYZ=            -11.9309  XYZ=              3.1412
 Hexadecapole moment (field-independent basis, Debye-Ang**3):
 XXXX=          -7664.3469 YYYY=          -4871.9801 ZZZZ=          -3074.5895 XXXY=           -343.2375
 XXXZ=            852.0888 YYYX=           -311.2253 YYYZ=            882.3190 ZZZX=            940.3322
 ZZZY=            982.6874 XXYY=          -2096.8000 XXZZ=          -1881.3618 YYZZ=          -1299.0669
 XXYZ=            306.3009 YYXZ=            239.5759 ZZXY=            -76.9684
 N-N= 3.107792453147D+03 E-N=-9.241214754678D+03  KE= 1.291705562606D+03
 No NMR shielding tensors so no spin-rotation constants.
 Leave Link  601 at Sun Feb 25 12:26:53 2024, MaxMem=  7516192768 cpu:              13.7 elap:               0.4
 (Enter /public/apps/g16-C01//g16/l701.exe)
 ... and contract with generalized density number  0.
 Compute integral first derivatives.
 R6Disp: Adding Grimme-D3(BJ) dispersion energy 1st derivatives to the gradient.
   1 Symmetry operations used in ECPInt.
 ECPInt:  NShTT=   28441 NPrTT=  114007 LenC2=   25710 LenP2D=   67265.
 LDataN:  DoStor=T MaxTD1= 5 Len=  102
 Leave Link  701 at Sun Feb 25 12:26:54 2024, MaxMem=  7516192768 cpu:              27.9 elap:               0.8
 (Enter /public/apps/g16-C01//g16/l702.exe)
 L702 exits ... SP integral derivatives will be done elsewhere.
 Leave Link  702 at Sun Feb 25 12:26:54 2024, MaxMem=  7516192768 cpu:               1.1 elap:               0.1
 (Enter /public/apps/g16-C01//g16/l703.exe)
 Integral derivatives from FoFJK, PRISM(SPDF).
 Compute integral first derivatives, UseDBF=F ICtDFT=           0.
 Calling FoFJK, ICntrl=      2127 FMM=F ISym2X=0 I1Cent= 0 IOpClX= 0 NMat=1 NMatS=1 NMatT=0.
 FoFJK:  IHMeth= 1 ICntrl=    2127 DoSepK=F KAlg= 0 I1Cent=           0 FoldK=F
 IRaf=         0 NMat=       1 IRICut=       1 DoRegI=T DoRafI=F ISym2E= 0 IDoP0=0 IntGTp=1.
 FoFCou: FMM=F IPFlag=           0 FMFlag=      100000 FMFlg1=         800
         NFxFlg=           0 DoJE=F BraDBF=F KetDBF=F FulRan=T
         wScrn=  0.000000 ICntrl=      2127 IOpCl=  0 I1Cent=           0 NGrid=           0
         NMat0=    1 NMatS0=      1 NMatT0=    0 NMatD0=    1 NMtDS0=    0 NMtDT0=    0
 Symmetry not used in FoFCou.
 Leave Link  703 at Sun Feb 25 12:27:04 2024, MaxMem=  7516192768 cpu:             385.5 elap:               9.8
 (Enter /public/apps/g16-C01//g16/l716.exe)
 Dipole        = 4.03373412D-01 3.49831891D-01 5.10060878D-01
 -------------------------------------------------------------------
 Center     Atomic                   Forces (Hartrees/Bohr)
 Number     Number              X              Y              Z
 -------------------------------------------------------------------
      1        6           0.000456235   -0.004717299    0.000912534
      2        6          -0.000213149    0.004143786    0.001802511
      3        6           0.006654047   -0.001010777    0.003116313
      4        6          -0.009656235   -0.000764814   -0.004860353
      5        6          -0.001016893    0.001755271   -0.001430638
      6        6           0.001712819    0.004235049   -0.001481875
      7        6           0.004790728   -0.000382608   -0.000202728
      8        6           0.002729653   -0.003939921    0.001611292
      9        6          -0.002311171   -0.003249645   -0.000042473
     10        6           0.001279475    0.005805439    0.002917390
     11        7          -0.008951087   -0.009803358    0.004509602
     12        6           0.004048740    0.000943258   -0.002995900
     13        6          -0.003607098    0.006684031    0.004354079
     14        6          -0.003769509    0.000344107    0.000020538
     15        6          -0.002145922   -0.002929289   -0.001881271
     16        6           0.002189208   -0.004263137   -0.001388881
     17        6           0.005043608   -0.000622493    0.001411666
     18        6          -0.000445800    0.001372685    0.000822255
     19        6           0.005368354   -0.004160736    0.004200610
     20        8          -0.005339477    0.007504050   -0.004091881
     21        6          -0.000800391    0.002994002   -0.000402484
     22        7           0.000070821   -0.005852218   -0.015443852
     23        6           0.001528809   -0.000657122    0.006514810
     24        6          -0.005336893    0.006160199   -0.004735547
     25        6           0.002113753    0.002067094    0.000099010
     26        6           0.003866997    0.000150508    0.001682597
     27        6          -0.000643895   -0.005016358    0.001307803
     28        6          -0.003453846   -0.003987339    0.000677087
     29        6          -0.000974941    0.002435175   -0.000683609
     30        6          -0.006475784   -0.001770097    0.000108282
     31        8           0.007417761    0.006746353    0.001709841
     32        1           0.007654196    0.004384062   -0.003013678
     33        1          -0.007103323    0.003858761   -0.006148478
     34        1          -0.001204273    0.004695139    0.008096874
     35        1          -0.002725544   -0.004558766   -0.001212749
     36        1          -0.005097135    0.003280491   -0.004891012
     37        1          -0.005359228    0.007808337   -0.002093989
     38        1           0.004363021    0.007911608   -0.004300242
     39        1           0.009841209   -0.000218221   -0.002069269
     40        1           0.004808538   -0.007997079    0.002147831
     41        1          -0.003658580   -0.006755088    0.003272162
     42        1           0.000406058    0.000599081    0.005197761
     43        1          -0.008186206    0.001689454   -0.002309932
     44        1          -0.005557957   -0.006902155   -0.004836889
     45        1           0.004173677   -0.008834374   -0.002689281
     46        1           0.009710811   -0.001969944    0.002151942
     47        1           0.006062878    0.006455021    0.004661679
     48        1           0.003653734   -0.000240929   -0.002634172
     49        1           0.002181722    0.004084884    0.004204605
     50        1          -0.005476499   -0.000063114   -0.000875059
     51        1           0.007719343    0.004914842   -0.000156612
     52        1           0.009049348   -0.003009040    0.003314199
     53        1           0.000974668   -0.009474281    0.003481986
     54        1          -0.007879231   -0.006418917   -0.000081306
     55        1          -0.008735500    0.003156677   -0.003810694
     56        1          -0.004416128    0.004519109    0.001124271
     57        1           0.000671484   -0.001129356    0.005333323
 -------------------------------------------------------------------
 Cartesian Forces:  Max     0.015443852 RMS     0.004556754
 Leave Link  716 at Sun Feb 25 12:27:04 2024, MaxMem=  7516192768 cpu:               1.4 elap:               0.1
 (Enter /public/apps/g16-C01//g16/l103.exe)

 GradGradGradGradGradGradGradGradGradGradGradGradGradGradGradGradGradGrad
 Berny optimization.
 FormGI is forming the generalized inverse of G from B-inverse, IUseBI=4.
 Internal  Forces:  Max     0.015619987 RMS     0.005007598
 Search for a local minimum.
 Step number   1 out of a maximum of  335
 All quantities printed in internal units (Hartrees-Bohrs-Radians)
 RMS Force = .50076D-02 SwitMx=.10000D-02 MixMth= 1
 Mixed Optimization -- RFO/linear search
 Second derivative matrix not updated -- first step.
 ITU=  0
     Eigenvalues ---    0.00230   0.00380   0.00604   0.00610   0.00632
     Eigenvalues ---    0.00648   0.00747   0.00747   0.00764   0.01550
     Eigenvalues ---    0.01555   0.01592   0.01601   0.01632   0.02237
     Eigenvalues ---    0.02244   0.02246   0.02264   0.02266   0.02268
[...]
 79,0.00003210,-0.00001931,0.00002095,-0.00000482,0.00000793,0.00000366
 ,0.00003224,-0.00001106,0.00002784,-0.00001490,-0.00001232,-0.00000009
 ,-0.00000155,-0.00000112,0.00000018,-0.00000443,0.00000215,0.00000081,
 0.00000033,-0.00000343,0.00000091,0.00000123,-0.00000325,0.00000207,-0
 .00008807,-0.00012526,0.00001825,0.00000220,0.00009896,0.00000068,0.00
 041019,-0.00021474,0.00030215,-0.00004362,0.00252032,-0.00041454,-0.01
 854031,0.01121927,-0.00864000,-0.00253256,-0.00456117,-0.00022946,0.00
 038728,-0.00075306,0.00047307,0.00200542,-0.00017393,-0.00097328,0.001
 79177,-0.00154919,0.00029295,-0.26847304,0.08527543,-0.07722229,0.0000
 1210,-0.00017955,0.00003976,0.00029090,0.00010196,-0.00000139,0.000001
 01,0.00001099,-0.00000464,0.00000256,-0.00000987,0.00000738,-0.0000066
 3,-0.00000356,-0.00000214,-0.00001308,0.00000626,-0.00000965,-0.000001
 82,-0.00001043,0.00001447,0.00000054,-0.00000383,0.00000060,-0.0000005
 9,-0.00000138,0.00000006,-0.00000063,-0.00000074,-0.00000058,0.0000031
 9,-0.00000125,-0.00000322,-0.00000117,-0.00000264,-0.00000668,0.000011
 48,0.00000627,0.00000550,0.00002675,-0.00000336,-0.00003290,0.00000522
 ,-0.00000182,-0.00000568,-0.00000310,0.00000364,-0.00000169,-0.0000033
 4,0.00000077,-0.00000174,-0.00000299,-0.00000150,-0.00000341,-0.000005
 58,-0.00000118,-0.00000035,-0.00000373,-0.00000522,-0.00000033,0.00068
 491,-0.00110750,0.00072221,-0.00069391,0.00088758,-0.00051804,-0.00008
 159,0.00014949,0.00015163,-0.00002427,-0.00014607,-0.00002903,0.000638
 46,0.00066293,0.00072932,0.28430245,0.00003255,-0.00001027,-0.00001212
 ,-0.00001525,0.00000573,0.00004464,0.00001505,0.00000749,0.00000932,-0
 .00001698,0.00000059,-0.00000031,0.00000783,-0.00000164,-0.00000390,-0
 .00000127,-0.00000193,0.00000019,0.00000298,-0.00000013,-0.00000140,0.
 00000003,-0.00000043,-0.00000040,0.00000694,0.00000253,-0.00000518,-0.
 00004685,0.00008489,-0.00008080,-0.00003131,-0.00008108,0.00003804,0.0
 0000103,-0.00000758,0.00000719,-0.00000107,0.00000327,-0.00000034,0.00
 000724,0.00000003,0.00000186,-0.00000223,-0.00000067,-0.00000372,-0.00
 000134,0.00000366,-0.00000142,-0.00000089,0.00000122,0.00000003,0.0000
 0142,-0.00000474,-0.00000142,-0.00001011,0.00000459,-0.00000340,0.0000
 1814,-0.00003980,0.00002482,-0.00007779,-0.00018726,-0.00029355,0.0005
 2166,0.00036921,-0.00004720,-0.00141563,0.00030426,-0.00201098,-0.0149
 1231,0.00919744,-0.00471241,-0.00326626,-0.00100148,0.00203951,-0.0005
 8758,-0.00070156,-0.00007109,-0.00148759,-0.00407815,0.00366660,0.0275
 2554,-0.00600858,0.00874047,0.08530426,-0.09164340,0.03690305,-0.00015
 709,-0.00015458,0.00008361,0.00003248,0.00003595,0.00010754,0.00000524
 ,0.00001554,-0.00000117,-0.00000429,-0.00000597,0.00000414,-0.00000692
 ,-0.00000589,-0.00000064,-0.00001008,0.00000544,0.00001055,-0.00000134
 ,-0.00000003,0.00000636,-0.00000106,-0.00000138,0.00000328,0.00000167,
 0.00000188,-0.00000029,0.00000204,0.00000009,0.00000008,0.00000172,-0.
 00000065,0.00000116,-0.00000117,0.00000147,0.00000094,0.00000337,-0.00
 000041,0.00000105,0.00000712,-0.00000807,-0.00000333,-0.00000185,0.000
 00050,0.00000437,-0.00000040,-0.00000123,0.00000046,0.00000117,-0.0000
 0033,0.00000068,-0.00000124,0.00000072,0.00000009,0.00000193,-0.000001
 69,0.00000033,0.00000110,-0.00000229,0.00000277,0.00014444,-0.00012021
 ,0.00025474,-0.00068984,0.00045448,-0.00022123,0.00013895,-0.00007569,
 -0.00033544,0.00123150,-0.00038441,0.00048889,-0.00008067,0.00070902,-
 0.00174660,-0.09217302,0.09333765,-0.00000234,-0.00000137,0.00000031,0
 .00003111,-0.00001282,0.00003797,0.00000223,0.00000624,0.00000564,0.00
 000221,-0.00000383,-0.00000424,-0.00000281,0.00000056,0.00000003,-0.00
 000013,-0.00000001,-0.00000013,0.00000006,-0.00000049,0.00000003,0.000
 00022,-0.00000149,0.00000013,-0.00000069,0.00000249,-0.00000205,0.0000
 1699,0.00004491,-0.00002235,-0.00001713,-0.00002852,-0.00000685,0.0000
 0020,-0.00000063,0.00000989,-0.00000605,0.00000669,0.00000062,0.000007
 46,-0.00000817,0.00000548,-0.00000299,0.00000082,0.00000139,0.00000058
 ,-0.00000262,-0.00000116,-0.00000135,0.00000033,-0.00000048,-0.0000004
 2,-0.00000173,-0.00000125,0.00000182,0.00000105,0.00000389,-0.00001149
 ,-0.00001572,0.00000298,0.00014832,0.00009241,-0.00010987,0.00019395,0
 .00054315,0.00003673,0.00154046,-0.00155215,-0.00322375,0.00106606,0.0
 0066171,0.00388226,-0.00035815,0.00174673,0.00579164,0.00041538,-0.000
 03362,-0.00055526,-0.00049180,0.00391669,0.00546790,-0.01016564,0.0029
 1966,0.00031621,-0.07770440,0.03705490,-0.06605619,-0.00011578,-0.0004
 2574,0.00028796,-0.00009823,-0.00015039,-0.00012582,-0.00000034,0.0000
 0038,0.00000058,-0.00000056,0.00000127,0.00000100,0.00000027,0.0000004
 7,-0.00000136,0.00000293,-0.00000017,0.00000013,-0.00000038,0.00000212
 ,-0.00000059,0.00000098,0.00000031,0.00000044,-0.00000059,-0.00000086,
 0.00000093,-0.00000104,0.,0.00000055,0.00000057,0.00000052,-0.00000012
 ,0.00000133,-0.00000056,0.00000101,0.00000093,0.00000010,-0.00000197,0
 .00000672,0.00000556,-0.00000484,0.00000245,-0.00000310,-0.00000185,-0
 .00000042,0.00000094,0.00000007,-0.00000172,-0.00000009,-0.00000037,-0
 .00000202,-0.00000124,-0.00000101,-0.00000025,0.00000059,-0.00000038,-
 0.00000166,-0.00000239,-0.00000086,-0.00025647,-0.00004554,0.00006121,
 0.00005408,0.00005126,0.00024091,0.00014244,-0.00033261,-0.00094299,-0
 .00050560,0.00020269,0.00008801,0.00096672,-0.00159600,-0.00333019,0.0
 8526042,-0.04290120,0.05827333,-0.00010724,0.00013662,-0.00001510,0.00
 017327,0.00016048,0.00082963,-0.00027372,-0.00017409,0.00003448,0.0000
 9952,0.00001697,0.00008413,-0.00004608,0.00001878,0.00000322,-0.000003
 17,0.00000014,-0.00000810,-0.00001580,-0.00000479,0.00000758,0.0000092
 0,-0.00000628,-0.00000328,-0.00003401,-0.00000687,0.00001869,0.0005767
 6,0.00008771,0.00006821,-0.00022056,0.00008605,0.00002068,0.00008333,-
 0.00003621,0.00008481,-0.00001336,-0.00003755,-0.00002756,0.00000145,0
 .00001826,0.00000263,-0.00000368,-0.00000764,-0.00000819,-0.00000553,0
 .00000560,-0.00000020,-0.00000190,0.00000141,-0.00000175,0.00000113,0.
 00003023,0.00000825,0.00003709,-0.00002775,0.00003226,-0.00018603,-0.0
 0002294,-0.00008687,-0.00272062,-0.00342713,-0.00845529,0.00191431,0.0
 0087923,0.00050205,0.00535621,-0.00457679,-0.00089814,0.00062473,-0.00
 037017,-0.00059508,0.00011907,-0.00037972,0.00017475,0.00009685,0.0001
 7138,-0.00002355,-0.00012385,-0.00004905,-0.00000831,0.00008523,-0.000
 03342,0.00007924,-0.00017389,0.00012543,0.00002932,-0.16305002,0.13015
 126,-0.00416239,-0.03516773,0.01231331,0.01193895,0.00000455,-0.000097
 79,0.00002424,0.00001113,-0.00000596,0.00006115,0.00000389,0.00008086,
 -0.00003458,0.00001392,-0.00001912,-0.00003472,-0.00000181,0.00000875,
 0.00003980,0.00000734,0.00000360,-0.00000063,-0.00000908,-0.00000705,0
 .00000423,-0.00000714,-0.00000023,0.00000241,-0.00000686,0.00000268,-0
 .00000219,0.00000910,-0.00001085,-0.00000037,-0.00001910,0.00000350,-0
 .00002323,-0.00000445,-0.00002428,-0.00000081,0.00000109,0.00000316,0.
 00000350,-0.00000365,0.00000418,0.00000188,-0.00000662,0.00000312,0.00
 000123,0.00000334,-0.00000455,0.00000187,-0.00001542,0.00000316,-0.000
 00218,-0.00001315,-0.00000133,-0.00001172,0.00138863,-0.00073211,0.000
 25600,0.00000426,-0.00005057,0.00001508,0.00000324,-0.00000995,-0.0000
 1070,0.00000048,0.00000701,-0.00000192,0.00000043,0.00001199,0.0000028
 8,0.00002313,-0.00001221,-0.00004286,0.19025298,-0.00000704,0.00002300
 ,0.00006208,0.00021278,-0.00015698,0.00059754,-0.00007166,-0.00011217,
 0.00002578,0.00001687,0.00003924,0.00002838,0.00000782,-0.00000662,-0.
 00000344,-0.00000211,0.00000337,-0.00000646,-0.00000433,-0.00000116,0.
 00000146,0.00000014,0.00000232,-0.00000487,-0.00001004,-0.00001179,0.0
 0000896,0.00010158,-0.00009891,0.00009755,0.00002095,0.00011713,-0.000
 06422,-0.00000934,0.00001041,0.00000497,0.00000265,-0.00001264,-0.0000
 0935,-0.00002344,0.00001572,-0.00001676,0.00000834,0.00000364,-0.00000
 358,-0.00000051,0.00000513,0.00000062,0.00000291,-0.00000085,-0.000000
 47,0.00000077,0.00000671,0.00000043,0.00000061,-0.00000122,-0.00000080
 ,0.00006387,0.00008319,-0.00000838,-0.00249024,-0.00172924,-0.00344312
 ,0.00214078,-0.00017379,-0.00043251,0.01058868,-0.01185431,0.00258598,
 -0.00077783,-0.00099887,-0.00310640,-0.00001360,-0.00035795,-0.0000342
 1,-0.00001420,0.00037396,-0.00005986,-0.00029309,-0.00019448,-0.000006
 88,0.00003744,-0.00020777,0.00030940,0.00050750,-0.00007239,0.00002932
 ,0.13809208,-0.19608001,0.00518289,-0.01842406,0.01763917,0.00299523,-
 0.00000976,-0.00002604,-0.00001653,-0.00000216,0.00000899,-0.00001235,
 -0.00000976,-0.00001045,-0.00003486,-0.00002568,0.00003041,0.00003196,
 -0.00000439,0.00001027,0.00000238,-0.00000058,0.00000340,0.00000074,0.
 00000142,0.00000135,-0.00000100,0.00000094,0.00000058,0.00000023,-0.00
 000319,0.00000068,0.00000189,-0.00000244,0.00000269,0.00000212,-0.0000
 1651,-0.00000392,-0.00001083,-0.00001814,-0.00000882,0.00001574,-0.000
 00556,0.00000507,0.00000599,0.00000141,-0.00000266,0.00000115,0.000002
 88,-0.00000016,0.00000194,0.00000328,0.00000156,0.00000340,0.00000281,
 0.00000052,0.00000008,0.00000273,0.00000301,0.00000162,-0.00046393,0.0
 0091563,0.00013514,-0.00010409,-0.00001889,0.00003119,0.00002683,-0.00
 002903,0.00000644,-0.00000854,-0.00002339,0.00000050,-0.00002270,-0.00
 005699,0.00003791,-0.00008345,-0.00002030,-0.00014258,-0.13707484,0.19
 985289,-0.00000201,-0.00006520,0.00005761,-0.00002288,-0.00010334,-0.0
 0022028,0.00013721,-0.00000874,-0.00001404,-0.00001111,0.00001801,-0.0
 0003410,0.00001664,-0.00000930,0.00000151,0.00000286,0.00000488,-0.000
 00053,0.00000254,0.00000151,-0.00000170,-0.00000168,0.00000145,0.00000
 190,0.00000354,0.00000168,-0.00000128,-0.00008631,0.00004831,-0.000019
 26,0.00000269,0.00000017,0.00003673,0.00000859,-0.00000233,-0.00002475
 ,0.00000832,-0.00000663,0.00000323,-0.00000656,0.00000460,-0.00000065,
 0.00000130,-0.00000178,-0.00000024,-0.00000103,0.00000111,0.00000007,0
 .00000155,0.00000030,0.00000075,0.00000064,0.00000051,0.00000218,0.000
 00666,0.00000460,0.00000368,0.00000281,-0.00001789,0.00000202,0.000729
 12,0.00024755,-0.00096369,0.00065311,0.00025193,-0.00166658,0.01308370
 ,-0.01764895,0.00280286,-0.00012751,-0.00078635,-0.00280361,-0.0000426
 0,-0.00008597,0.00023919,-0.00000085,-0.00004060,0.00026234,0.00006826
 ,-0.00009145,0.00000549,-0.00012721,0.00007179,0.00008527,0.00013376,-
 0.00041838,0.00033704,-0.00658309,0.00814992,-0.05519330,0.01022408,-0
 .00622108,0.00289561,-0.00001736,0.00003058,-0.00001134,-0.00000172,0.
 00001915,-0.00004512,0.00000878,0.00000148,0.00002411,-0.00000904,0.00
 003155,0.00002400,-0.00000583,0.00000421,-0.00001036,-0.00000105,0.000
 00193,-0.00000277,0.00000249,0.00000070,-0.00000059,0.00000009,0.00000
 024,-0.00000045,0.00000089,-0.00000019,-0.00000032,-0.00000352,0.00000
 068,-0.00000091,0.00001094,0.00000306,0.00001143,-0.00000450,0.0000005
 9,-0.00000287,-0.00000072,0.00000148,0.00000074,0.00000007,0.00000012,
 0.00000008,0.00000008,0.00000026,-0.00000013,0.00000127,0.00000023,-0.
 00000001,-0.00000160,-0.00000225,0.00000146,0.00000161,0.00000026,-0.0
 0000013,0.00033894,0.00038868,0.00148881,0.00013264,-0.00002578,-0.000
 15959,0.00001545,-0.00003738,0.00000705,0.00000988,-0.00000675,-0.0000
 1725,-0.00000222,-0.00004710,0.00001264,-0.00002690,-0.00000777,-0.000
 07614,0.00097121,-0.00393141,0.05053395,0.00000347,0.00015657,-0.00008
 168,-0.00035171,0.00091964,0.00054832,-0.00037051,-0.00005094,0.000010
 74,0.00006283,0.00005124,0.00011280,-0.00002861,0.00001471,0.00000500,
 0.00000358,-0.00000155,-0.00000873,-0.00001433,0.00000200,0.00000269,-
 0.00000560,-0.00000546,-0.00000903,-0.00001958,-0.00001810,0.00000527,
 0.00019336,-0.00037350,0.00034397,0.00003012,0.00013743,-0.00026637,-0
 .00002122,0.00001586,0.00002932,-0.00001219,0.00000200,-0.00001193,0.0
 0000056,-0.00000124,-0.00000911,0.00000148,0.00000231,-0.00000261,0.00
 000130,-0.00000038,-0.00000028,-0.00000088,-0.00000087,-0.00000210,0.0
 0000087,0.00000661,-0.00000180,0.00000637,-0.00002032,0.00000678,-0.00
 002725,0.00013936,-0.00006744,-0.00227472,-0.00639666,-0.00230359,0.00
 042120,0.00076922,-0.00007737,0.00155996,0.00217810,-0.00289828,0.0009
 7563,0.00046909,-0.00000891,0.00019651,-0.00022128,0.00010136,0.000045
 36,0.00004015,-0.00005577,-0.00002274,0.00001063,-0.00001445,-0.000038
 91,-0.00005676,0.00009471,-0.00015915,0.00010114,0.00008919,-0.0509489
 3,0.01832216,-0.03264027,-0.00916363,-0.01654082,0.03752209,-0.0000040
 0,-0.00001611,0.00005268,0.00001228,-0.00000344,0.00000461,0.00004630,
 0.00006552,0.00002415,-0.00000133,0.00001628,-0.00001492,-0.00000141,-
 0.00002082,-0.00000669,0.00000359,0.00000303,-0.00000196,-0.00000483,-
 0.00000284,0.00000196,-0.00000289,0.00000080,0.00000200,-0.00000651,0.
 00000256,0.00000123,0.00000682,0.00000264,0.00000646,-0.00003714,0.000
 00439,-0.00002719,-0.00000299,-0.00000240,0.00001200,-0.00000093,-0.00
 000057,0.00000158,-0.00000003,-0.00000062,0.00000077,-0.00000023,-0.00
 000007,0.00000122,-0.00000063,-0.00000087,0.00000206,0.00000182,0.0000
 0516,-0.00000442,-0.00001098,0.00000278,-0.00000643,0.00020516,-0.0003
 0912,-0.00039015,-0.00014765,0.00002270,0.00010642,-0.00000693,-0.0000
 0057,0.00003528,-0.00000934,-0.00001158,-0.00000504,-0.00000142,-0.000
 01245,-0.00003130,-0.00003642,-0.00000175,-0.00007358,0.00132884,0.008
 14912,-0.01949441,0.05862818,0.00004849,0.00006456,0.00000311,-0.00021
 892,0.00034488,0.00024577,-0.00009383,-0.00004856,-0.00000803,0.000027
 19,0.00005162,0.00004201,0.00000312,-0.00000107,0.00000279,0.00000238,
 0.00000215,-0.00000602,-0.00000281,0.00000170,-0.00000010,-0.00000290,
 -0.00000457,-0.00000156,-0.00000284,0.00000112,-0.00000035,0.00010972,
 0.00005677,0.00002776,-0.00009927,-0.00001854,0.00001725,0.00002123,-0
 .00000456,0.00004806,-0.00001273,0.00000482,-0.00000600,0.00001382,-0.
 00000823,0.00001023,-0.00000544,-0.00000397,0.00000127,-0.00000023,-0.
 00000268,-0.00000086,-0.00000385,0.00000083,-0.00000105,0.00000206,0.0
 0000381,0.00000087,0.00001132,-0.00000426,0.00001639,-0.00007549,-0.00
 003979,-0.00003001,0.00013482,-0.00518467,-0.00393070,0.00202633,-0.00
 033497,-0.00285059,-0.00145315,0.00917780,-0.01832375,-0.00035412,0.00
 115317,-0.00132916,0.00013707,0.00004590,-0.00004020,-0.00001928,-0.00
 012440,0.00020671,0.00010935,0.00003136,-0.00007650,-0.00000798,0.0000
 3521,0.00000678,-0.00021173,0.00006108,-0.00010009,0.01441636,-0.09427
 863,0.10109120,-0.00952969,-0.00279048,0.01495013,-0.00000954,0.000017
 94,0.00002045,0.00001047,-0.00000655,-0.00002905,0.00003577,0.00004152
 ,0.00002412,-0.00002195,0.00005075,-0.00000491,-0.00000648,-0.00002641
 ,0.00001386,0.00000075,0.00000155,-0.00000098,-0.00000002,-0.00000135,
 0.00000072,-0.00000152,0.00000038,0.00000098,0.00000022,0.00000066,-0.
 00000082,-0.00000002,0.00000024,0.00000029,-0.00000434,0.00000969,-0.0
 0001348,0.00000879,0.00000203,-0.00001309,0.00000301,-0.00000273,-0.00
 000345,-0.00000118,0.00000156,-0.00000039,-0.00000266,0.00000061,-0.00
 000014,-0.00000295,-0.00000219,-0.00000123,-0.00000425,0.00000040,-0.0
 0000377,-0.00001160,-0.00000415,-0.00000385,-0.00054614,-0.00132088,-0
 .00206088,0.00013872,-0.00004322,-0.00006042,-0.00000418,0.00000370,-0
 .00005316,0.00000773,0.00002046,0.00000136,0.00000547,0.00003385,0.000
 03020,0.00010266,0.00000417,0.00000114,0.00287637,-0.00688821,0.020273
 06,-0.00754210,0.09991879,0.00007940,-0.00004157,0.00001444,-0.0001463
 5,-0.00000923,-0.00011002,0.00017667,-0.00000785,-0.00002590,-0.000064
 59,0.00002099,-0.00001421,0.00003952,-0.00001005,-0.00000954,-0.000003
 08,-0.00000164,0.00000189,0.00001409,0.00000064,-0.00000320,0.00000103
 ,-0.00000067,0.00000481,0.00003035,0.00001668,-0.00001374,-0.00020045,
 0.00025469,-0.00019526,0.00003715,-0.00015459,0.00018312,-0.00000549,0
 .00000605,-0.00004618,0.00000611,0.00001735,0.00002053,0.00001057,-0.0
 0001639,0.00001542,-0.00000405,-0.00000094,0.00000830,0.00000141,-0.00
 000470,0.00000068,-0.00000152,0.00000010,0.00000229,-0.00000107,-0.000
 01712,-0.00000123,-0.00001608,0.00002399,-0.00002050,0.00003791,-0.000
 14785,0.00007370,-0.00056926,0.00020586,-0.00004054,0.00100530,-0.0001
 7428,-0.00185568,-0.00349023,0.00657032,-0.01376931,0.00028743,0.00226
 644,0.00066217,0.00001366,-0.00000061,0.00056729,0.00005936,-0.0003952
 4,0.00018773,0.00029690,0.00008458,-0.00000283,-0.00020208,0.00019449,
 -0.00020468,-0.00033246,-0.00051614,0.00054904,-0.02253288,0.10055102,
 -0.27483400,0.00646152,0.00190389,-0.00155164,0.00001123,0.00004191,-0
 .00002261,-0.00000828,-0.00002164,0.00001201,-0.00003722,-0.00004401,-
 0.00000828,-0.00003958,0.00005401,0.00001831,-0.00001018,-0.00002052,0
 .00003821,-0.00000424,-0.00000704,0.00000746,0.00000621,0.00000399,-0.
 00000261,0.00000554,-0.00000044,-0.00000170,0.00000959,-0.00000377,-0.
 00000140,-0.00001010,0.00000382,-0.00000541,0.00002996,-0.00000012,0.0
 0002876,0.00001339,0.00001846,-0.00002039,0.00000320,-0.00000278,-0.00
 000702,0.00000109,0.00000015,-0.00000251,0.00000141,-0.00000068,-0.000
 00239,-0.00000281,0.00000148,-0.00000438,0.00000203,-0.00000502,0.0000
 0228,0.00000777,-0.00000232,0.00000652,0.00018615,-0.00173836,-0.00179
 435,0.00021848,0.00005015,-0.00019018,-0.00001420,-0.00001772,0.000000
 13,0.00001418,0.00001131,-0.00001430,0.00001594,-0.00001756,-0.0000146
 0,0.00006516,0.00002054,-0.00004715,-0.00084464,-0.00086013,0.00243023
 ,0.01939113,-0.10808192,0.29000241\\-0.00000074,-0.00000111,-0.0000002
 8,0.00000454,0.00000332,0.00000689,0.00000472,-0.00000496,-0.00000349,
 -0.00000636,0.00000943,-0.00000442,0.00000026,-0.00000185,0.00000319,0
 .00000177,-0.00000044,-0.00000076,0.00000130,0.00000122,-0.00000174,-0
 .00000184,-0.00000207,0.00000168,0.00000291,-0.00000425,0.00000038,-0.
 00001214,-0.00001030,-0.00000123,-0.00000317,0.00000151,-0.00000144,0.
 00000340,0.00000268,0.00000586,-0.00000447,-0.00000059,-0.00000297,0.0
 0000046,0.00000192,-0.00000115,0.00000132,-0.00000143,-0.00000040,-0.0
 0000031,-0.00000079,-0.00000071,0.00000119,0.00000128,0.00000060,0.000
 00372,-0.00000027,0.00000177,0.00000265,-0.00000371,0.00000016,0.00000
 725,0.00001081,-0.00000220,-0.00000315,-0.00000197,-0.00000324,0.00000
 754,0.00000234,-0.00000593,-0.00000854,-0.00000250,0.00001462,-0.00000
 276,0.00000280,-0.00000297,0.00000295,0.00000050,0.00000081,0.00000144
 ,0.00000060,0.00000016,-0.00000111,-0.00000132,0.00000041,0.00000014,-
 0.00000201,0.00000035,-0.00000011,0.00000091,-0.00000123,-0.00000358,-
 0.00000599,-0.00000480,0.00000317,0.00000233,0.00000304,0.00000036,0.0
 0000036,0.00000072,-0.00000002,-0.00000054,0.00000015,-0.00000033,-0.0
 0000009,-0.00000109,0.00000009,0.00000070,0.00000059,-0.00000100,-0.00
 000116,0.00000030,-0.00000028,0.00000027,-0.00000018,0.00000001,0.0000
 0016,-0.00000001,-0.00000006,0.00000068,0.00000019,0.00000014,-0.00000
 010,-0.00000011,0.00000055,0.00000007,0.00000030,-0.00000137,0.0000001
 6,-0.00000222,-0.00000076,-0.00000014,0.00000137,0.00000005,0.00000013
 ,-0.00000015,0.00000009,0.00000015,0.00000004,0.00000009,0.00000036,0.
 00000028,-0.00000084,0.00000025,0.00000072,-0.00000092,-0.00000083,0.0
 0000053,0.,0.00000205,-0.00000177,0.00000139,0.00000100,-0.00000076,-0
 .00000003,-0.00000063,0.00000001,0.00000012,-0.00000008,-0.00000002,0.
 00000031,-0.00000014,0.,0.00000002,-0.00000003,0.00000021,0.00000018,-
 0.00000032,0.00000032,-0.00000071,-0.00000033,-0.00000078,0.00000047,0
 .00000198,0.00000037\\\@
 The archive entry for this job was punched.


 ADVERTISING--  HE WHO HAS SOMETHING TO SELL AND GOES AND WHISPERS
                IN A WELL, IS NOT SO APT TO GET THE DOLLARS AS HE
                WHO CLIMBS A TREE AND HOLLERS.

                   -- FROM THE BACK OF A SUGAR PACKET
 Job cpu time:       0 days  5 hours 25 minutes 58.4 seconds.
 Elapsed time:       0 days  0 hours  8 minutes 13.4 seconds.
 File lengths (MBytes):  RWF=   1581 Int=      0 D2E=      0 Chk=     22 Scr=      1
 Normal termination of Gaussian 16 at Sun Feb 25 12:47:37 2024.
