 Entering Gaussian System, Link 0=g16
 Initial command:
 /public/apps/g16-C01//g16/l1.exe "/public/home/ljq/tmp/Gau-110051.inp" -scrdir="/public/home/ljq/tmp/"
 Entering Link 1 = /public/apps/g16-C01//g16/l1.exe PID=    110052.
  
 Copyright (c) 1988-2019, Gaussian, Inc.  All Rights Reserved.
  
 This is part of the Gaussian(R) 16 program.  It is based on
 the Gaussian(R) 09 system (copyright 2009, Gaussian, Inc.),
 the Gaussian(R) 03 system (copyright 2003, Gaussian, Inc.),
 the Gaussian(R) 98 system (copyright 1998, Gaussian, Inc.),
 the Gaussian(R) 94 system (copyright 1995, Gaussian, Inc.),
 the Gaussian 92(TM) system (copyright 1992, Gaussian, Inc.),
 the Gaussian 90(TM) system (copyright 1990, Gaussian, Inc.),
 the Gaussian 88(TM) system (copyright 1988, Gaussian, Inc.),
 the Gaussian 86(TM) system (copyright 1986, Carnegie Mellon
 University), and the Gaussian 82(TM) system (copyright 1983,
 Carnegie Mellon University). Gaussian is a federally registered
 trademark of Gaussian, Inc.
  
 This software contains proprietary and confidential information,
 including trade secrets, belonging to Gaussian, Inc.
  
 This software is provided under written license and may be
 used, copied, transmitted, or stored only in accord with that
 written license.
  
 The following legend is applicable only to US Government
 contracts under FAR:
  
                    RESTRICTED RIGHTS LEGEND
  
 Use, reproduction and disclosure by the US Government is
 subject to restrictions as set forth in subparagraphs (a)
 and (c) of the Commercial Computer Software - Restricted
 Rights clause in FAR 52.227-19.
  
 Gaussian, Inc.
 340 Quinnipiac St., Bldg. 40, Wallingford CT 06492
  
  
 ---------------------------------------------------------------
 Warning -- This program may not be used in any manner that
 competes with the business of Gaussian, Inc. or will provide
 assistance to any competitor of Gaussian, Inc.  The licensee
 of this program is prohibited from giving any competitor of
 Gaussian, Inc. access to this program.  By using this program,
 the user acknowledges that Gaussian, Inc. is engaged in the
 business of creating and licensing software in the field of
 computational chemistry and represents and warrants to the
 licensee that it is not a competitor of Gaussian, Inc. and that
 it will not use this program in any manner prohibited above.
 ---------------------------------------------------------------
  

 Cite this work as:
 Gaussian 16, Revision C.01,
 M. J. Frisch, G. W. Trucks, H. B. Schlegel, G. E. Scuseria, 
 M. A. Robb, J. R. Cheeseman, G. Scalmani, V. Barone, 
 G. A. Petersson, H. Nakatsuji, X. Li, M. Caricato, A. V. Marenich, 
 J. Bloino, B. G. Janesko, R. Gomperts, B. Mennucci, H. P. Hratchian, 
 J. V. Ortiz, A. F. Izmaylov, J. L. Sonnenberg, D. Williams-Young, 
 F. Ding, F. Lipparini, F. Egidi, J. Goings, B. Peng, A. Petrone, 
 T. Henderson, D. Ranasinghe, V. G. Zakrzewski, J. Gao, N. Rega, 
 G. Zheng, W. Liang, M. Hada, M. Ehara, K. Toyota, R. Fukuda, 
 J. Hasegawa, M. Ishida, T. Nakajima, Y. Honda, O. Kitao, H. Nakai, 
 T. Vreven, K. Throssell, J. A. Montgomery, Jr., J. E. Peralta, 
 F. Ogliaro, M. J. Bearpark, J. J. Heyd, E. N. Brothers, K. N. Kudin, 
 V. N. Staroverov, T. A. Keith, R. Kobayashi, J. Normand, 
 K. Raghavachari, A. P. Rendell, J. C. Burant, S. S. Iyengar, 
 J. Tomasi, M. Cossi, J. M. Millam, M. Klene, C. Adamo, R. Cammi, 
 J. W. Ochterski, R. L. Martin, K. Morokuma, O. Farkas, 
 J. B. Foresman, and D. J. Fox, Gaussian, Inc., Wallingford CT, 2019.
 
 ******************************************
 Gaussian 16:  ES64L-G16RevC.01  3-Jul-2019
                25-Feb-2024 
 ******************************************
 %nproc=40
 Will use up to   40 processors via shared memory.
 %mem=56GB
 ------------------------------------------
 #p opt freq b3lyp/def2svpp em=gd3bj nosymm
 ------------------------------------------
 1/18=20,19=15,26=3,38=1/1,3;
 2/9=110,12=2,15=1,17=6,18=5,40=1/2;
 3/5=43,7=202,11=2,25=1,30=1,71=1,74=-5,124=41/1,2,3;
 4//1;
 5/5=2,38=5/2;
 6/7=2,8=2,9=2,10=2,28=1/1;
 7/30=1/1,2,3,16;
 1/18=20,19=15,26=3/3(2);
 2/9=110,15=1/2;
 99//99;
 2/9=110,15=1/2;
 3/5=43,7=202,11=2,25=1,30=1,71=1,74=-5,124=41/1,2,3;
 4/5=5,16=3,69=1/1;
 5/5=2,38=5/2;
 7/30=1/1,2,3,16;
 1/18=20,19=15,26=3/3(-5);
 2/9=110,15=1/2;
 6/7=2,8=2,9=2,10=2,19=2,28=1/1;
 99/9=1/99;
 Leave Link    1 at Sun Feb 25 12:03:08 2024, MaxMem=  7516192768 cpu:               2.2 elap:               0.1
 (Enter /public/apps/g16-C01//g16/l101.exe)
 ----------------------
 $$$$Singlemol####0????
 ----------------------
 Symbolic Z-matrix:
 Charge =  0 Multiplicity = 1
 C                    -0.20344   3.26725  -0.11176 
 C                     0.41263   1.95434  -0.59727 
 C                     1.13363   2.11964  -1.95346 
 C                     0.15369   2.42216  -3.05035 
 C                    -0.16381   3.73208  -3.38608 
 C                    -1.10532   4.00272  -4.36378 
 C                    -1.74332   2.9646   -5.01969 
 C                    -1.42368   1.65521  -4.70252 
 C                    -0.47914   1.38694  -3.72833 
 C                     1.35902   1.43404   0.44817 
 N                     0.98829   1.05601   1.59495 
 C                     2.13836   0.50262   2.28083 
 C                     1.94291  -0.97841   2.49954 
 C                     1.64747  -1.80046   1.41833 
 C                     1.48367  -3.16075   1.60271 
 C                     1.60737  -3.71199   2.86633 
 C                     1.89264  -2.89637   3.94726 
 C                     2.06007  -1.53453   3.76467 
 C                     3.3109    0.80428   1.30167 
 O                     2.67403   1.34795   0.15156 
 C                    -0.6396    0.89031  -0.7297 
 N                    -0.3775   -0.33779  -0.87235 
 C                    -1.62851  -1.06825  -0.8559 
 C                    -1.69776  -1.9416    0.37355 
 C                    -1.99675  -3.29223   0.27256 
 C                    -2.06808  -4.07895   1.40908 
 C                    -1.84066  -3.52097   2.6549 
 C                    -1.53788  -2.17444   2.76054 
 C                    -1.46446  -1.38705   1.62652 
 C                    -2.69605   0.06477  -0.83808 
 O                    -1.93614   1.25708  -0.68876 
 H                    -0.96457   3.60246  -0.81104 
 H                    -0.66081   3.11647   0.86242 
 H                     0.5687    4.02869  -0.02465 
 H                     1.86898   2.92023  -1.85916 
 H                     1.65885   1.18851  -2.17065 
 H                     0.33421   4.54848  -2.88246 
 H                    -1.34215   5.02694  -4.61325 
 H                    -2.48179   3.17456  -5.77946 
 H                    -1.91054   0.84029  -5.21908 
 H                    -0.22608   0.36452  -3.48744 
 H                     2.26447   1.00852   3.243 
 H                     1.51711  -1.37045   0.4359 
 H                     1.24815  -3.78977   0.7575 
 H                     1.4761   -4.77451   3.00935 
 H                     1.98468  -3.32044   4.93677 
 H                     2.28231  -0.9001    4.61129 
 H                     3.85301  -0.09944   1.01372 
 H                     4.01301   1.54394   1.69732 
 H                    -1.7012   -1.68616  -1.75634 
 H                    -2.17325  -3.73135  -0.69946 
 H                    -2.30003  -5.13049   1.32022 
 H                    -1.89413  -4.13575   3.54136 
 H                    -1.34739  -1.73578   3.72844 
 H                    -1.19786  -0.34353   1.71142 
 H                    -3.26261   0.1263   -1.77192 
 H                    -3.38397  -0.02633   0.00571 
 
 ITRead=  0  0  0  0  0  0  0  0  0  0  0  0  0  0  0  0  0  0  0  0
 ITRead=  0  0  0  0  0  0  0  0  0  0  0  0  0  0  0  0  0  0  0  0
 ITRead=  0  0  0  0  0  0  0  0  0  0  0  0  0  0  0  0  0
 MicOpt= -1 -1 -1 -1 -1 -1 -1 -1 -1 -1 -1 -1 -1 -1 -1 -1 -1 -1 -1 -1
 MicOpt= -1 -1 -1 -1 -1 -1 -1 -1 -1 -1 -1 -1 -1 -1 -1 -1 -1 -1 -1 -1
 MicOpt= -1 -1 -1 -1 -1 -1 -1 -1 -1 -1 -1 -1 -1 -1 -1 -1 -1
 NAtoms=     57 NQM=       57 NQMF=       0 NMMI=      0 NMMIF=      0
                NMic=       0 NMicF=      0.
                    Isotopes and Nuclear Properties:
 (Nuclear quadrupole moments (NQMom) in fm**2, nuclear magnetic moments (NMagM)
  in nuclear magnetons)

  Atom         1           2           3           4           5           6           7           8           9          10
 IAtWgt=          12          12          12          12          12          12          12          12          12          12
 AtmWgt=  12.0000000  12.0000000  12.0000000  12.0000000  12.0000000  12.0000000  12.0000000  12.0000000  12.0000000  12.0000000
 NucSpn=           0           0           0           0           0           0           0           0           0           0
 AtZEff=  -0.0000000  -0.0000000  -0.0000000  -0.0000000  -0.0000000  -0.0000000  -0.0000000  -0.0000000  -0.0000000  -0.0000000
 NQMom=    0.0000000   0.0000000   0.0000000   0.0000000   0.0000000   0.0000000   0.0000000   0.0000000   0.0000000   0.0000000
 NMagM=    0.0000000   0.0000000   0.0000000   0.0000000   0.0000000   0.0000000   0.0000000   0.0000000   0.0000000   0.0000000
 AtZNuc=   6.0000000   6.0000000   6.0000000   6.0000000   6.0000000   6.0000000   6.0000000   6.0000000   6.0000000   6.0000000

  Atom        11          12          13          14          15          16          17          18          19          20
 IAtWgt=          14          12          12          12          12          12          12          12          12          16
 AtmWgt=  14.0030740  12.0000000  12.0000000  12.0000000  12.0000000  12.0000000  12.0000000  12.0000000  12.0000000  15.9949146
 NucSpn=           2           0           0           0           0           0           0           0           0           0
 AtZEff=  -0.0000000  -0.0000000  -0.0000000  -0.0000000  -0.0000000  -0.0000000  -0.0000000  -0.0000000  -0.0000000  -0.0000000
 NQMom=    2.0440000   0.0000000   0.0000000   0.0000000   0.0000000   0.0000000   0.0000000   0.0000000   0.0000000   0.0000000
 NMagM=    0.4037610   0.0000000   0.0000000   0.0000000   0.0000000   0.0000000   0.0000000   0.0000000   0.0000000   0.0000000
 AtZNuc=   7.0000000   6.0000000   6.0000000   6.0000000   6.0000000   6.0000000   6.0000000   6.0000000   6.0000000   8.0000000

  Atom        21          22          23          24          25          26          27          28          29          30
 IAtWgt=          12          14          12          12          12          12          12          12          12          12
 AtmWgt=  12.0000000  14.0030740  12.0000000  12.0000000  12.0000000  12.0000000  12.0000000  12.0000000  12.0000000  12.0000000
 NucSpn=           0           2           0           0           0           0           0           0           0           0
 AtZEff=  -0.0000000  -0.0000000  -0.0000000  -0.0000000  -0.0000000  -0.0000000  -0.0000000  -0.0000000  -0.0000000  -0.0000000
 NQMom=    0.0000000   2.0440000   0.0000000   0.0000000   0.0000000   0.0000000   0.0000000   0.0000000   0.0000000   0.0000000
 NMagM=    0.0000000   0.4037610   0.0000000   0.0000000   0.0000000   0.0000000   0.0000000   0.0000000   0.0000000   0.0000000
 AtZNuc=   6.0000000   7.0000000   6.0000000   6.0000000   6.0000000   6.0000000   6.0000000   6.0000000   6.0000000   6.0000000

  Atom        31          32          33          34          35          36          37          38          39          40
 IAtWgt=          16           1           1           1           1           1           1           1           1           1
 AtmWgt=  15.9949146   1.0078250   1.0078250   1.0078250   1.0078250   1.0078250   1.0078250   1.0078250   1.0078250   1.0078250
 NucSpn=           0           1           1           1           1           1           1           1           1           1
 AtZEff=  -0.0000000  -0.0000000  -0.0000000  -0.0000000  -0.0000000  -0.0000000  -0.0000000  -0.0000000  -0.0000000  -0.0000000
 NQMom=    0.0000000   0.0000000   0.0000000   0.0000000   0.0000000   0.0000000   0.0000000   0.0000000   0.0000000   0.0000000
 NMagM=    0.0000000   2.7928460   2.7928460   2.7928460   2.7928460   2.7928460   2.7928460   2.7928460   2.7928460   2.7928460
 AtZNuc=   8.0000000   1.0000000   1.0000000   1.0000000   1.0000000   1.0000000   1.0000000   1.0000000   1.0000000   1.0000000

  Atom        41          42          43          44          45          46          47          48          49          50
 IAtWgt=           1           1           1           1           1           1           1           1           1           1
 AtmWgt=   1.0078250   1.0078250   1.0078250   1.0078250   1.0078250   1.0078250   1.0078250   1.0078250   1.0078250   1.0078250
 NucSpn=           1           1           1           1           1           1           1           1           1           1
 AtZEff=  -0.0000000  -0.0000000  -0.0000000  -0.0000000  -0.0000000  -0.0000000  -0.0000000  -0.0000000  -0.0000000  -0.0000000
 NQMom=    0.0000000   0.0000000   0.0000000   0.0000000   0.0000000   0.0000000   0.0000000   0.0000000   0.0000000   0.0000000
 NMagM=    2.7928460   2.7928460   2.7928460   2.7928460   2.7928460   2.7928460   2.7928460   2.7928460   2.7928460   2.7928460
 AtZNuc=   1.0000000   1.0000000   1.0000000   1.0000000   1.0000000   1.0000000   1.0000000   1.0000000   1.0000000   1.0000000

  Atom        51          52          53          54          55          56          57
 IAtWgt=           1           1           1           1           1           1           1
 AtmWgt=   1.0078250   1.0078250   1.0078250   1.0078250   1.0078250   1.0078250   1.0078250
 NucSpn=           1           1           1           1           1           1           1
 AtZEff=  -0.0000000  -0.0000000  -0.0000000  -0.0000000  -0.0000000  -0.0000000  -0.0000000
 NQMom=    0.0000000   0.0000000   0.0000000   0.0000000   0.0000000   0.0000000   0.0000000
 NMagM=    2.7928460   2.7928460   2.7928460   2.7928460   2.7928460   2.7928460   2.7928460
 AtZNuc=   1.0000000   1.0000000   1.0000000   1.0000000   1.0000000   1.0000000   1.0000000
 Leave Link  101 at Sun Feb 25 12:03:09 2024, MaxMem=  7516192768 cpu:               8.3 elap:               0.3
 (Enter /public/apps/g16-C01//g16/l103.exe)

 GradGradGradGradGradGradGradGradGradGradGradGradGradGradGradGradGradGrad
 Berny optimization.
 Initialization pass.
                           ----------------------------
                           !    Initial Parameters    !
                           ! (Angstroms and Degrees)  !
 --------------------------                            --------------------------
 ! Name  Definition              Value          Derivative Info.                !
 --------------------------------------------------------------------------------
 ! R1    R(1,2)                  1.5294         estimate D2E/DX2                !
 ! R2    R(1,32)                 1.0866         estimate D2E/DX2                !
 ! R3    R(1,33)                 1.0867         estimate D2E/DX2                !
 ! R4    R(1,34)                 1.0879         estimate D2E/DX2                !
 ! R5    R(2,3)                  1.5448         estimate D2E/DX2                !
 ! R6    R(2,10)                 1.5031         estimate D2E/DX2                !
 ! R7    R(2,21)                 1.5023         estimate D2E/DX2                !
 ! R8    R(3,4)                  1.5017         estimate D2E/DX2                !
 ! R9    R(3,35)                 1.0911         estimate D2E/DX2                !
 ! R10   R(3,36)                 1.0909         estimate D2E/DX2                !
 ! R11   R(4,5)                  1.389          estimate D2E/DX2                !
 ! R12   R(4,9)                  1.3899         estimate D2E/DX2                !
 ! R13   R(5,6)                  1.384          estimate D2E/DX2                !
 ! R14   R(5,37)                 1.0808         estimate D2E/DX2                !
 ! R15   R(6,7)                  1.3838         estimate D2E/DX2                !
 ! R16   R(6,38)                 1.0804         estimate D2E/DX2                !
 ! R17   R(7,8)                  1.3847         estimate D2E/DX2                !
 ! R18   R(7,39)                 1.0801         estimate D2E/DX2                !
 ! R19   R(8,9)                  1.3832         estimate D2E/DX2                !
 ! R20   R(8,40)                 1.0807         estimate D2E/DX2                !
 ! R21   R(9,41)                 1.0805         estimate D2E/DX2                !
 ! R22   R(10,11)                1.2631         estimate D2E/DX2                !
 ! R23   R(10,20)                1.3508         estimate D2E/DX2                !
 ! R24   R(11,12)                1.4489         estimate D2E/DX2                !
 ! R25   R(12,13)                1.5098         estimate D2E/DX2                !
 ! R26   R(12,19)                1.5571         estimate D2E/DX2                !
 ! R27   R(12,42)                1.0944         estimate D2E/DX2                !
 ! R28   R(13,14)                1.39           estimate D2E/DX2                !
 ! R29   R(13,18)                1.3869         estimate D2E/DX2                !
 ! R30   R(14,15)                1.3825         estimate D2E/DX2                !
 ! R31   R(14,43)                1.0803         estimate D2E/DX2                !
 ! R32   R(15,16)                1.3842         estimate D2E/DX2                !
 ! R33   R(15,44)                1.0796         estimate D2E/DX2                !
 ! R34   R(16,17)                1.3838         estimate D2E/DX2                !
 ! R35   R(16,45)                1.0801         estimate D2E/DX2                !
 ! R36   R(17,18)                1.3842         estimate D2E/DX2                !
 ! R37   R(17,46)                1.0805         estimate D2E/DX2                !
 ! R38   R(18,47)                1.081          estimate D2E/DX2                !
 ! R39   R(19,20)                1.4226         estimate D2E/DX2                !
 ! R40   R(19,48)                1.0925         estimate D2E/DX2                !
 ! R41   R(19,49)                1.0939         estimate D2E/DX2                !
 ! R42   R(21,22)                1.2638         estimate D2E/DX2                !
 ! R43   R(21,31)                1.348          estimate D2E/DX2                !
 ! R44   R(22,23)                1.4487         estimate D2E/DX2                !
 ! R45   R(23,24)                1.5097         estimate D2E/DX2                !
 ! R46   R(23,30)                1.5568         estimate D2E/DX2                !
 ! R47   R(23,50)                1.0945         estimate D2E/DX2                !
 ! R48   R(24,25)                1.387          estimate D2E/DX2                !
 ! R49   R(24,29)                1.3899         estimate D2E/DX2                !
 ! R50   R(25,26)                1.3841         estimate D2E/DX2                !
 ! R51   R(25,51)                1.0811         estimate D2E/DX2                !
 ! R52   R(26,27)                1.3839         estimate D2E/DX2                !
 ! R53   R(26,52)                1.0805         estimate D2E/DX2                !
 ! R54   R(27,28)                1.3842         estimate D2E/DX2                !
 ! R55   R(27,53)                1.0801         estimate D2E/DX2                !
 ! R56   R(28,29)                1.3825         estimate D2E/DX2                !
 ! R57   R(28,54)                1.0796         estimate D2E/DX2                !
 ! R58   R(29,55)                1.0804         estimate D2E/DX2                !
 ! R59   R(30,31)                1.4217         estimate D2E/DX2                !
 ! R60   R(30,56)                1.094          estimate D2E/DX2                !
 ! R61   R(30,57)                1.0925         estimate D2E/DX2                !
 ! A1    A(2,1,32)             110.0418         estimate D2E/DX2                !
 ! A2    A(2,1,33)             109.5735         estimate D2E/DX2                !
 ! A3    A(2,1,34)             109.8985         estimate D2E/DX2                !
 ! A4    A(32,1,33)            108.9596         estimate D2E/DX2                !
 ! A5    A(32,1,34)            109.4366         estimate D2E/DX2                !
 ! A6    A(33,1,34)            108.9073         estimate D2E/DX2                !
 ! A7    A(1,2,3)              112.0148         estimate D2E/DX2                !
 ! A8    A(1,2,10)             109.2677         estimate D2E/DX2                !
 ! A9    A(1,2,21)             110.7233         estimate D2E/DX2                !
 ! A10   A(3,2,10)             110.719          estimate D2E/DX2                !
 ! A11   A(3,2,21)             108.984          estimate D2E/DX2                !
 ! A12   A(10,2,21)            104.9007         estimate D2E/DX2                !
 ! A13   A(2,3,4)              110.9928         estimate D2E/DX2                !
 ! A14   A(2,3,35)             108.4922         estimate D2E/DX2                !
 ! A15   A(2,3,36)             107.9481         estimate D2E/DX2                !
 ! A16   A(4,3,35)             110.8003         estimate D2E/DX2                !
 ! A17   A(4,3,36)             109.9206         estimate D2E/DX2                !
 ! A18   A(35,3,36)            108.603          estimate D2E/DX2                !
 ! A19   A(3,4,5)              121.0439         estimate D2E/DX2                !
 ! A20   A(3,4,9)              120.224          estimate D2E/DX2                !
 ! A21   A(5,4,9)              118.7134         estimate D2E/DX2                !
 ! A22   A(4,5,6)              120.706          estimate D2E/DX2                !
 ! A23   A(4,5,37)             119.6294         estimate D2E/DX2                !
 ! A24   A(6,5,37)             119.6636         estimate D2E/DX2                !
 ! A25   A(5,6,7)              120.1167         estimate D2E/DX2                !
 ! A26   A(5,6,38)             119.8404         estimate D2E/DX2                !
 ! A27   A(7,6,38)             120.0428         estimate D2E/DX2                !
 ! A28   A(6,7,8)              119.6307         estimate D2E/DX2                !
 ! A29   A(6,7,39)             120.1851         estimate D2E/DX2                !
 ! A30   A(8,7,39)             120.183          estimate D2E/DX2                !
 ! A31   A(7,8,9)              120.1576         estimate D2E/DX2                !
 ! A32   A(7,8,40)             119.9724         estimate D2E/DX2                !
 ! A33   A(9,8,40)             119.8697         estimate D2E/DX2                !
 ! A34   A(4,9,8)              120.6649         estimate D2E/DX2                !
 ! A35   A(4,9,41)             119.3022         estimate D2E/DX2                !
 ! A36   A(8,9,41)             120.033          estimate D2E/DX2                !
 ! A37   A(2,10,11)            123.3857         estimate D2E/DX2                !
 ! A38   A(2,10,20)            118.8346         estimate D2E/DX2                !
 ! A39   A(11,10,20)           117.7755         estimate D2E/DX2                !
 ! A40   A(10,11,12)           108.1266         estimate D2E/DX2                !
 ! A41   A(11,12,13)           109.9059         estimate D2E/DX2                !
 ! A42   A(11,12,19)           103.0643         estimate D2E/DX2                !
 ! A43   A(11,12,42)           109.3356         estimate D2E/DX2                !
 ! A44   A(13,12,19)           112.2483         estimate D2E/DX2                !
 ! A45   A(13,12,42)           109.9395         estimate D2E/DX2                !
 ! A46   A(19,12,42)           112.1197         estimate D2E/DX2                !
 ! A47   A(12,13,14)           119.6679         estimate D2E/DX2                !
 ! A48   A(12,13,18)           120.9667         estimate D2E/DX2                !
 ! A49   A(14,13,18)           119.3647         estimate D2E/DX2                !
 ! A50   A(13,14,15)           120.2225         estimate D2E/DX2                !
 ! A51   A(13,14,43)           119.8429         estimate D2E/DX2                !
 ! A52   A(15,14,43)           119.9105         estimate D2E/DX2                !
 ! A53   A(14,15,16)           120.2006         estimate D2E/DX2                !
 ! A54   A(14,15,44)           119.6516         estimate D2E/DX2                !
 ! A55   A(16,15,44)           120.1446         estimate D2E/DX2                !
 ! A56   A(15,16,17)           119.787          estimate D2E/DX2                !
 ! A57   A(15,16,45)           120.1176         estimate D2E/DX2                !
 ! A58   A(17,16,45)           120.0944         estimate D2E/DX2                !
 ! A59   A(16,17,18)           120.1174         estimate D2E/DX2                !
 ! A60   A(16,17,46)           120.104          estimate D2E/DX2                !
 ! A61   A(18,17,46)           119.7786         estimate D2E/DX2                !
 ! A62   A(13,18,17)           120.3054         estimate D2E/DX2                !
 ! A63   A(13,18,47)           119.7642         estimate D2E/DX2                !
 ! A64   A(17,18,47)           119.9304         estimate D2E/DX2                !
 ! A65   A(12,19,20)           104.1994         estimate D2E/DX2                !
 ! A66   A(12,19,48)           112.2805         estimate D2E/DX2                !
 ! A67   A(12,19,49)           112.7605         estimate D2E/DX2                !
 ! A68   A(20,19,48)           108.9764         estimate D2E/DX2                !
 ! A69   A(20,19,49)           108.7437         estimate D2E/DX2                !
 ! A70   A(48,19,49)           109.6448         estimate D2E/DX2                !
 ! A71   A(10,20,19)           106.4184         estimate D2E/DX2                !
 ! A72   A(2,21,22)            123.5687         estimate D2E/DX2                !
 ! A73   A(2,21,31)            118.5731         estimate D2E/DX2                !
 ! A74   A(22,21,31)           117.8574         estimate D2E/DX2                !
 ! A75   A(21,22,23)           108.0344         estimate D2E/DX2                !
 ! A76   A(22,23,24)           109.91           estimate D2E/DX2                !
 ! A77   A(22,23,30)           103.0208         estimate D2E/DX2                !
 ! A78   A(22,23,50)           109.4306         estimate D2E/DX2                !
 ! A79   A(24,23,30)           112.3492         estimate D2E/DX2                !
 ! A80   A(24,23,50)           109.8984         estimate D2E/DX2                !
 ! A81   A(30,23,50)           112.0089         estimate D2E/DX2                !
 ! A82   A(23,24,25)           120.9256         estimate D2E/DX2                !
 ! A83   A(23,24,29)           119.7117         estimate D2E/DX2                !
 ! A84   A(25,24,29)           119.3622         estimate D2E/DX2                !
 ! A85   A(24,25,26)           120.3191         estimate D2E/DX2                !
 ! A86   A(24,25,51)           119.7477         estimate D2E/DX2                !
 ! A87   A(26,25,51)           119.9331         estimate D2E/DX2                !
 ! A88   A(25,26,27)           120.104          estimate D2E/DX2                !
 ! A89   A(25,26,52)           119.7828         estimate D2E/DX2                !
 ! A90   A(27,26,52)           120.1131         estimate D2E/DX2                !
 ! A91   A(26,27,28)           119.7934         estimate D2E/DX2                !
 ! A92   A(26,27,53)           120.0804         estimate D2E/DX2                !
 ! A93   A(28,27,53)           120.1254         estimate D2E/DX2                !
 ! A94   A(27,28,29)           120.2023         estimate D2E/DX2                !
 ! A95   A(27,28,54)           120.1506         estimate D2E/DX2                !
 ! A96   A(29,28,54)           119.6439         estimate D2E/DX2                !
 ! A97   A(24,29,28)           120.2179         estimate D2E/DX2                !
 ! A98   A(24,29,55)           119.843          estimate D2E/DX2                !
 ! A99   A(28,29,55)           119.9171         estimate D2E/DX2                !
 ! A100  A(23,30,31)           104.1834         estimate D2E/DX2                !
 ! A101  A(23,30,56)           112.7233         estimate D2E/DX2                !
 ! A102  A(23,30,57)           112.3296         estimate D2E/DX2                !
 ! A103  A(31,30,56)           108.6196         estimate D2E/DX2                !
 ! A104  A(31,30,57)           108.9882         estimate D2E/DX2                !
 ! A105  A(56,30,57)           109.748          estimate D2E/DX2                !
 ! A106  A(21,31,30)           106.422          estimate D2E/DX2                !
 ! D1    D(32,1,2,3)            62.6953         estimate D2E/DX2                !
 ! D2    D(32,1,2,10)         -174.2396         estimate D2E/DX2                !
 ! D3    D(32,1,2,21)          -59.184          estimate D2E/DX2                !
 ! D4    D(33,1,2,3)          -177.5186         estimate D2E/DX2                !
 ! D5    D(33,1,2,10)          -54.4535         estimate D2E/DX2                !
 ! D6    D(33,1,2,21)           60.6021         estimate D2E/DX2                !
 ! D7    D(34,1,2,3)           -57.8851         estimate D2E/DX2                !
 ! D8    D(34,1,2,10)           65.1799         estimate D2E/DX2                !
 ! D9    D(34,1,2,21)         -179.7645         estimate D2E/DX2                !
 ! D10   D(1,2,3,4)            -66.9986         estimate D2E/DX2                !
 ! D11   D(1,2,3,35)            54.9663         estimate D2E/DX2                !
 ! D12   D(1,2,3,36)           172.4772         estimate D2E/DX2                !
 ! D13   D(10,2,3,4)           170.7604         estimate D2E/DX2                !
 ! D14   D(10,2,3,35)          -67.2747         estimate D2E/DX2                !
 ! D15   D(10,2,3,36)           50.2362         estimate D2E/DX2                !
 ! D16   D(21,2,3,4)            55.8714         estimate D2E/DX2                !
 ! D17   D(21,2,3,35)          177.8363         estimate D2E/DX2                !
 ! D18   D(21,2,3,36)          -64.6528         estimate D2E/DX2                !
 ! D19   D(1,2,10,11)           65.1611         estimate D2E/DX2                !
 ! D20   D(1,2,10,20)         -115.6094         estimate D2E/DX2                !
 ! D21   D(3,2,10,11)         -171.0064         estimate D2E/DX2                !
 ! D22   D(3,2,10,20)            8.2231         estimate D2E/DX2                !
 ! D23   D(21,2,10,11)         -53.5839         estimate D2E/DX2                !
 ! D24   D(21,2,10,20)         125.6457         estimate D2E/DX2                !
 ! D25   D(1,2,21,22)         -166.5366         estimate D2E/DX2                !
 ! D26   D(1,2,21,31)           13.1382         estimate D2E/DX2                !
 ! D27   D(3,2,21,22)           69.8228         estimate D2E/DX2                !
 ! D28   D(3,2,21,31)         -110.5024         estimate D2E/DX2                !
 ! D29   D(10,2,21,22)         -48.7774         estimate D2E/DX2                !
 ! D30   D(10,2,21,31)         130.8975         estimate D2E/DX2                !
 ! D31   D(2,3,4,5)             91.5527         estimate D2E/DX2                !
 ! D32   D(2,3,4,9)            -86.8516         estimate D2E/DX2                !
 ! D33   D(35,3,4,5)           -29.0562         estimate D2E/DX2                !
 ! D34   D(35,3,4,9)           152.5395         estimate D2E/DX2                !
 ! D35   D(36,3,4,5)          -149.0982         estimate D2E/DX2                !
 ! D36   D(36,3,4,9)            32.4975         estimate D2E/DX2                !
 ! D37   D(3,4,5,6)           -177.5517         estimate D2E/DX2                !
 ! D38   D(3,4,5,37)             2.8201         estimate D2E/DX2                !
 ! D39   D(9,4,5,6)              0.8763         estimate D2E/DX2                !
 ! D40   D(9,4,5,37)          -178.7519         estimate D2E/DX2                !
 ! D41   D(3,4,9,8)            177.3426         estimate D2E/DX2                !
 ! D42   D(3,4,9,41)            -2.6714         estimate D2E/DX2                !
 ! D43   D(5,4,9,8)             -1.0986         estimate D2E/DX2                !
 ! D44   D(5,4,9,41)           178.8874         estimate D2E/DX2                !
 ! D45   D(4,5,6,7)              0.0187         estimate D2E/DX2                !
 ! D46   D(4,5,6,38)           179.949          estimate D2E/DX2                !
 ! D47   D(37,5,6,7)           179.6468         estimate D2E/DX2                !
 ! D48   D(37,5,6,38)           -0.4229         estimate D2E/DX2                !
 ! D49   D(5,6,7,8)             -0.7053         estimate D2E/DX2                !
 ! D50   D(5,6,7,39)           179.6986         estimate D2E/DX2                !
 ! D51   D(38,6,7,8)           179.3645         estimate D2E/DX2                !
 ! D52   D(38,6,7,39)           -0.2316         estimate D2E/DX2                !
 ! D53   D(6,7,8,9)              0.4843         estimate D2E/DX2                !
 ! D54   D(6,7,8,40)          -179.3184         estimate D2E/DX2                !
 ! D55   D(39,7,8,9)          -179.9196         estimate D2E/DX2                !
 ! D56   D(39,7,8,40)            0.2776         estimate D2E/DX2                !
 ! D57   D(7,8,9,4)              0.4271         estimate D2E/DX2                !
 ! D58   D(7,8,9,41)          -179.5588         estimate D2E/DX2                !
 ! D59   D(40,8,9,4)          -179.77           estimate D2E/DX2                !
 ! D60   D(40,8,9,41)            0.2441         estimate D2E/DX2                !
 ! D61   D(2,10,11,12)         174.5927         estimate D2E/DX2                !
 ! D62   D(20,10,11,12)         -4.6445         estimate D2E/DX2                !
 ! D63   D(2,10,20,19)        -178.7906         estimate D2E/DX2                !
 ! D64   D(11,10,20,19)          0.4823         estimate D2E/DX2                !
 ! D65   D(10,11,12,13)       -113.5599         estimate D2E/DX2                !
 ! D66   D(10,11,12,19)          6.2688         estimate D2E/DX2                !
 ! D67   D(10,11,12,42)        125.6803         estimate D2E/DX2                !
 ! D68   D(11,12,13,14)         54.0557         estimate D2E/DX2                !
 ! D69   D(11,12,13,18)       -126.2573         estimate D2E/DX2                !
 ! D70   D(19,12,13,14)        -60.0158         estimate D2E/DX2                !
 ! D71   D(19,12,13,18)        119.6711         estimate D2E/DX2                !
 ! D72   D(42,12,13,14)        174.4509         estimate D2E/DX2                !
 ! D73   D(42,12,13,18)         -5.8622         estimate D2E/DX2                !
 ! D74   D(11,12,19,20)         -5.8543         estimate D2E/DX2                !
 ! D75   D(11,12,19,48)       -123.6399         estimate D2E/DX2                !
 ! D76   D(11,12,19,49)        111.8954         estimate D2E/DX2                !
 ! D77   D(13,12,19,20)        112.3466         estimate D2E/DX2                !
 ! D78   D(13,12,19,48)         -5.4391         estimate D2E/DX2                !
 ! D79   D(13,12,19,49)       -129.9037         estimate D2E/DX2                !
 ! D80   D(42,12,19,20)       -123.3203         estimate D2E/DX2                !
 ! D81   D(42,12,19,48)        118.8941         estimate D2E/DX2                !
 ! D82   D(42,12,19,49)         -5.5705         estimate D2E/DX2                !
 ! D83   D(12,13,14,15)        179.1435         estimate D2E/DX2                !
 ! D84   D(12,13,14,43)         -2.6445         estimate D2E/DX2                !
 ! D85   D(18,13,14,15)         -0.5484         estimate D2E/DX2                !
 ! D86   D(18,13,14,43)        177.6635         estimate D2E/DX2                !
 ! D87   D(12,13,18,17)       -179.2853         estimate D2E/DX2                !
 ! D88   D(12,13,18,47)          0.7721         estimate D2E/DX2                !
 ! D89   D(14,13,18,17)          0.4026         estimate D2E/DX2                !
 ! D90   D(14,13,18,47)       -179.5401         estimate D2E/DX2                !
 ! D91   D(13,14,15,16)          0.2688         estimate D2E/DX2                !
 ! D92   D(13,14,15,44)        179.6116         estimate D2E/DX2                !
 ! D93   D(43,14,15,16)       -177.9419         estimate D2E/DX2                !
 ! D94   D(43,14,15,44)          1.4009         estimate D2E/DX2                !
 ! D95   D(14,15,16,17)          0.161          estimate D2E/DX2                !
 ! D96   D(14,15,16,45)        179.8101         estimate D2E/DX2                !
 ! D97   D(44,15,16,17)       -179.1785         estimate D2E/DX2                !
 ! D98   D(44,15,16,45)          0.4706         estimate D2E/DX2                !
 ! D99   D(15,16,17,18)         -0.307          estimate D2E/DX2                !
 ! D100  D(15,16,17,46)        179.6465         estimate D2E/DX2                !
 ! D101  D(45,16,17,18)       -179.9562         estimate D2E/DX2                !
 ! D102  D(45,16,17,46)         -0.0027         estimate D2E/DX2                !
 ! D103  D(16,17,18,13)          0.0235         estimate D2E/DX2                !
 ! D104  D(16,17,18,47)        179.9661         estimate D2E/DX2                !
 ! D105  D(46,17,18,13)       -179.9301         estimate D2E/DX2                !
 ! D106  D(46,17,18,47)          0.0124         estimate D2E/DX2                !
 ! D107  D(12,19,20,10)          3.5453         estimate D2E/DX2                !
 ! D108  D(48,19,20,10)        123.5834         estimate D2E/DX2                !
 ! D109  D(49,19,20,10)       -116.9377         estimate D2E/DX2                !
 ! D110  D(2,21,22,23)         175.4093         estimate D2E/DX2                !
 ! D111  D(31,21,22,23)         -4.2678         estimate D2E/DX2                !
 ! D112  D(2,21,31,30)         179.9119         estimate D2E/DX2                !
 ! D113  D(22,21,31,30)         -0.3946         estimate D2E/DX2                !
 ! D114  D(21,22,23,24)       -113.4158         estimate D2E/DX2                !
 ! D115  D(21,22,23,30)          6.5083         estimate D2E/DX2                !
 ! D116  D(21,22,23,50)        125.8125         estimate D2E/DX2                !
 ! D117  D(22,23,24,25)       -128.4259         estimate D2E/DX2                !
 ! D118  D(22,23,24,29)         51.8309         estimate D2E/DX2                !
 ! D119  D(30,23,24,25)        117.4949         estimate D2E/DX2                !
 ! D120  D(30,23,24,29)        -62.2483         estimate D2E/DX2                !
 ! D121  D(50,23,24,25)         -7.9365         estimate D2E/DX2                !
 ! D122  D(50,23,24,29)        172.3203         estimate D2E/DX2                !
 ! D123  D(22,23,30,31)         -6.569          estimate D2E/DX2                !
 ! D124  D(22,23,30,56)        111.0038         estimate D2E/DX2                !
 ! D125  D(22,23,30,57)       -124.3838         estimate D2E/DX2                !
 ! D126  D(24,23,30,31)        111.6598         estimate D2E/DX2                !
 ! D127  D(24,23,30,56)       -130.7674         estimate D2E/DX2                !
 ! D128  D(24,23,30,57)         -6.155          estimate D2E/DX2                !
 ! D129  D(50,23,30,31)       -124.0695         estimate D2E/DX2                !
 ! D130  D(50,23,30,56)         -6.4966         estimate D2E/DX2                !
 ! D131  D(50,23,30,57)        118.1157         estimate D2E/DX2                !
 ! D132  D(23,24,25,26)       -179.4526         estimate D2E/DX2                !
 ! D133  D(23,24,25,51)          0.6367         estimate D2E/DX2                !
 ! D134  D(29,24,25,26)          0.2915         estimate D2E/DX2                !
 ! D135  D(29,24,25,51)       -179.6193         estimate D2E/DX2                !
 ! D136  D(23,24,29,28)        179.375          estimate D2E/DX2                !
 ! D137  D(23,24,29,55)         -2.3352         estimate D2E/DX2                !
 ! D138  D(25,24,29,28)         -0.3722         estimate D2E/DX2                !
 ! D139  D(25,24,29,55)        177.9176         estimate D2E/DX2                !
 ! D140  D(24,25,26,27)         -0.0148         estimate D2E/DX2                !
 ! D141  D(24,25,26,52)       -179.8981         estimate D2E/DX2                !
 ! D142  D(51,25,26,27)        179.8958         estimate D2E/DX2                !
 ! D143  D(51,25,26,52)          0.0125         estimate D2E/DX2                !
 ! D144  D(25,26,27,28)         -0.1836         estimate D2E/DX2                !
 ! D145  D(25,26,27,53)       -179.8559         estimate D2E/DX2                !
 ! D146  D(52,26,27,28)        179.6993         estimate D2E/DX2                !
 ! D147  D(52,26,27,53)          0.027          estimate D2E/DX2                !
 ! D148  D(26,27,28,29)          0.1026         estimate D2E/DX2                !
 ! D149  D(26,27,28,54)       -179.242          estimate D2E/DX2                !
 ! D150  D(53,27,28,29)        179.7748         estimate D2E/DX2                !
 ! D151  D(53,27,28,54)          0.4302         estimate D2E/DX2                !
 ! D152  D(27,28,29,24)          0.1768         estimate D2E/DX2                !
 ! D153  D(27,28,29,55)       -178.1118         estimate D2E/DX2                !
 ! D154  D(54,28,29,24)        179.5247         estimate D2E/DX2                !
 ! D155  D(54,28,29,55)          1.2362         estimate D2E/DX2                !
 ! D156  D(23,30,31,21)          4.4595         estimate D2E/DX2                !
 ! D157  D(56,30,31,21)       -115.9106         estimate D2E/DX2                !
 ! D158  D(57,30,31,21)        124.5518         estimate D2E/DX2                !
 --------------------------------------------------------------------------------
 Trust Radius=3.00D-01 FncErr=1.00D-07 GrdErr=1.00D-06 EigMax=2.50D+02 EigMin=1.00D-04
 Number of steps in this run=    335 maximum allowed number of steps=    342.
 GradGradGradGradGradGradGradGradGradGradGradGradGradGradGradGradGradGrad

 Leave Link  103 at Sun Feb 25 12:03:09 2024, MaxMem=  7516192768 cpu:               0.9 elap:               0.0
 (Enter /public/apps/g16-C01//g16/l202.exe)
 Symmetry turned off by external request.
 Stoichiometry    C27H26N2O2
 Framework group  C1[X(C27H26N2O2)]
 Deg. of freedom   165
 Full point group                 C1      NOp   1
                          Input orientation:                          
 ---------------------------------------------------------------------
 Center     Atomic      Atomic             Coordinates (Angstroms)
 Number     Number       Type             X           Y           Z
 ---------------------------------------------------------------------
      1          6           0       -0.203444    3.267248   -0.111760
      2          6           0        0.412632    1.954338   -0.597274
      3          6           0        1.133631    2.119642   -1.953463
      4          6           0        0.153690    2.422158   -3.050348
      5          6           0       -0.163805    3.732081   -3.386080
      6          6           0       -1.105318    4.002720   -4.363779
      7          6           0       -1.743317    2.964603   -5.019688
      8          6           0       -1.423678    1.655209   -4.702518
      9          6           0       -0.479139    1.386935   -3.728329
     10          6           0        1.359016    1.434043    0.448172
     11          7           0        0.988290    1.056009    1.594952
     12          6           0        2.138365    0.502617    2.280830
     13          6           0        1.942910   -0.978411    2.499543
     14          6           0        1.647471   -1.800461    1.418330
     15          6           0        1.483666   -3.160751    1.602714
     16          6           0        1.607374   -3.711992    2.866333
     17          6           0        1.892641   -2.896365    3.947257
     18          6           0        2.060073   -1.534527    3.764666
     19          6           0        3.310903    0.804284    1.301672
     20          8           0        2.674033    1.347948    0.151564
     21          6           0       -0.639602    0.890312   -0.729704
     22          7           0       -0.377503   -0.337791   -0.872348
     23          6           0       -1.628510   -1.068252   -0.855896
     24          6           0       -1.697762   -1.941595    0.373547
     25          6           0       -1.996752   -3.292227    0.272558
     26          6           0       -2.068078   -4.078945    1.409079
     27          6           0       -1.840659   -3.520970    2.654902
     28          6           0       -1.537884   -2.174439    2.760537
     29          6           0       -1.464457   -1.387052    1.626519
     30          6           0       -2.696051    0.064773   -0.838082
     31          8           0       -1.936144    1.257082   -0.688761
     32          1           0       -0.964571    3.602461   -0.811036
     33          1           0       -0.660814    3.116471    0.862419
     34          1           0        0.568695    4.028687   -0.024647
     35          1           0        1.868982    2.920233   -1.859155
     36          1           0        1.658851    1.188506   -2.170648
     37          1           0        0.334209    4.548477   -2.882459
     38          1           0       -1.342151    5.026938   -4.613247
     39          1           0       -2.481793    3.174559   -5.779459
     40          1           0       -1.910542    0.840287   -5.219082
     41          1           0       -0.226082    0.364517   -3.487443
     42          1           0        2.264470    1.008518    3.243000
     43          1           0        1.517105   -1.370451    0.435899
     44          1           0        1.248145   -3.789766    0.757497
     45          1           0        1.476099   -4.774505    3.009345
     46          1           0        1.984677   -3.320436    4.936766
     47          1           0        2.282306   -0.900098    4.611294
     48          1           0        3.853005   -0.099439    1.013721
     49          1           0        4.013006    1.543937    1.697319
     50          1           0       -1.701202   -1.686159   -1.756336
     51          1           0       -2.173254   -3.731353   -0.699461
     52          1           0       -2.300026   -5.130488    1.320222
     53          1           0       -1.894127   -4.135745    3.541359
     54          1           0       -1.347390   -1.735783    3.728437
     55          1           0       -1.197858   -0.343526    1.711421
     56          1           0       -3.262607    0.126303   -1.771924
     57          1           0       -3.383971   -0.026329    0.005711
 ---------------------------------------------------------------------
 Rotational constants (GHZ):           0.2821099           0.1137495           0.0908048
 Leave Link  202 at Sun Feb 25 12:03:09 2024, MaxMem=  7516192768 cpu:               1.6 elap:               0.1
 (Enter /public/apps/g16-C01//g16/l301.exe)
 Standard basis: def2SVPP (5D, 7F)
 Ernie: Thresh=  0.10000D-02 Tol=  0.10000D-05 Strict=F.
   486 basis functions,   879 primitive gaussians,   517 cartesian basis functions
   109 alpha electrons      109 beta electrons
       nuclear repulsion energy      3135.3671031225 Hartrees.
 IExCor=  402 DFT=T Ex+Corr=B3LYP ExCW=0 ScaHFX=  0.200000
 ScaDFX=  0.800000  0.720000  1.000000  0.810000 ScalE2=  1.000000  1.000000
 IRadAn=      5 IRanWt=     -1 IRanGd=            0 ICorTp=0 IEmpDi=141
 NAtoms=   57 NActive=   57 NUniq=   57 SFac= 1.00D+00 NAtFMM=   60 NAOKFM=F Big=F
 Integral buffers will be    131072 words long.
 Raffenetti 2 integral format.
 Two-electron integral symmetry is turned off.
 R6Disp:  Grimme-D3(BJ) Dispersion energy=       -0.1482143388 Hartrees.
 Nuclear repulsion after empirical dispersion term =     3135.2188887838 Hartrees.
 Leave Link  301 at Sun Feb 25 12:03:11 2024, MaxMem=  7516192768 cpu:              68.7 elap:               1.9
 (Enter /public/apps/g16-C01//g16/l302.exe)
 NPDir=0 NMtPBC=     1 NCelOv=     1 NCel=       1 NClECP=     1 NCelD=      1
         NCelK=      1 NCelE2=     1 NClLst=     1 CellRange=     0.0.
 One-electron integrals computed using PRISM.
   1 Symmetry operations used in ECPInt.
 ECPInt:  NShTT=   28441 NPrTT=  114007 LenC2=   25697 LenP2D=   67612.
 LDataN:  DoStor=T MaxTD1= 4 Len=   56
 NBasis=   486 RedAO= T EigKep=  2.31D-04  NBF=   486
 NBsUse=   486 1.00D-06 EigRej= -1.00D+00 NBFU=   486
 Precomputing XC quadrature grid using
 IXCGrd= 4 IRadAn=           5 IRanWt=          -1 IRanGd=           0 AccXCQ= 0.00D+00.
 Generated NRdTot=       0 NPtTot=           0 NUsed=           0 NTot=          32
 NSgBfM=   510   510   510   510   510 MxSgAt=    57 MxSgA2=    57.
 Leave Link  302 at Sun Feb 25 12:03:13 2024, MaxMem=  7516192768 cpu:              24.4 elap:               0.7
 (Enter /public/apps/g16-C01//g16/l303.exe)
 DipDrv:  MaxL=1.
 Leave Link  303 at Sun Feb 25 12:03:13 2024, MaxMem=  7516192768 cpu:               3.6 elap:               0.1
 (Enter /public/apps/g16-C01//g16/l401.exe)
 ExpMin= 1.22D-01 ExpMax= 2.27D+03 ExpMxC= 3.41D+02 IAcc=3 IRadAn=         5 AccDes= 0.00D+00
 Harris functional with IExCor=  402 and IRadAn=       5 diagonalized for initial guess.
 HarFok:  IExCor=  402 AccDes= 0.00D+00 IRadAn=         5 IDoV= 1 UseB2=F ITyADJ=14
 ICtDFT=  3500011 ScaDFX=  1.000000  1.000000  1.000000  1.000000
 FoFCou: FMM=F IPFlag=           0 FMFlag=      100000 FMFlg1=           0
         NFxFlg=           0 DoJE=T BraDBF=F KetDBF=T FulRan=T
         wScrn=  0.000000 ICntrl=       500 IOpCl=  0 I1Cent=   200000004 NGrid=           0
         NMat0=    1 NMatS0=      1 NMatT0=    0 NMatD0=    1 NMtDS0=    0 NMtDT0=    0
 Symmetry not used in FoFCou.
 Harris En= -1303.55086517317    
 JPrj=0 DoOrth=F DoCkMO=F.
 Leave Link  401 at Sun Feb 25 12:03:15 2024, MaxMem=  7516192768 cpu:              46.0 elap:               1.3
 (Enter /public/apps/g16-C01//g16/l502.exe)
 Two-electron integral symmetry not used.
 Closed shell SCF:
 Using DIIS extrapolation, IDIIS=  1040.
 NGot=  7516192768 LenX=  7515631681 LenY=  7515363875
 Requested convergence on RMS density matrix=1.00D-08 within 128 cycles.
 Requested convergence on MAX density matrix=1.00D-06.
 Requested convergence on             energy=1.00D-06.
 No special actions if energy rises.
 Fock matrices will be formed incrementally for  20 cycles.
 Integral accuracy reduced to 1.0D-05 until final iterations.

 Cycle   1  Pass 0  IDiag  1:
 FoFJK:  IHMeth= 1 ICntrl=       0 DoSepK=F KAlg= 0 I1Cent=           0 FoldK=F
 IRaf= 830000000 NMat=       1 IRICut=       1 DoRegI=T DoRafI=F ISym2E= 0 IDoP0=0 IntGTp=1.
 FoFCou: FMM=F IPFlag=           0 FMFlag=      100000 FMFlg1=           0
         NFxFlg=           0 DoJE=F BraDBF=F KetDBF=F FulRan=T
         wScrn=  0.000000 ICntrl=         0 IOpCl=  0 I1Cent=           0 NGrid=           0
         NMat0=    1 NMatS0=      1 NMatT0=    0 NMatD0=    1 NMtDS0=    0 NMtDT0=    0
 Symmetry not used in FoFCou.
 E= -1302.95614473586    
 DIIS: error= 2.38D-02 at cycle   1 NSaved=   1.
 NSaved= 1 IEnMin= 1 EnMin= -1302.95614473586     IErMin= 1 ErrMin= 2.38D-02
 ErrMax= 2.38D-02  0.00D+00 EMaxC= 1.00D-01 BMatC= 5.64D-01 BMatP= 5.64D-01
 IDIUse=3 WtCom= 7.62D-01 WtEn= 2.38D-01
 Coeff-Com:  0.100D+01
 Coeff-En:   0.100D+01
 Coeff:      0.100D+01
 Gap=     0.283 Goal=   None    Shift=    0.000
 GapD=    0.283 DampG=1.000 DampE=0.500 DampFc=0.5000 IDamp=-1.
 Damping current iteration by 5.00D-01
 RMSDP=5.47D-03 MaxDP=2.54D-01              OVMax= 2.07D-01

 Cycle   2  Pass 0  IDiag  1:
 RMSU=  2.53D-03    CP:  9.45D-01
 E= -1303.22896806587     Delta-E=       -0.272823330013 Rises=F Damp=T
 DIIS: error= 4.89D-03 at cycle   2 NSaved=   2.
 NSaved= 2 IEnMin= 2 EnMin= -1303.22896806587     IErMin= 2 ErrMin= 4.89D-03
 ErrMax= 4.89D-03  0.00D+00 EMaxC= 1.00D-01 BMatC= 4.18D-02 BMatP= 5.64D-01
 IDIUse=3 WtCom= 9.51D-01 WtEn= 4.89D-02
 Coeff-Com:  0.827D-01 0.917D+00
 Coeff-En:   0.123D+00 0.877D+00
 Coeff:      0.847D-01 0.915D+00
 Gap=     0.247 Goal=   None    Shift=    0.000
 RMSDP=1.70D-03 MaxDP=9.07D-02 DE=-2.73D-01 OVMax= 1.63D-01

 Cycle   3  Pass 0  IDiag  1:
 RMSU=  1.62D-03    CP:  9.17D-01  9.52D-01
 E= -1303.54110356117     Delta-E=       -0.312135495299 Rises=F Damp=F
 DIIS: error= 7.40D-03 at cycle   3 NSaved=   3.
 NSaved= 3 IEnMin= 3 EnMin= -1303.54110356117     IErMin= 2 ErrMin= 4.89D-03
 ErrMax= 7.40D-03  0.00D+00 EMaxC= 1.00D-01 BMatC= 5.81D-02 BMatP= 4.18D-02
 IDIUse=3 WtCom= 1.04D-01 WtEn= 8.96D-01
 Coeff-Com: -0.406D-02 0.549D+00 0.455D+00
 Coeff-En:   0.000D+00 0.000D+00 0.100D+01
 Coeff:     -0.423D-03 0.572D-01 0.943D+00
 Gap=     0.234 Goal=   None    Shift=    0.000
 RMSDP=1.84D-03 MaxDP=1.08D-01 DE=-3.12D-01 OVMax= 1.93D-01

 Cycle   4  Pass 0  IDiag  1:
 RMSU=  1.28D-03    CP:  9.16D-01  1.24D+00  3.21D-01
 E= -1303.35819791716     Delta-E=        0.182905644015 Rises=F Damp=F
 DIIS: error= 1.78D-02 at cycle   4 NSaved=   4.
 NSaved= 4 IEnMin= 3 EnMin= -1303.54110356117     IErMin= 2 ErrMin= 4.89D-03
 ErrMax= 1.78D-02  0.00D+00 EMaxC= 1.00D-01 BMatC= 2.61D-01 BMatP= 4.18D-02
 IDIUse=2 WtCom= 0.00D+00 WtEn= 1.00D+00
 Coeff-En:   0.000D+00 0.000D+00 0.759D+00 0.241D+00
 Coeff:      0.000D+00 0.000D+00 0.759D+00 0.241D+00
 Gap=     0.221 Goal=   None    Shift=    0.000
 RMSDP=9.58D-04 MaxDP=6.12D-02 DE= 1.83D-01 OVMax= 8.91D-02

 Cycle   5  Pass 0  IDiag  1:
 RMSU=  2.40D-04    CP:  9.15D-01  1.10D+00  6.59D-01  4.86D-01
 E= -1303.58013543675     Delta-E=       -0.221937519597 Rises=F Damp=F
 DIIS: error= 3.83D-03 at cycle   5 NSaved=   5.
 NSaved= 5 IEnMin= 5 EnMin= -1303.58013543675     IErMin= 5 ErrMin= 3.83D-03
 ErrMax= 3.83D-03  0.00D+00 EMaxC= 1.00D-01 BMatC= 1.58D-02 BMatP= 4.18D-02
 IDIUse=3 WtCom= 9.62D-01 WtEn= 3.83D-02
 Coeff-Com:  0.545D-02 0.656D-02 0.319D+00-0.194D-01 0.688D+00
 Coeff-En:   0.000D+00 0.000D+00 0.264D+00 0.000D+00 0.736D+00
 Coeff:      0.524D-02 0.630D-02 0.317D+00-0.186D-01 0.690D+00
 Gap=     0.221 Goal=   None    Shift=    0.000
 RMSDP=3.24D-04 MaxDP=1.97D-02 DE=-2.22D-01 OVMax= 2.98D-02

 Cycle   6  Pass 0  IDiag  1:
 RMSU=  8.40D-05    CP:  9.15D-01  1.05D+00  7.74D-01  3.23D-01  8.02D-01
 E= -1303.59433767080     Delta-E=       -0.014202234048 Rises=F Damp=F
 DIIS: error= 7.53D-04 at cycle   6 NSaved=   6.
 NSaved= 6 IEnMin= 6 EnMin= -1303.59433767080     IErMin= 6 ErrMin= 7.53D-04
 ErrMax= 7.53D-04  0.00D+00 EMaxC= 1.00D-01 BMatC= 1.90D-04 BMatP= 1.58D-02
 IDIUse=3 WtCom= 9.92D-01 WtEn= 7.53D-03
 Coeff-Com:  0.180D-02-0.474D-02 0.132D+00-0.440D-01 0.443D+00 0.472D+00
 Coeff-En:   0.000D+00 0.000D+00 0.000D+00 0.000D+00 0.000D+00 0.100D+01
 Coeff:      0.178D-02-0.470D-02 0.131D+00-0.436D-01 0.440D+00 0.476D+00
 Gap=     0.221 Goal=   None    Shift=    0.000
 RMSDP=4.23D-05 MaxDP=1.63D-03 DE=-1.42D-02 OVMax= 4.31D-03

 Cycle   7  Pass 0  IDiag  1:
 RMSU=  2.04D-05    CP:  9.15D-01  1.05D+00  7.75D-01  3.26D-01  8.36D-01
                    CP:  5.76D-01
 E= -1303.59454507947     Delta-E=       -0.000207408670 Rises=F Damp=F
 DIIS: error= 1.30D-04 at cycle   7 NSaved=   7.
 NSaved= 7 IEnMin= 7 EnMin= -1303.59454507947     IErMin= 7 ErrMin= 1.30D-04
 ErrMax= 1.30D-04  0.00D+00 EMaxC= 1.00D-01 BMatC= 8.55D-06 BMatP= 1.90D-04
 IDIUse=3 WtCom= 9.99D-01 WtEn= 1.30D-03
 Coeff-Com:  0.746D-03-0.282D-02 0.559D-01-0.246D-01 0.210D+00 0.266D+00
 Coeff-Com:  0.494D+00
 Coeff-En:   0.000D+00 0.000D+00 0.000D+00 0.000D+00 0.000D+00 0.000D+00
 Coeff-En:   0.100D+01
 Coeff:      0.745D-03-0.281D-02 0.558D-01-0.246D-01 0.210D+00 0.266D+00
 Coeff:      0.495D+00
 Gap=     0.221 Goal=   None    Shift=    0.000
 RMSDP=9.30D-06 MaxDP=5.79D-04 DE=-2.07D-04 OVMax= 7.69D-04

 Initial convergence to 1.0D-05 achieved.  Increase integral accuracy.
 Cycle   8  Pass 1  IDiag  1:
 E= -1303.59459919036     Delta-E=       -0.000054110891 Rises=F Damp=F
 DIIS: error= 1.73D-04 at cycle   1 NSaved=   1.
 NSaved= 1 IEnMin= 1 EnMin= -1303.59459919036     IErMin= 1 ErrMin= 1.73D-04
 ErrMax= 1.73D-04  0.00D+00 EMaxC= 1.00D-01 BMatC= 1.14D-05 BMatP= 1.14D-05
 IDIUse=3 WtCom= 9.98D-01 WtEn= 1.73D-03
 Coeff-Com:  0.100D+01
 Coeff-En:   0.100D+01
 Coeff:      0.100D+01
 Gap=     0.221 Goal=   None    Shift=    0.000
 RMSDP=9.30D-06 MaxDP=5.79D-04 DE=-5.41D-05 OVMax= 6.17D-04

 Cycle   9  Pass 1  IDiag  1:
 RMSU=  2.14D-04    CP:  1.00D+00
 E= -1303.59461005913     Delta-E=       -0.000010868768 Rises=F Damp=F
 DIIS: error= 5.40D-05 at cycle   2 NSaved=   2.
 NSaved= 2 IEnMin= 2 EnMin= -1303.59461005913     IErMin= 2 ErrMin= 5.40D-05
 ErrMax= 5.40D-05  0.00D+00 EMaxC= 1.00D-01 BMatC= 2.36D-06 BMatP= 1.14D-05
 IDIUse=1 WtCom= 1.00D+00 WtEn= 0.00D+00
 Coeff-Com:  0.215D+00 0.785D+00
 Coeff:      0.215D+00 0.785D+00
 Gap=     0.221 Goal=   None    Shift=    0.000
 RMSDP=1.01D-05 MaxDP=4.75D-04 DE=-1.09D-05 OVMax= 9.04D-04

 Cycle  10  Pass 1  IDiag  1:
 RMSU=  9.92D-06    CP:  1.00D+00  1.01D+00
 E= -1303.59460719471     Delta-E=        0.000002864425 Rises=F Damp=F
 DIIS: error= 8.43D-05 at cycle   3 NSaved=   3.
 NSaved= 3 IEnMin= 2 EnMin= -1303.59461005913     IErMin= 2 ErrMin= 5.40D-05
 ErrMax= 8.43D-05  0.00D+00 EMaxC= 1.00D-01 BMatC= 5.04D-06 BMatP= 2.36D-06
 IDIUse=1 WtCom= 1.00D+00 WtEn= 0.00D+00
 Coeff-Com:  0.751D-03 0.594D+00 0.405D+00
 Coeff:      0.751D-03 0.594D+00 0.405D+00
 Gap=     0.221 Goal=   None    Shift=    0.000
 RMSDP=6.23D-06 MaxDP=3.01D-04 DE= 2.86D-06 OVMax= 5.80D-04

 Cycle  11  Pass 1  IDiag  1:
 RMSU=  1.35D-06    CP:  1.00D+00  1.01D+00  3.92D-01
 E= -1303.59461241762     Delta-E=       -0.000005222917 Rises=F Damp=F
 DIIS: error= 1.79D-05 at cycle   4 NSaved=   4.
 NSaved= 4 IEnMin= 4 EnMin= -1303.59461241762     IErMin= 4 ErrMin= 1.79D-05
 ErrMax= 1.79D-05  0.00D+00 EMaxC= 1.00D-01 BMatC= 1.06D-07 BMatP= 2.36D-06
 IDIUse=1 WtCom= 1.00D+00 WtEn= 0.00D+00
 Coeff-Com: -0.423D-02 0.372D+00 0.264D+00 0.368D+00
 Coeff:     -0.423D-02 0.372D+00 0.264D+00 0.368D+00
 Gap=     0.221 Goal=   None    Shift=    0.000
 RMSDP=8.02D-07 MaxDP=4.93D-05 DE=-5.22D-06 OVMax= 5.81D-05

 Cycle  12  Pass 1  IDiag  1:
 RMSU=  4.21D-07    CP:  1.00D+00  1.01D+00  4.12D-01  5.17D-01
 E= -1303.59461250519     Delta-E=       -0.000000087570 Rises=F Damp=F
 DIIS: error= 2.05D-06 at cycle   5 NSaved=   5.
 NSaved= 5 IEnMin= 5 EnMin= -1303.59461250519     IErMin= 5 ErrMin= 2.05D-06
 ErrMax= 2.05D-06  0.00D+00 EMaxC= 1.00D-01 BMatC= 1.34D-09 BMatP= 1.06D-07
 IDIUse=1 WtCom= 1.00D+00 WtEn= 0.00D+00
 Coeff-Com: -0.233D-02 0.189D+00 0.134D+00 0.204D+00 0.475D+00
 Coeff:     -0.233D-02 0.189D+00 0.134D+00 0.204D+00 0.475D+00
 Gap=     0.221 Goal=   None    Shift=    0.000
 RMSDP=1.29D-07 MaxDP=5.09D-06 DE=-8.76D-08 OVMax= 8.96D-06

 Cycle  13  Pass 1  IDiag  1:
 RMSU=  1.16D-07    CP:  1.00D+00  1.01D+00  4.12D-01  5.07D-01  8.73D-01
 E= -1303.59461250634     Delta-E=       -0.000000001150 Rises=F Damp=F
 DIIS: error= 3.77D-07 at cycle   6 NSaved=   6.
 NSaved= 6 IEnMin= 6 EnMin= -1303.59461250634     IErMin= 6 ErrMin= 3.77D-07
 ErrMax= 3.77D-07  0.00D+00 EMaxC= 1.00D-01 BMatC= 1.17D-10 BMatP= 1.34D-09
 IDIUse=1 WtCom= 1.00D+00 WtEn= 0.00D+00
 Coeff-Com: -0.937D-03 0.725D-01 0.517D-01 0.822D-01 0.272D+00 0.523D+00
 Coeff:     -0.937D-03 0.725D-01 0.517D-01 0.822D-01 0.272D+00 0.523D+00
 Gap=     0.221 Goal=   None    Shift=    0.000
 RMSDP=3.68D-08 MaxDP=2.21D-06 DE=-1.15D-09 OVMax= 2.82D-06

 Cycle  14  Pass 1  IDiag  1:
 RMSU=  3.03D-08    CP:  1.00D+00  1.01D+00  4.12D-01  5.14D-01  8.82D-01
                    CP:  8.49D-01
 E= -1303.59461250643     Delta-E=       -0.000000000091 Rises=F Damp=F
 DIIS: error= 1.12D-07 at cycle   7 NSaved=   7.
 NSaved= 7 IEnMin= 7 EnMin= -1303.59461250643     IErMin= 7 ErrMin= 1.12D-07
 ErrMax= 1.12D-07  0.00D+00 EMaxC= 1.00D-01 BMatC= 1.28D-11 BMatP= 1.17D-10
 IDIUse=1 WtCom= 1.00D+00 WtEn= 0.00D+00
 Coeff-Com: -0.232D-03 0.170D-01 0.122D-01 0.205D-01 0.950D-01 0.292D+00
 Coeff-Com:  0.564D+00
 Coeff:     -0.232D-03 0.170D-01 0.122D-01 0.205D-01 0.950D-01 0.292D+00
 Coeff:      0.564D+00
 Gap=     0.221 Goal=   None    Shift=    0.000
 RMSDP=1.06D-08 MaxDP=5.66D-07 DE=-9.09D-11 OVMax= 8.37D-07

 Cycle  15  Pass 1  IDiag  1:
 RMSU=  7.90D-09    CP:  1.00D+00  1.01D+00  4.12D-01  5.15D-01  8.84D-01
                    CP:  8.70D-01  8.05D-01
 E= -1303.59461250644     Delta-E=       -0.000000000007 Rises=F Damp=F
 DIIS: error= 2.29D-08 at cycle   8 NSaved=   8.
 NSaved= 8 IEnMin= 8 EnMin= -1303.59461250644     IErMin= 8 ErrMin= 2.29D-08
 ErrMax= 2.29D-08  0.00D+00 EMaxC= 1.00D-01 BMatC= 1.12D-12 BMatP= 1.28D-11
 IDIUse=1 WtCom= 1.00D+00 WtEn= 0.00D+00
 Coeff-Com:  0.378D-05-0.765D-03-0.464D-03-0.430D-03 0.134D-01 0.728D-01
 Coeff-Com:  0.281D+00 0.635D+00
 Coeff:      0.378D-05-0.765D-03-0.464D-03-0.430D-03 0.134D-01 0.728D-01
 Coeff:      0.281D+00 0.635D+00
 Gap=     0.221 Goal=   None    Shift=    0.000
 RMSDP=3.95D-09 MaxDP=1.41D-07 DE=-7.28D-12 OVMax= 2.38D-07

 SCF Done:  E(RB3LYP) =  -1303.59461251     A.U. after   15 cycles
            NFock= 15  Conv=0.39D-08     -V/T= 2.0092
 KE= 1.291705985295D+03 PE=-9.296384898849D+03 EE= 3.565865412264D+03
 Leave Link  502 at Sun Feb 25 12:03:59 2024, MaxMem=  7516192768 cpu:            1742.0 elap:              43.9
 (Enter /public/apps/g16-C01//g16/l601.exe)
 Copying SCF densities to generalized density rwf, IOpCl= 0 IROHF=0.

 **********************************************************************

            Population analysis using the SCF Density.

 **********************************************************************

 Alpha  occ. eigenvalues --  -19.17314 -19.17222 -14.29974 -14.29918 -10.27320
 Alpha  occ. eigenvalues --  -10.27273 -10.23697 -10.23564 -10.22220 -10.21753
 Alpha  occ. eigenvalues --  -10.21724 -10.19082 -10.18669 -10.18369 -10.18357
 Alpha  occ. eigenvalues --  -10.18278 -10.18235 -10.18224 -10.18222 -10.17983
 Alpha  occ. eigenvalues --  -10.17773 -10.17717 -10.17716 -10.17660 -10.17544
 Alpha  occ. eigenvalues --  -10.17493 -10.17337 -10.17281 -10.17244 -10.16986
 Alpha  occ. eigenvalues --  -10.16895  -1.09440  -1.09151  -0.91224  -0.90238
 Alpha  occ. eigenvalues --   -0.86380  -0.85142  -0.84472  -0.83333  -0.77589
 Alpha  occ. eigenvalues --   -0.77263  -0.74957  -0.74202  -0.73505  -0.73375
 Alpha  occ. eigenvalues --   -0.72431  -0.71633  -0.68665  -0.65129  -0.64133
 Alpha  occ. eigenvalues --   -0.63630  -0.60591  -0.59984  -0.59868  -0.59052
 Alpha  occ. eigenvalues --   -0.58157  -0.57662  -0.57366  -0.53997  -0.52484
 Alpha  occ. eigenvalues --   -0.52356  -0.52008  -0.51306  -0.49345  -0.48846
 Alpha  occ. eigenvalues --   -0.48761  -0.47025  -0.46415  -0.46188  -0.45449
 Alpha  occ. eigenvalues --   -0.45358  -0.44696  -0.44502  -0.44107  -0.42616
 Alpha  occ. eigenvalues --   -0.42549  -0.42305  -0.41709  -0.41570  -0.41183
 Alpha  occ. eigenvalues --   -0.40641  -0.40530  -0.40280  -0.39377  -0.37966
 Alpha  occ. eigenvalues --   -0.37717  -0.37163  -0.37014  -0.36461  -0.36061
 Alpha  occ. eigenvalues --   -0.35451  -0.35224  -0.34656  -0.34390  -0.34146
 Alpha  occ. eigenvalues --   -0.33950  -0.33912  -0.33487  -0.33159  -0.27673
 Alpha  occ. eigenvalues --   -0.27577  -0.26211  -0.25759  -0.25260  -0.25091
 Alpha  occ. eigenvalues --   -0.24857  -0.24601  -0.24199  -0.23227
 Alpha virt. eigenvalues --   -0.01136  -0.00898  -0.00636  -0.00416  -0.00020
 Alpha virt. eigenvalues --    0.00488   0.01697   0.02759   0.05262   0.06483
 Alpha virt. eigenvalues --    0.06639   0.07602   0.07859   0.08556   0.09461
 Alpha virt. eigenvalues --    0.09578   0.10496   0.11100   0.11560   0.11735
 Alpha virt. eigenvalues --    0.12153   0.12317   0.12673   0.13104   0.13405
 Alpha virt. eigenvalues --    0.13734   0.14301   0.14465   0.15011   0.15143
 Alpha virt. eigenvalues --    0.15581   0.15958   0.16127   0.16239   0.16582
 Alpha virt. eigenvalues --    0.17311   0.19043   0.19129   0.19418   0.20263
 Alpha virt. eigenvalues --    0.20550   0.21938   0.22936   0.23494   0.24001
 Alpha virt. eigenvalues --    0.25109   0.25869   0.26177   0.27898   0.28766
 Alpha virt. eigenvalues --    0.29806   0.29965   0.30370   0.30827   0.31075
 Alpha virt. eigenvalues --    0.31384   0.31754   0.32158   0.32746   0.32927
 Alpha virt. eigenvalues --    0.33429   0.33800   0.34044   0.35865   0.36467
 Alpha virt. eigenvalues --    0.36986   0.37632   0.38984   0.39429   0.39546
 Alpha virt. eigenvalues --    0.40424   0.41094   0.41271   0.41981   0.43208
 Alpha virt. eigenvalues --    0.43315   0.43535   0.44450   0.44809   0.46030
 Alpha virt. eigenvalues --    0.46259   0.46583   0.46701   0.47015   0.47926
 Alpha virt. eigenvalues --    0.48124   0.48628   0.48749   0.49426   0.50097
 Alpha virt. eigenvalues --    0.50687   0.51364   0.51558   0.51824   0.52005
 Alpha virt. eigenvalues --    0.52377   0.52864   0.53157   0.54259   0.54335
 Alpha virt. eigenvalues --    0.54711   0.55232   0.55976   0.56355   0.56757
 Alpha virt. eigenvalues --    0.57166   0.57932   0.58772   0.59701   0.60092
 Alpha virt. eigenvalues --    0.60756   0.61357   0.61896   0.62733   0.63153
 Alpha virt. eigenvalues --    0.63281   0.64631   0.64923   0.65304   0.65952
 Alpha virt. eigenvalues --    0.66126   0.66632   0.66985   0.67267   0.67396
 Alpha virt. eigenvalues --    0.67849   0.68032   0.68218   0.68398   0.68816
 Alpha virt. eigenvalues --    0.68999   0.69245   0.69754   0.70189   0.70411
 Alpha virt. eigenvalues --    0.70821   0.70996   0.71230   0.71655   0.71875
 Alpha virt. eigenvalues --    0.72094   0.72852   0.73026   0.73332   0.73382
 Alpha virt. eigenvalues --    0.74082   0.74514   0.74978   0.75036   0.75838
 Alpha virt. eigenvalues --    0.76449   0.76828   0.77541   0.77597   0.78118
 Alpha virt. eigenvalues --    0.78298   0.78629   0.79367   0.79500   0.80258
 Alpha virt. eigenvalues --    0.80553   0.81219   0.81813   0.82964   0.83605
 Alpha virt. eigenvalues --    0.83970   0.84085   0.84485   0.85698   0.86437
 Alpha virt. eigenvalues --    0.86965   0.87954   0.88979   0.89793   0.90530
 Alpha virt. eigenvalues --    0.91597   0.93013   0.93852   0.94429   0.95575
 Alpha virt. eigenvalues --    0.96642   0.98249   0.98659   0.99248   1.00997
 Alpha virt. eigenvalues --    1.02277   1.03184   1.05105   1.06192   1.06425
 Alpha virt. eigenvalues --    1.07506   1.07905   1.09023   1.10983   1.12111
 Alpha virt. eigenvalues --    1.12941   1.13800   1.15153   1.16522   1.16950
 Alpha virt. eigenvalues --    1.19102   1.22207   1.24071   1.26074   1.27153
 Alpha virt. eigenvalues --    1.27228   1.28173   1.28495   1.29470   1.30345
 Alpha virt. eigenvalues --    1.31633   1.32223   1.33023   1.35015   1.36895
 Alpha virt. eigenvalues --    1.37416   1.41761   1.42645   1.43543   1.44405
 Alpha virt. eigenvalues --    1.45662   1.46471   1.46911   1.48263   1.48746
 Alpha virt. eigenvalues --    1.48826   1.49700   1.49910   1.50120   1.51144
 Alpha virt. eigenvalues --    1.51506   1.51862   1.52569   1.52867   1.54912
 Alpha virt. eigenvalues --    1.55047   1.57398   1.59547   1.60438   1.62180
 Alpha virt. eigenvalues --    1.63684   1.67840   1.69510   1.70068   1.71357
 Alpha virt. eigenvalues --    1.73940   1.75311   1.76190   1.76795   1.77135
 Alpha virt. eigenvalues --    1.78205   1.78787   1.80185   1.80748   1.80868
 Alpha virt. eigenvalues --    1.81631   1.82216   1.83419   1.84127   1.84321
 Alpha virt. eigenvalues --    1.85403   1.85535   1.86099   1.86921   1.88172
 Alpha virt. eigenvalues --    1.89151   1.90421   1.91494   1.92048   1.93538
 Alpha virt. eigenvalues --    1.94272   1.94547   1.95866   1.98482   1.99348
 Alpha virt. eigenvalues --    1.99895   2.00159   2.00237   2.00919   2.02095
 Alpha virt. eigenvalues --    2.03836   2.04900   2.05730   2.07457   2.09072
 Alpha virt. eigenvalues --    2.09288   2.10181   2.11155   2.11409   2.12591
 Alpha virt. eigenvalues --    2.13058   2.13331   2.14219   2.14436   2.15405
 Alpha virt. eigenvalues --    2.15633   2.16326   2.16693   2.17893   2.19778
 Alpha virt. eigenvalues --    2.20496   2.21722   2.22335   2.23079   2.25210
 Alpha virt. eigenvalues --    2.27153   2.27776   2.29134   2.30400   2.31860
 Alpha virt. eigenvalues --    2.32072   2.32293   2.32637   2.33210   2.33700
 Alpha virt. eigenvalues --    2.34520   2.36742   2.38843   2.39731   2.41486
 Alpha virt. eigenvalues --    2.44085   2.45608   2.47371   2.47704   2.47981
 Alpha virt. eigenvalues --    2.49489   2.51378   2.51650   2.53282   2.55403
 Alpha virt. eigenvalues --    2.56598   2.57119   2.57664   2.60637   2.63230
 Alpha virt. eigenvalues --    2.63876   2.67205   2.68039   2.68234   2.68705
 Alpha virt. eigenvalues --    2.69913   2.72997   2.73045   2.73340   2.74028
 Alpha virt. eigenvalues --    2.74199   2.74292   2.75400   2.76353   2.77455
 Alpha virt. eigenvalues --    2.78759   2.78945   2.80215   2.82445   2.83225
 Alpha virt. eigenvalues --    2.87190   2.88651   2.90436   2.92326   2.97787
 Alpha virt. eigenvalues --    2.98735   2.99286   2.99797   3.03429   3.07216
 Alpha virt. eigenvalues --    3.07395   3.13945   3.16022   3.25242   3.27827
 Alpha virt. eigenvalues --    3.38564   3.40803   3.41687   3.42165   3.42280
 Alpha virt. eigenvalues --    3.57816   3.62429
          Condensed to atoms (all electrons):
 Mulliken charges:
               1
     1  C   -0.162883
     2  C   -0.153879
     3  C    0.029023
     4  C    0.054113
     5  C   -0.116268
     6  C   -0.040670
     7  C   -0.043989
     8  C   -0.041411
     9  C   -0.101410
    10  C    0.129355
    11  N   -0.167566
    12  C   -0.035298
    13  C    0.124240
    14  C   -0.111101
    15  C   -0.040109
    16  C   -0.028930
    17  C   -0.051515
    18  C   -0.138235
    19  C    0.100092
    20  O   -0.301061
    21  C    0.107323
    22  N   -0.175238
    23  C   -0.041626
    24  C    0.127336
    25  C   -0.139211
    26  C   -0.050762
    27  C   -0.029842
    28  C   -0.039277
    29  C   -0.109137
    30  C    0.102197
    31  O   -0.295678
    32  H    0.122903
    33  H    0.108099
    34  H    0.081723
    35  H    0.075536
    36  H    0.086893
    37  H    0.034571
    38  H    0.044631
    39  H    0.046201
    40  H    0.042861
    41  H    0.049580
    42  H    0.051569
    43  H    0.081315
    44  H    0.044247
    45  H    0.040402
    46  H    0.039660
    47  H    0.026810
    48  H    0.101866
    49  H    0.087219
    50  H    0.051100
    51  H    0.026621
    52  H    0.039824
    53  H    0.040893
    54  H    0.044724
    55  H    0.081687
    56  H    0.089420
    57  H    0.101064
 Sum of Mulliken charges =  -0.00000
 Mulliken charges with hydrogens summed into heavy atoms:
               1
     1  C    0.149841
     2  C   -0.153879
     3  C    0.191452
     4  C    0.054113
     5  C   -0.081697
     6  C    0.003960
     7  C    0.002212
     8  C    0.001450
     9  C   -0.051830
    10  C    0.129355
    11  N   -0.167566
    12  C    0.016271
    13  C    0.124240
    14  C   -0.029786
    15  C    0.004138
    16  C    0.011472
    17  C   -0.011855
    18  C   -0.111425
    19  C    0.289177
    20  O   -0.301061
    21  C    0.107323
    22  N   -0.175238
    23  C    0.009474
    24  C    0.127336
    25  C   -0.112590
    26  C   -0.010938
    27  C    0.011050
    28  C    0.005447
    29  C   -0.027450
    30  C    0.292681
    31  O   -0.295678
 Electronic spatial extent (au):  <R**2>=          11907.3028
 Charge=             -0.0000 electrons
 Dipole moment (field-independent basis, Debye):
    X=             -0.0764    Y=              0.1781    Z=             -0.0665  Tot=              0.2049
 Quadrupole moment (field-independent basis, Debye-Ang):
   XX=           -177.4875   YY=           -170.4328   ZZ=           -173.8671
   XY=              5.0602   XZ=             10.1497   YZ=             -0.3442
 Traceless Quadrupole moment (field-independent basis, Debye-Ang):
   XX=             -3.5584   YY=              3.4963   ZZ=              0.0620
   XY=              5.0602   XZ=             10.1497   YZ=             -0.3442
 Octapole moment (field-independent basis, Debye-Ang**2):
  XXX=             13.4296  YYY=              9.6429  ZZZ=             33.5492  XYY=             -4.4316
  XXY=             17.4257  XXZ=             -5.9129  XZZ=            -13.7187  YZZ=             -9.8911
  YYZ=             -3.7386  XYZ=             11.9763
 Hexadecapole moment (field-independent basis, Debye-Ang**3):
 XXXX=          -3349.7546 YYYY=          -5933.6008 ZZZZ=          -6758.7790 XXXY=            -62.1032
 XXXZ=           -855.9918 YYYX=            -43.0990 YYYZ=           2092.3403 ZZZX=           -706.3711
 ZZZY=           2209.9345 XXYY=          -1652.4604 XXZZ=          -1646.5423 YYZZ=          -2090.0757
 XXYZ=            813.0240 YYXZ=           -273.3225 ZZXY=            -80.0875
 N-N= 3.135218888784D+03 E-N=-9.296384911084D+03  KE= 1.291705985295D+03
 No NMR shielding tensors so no spin-rotation constants.
 Leave Link  601 at Sun Feb 25 12:04:01 2024, MaxMem=  7516192768 cpu:              20.6 elap:               0.7
 (Enter /public/apps/g16-C01//g16/l701.exe)
 ... and contract with generalized density number  0.
 Compute integral first derivatives.
 R6Disp: Adding Grimme-D3(BJ) dispersion energy 1st derivatives to the gradient.
   1 Symmetry operations used in ECPInt.
 ECPInt:  NShTT=   28441 NPrTT=  114007 LenC2=   25697 LenP2D=   67612.
 LDataN:  DoStor=T MaxTD1= 5 Len=  102
 Leave Link  701 at Sun Feb 25 12:04:02 2024, MaxMem=  7516192768 cpu:              12.6 elap:               0.4
 (Enter /public/apps/g16-C01//g16/l702.exe)
 L702 exits ... SP integral derivatives will be done elsewhere.
 Leave Link  702 at Sun Feb 25 12:04:02 2024, MaxMem=  7516192768 cpu:               0.8 elap:               0.0
 (Enter /public/apps/g16-C01//g16/l703.exe)
 Integral derivatives from FoFJK, PRISM(SPDF).
 Compute integral first derivatives, UseDBF=F ICtDFT=           0.
 Calling FoFJK, ICntrl=      2127 FMM=F ISym2X=0 I1Cent= 0 IOpClX= 0 NMat=1 NMatS=1 NMatT=0.
 FoFJK:  IHMeth= 1 ICntrl=    2127 DoSepK=F KAlg= 0 I1Cent=           0 FoldK=F
 IRaf=         0 NMat=       1 IRICut=       1 DoRegI=T DoRafI=F ISym2E= 0 IDoP0=0 IntGTp=1.
 FoFCou: FMM=F IPFlag=           0 FMFlag=      100000 FMFlg1=         800
         NFxFlg=           0 DoJE=F BraDBF=F KetDBF=F FulRan=T
         wScrn=  0.000000 ICntrl=      2127 IOpCl=  0 I1Cent=           0 NGrid=           0
         NMat0=    1 NMatS0=      1 NMatT0=    0 NMatD0=    1 NMtDS0=    0 NMtDT0=    0
 Symmetry not used in FoFCou.
 Leave Link  703 at Sun Feb 25 12:04:10 2024, MaxMem=  7516192768 cpu:             321.3 elap:               8.2
 (Enter /public/apps/g16-C01//g16/l716.exe)
 Dipole        =-3.00688245D-02 7.00607888D-02-2.61685551D-02
 -------------------------------------------------------------------
 Center     Atomic                   Forces (Hartrees/Bohr)
 Number     Number              X              Y              Z
 -------------------------------------------------------------------
      1        6           0.001527442   -0.004397846   -0.000886416
      2        6           0.001881422    0.003626913   -0.000135108
      3        6          -0.007503125   -0.000959285   -0.002579418
      4        6           0.009907699   -0.000541023    0.003443746
      5        6           0.001288954    0.002096963    0.000524506
      6        6          -0.001285244    0.004444693   -0.000703954
      7        6          -0.003434466    0.000727452   -0.003247334
      8        6          -0.002446941   -0.003079651   -0.002025629
      9        6           0.000531546   -0.003776656   -0.000591675
     10        6           0.001703660    0.002950301    0.002443259
     11        7          -0.012864202    0.004414360    0.006681653
     12        6           0.003369476   -0.005006126   -0.002707167
     13        6           0.001855377    0.008310399    0.003575052
     14        6           0.001976430    0.000574447   -0.002644975
     15        6           0.001281546   -0.001304654   -0.004226141
     16        6           0.000000564   -0.004165205    0.001147164
     17        6           0.000182081   -0.003366024    0.004452148
     18        6           0.000234083    0.002760254    0.000525732
     19        6           0.003025221   -0.000430689    0.007709192
     20        8           0.000011741    0.002855819   -0.011369844
     21        6          -0.002150535   -0.000279785   -0.000571228
     22        7           0.013141792   -0.005351496   -0.005366658
     23        6          -0.004351230    0.000500291    0.005005485
     24        6          -0.000447472    0.000605154   -0.009200980
     25        6           0.000109181    0.000927633   -0.002762290
     26        6          -0.001092826   -0.005361550    0.000992921
     27        6          -0.000802116   -0.002922988    0.003113733
     28        6          -0.001062084    0.003416043    0.002943682
     29        6          -0.001500841    0.002960246    0.000483728
     30        6          -0.003923336   -0.006682812   -0.004003844
     31        8           0.001899468    0.010629840    0.002954551
     32        1          -0.006403515    0.003856184   -0.005036089
     33        1          -0.004281450   -0.000335174    0.008320367
     34        1           0.007133823    0.007440355    0.000856746
     35        1           0.005596473    0.004093578    0.000829031
     36        1           0.004172472   -0.004056078   -0.000971388
     37        1           0.004572935    0.007048741    0.004747728
     38        1          -0.002095500    0.009497122   -0.002365877
     39        1          -0.006820792    0.002018502   -0.007224147
     40        1          -0.004232475   -0.007563622   -0.004855071
     41        1           0.002250534   -0.008347095    0.002169221
     42        1           0.002209766    0.001119868    0.004996605
     43        1          -0.002149534    0.002884088   -0.008314020
     44        1          -0.002924238   -0.005661379   -0.007688769
     45        1          -0.001592010   -0.009839370    0.001344253
     46        1           0.000830917   -0.004102824    0.009235399
     47        1           0.001994434    0.006037490    0.007649830
     48        1           0.003484736   -0.003602691   -0.002162659
     49        1           0.004427929    0.004210334    0.001390446
     50        1          -0.002090180   -0.003568684   -0.003649458
     51        1          -0.001464268   -0.003854546   -0.009031280
     52        1          -0.002148653   -0.009876946   -0.000684956
     53        1          -0.000141544   -0.005757497    0.008261344
     54        1           0.002474658    0.003937374    0.008870499
     55        1           0.003338806    0.008350577    0.001531825
     56        1          -0.003256994    0.001219803   -0.004884368
     57        1          -0.003949594    0.000676871    0.003690895
 -------------------------------------------------------------------
 Cartesian Forces:  Max     0.013141792 RMS     0.004607056
 Leave Link  716 at Sun Feb 25 12:04:10 2024, MaxMem=  7516192768 cpu:               1.5 elap:               0.1
 (Enter /public/apps/g16-C01//g16/l103.exe)

 GradGradGradGradGradGradGradGradGradGradGradGradGradGradGradGradGradGrad
 Berny optimization.
 FormGI is forming the generalized inverse of G from B-inverse, IUseBI=4.
 Internal  Forces:  Max     0.017067905 RMS     0.005138177
 Search for a local minimum.
 Step number   1 out of a maximum of  335
 All quantities printed in internal units (Hartrees-Bohrs-Radians)
 RMS Force = .51382D-02 SwitMx=.10000D-02 MixMth= 1
 Mixed Optimization -- RFO/linear search
 Second derivative matrix not updated -- first step.
 ITU=  0
     Eigenvalues ---    0.00230   0.00377   0.00607   0.00610   0.00636
     Eigenvalues ---    0.00638   0.00725   0.00736   0.00744   0.01525
     Eigenvalues ---    0.01537   0.01597   0.01597   0.01628   0.02237
     Eigenvalues ---    0.02247   0.02247   0.02263   0.02270   0.02273
[...]
 906,-0.00053384,0.00202250,-0.00060419,0.00063584,-0.00060645,-0.00036
 420,0.00032588,-0.00043327,-0.00023708,0.00019093,-0.00002700,-0.00036
 790,0.00017174,-0.00001663,0.00017571,-0.00010660,0.00006928,-0.000093
 10,-0.00004021,-0.00011764,-0.00004063,0.00007591,0.00007381,0.0000460
 2,-0.00005011,-0.00008831,-0.00006805,-0.00002746,-0.00023996,0.001169
 52,-0.00025889,-0.00068138,0.00149964,-0.00025356,-0.00032781,-0.00016
 092,-0.00001264,0.00039843,-0.00303752,0.00049583,0.00082451,0.0022317
 1,-0.00500921,-0.00003546,0.00581075,-0.00127560,-0.00116791,-0.000645
 24,0.00032899,-0.00004878,0.00662651,-0.00111796,-0.00074757,0.0038646
 9,-0.00061629,-0.00065467,-0.06362427,-0.08461763,-0.00894817,0.000172
 95,0.00023688,-0.00057333,-0.00082756,0.00017505,0.00077092,-0.0000290
 5,0.00008842,-0.00001501,0.00011196,-0.00000758,0.00004658,-0.00001786
 ,-0.00003459,0.00001493,-0.00000800,-0.00002973,0.00002618,0.00001590,
 0.00001380,0.00002653,0.00000313,-0.00001155,0.00000093,-0.00000130,0.
 00000308,-0.00000406,-0.00000004,0.00000025,-0.00000569,-0.00000177,-0
 .00000337,-0.00001408,0.00002514,-0.00000294,-0.00000853,0.00004183,0.
 00000042,0.00004565,0.00005066,0.00006775,0.00009201,0.00001591,-0.000
 04165,-0.00002405,0.00000637,-0.00002590,0.00000949,0.00000932,-0.0000
 2194,0.00001830,0.00000260,0.00001416,-0.00000356,0.00005128,-0.000007
 26,-0.00001636,0.00004261,0.00002461,0.00002076,-0.00014000,-0.0000019
 9,0.00009657,0.00027088,-0.00019524,0.00003625,-0.00093452,0.00022058,
 0.00011419,0.00010358,0.00009891,-0.00005604,-0.00378634,0.00123958,0.
 00051199,0.05372229,-0.00005769,0.00002306,0.00007081,-0.00002789,0.00
 002910,-0.00004694,-0.00002012,-0.00001936,-0.00000891,0.00001145,-0.0
 0000368,0.00000131,-0.00000048,0.00000678,-0.00000857,0.00000445,-0.00
 000508,0.00000291,-0.00000224,-0.00000188,-0.00000363,-0.00000913,-0.0
 0000263,-0.00000258,-0.00001187,0.00001527,0.00001288,-0.00015147,-0.0
 0024125,0.00048514,-0.00057270,-0.00126852,0.00004254,0.00016747,0.000
 30318,-0.00033387,-0.00000971,0.00030539,-0.00002750,-0.00021322,0.000
 07087,0.00000067,-0.00013782,-0.00013054,0.00004182,0.00001257,-0.0000
 2327,-0.00007337,0.00002008,0.00008502,-0.00000570,-0.00001082,-0.0001
 3646,0.00016577,0.00007395,-0.00002372,-0.00003651,0.00028904,0.000080
 91,-0.00006651,0.00000582,0.00043871,0.00115495,0.00025432,0.00001476,
 0.00057844,0.00074801,-0.00102415,0.00060801,-0.00353285,-0.00615660,-
 0.00038652,-0.00203252,0.00138225,-0.00161816,0.00035760,0.00076406,0.
 00018006,-0.00186569,0.00055717,0.00328635,-0.00527180,-0.01153474,-0.
 00311637,-0.07949968,-0.31181766,-0.01999410,-0.00002712,0.00014745,-0
 .00023225,0.00004345,-0.00037773,0.00019409,0.00001111,0.00002265,-0.0
 0001690,0.00003199,-0.00016805,-0.00000265,0.00001677,0.00000164,-0.00
 002711,-0.00000761,-0.00000561,0.00000488,0.00001164,-0.00000002,-0.00
 001599,-0.00000272,-0.00000582,0.00000152,-0.00000072,0.00000022,0.000
 00036,-0.00000029,-0.00000068,-0.00000079,-0.00000088,-0.00000092,-0.0
 0000243,0.00000589,-0.00001482,-0.00000344,0.00000167,-0.00002315,0.00
 002473,0.00005413,0.00001471,-0.00008039,-0.00000321,0.00001154,0.0000
 1691,-0.00000226,0.00001571,-0.00000798,-0.00001172,0.00000342,-0.0000
 0840,0.00000563,-0.00000360,-0.00002464,0.00004585,0.00001287,-0.00003
 472,0.00000525,-0.00001498,0.00000798,0.00000086,0.00003849,-0.0000345
 2,-0.00009824,-0.00024835,0.00015683,0.00031941,-0.00013712,-0.0000307
 1,-0.00018065,-0.00052161,-0.00020645,0.00161650,0.00054314,-0.0004136
 1,0.08981400,0.32905740,-0.00005928,0.00001292,-0.00001984,0.00003064,
 0.00012657,0.00006069,-0.00004006,-0.00004577,-0.00008849,-0.00001589,
 0.00000664,-0.00001297,0.00000244,0.00001458,0.00000639,0.00000602,-0.
 00000103,0.00000653,0.00000173,-0.00000752,0.00000094,-0.00002694,-0.0
 0002049,-0.00001166,-0.00001269,0.00002755,0.00004692,0.00055962,-0.00
 006042,0.00038873,-0.00035326,-0.00001051,-0.00107957,-0.00021461,-0.0
 0002632,0.00010146,-0.00011220,-0.00000813,-0.00000409,0.00000048,0.00
 003091,0.00017541,-0.00004048,-0.00004400,-0.00004087,0.00000676,0.000
 00262,-0.00002321,0.00003651,0.00006730,-0.00004093,0.00006966,-0.0000
 3138,-0.00002361,-0.00000064,0.00002160,0.00000368,0.00014803,0.000090
 05,-0.00028306,0.00077833,0.00137697,-0.00127534,-0.00021224,-0.000105
 06,-0.00023905,0.00024622,-0.00065745,0.00057567,-0.00757366,-0.026986
 85,0.00339020,-0.00137666,-0.00093660,-0.00484172,-0.00002091,0.000169
 19,-0.00097144,-0.00070592,0.00251619,-0.00394411,0.00747745,0.0266094
 2,0.00615423,-0.00846281,-0.02109921,-0.06203520,-0.00052440,-0.000211
 53,-0.00045385,-0.00004200,0.00023650,0.00006268,0.00000527,0.00002697
 ,-0.00001680,0.00002616,0.00001869,0.00003616,-0.00001022,-0.00004805,
 -0.00000010,-0.00003091,-0.00003488,0.00005252,0.00002505,0.00000615,0
 .00000024,-0.00000147,-0.00000273,-0.00000405,0.00000249,-0.00000668,0
 .00000246,0.00000592,-0.00000454,0.00000407,0.00000395,0.00000347,-0.0
 0000245,0.00001526,-0.00002585,-0.00004409,-0.00005200,-0.00000734,-0.
 00002993,0.00011582,-0.00005656,-0.00002743,-0.00000776,-0.00000534,0.
 00000047,0.00000598,-0.00001047,-0.00001025,-0.00000378,0.00000303,0.0
 0000553,-0.00003257,-0.00000164,-0.00002116,0.00000187,0.00000111,-0.0
 0000664,-0.00000085,0.00000418,-0.00000860,0.00004179,-0.00002540,0.00
 025550,-0.00034855,-0.00142834,-0.00012076,0.00012359,-0.00002293,0.00
 008259,0.00029857,0.00123025,0.00010502,0.00049281,-0.00056473,0.00100
 263,0.00978196,0.01984060,0.06320482,-0.00003616,0.00006862,0.00001113
 ,-0.00017167,0.00009433,0.00036051,-0.00016972,-0.00009920,-0.00021138
 ,-0.00012041,-0.00011109,-0.00030240,-0.00003704,0.00008612,-0.0000020
 9,0.00002469,0.00007659,0.00007361,0.00009401,-0.00015690,0.00003891,0
 .00018885,0.00006436,0.00003530,0.00017389,0.00010676,-0.00010275,0.00
 017138,0.00002454,0.00007913,-0.00003132,-0.00004875,-0.00003434,0.000
 01601,0.00000693,0.00002757,-0.00000808,0.00001017,-0.00000017,-0.0000
 1731,-0.00000069,0.00001283,-0.00000484,-0.00000441,-0.00001113,-0.000
 00272,-0.00000470,0.00000234,-0.00000528,-0.00000011,-0.00000029,0.000
 00276,0.00000194,0.00000235,0.00000878,0.00000912,0.00001290,-0.000090
 99,0.00001145,0.00001105,0.00251204,-0.00269391,-0.00121852,-0.0010639
 8,0.00061939,0.00095766,-0.00454739,0.00443287,-0.01844550,-0.00220670
 ,0.00155663,0.00136396,0.00001399,0.00010194,-0.00067684,0.00016884,0.
 00007454,0.00008442,-0.00004147,0.00000788,-0.00009958,0.00019957,0.00
 004833,-0.00013135,0.00018301,-0.00003167,0.00003513,-0.09448179,0.016
 23894,-0.08891784,-0.01451716,-0.00784540,-0.01874723,0.00003865,0.000
 02760,-0.00003781,0.00001031,0.00005232,0.00008475,-0.00003015,-0.0000
 4442,0.00000203,-0.00000655,-0.00000828,0.00010382,0.00001496,0.000006
 34,0.00000944,0.00001186,0.00004155,0.00000250,0.00000867,0.00001872,0
 .00000141,-0.00001214,0.00001461,-0.00001195,-0.00001432,0.00000259,0.
 00010415,-0.00016661,0.00007073,0.00000532,-0.00000568,-0.00000153,-0.
 00000639,0.00004191,-0.00000938,0.00000852,0.00001118,-0.00000691,-0.0
 0000312,0.00000493,0.00000030,-0.00000171,0.00000112,0.00000163,-0.000
 00379,-0.00000012,-0.00000312,-0.00000479,-0.00000057,0.00000418,-0.00
 000415,-0.00000472,-0.00000556,-0.00000330,0.00144714,-0.00058109,0.00
 030412,-0.00004644,0.00004049,0.00005693,0.00000254,0.00004696,-0.0000
 4945,-0.00002213,0.00000706,-0.00000792,-0.00000453,0.00000949,-0.0000
 3727,-0.00016479,-0.00003304,0.00001858,0.10060418,-0.00004489,0.00015
 655,-0.00004664,-0.00039495,0.00007479,0.00099684,-0.00024121,-0.00014
 208,-0.00024879,-0.00002702,-0.00002181,-0.00010145,-0.00000590,0.0000
 1004,-0.00000029,0.00000930,-0.00001774,0.00001851,0.00005567,-0.00010
 100,0.00000197,0.00012615,0.00005981,0.00002027,-0.00006330,0.00009450
 ,-0.00008233,0.00021531,-0.00011648,0.00023925,-0.00004293,0.00011795,
 -0.00017546,0.00001609,-0.00005960,0.00003897,-0.00000900,-0.00002994,
 -0.00001152,0.00001207,-0.00000711,0.00003026,0.00001245,-0.00000948,-
 0.00001065,0.00001187,0.00002120,-0.00001318,0.00000936,0.00000740,-0.
 00001083,0.00000222,0.00001083,-0.00000175,0.00000945,0.00000563,0.000
 03836,-0.00006639,0.00005680,-0.00010654,0.00608892,-0.00589546,-0.004
 21303,0.00127106,0.00251397,0.00133336,0.00709779,-0.00319460,0.019968
 66,0.00333340,-0.00187813,-0.00091628,0.00008388,0.00019441,0.00034699
 ,-0.00021977,-0.00005182,0.00027278,-0.00004910,-0.00034008,-0.0000345
 9,-0.00006677,0.00030509,-0.00021107,-0.00007443,-0.00038030,0.0003483
 0,0.01999319,-0.05066023,0.03950266,-0.02837895,-0.00460558,-0.0294467
 8,0.00001925,0.00003002,-0.00001390,0.00001791,0.00004582,0.00008012,-
 0.00003133,-0.00005178,0.00002986,-0.00005228,0.00000338,0.00011661,-0
 .00000335,-0.00000896,0.00004549,0.00000378,0.00000895,-0.00000229,0.0
 0000096,-0.00000351,0.00000500,-0.00000210,-0.00000251,0.00001174,-0.0
 0002051,0.00001203,-0.00000086,0.00006109,-0.00004984,-0.00003081,-0.0
 0001324,0.00000665,-0.00001228,0.00000782,-0.00001495,0.00001133,-0.00
 002015,0.00001153,0.00001436,-0.00001008,0.00001035,-0.00000348,-0.000
 00446,0.00000360,-0.00000074,-0.00000284,0.00000075,0.00000443,-0.0000
 1384,0.00000222,-0.00000062,-0.00000098,0.00000492,-0.00001025,-0.0002
 3621,0.00064768,0.00053142,0.00010126,-0.00007061,-0.00008536,-0.00003
 089,-0.00004338,0.00004148,0.00000437,-0.00001367,0.00000882,0.0000141
 3,-0.00000619,0.00003993,0.00002660,-0.00002433,0.00003257,-0.01036773
 ,0.06126649,-0.00001398,0.00002117,-0.00001265,0.00004177,0.00006915,-
 0.00013924,0.00003959,0.00004912,-0.00001207,-0.00007987,0.00001141,-0
 .00010103,0.00000818,0.00000322,0.00001660,0.00000478,0.00000144,-0.00
 002161,0.00002134,-0.00001862,0.00002968,-0.00001428,-0.00001792,-0.00
 003139,0.00011775,0.00000338,0.00003068,0.00010755,-0.00002661,-0.0000
 3506,-0.00006877,-0.00004962,0.00000004,0.00002517,0.00000289,0.000032
 57,-0.00001014,0.00001248,-0.00000158,-0.00002862,-0.00000585,0.000016
 41,-0.00001639,-0.00000132,-0.00001560,-0.00000595,-0.00000727,0.00000
 792,-0.00000450,-0.00000238,0.00000338,0.00000092,0.00000581,0.0000054
 7,0.00001485,0.00000878,0.00002255,-0.00011206,0.00001808,0.00000876,0
 .00316455,-0.00117168,-0.00100686,-0.00039076,0.00068668,-0.00044537,0
 .00239344,-0.00087092,0.00320902,0.00012603,0.00057217,0.00068362,-0.0
 0028403,-0.00026046,-0.00007614,0.00004110,0.00007372,-0.00016037,0.00
 003932,0.00012617,0.00005407,-0.00004726,-0.00004273,0.00019321,-0.000
 15573,0.00005179,0.00019881,-0.09452342,0.03350096,-0.26991581,-0.0078
 1203,-0.00729636,0.00275808,0.00000367,0.00004939,-0.00001823,0.000000
 58,0.00003281,0.00004326,-0.00002582,-0.00002969,0.00000410,0.00000766
 ,-0.00001294,0.00002080,0.00001586,-0.00000165,0.00000865,0.00000173,0
 .00001517,-0.00000050,-0.00000187,-0.00000499,0.00000661,-0.00000108,-
 0.00000690,0.00001837,-0.00000516,0.00000464,0.00003629,-0.00007588,0.
 00008606,-0.00005164,-0.00000366,-0.00000157,-0.00000690,0.00003768,-0
 .00000289,-0.00000540,0.00001181,-0.00000713,-0.00000323,0.00000682,0.
 00000128,-0.00000158,0.00000241,0.00000174,-0.00000535,0.00000208,-0.0
 0000398,-0.00000451,-0.00000216,0.00000440,-0.00000274,-0.00000736,-0.
 00000752,-0.00000431,0.00011952,0.00028246,0.00164717,-0.00000371,0.00
 003814,0.00003208,0.00001817,0.00001832,-0.00001408,0.00000696,0.00001
 653,-0.00000919,0.00000241,-0.00000973,-0.00000312,0.00013789,0.000021
 53,0.00004970,0.10636249,-0.02953583,0.27978795,-0.00006031,0.00004424
 ,0.00005760,-0.00038028,0.00038983,-0.00028293,0.00000643,0.00000920,-
 0.00007104,-0.00006010,-0.00002107,-0.00007391,-0.00000680,0.00004135,
 0.00001231,0.00001278,0.00001736,0.00001777,0.00003610,-0.00004729,0.0
 0001691,0.00000973,-0.00000912,-0.00003337,0.00005485,0.00004758,0.000
 00478,0.00004461,-0.00023223,0.00039359,-0.00000747,0.00007914,-0.0001
 8242,0.00002768,-0.00002241,0.00002799,-0.00001787,-0.00002410,-0.0000
 2324,0.00001675,-0.00001380,0.00006179,0.00002307,-0.00000877,-0.00001
 791,0.00001696,0.00002077,-0.00001446,0.00000949,0.00000920,-0.0000197
 7,0.00000632,0.00000791,-0.00000457,0.00002312,0.00001026,0.00005655,-
 0.00004126,0.00004220,-0.00019215,-0.00021985,-0.00220028,0.00074108,-
 0.00265931,0.00012289,0.00020709,-0.00885783,-0.00001171,0.01185581,0.
 00075037,-0.00129280,0.00118411,0.00032789,0.00043599,-0.00033464,-0.0
 0007491,-0.00003266,0.00032453,-0.00009511,-0.00025397,-0.00011501,0.0
 0005530,0.00022905,-0.00038320,0.00046841,-0.00016086,-0.00007279,-0.1
 7654416,-0.01221334,0.13204077,-0.01630423,-0.00721471,0.00811385,0.00
 001090,0.00005952,-0.00001419,0.00001276,-0.00000442,0.00001574,-0.000
 01434,-0.00005269,-0.00003270,-0.00000789,-0.00005606,0.00004889,0.000
 04182,-0.00000484,-0.00001126,0.00000118,0.00000973,-0.00000421,0.0000
 0473,-0.00000222,0.00000436,0.00000122,-0.00000424,0.00000691,-0.00000
 066,0.00001222,0.00004208,-0.00004295,0.00001237,-0.00005497,-0.000021
 58,0.00000538,-0.00001726,0.00004848,-0.00002667,0.00004334,-0.0000173
 0,0.00000303,0.00001841,-0.00001109,0.00001221,-0.00000603,-0.00000593
 ,0.00000502,-0.00000330,-0.00000596,-0.00000040,-0.00000021,-0.0000119
 9,0.00000410,-0.00000574,-0.00000299,0.00000308,-0.00001390,-0.0015817
 7,0.00135440,-0.00013540,-0.00003331,-0.00007637,-0.00004355,-0.000007
 68,-0.00001087,-0.00001159,-0.00001277,-0.00002899,0.00000966,-0.00001
 966,0.00002128,0.00000971,-0.00033309,-0.00013275,-0.00004617,0.012077
 55,0.00188926,-0.00918960,0.19337198,0.00003483,0.00012502,0.00005747,
 -0.00077716,0.00070622,-0.00078047,0.00011213,0.00000887,-0.00004591,-
 0.00000402,0.00002606,0.00001250,-0.00000491,0.00001221,0.00000454,0.0
 0000145,0.00000843,-0.00000751,0.00000805,0.00000002,0.00000270,-0.000
 00863,0.00001090,-0.00000433,0.00003072,-0.00005919,0.00000332,-0.0000
 9979,-0.00031069,0.00013948,-0.00000094,0.00003098,-0.00000927,0.00000
 772,0.00001397,0.00000086,-0.00001324,0.00000382,0.00000710,-0.0000193
 8,0.00001349,-0.00003462,-0.00001910,-0.00000573,0.00000697,-0.0000069
 9,-0.00000640,0.00000263,-0.00000386,-0.00000056,0.00000934,0.00000100
 ,0.00000728,0.00001358,-0.00001052,0.00001117,0.00001500,-0.00012866,0
 .00006972,-0.00007199,0.00380936,-0.00817511,0.00124734,0.00368031,0.0
 0068290,0.00002437,0.01433105,0.00411783,-0.01474040,0.00033702,0.0014
 0386,-0.00107674,-0.00021972,-0.00024225,-0.00011586,-0.00003915,-0.00
 001664,-0.00008592,0.00009221,0.00013460,0.00002383,-0.00009426,-0.000
 08229,0.00020105,0.00003173,0.00011158,0.00025185,-0.00710827,-0.04603
 020,0.01007224,-0.03280573,-0.00899053,0.01671864,0.00000209,0.0000573
 4,0.00001330,-0.00001326,0.00000867,-0.00000890,-0.00000997,-0.0000145
 3,-0.00001641,0.00000149,-0.00000779,0.00001087,-0.00003221,-0.0000018
 8,0.00003045,-0.00000117,0.00000515,-0.00000287,-0.00000070,-0.0000033
 0,0.00000302,-0.00000121,0.00000101,0.00000585,0.00000440,0.00000108,0
 .00000331,-0.00001010,0.00000479,0.00000653,-0.00000408,0.00000072,-0.
 00000339,-0.00001855,0.00001886,-0.00004402,0.00001182,0.00000132,-0.0
 0001053,0.00000724,-0.00000506,0.00000244,0.00000329,0.00000095,-0.000
 00084,0.00000023,-0.00000335,-0.00000048,-0.00000595,0.00000303,-0.000
 01119,-0.00000537,-0.00000268,-0.00000181,0.00150686,-0.00153756,-0.00
 023020,0.00006860,0.00004011,0.00000607,0.00000052,0.00001470,-0.00000
 729,0.00000530,0.00000820,-0.00000747,0.00001171,-0.00001140,-0.000012
 09,0.00003281,-0.00000944,0.00002172,-0.00192812,0.00211782,0.00360566
 ,0.01926106,0.05573391,0.00000817,0.00004254,0.00003135,-0.00029454,0.
 00023447,-0.00031344,0.00002572,0.00002780,-0.00002205,-0.00006008,-0.
 00003516,-0.00007250,-0.00001321,0.00003583,0.00000062,0.00000840,0.00
 002914,0.00002498,0.00003439,-0.00005954,0.00002153,0.00005301,0.00002
 851,-0.00001185,0.00009896,0.00000270,-0.00002889,-0.00007831,-0.00010
 746,0.00007135,0.00002895,0.00001497,-0.00000168,0.00000190,0.00000561
 ,-0.00001048,-0.00000060,0.00000468,0.00000162,-0.00000132,0.00000590,
 -0.00000675,0.00000235,-0.00000426,0.00000442,0.00000166,0.00000233,-0
 .00000420,0.00000184,0.00000328,-0.00000368,-0.00000170,-0.00000410,0.
 00000097,-0.00001323,0.00000767,-0.00000385,-0.00000394,0.00000831,-0.
 00001951,-0.00179669,-0.00155213,-0.00009323,-0.00139191,0.00023977,-0
 .00007172,-0.00276737,-0.00000314,0.00273697,-0.00070780,0.00109433,0.
 00061735,-0.00029830,-0.00018047,0.00024529,-0.00002652,-0.00005798,-0
 .00012532,-0.00001585,0.00007826,0.00003695,0.00010975,-0.00004453,0.0
 0004928,-0.00022070,0.00002803,0.00027036,0.14142241,0.01546190,-0.200
 05309,-0.00902885,-0.00148350,0.01206208,0.00001958,0.00000201,-0.0000
 1351,0.00000190,-0.00002041,-0.00001814,0.00000541,-0.00000168,-0.0000
 1346,0.00001089,-0.00000658,0.00001048,-0.00000157,-0.00000306,0.00000
 575,0.00000482,0.00001438,0.00000322,0.00000457,0.00001257,-0.00000180
 ,-0.00000703,0.00000565,-0.00000805,-0.00000363,0.00000252,0.00005799,
 -0.00009559,0.00005790,-0.00000015,-0.00000093,-0.00000013,0.00000176,
 -0.00000646,-0.00000200,0.00000145,-0.00000192,0.00000136,-0.00000040,
 -0.00000106,-0.00000072,0.00000015,-0.00000002,-0.00000045,0.00000165,
 -0.00000105,0.00000115,0.00000077,-0.00000070,-0.00000034,-0.00000373,
 0.00000167,0.00000168,0.00000096,0.00006174,0.00023627,0.00042605,0.00
 002951,-0.00004943,-0.00006353,0.00005107,-0.00003061,0.00000515,0.000
 00945,-0.00001618,0.00000383,-0.00004742,-0.00000254,0.00002526,-0.000
 10589,-0.00002883,-0.00009395,0.01890022,0.00119724,-0.01682029,-0.143
 90414,-0.01519353,0.20115964\\0.00000488,-0.00000294,0.00000302,0.0000
 0042,0.00000515,-0.00000215,0.00000092,-0.00000128,0.00000740,-0.00000
 220,0.00000092,-0.00000137,0.00000029,-0.00000016,-0.00000144,0.000000
 10,-0.00000037,0.00000028,-0.00000016,0.00000051,0.00000190,0.00000116
 ,0.00000104,0.00000123,0.,0.00000046,-0.00000269,0.00002496,0.00000111
 ,0.00000480,-0.00001640,-0.00000223,0.00000499,0.00000895,0.00000608,-
 0.00000767,-0.00000485,-0.00000299,0.00000175,0.00000238,-0.00000099,-
 0.00000058,0.00000178,0.00000052,-0.00000003,-0.00000054,0.00000086,-0
 .00000038,-0.00000043,-0.00000126,-0.00000177,-0.00000024,0.00000010,-
 0.00000187,0.00000071,-0.00000694,0.00001686,-0.00001222,0.00000334,-0
 .00001716,-0.00002217,0.00000108,0.00000901,-0.00000784,-0.00000337,-0
 .00000326,0.00001596,0.00000649,-0.00000045,-0.00000131,-0.00000696,0.
 00000232,-0.00000118,0.00000455,-0.00000152,0.00000086,-0.00000021,0.0
 0000335,0.00000020,-0.00000170,-0.00000230,-0.00000126,0.00000018,-0.0
 0000163,0.00000074,0.00000061,0.00000161,-0.00001540,-0.00001210,-0.00
 000419,0.00002088,0.00000103,-0.00000303,0.00000127,-0.00000044,0.0000
 0309,0.00000038,0.00000084,-0.00000187,-0.00000217,0.00000097,0.000000
 83,0.00000086,0.,-0.00000058,0.00000016,0.00000107,-0.00000018,-0.0000
 0092,-0.00000102,-0.00000100,0.,-0.00000124,0.00000105,0.00000149,0.00
 000044,0.00000159,0.00000079,0.00000192,0.00000119,-0.00000033,0.00000
 259,-0.00000006,-0.00000167,-0.00000166,-0.00000165,-0.00000065,-0.000
 00290,0.00000269,0.00000037,0.00000101,0.00000083,0.00000005,0.0000019
 6,-0.00000060,0.00000007,0.00000048,-0.00000203,-0.00000006,-0.0000019
 3,-0.00000124,-0.00000104,0.00000323,-0.00000252,-0.00000356,0.0000018
 3,-0.00000328,0.00000092,0.00000065,-0.00000028,0.00000100,-0.00000017
 ,0.00000135,0.00000037,0.00000151,-0.00000099,0.00000014,0.00000026,-0
 .00000208,0.00000008,-0.00000101,-0.00000219,-0.00000012,-0.00000185,-
 0.00000008,0.00000086,0.00000300,0.00000281,0.00000272,-0.00000013,0.0
 0000015\\\@
 The archive entry for this job was punched.


 THE THINKER DIES, BUT HIS THOUGHTS ARE BEYOND THE 
 REACH OF DESTRUCTION.  MEN ARE MORTAL; BUT IDEAS 
 ARE IMMORTAL.
                              -- WALTER LIPPMANN
 Job cpu time:       0 days  6 hours  4 minutes 35.2 seconds.
 Elapsed time:       0 days  0 hours  9 minutes 11.1 seconds.
 File lengths (MBytes):  RWF=   1581 Int=      0 D2E=      0 Chk=     22 Scr=      1
 Normal termination of Gaussian 16 at Sun Feb 25 12:30:57 2024.
