 Entering Gaussian System, Link 0=g16
 Initial command:
 /public/apps/g16-C01//g16/l1.exe "/public/home/ljq/tmp/Gau-21643.inp" -scrdir="/public/home/ljq/tmp/"
 Entering Link 1 = /public/apps/g16-C01//g16/l1.exe PID=     21644.
  
 Copyright (c) 1988-2019, Gaussian, Inc.  All Rights Reserved.
  
 This is part of the Gaussian(R) 16 program.  It is based on
 the Gaussian(R) 09 system (copyright 2009, Gaussian, Inc.),
 the Gaussian(R) 03 system (copyright 2003, Gaussian, Inc.),
 the Gaussian(R) 98 system (copyright 1998, Gaussian, Inc.),
 the Gaussian(R) 94 system (copyright 1995, Gaussian, Inc.),
 the Gaussian 92(TM) system (copyright 1992, Gaussian, Inc.),
 the Gaussian 90(TM) system (copyright 1990, Gaussian, Inc.),
 the Gaussian 88(TM) system (copyright 1988, Gaussian, Inc.),
 the Gaussian 86(TM) system (copyright 1986, Carnegie Mellon
 University), and the Gaussian 82(TM) system (copyright 1983,
 Carnegie Mellon University). Gaussian is a federally registered
 trademark of Gaussian, Inc.
  
 This software contains proprietary and confidential information,
 including trade secrets, belonging to Gaussian, Inc.
  
 This software is provided under written license and may be
 used, copied, transmitted, or stored only in accord with that
 written license.
  
 The following legend is applicable only to US Government
 contracts under FAR:
  
                    RESTRICTED RIGHTS LEGEND
  
 Use, reproduction and disclosure by the US Government is
 subject to restrictions as set forth in subparagraphs (a)
 and (c) of the Commercial Computer Software - Restricted
 Rights clause in FAR 52.227-19.
  
 Gaussian, Inc.
 340 Quinnipiac St., Bldg. 40, Wallingford CT 06492
  
  
 ---------------------------------------------------------------
 Warning -- This program may not be used in any manner that
 competes with the business of Gaussian, Inc. or will provide
 assistance to any competitor of Gaussian, Inc.  The licensee
 of this program is prohibited from giving any competitor of
 Gaussian, Inc. access to this program.  By using this program,
 the user acknowledges that Gaussian, Inc. is engaged in the
 business of creating and licensing software in the field of
 computational chemistry and represents and warrants to the
 licensee that it is not a competitor of Gaussian, Inc. and that
 it will not use this program in any manner prohibited above.
 ---------------------------------------------------------------
  

 Cite this work as:
 Gaussian 16, Revision C.01,
 M. J. Frisch, G. W. Trucks, H. B. Schlegel, G. E. Scuseria, 
 M. A. Robb, J. R. Cheeseman, G. Scalmani, V. Barone, 
 G. A. Petersson, H. Nakatsuji, X. Li, M. Caricato, A. V. Marenich, 
 J. Bloino, B. G. Janesko, R. Gomperts, B. Mennucci, H. P. Hratchian, 
 J. V. Ortiz, A. F. Izmaylov, J. L. Sonnenberg, D. Williams-Young, 
 F. Ding, F. Lipparini, F. Egidi, J. Goings, B. Peng, A. Petrone, 
 T. Henderson, D. Ranasinghe, V. G. Zakrzewski, J. Gao, N. Rega, 
 G. Zheng, W. Liang, M. Hada, M. Ehara, K. Toyota, R. Fukuda, 
 J. Hasegawa, M. Ishida, T. Nakajima, Y. Honda, O. Kitao, H. Nakai, 
 T. Vreven, K. Throssell, J. A. Montgomery, Jr., J. E. Peralta, 
 F. Ogliaro, M. J. Bearpark, J. J. Heyd, E. N. Brothers, K. N. Kudin, 
 V. N. Staroverov, T. A. Keith, R. Kobayashi, J. Normand, 
 K. Raghavachari, A. P. Rendell, J. C. Burant, S. S. Iyengar, 
 J. Tomasi, M. Cossi, J. M. Millam, M. Klene, C. Adamo, R. Cammi, 
 J. W. Ochterski, R. L. Martin, K. Morokuma, O. Farkas, 
 J. B. Foresman, and D. J. Fox, Gaussian, Inc., Wallingford CT, 2019.
 
 ******************************************
 Gaussian 16:  ES64L-G16RevC.01  3-Jul-2019
                25-Feb-2024 
 ******************************************
 %nproc=40
 Will use up to   40 processors via shared memory.
 %mem=56GB
 ------------------------------------------
 #p opt freq b3lyp/def2svpp em=gd3bj nosymm
 ------------------------------------------
 1/18=20,19=15,26=3,38=1/1,3;
 2/9=110,12=2,15=1,17=6,18=5,40=1/2;
 3/5=43,7=202,11=2,25=1,30=1,71=1,74=-5,124=41/1,2,3;
 4//1;
 5/5=2,38=5/2;
 6/7=2,8=2,9=2,10=2,28=1/1;
 7/30=1/1,2,3,16;
 1/18=20,19=15,26=3/3(2);
 2/9=110,15=1/2;
 99//99;
 2/9=110,15=1/2;
 3/5=43,7=202,11=2,25=1,30=1,71=1,74=-5,124=41/1,2,3;
 4/5=5,16=3,69=1/1;
 5/5=2,38=5/2;
 7/30=1/1,2,3,16;
 1/18=20,19=15,26=3/3(-5);
 2/9=110,15=1/2;
 6/7=2,8=2,9=2,10=2,19=2,28=1/1;
 99/9=1/99;
 Leave Link    1 at Sun Feb 25 12:52:02 2024, MaxMem=  7516192768 cpu:               1.3 elap:               0.1
 (Enter /public/apps/g16-C01//g16/l101.exe)
 ----------------------
 $$$$Singlemol####0????
 ----------------------
 Symbolic Z-matrix:
 Charge =  0 Multiplicity = 1
 C                     0.77698   3.02098  -0.32622 
 C                     0.64115   1.62209  -0.91942 
 C                     0.79926   1.60352  -2.45326 
 C                    -0.20952   2.4837   -3.13369 
 C                    -1.45959   1.98438  -3.47921 
 C                    -2.40226   2.7997   -4.07976 
 C                    -2.10632   4.12494  -4.35131 
 C                    -0.85906   4.62782  -4.02455 
 C                     0.08165   3.81177  -3.42074 
 C                     1.63795   0.68962  -0.28518 
 N                     2.11664   0.83627   0.87417 
 C                     2.924    -0.32396   1.18259 
 C                     2.42982  -1.04388   2.41443 
 C                     1.40687  -0.51721   3.18995 
 C                     0.94973  -1.20322   4.302 
 C                     1.51414  -2.4175    4.65139 
 C                     2.54266  -2.94278   3.88613 
 C                     2.99832  -2.26042   2.77243 
 C                     2.8106   -1.19078  -0.10916 
 O                     1.98451  -0.42008  -0.97201 
 C                    -0.65986   0.98447  -0.51415 
 N                    -1.16568  -0.02796  -1.07442 
 C                    -2.32019  -0.44401  -0.30461 
 C                    -2.07868  -1.81734   0.27143 
 C                    -0.95216  -2.04476   1.05207 
 C                    -0.71051  -3.29534   1.58951 
 C                    -1.59642  -4.33287   1.35189 
 C                    -2.72001  -4.11398   0.57345 
 C                    -2.95932  -2.86224   0.0331 
 C                    -2.42896   0.65666   0.79108 
 O                    -1.28622   1.47571   0.57802 
 H                     0.73532   2.9645    0.75697 
 H                     1.73293   3.45086  -0.61362 
 H                    -0.02661   3.6591   -0.68427 
 H                     1.81091   1.93801  -2.69257 
 H                     0.67775   0.57213  -2.7843 
 H                    -1.68576   0.94972  -3.27024 
 H                    -3.37099   2.39902  -4.34203 
 H                    -2.84203   4.76112  -4.82134 
 H                    -0.61729   5.65838  -4.24133 
 H                     1.05523   4.21129  -3.17431 
 H                     3.95676   0.00422   1.35719 
 H                     0.97898   0.43429   2.91219 
 H                     0.14919  -0.78801   4.89648 
 H                     1.15592  -2.95397   5.51764 
 H                     2.99038  -3.88812   4.15662 
 H                     3.80092  -2.67211   2.17664 
 H                     2.32028  -2.15079   0.07879 
 H                     3.77171  -1.35833  -0.60106 
 H                    -3.19991  -0.4636   -0.95559 
 H                    -0.25724  -1.23899   1.23855 
 H                     0.16919  -3.45555   2.19573 
 H                    -1.40995  -5.31061   1.7712 
 H                    -3.41238  -4.92127   0.38418 
 H                    -3.83552  -2.69605  -0.57719 
 H                    -3.32688   1.27135   0.68382 
 H                    -2.38636   0.24203   1.80165 
 
 ITRead=  0  0  0  0  0  0  0  0  0  0  0  0  0  0  0  0  0  0  0  0
 ITRead=  0  0  0  0  0  0  0  0  0  0  0  0  0  0  0  0  0  0  0  0
 ITRead=  0  0  0  0  0  0  0  0  0  0  0  0  0  0  0  0  0
 MicOpt= -1 -1 -1 -1 -1 -1 -1 -1 -1 -1 -1 -1 -1 -1 -1 -1 -1 -1 -1 -1
 MicOpt= -1 -1 -1 -1 -1 -1 -1 -1 -1 -1 -1 -1 -1 -1 -1 -1 -1 -1 -1 -1
 MicOpt= -1 -1 -1 -1 -1 -1 -1 -1 -1 -1 -1 -1 -1 -1 -1 -1 -1
 NAtoms=     57 NQM=       57 NQMF=       0 NMMI=      0 NMMIF=      0
                NMic=       0 NMicF=      0.
                    Isotopes and Nuclear Properties:
 (Nuclear quadrupole moments (NQMom) in fm**2, nuclear magnetic moments (NMagM)
  in nuclear magnetons)

  Atom         1           2           3           4           5           6           7           8           9          10
 IAtWgt=          12          12          12          12          12          12          12          12          12          12
 AtmWgt=  12.0000000  12.0000000  12.0000000  12.0000000  12.0000000  12.0000000  12.0000000  12.0000000  12.0000000  12.0000000
 NucSpn=           0           0           0           0           0           0           0           0           0           0
 AtZEff=  -0.0000000  -0.0000000  -0.0000000  -0.0000000  -0.0000000  -0.0000000  -0.0000000  -0.0000000  -0.0000000  -0.0000000
 NQMom=    0.0000000   0.0000000   0.0000000   0.0000000   0.0000000   0.0000000   0.0000000   0.0000000   0.0000000   0.0000000
 NMagM=    0.0000000   0.0000000   0.0000000   0.0000000   0.0000000   0.0000000   0.0000000   0.0000000   0.0000000   0.0000000
 AtZNuc=   6.0000000   6.0000000   6.0000000   6.0000000   6.0000000   6.0000000   6.0000000   6.0000000   6.0000000   6.0000000

  Atom        11          12          13          14          15          16          17          18          19          20
 IAtWgt=          14          12          12          12          12          12          12          12          12          16
 AtmWgt=  14.0030740  12.0000000  12.0000000  12.0000000  12.0000000  12.0000000  12.0000000  12.0000000  12.0000000  15.9949146
 NucSpn=           2           0           0           0           0           0           0           0           0           0
 AtZEff=  -0.0000000  -0.0000000  -0.0000000  -0.0000000  -0.0000000  -0.0000000  -0.0000000  -0.0000000  -0.0000000  -0.0000000
 NQMom=    2.0440000   0.0000000   0.0000000   0.0000000   0.0000000   0.0000000   0.0000000   0.0000000   0.0000000   0.0000000
 NMagM=    0.4037610   0.0000000   0.0000000   0.0000000   0.0000000   0.0000000   0.0000000   0.0000000   0.0000000   0.0000000
 AtZNuc=   7.0000000   6.0000000   6.0000000   6.0000000   6.0000000   6.0000000   6.0000000   6.0000000   6.0000000   8.0000000

  Atom        21          22          23          24          25          26          27          28          29          30
 IAtWgt=          12          14          12          12          12          12          12          12          12          12
 AtmWgt=  12.0000000  14.0030740  12.0000000  12.0000000  12.0000000  12.0000000  12.0000000  12.0000000  12.0000000  12.0000000
 NucSpn=           0           2           0           0           0           0           0           0           0           0
 AtZEff=  -0.0000000  -0.0000000  -0.0000000  -0.0000000  -0.0000000  -0.0000000  -0.0000000  -0.0000000  -0.0000000  -0.0000000
 NQMom=    0.0000000   2.0440000   0.0000000   0.0000000   0.0000000   0.0000000   0.0000000   0.0000000   0.0000000   0.0000000
 NMagM=    0.0000000   0.4037610   0.0000000   0.0000000   0.0000000   0.0000000   0.0000000   0.0000000   0.0000000   0.0000000
 AtZNuc=   6.0000000   7.0000000   6.0000000   6.0000000   6.0000000   6.0000000   6.0000000   6.0000000   6.0000000   6.0000000

  Atom        31          32          33          34          35          36          37          38          39          40
 IAtWgt=          16           1           1           1           1           1           1           1           1           1
 AtmWgt=  15.9949146   1.0078250   1.0078250   1.0078250   1.0078250   1.0078250   1.0078250   1.0078250   1.0078250   1.0078250
 NucSpn=           0           1           1           1           1           1           1           1           1           1
 AtZEff=  -0.0000000  -0.0000000  -0.0000000  -0.0000000  -0.0000000  -0.0000000  -0.0000000  -0.0000000  -0.0000000  -0.0000000
 NQMom=    0.0000000   0.0000000   0.0000000   0.0000000   0.0000000   0.0000000   0.0000000   0.0000000   0.0000000   0.0000000
 NMagM=    0.0000000   2.7928460   2.7928460   2.7928460   2.7928460   2.7928460   2.7928460   2.7928460   2.7928460   2.7928460
 AtZNuc=   8.0000000   1.0000000   1.0000000   1.0000000   1.0000000   1.0000000   1.0000000   1.0000000   1.0000000   1.0000000

  Atom        41          42          43          44          45          46          47          48          49          50
 IAtWgt=           1           1           1           1           1           1           1           1           1           1
 AtmWgt=   1.0078250   1.0078250   1.0078250   1.0078250   1.0078250   1.0078250   1.0078250   1.0078250   1.0078250   1.0078250
 NucSpn=           1           1           1           1           1           1           1           1           1           1
 AtZEff=  -0.0000000  -0.0000000  -0.0000000  -0.0000000  -0.0000000  -0.0000000  -0.0000000  -0.0000000  -0.0000000  -0.0000000
 NQMom=    0.0000000   0.0000000   0.0000000   0.0000000   0.0000000   0.0000000   0.0000000   0.0000000   0.0000000   0.0000000
 NMagM=    2.7928460   2.7928460   2.7928460   2.7928460   2.7928460   2.7928460   2.7928460   2.7928460   2.7928460   2.7928460
 AtZNuc=   1.0000000   1.0000000   1.0000000   1.0000000   1.0000000   1.0000000   1.0000000   1.0000000   1.0000000   1.0000000

  Atom        51          52          53          54          55          56          57
 IAtWgt=           1           1           1           1           1           1           1
 AtmWgt=   1.0078250   1.0078250   1.0078250   1.0078250   1.0078250   1.0078250   1.0078250
 NucSpn=           1           1           1           1           1           1           1
 AtZEff=  -0.0000000  -0.0000000  -0.0000000  -0.0000000  -0.0000000  -0.0000000  -0.0000000
 NQMom=    0.0000000   0.0000000   0.0000000   0.0000000   0.0000000   0.0000000   0.0000000
 NMagM=    2.7928460   2.7928460   2.7928460   2.7928460   2.7928460   2.7928460   2.7928460
 AtZNuc=   1.0000000   1.0000000   1.0000000   1.0000000   1.0000000   1.0000000   1.0000000
 Leave Link  101 at Sun Feb 25 12:52:02 2024, MaxMem=  7516192768 cpu:              11.2 elap:               0.6
 (Enter /public/apps/g16-C01//g16/l103.exe)

 GradGradGradGradGradGradGradGradGradGradGradGradGradGradGradGradGradGrad
 Berny optimization.
 Initialization pass.
                           ----------------------------
                           !    Initial Parameters    !
                           ! (Angstroms and Degrees)  !
 --------------------------                            --------------------------
 ! Name  Definition              Value          Derivative Info.                !
 --------------------------------------------------------------------------------
 ! R1    R(1,2)                  1.5255         estimate D2E/DX2                !
 ! R2    R(1,32)                 1.0855         estimate D2E/DX2                !
 ! R3    R(1,33)                 1.0869         estimate D2E/DX2                !
 ! R4    R(1,34)                 1.0868         estimate D2E/DX2                !
 ! R5    R(2,3)                  1.5421         estimate D2E/DX2                !
 ! R6    R(2,10)                 1.5051         estimate D2E/DX2                !
 ! R7    R(2,21)                 1.5045         estimate D2E/DX2                !
 ! R8    R(3,4)                  1.5018         estimate D2E/DX2                !
 ! R9    R(3,35)                 1.0921         estimate D2E/DX2                !
 ! R10   R(3,36)                 1.09           estimate D2E/DX2                !
 ! R11   R(4,5)                  1.3897         estimate D2E/DX2                !
 ! R12   R(4,9)                  1.3896         estimate D2E/DX2                !
 ! R13   R(5,6)                  1.3835         estimate D2E/DX2                !
 ! R14   R(5,37)                 1.0795         estimate D2E/DX2                !
 ! R15   R(6,7)                  1.3848         estimate D2E/DX2                !
 ! R16   R(6,38)                 1.0806         estimate D2E/DX2                !
 ! R17   R(7,8)                  1.3839         estimate D2E/DX2                !
 ! R18   R(7,39)                 1.0802         estimate D2E/DX2                !
 ! R19   R(8,9)                  1.384          estimate D2E/DX2                !
 ! R20   R(8,40)                 1.0805         estimate D2E/DX2                !
 ! R21   R(9,41)                 1.0808         estimate D2E/DX2                !
 ! R22   R(10,11)                1.2628         estimate D2E/DX2                !
 ! R23   R(10,20)                1.3503         estimate D2E/DX2                !
 ! R24   R(11,12)                1.4467         estimate D2E/DX2                !
 ! R25   R(12,13)                1.5099         estimate D2E/DX2                !
 ! R26   R(12,19)                1.5598         estimate D2E/DX2                !
 ! R27   R(12,42)                1.0976         estimate D2E/DX2                !
 ! R28   R(13,14)                1.3875         estimate D2E/DX2                !
 ! R29   R(13,18)                1.3897         estimate D2E/DX2                !
 ! R30   R(14,15)                1.3843         estimate D2E/DX2                !
 ! R31   R(14,43)                1.0796         estimate D2E/DX2                !
 ! R32   R(15,16)                1.3839         estimate D2E/DX2                !
 ! R33   R(15,44)                1.0801         estimate D2E/DX2                !
 ! R34   R(16,17)                1.3854         estimate D2E/DX2                !
 ! R35   R(16,45)                1.0801         estimate D2E/DX2                !
 ! R36   R(17,18)                1.3833         estimate D2E/DX2                !
 ! R37   R(17,46)                1.0804         estimate D2E/DX2                !
 ! R38   R(18,47)                1.081          estimate D2E/DX2                !
 ! R39   R(19,20)                1.4216         estimate D2E/DX2                !
 ! R40   R(19,48)                1.0942         estimate D2E/DX2                !
 ! R41   R(19,49)                1.0926         estimate D2E/DX2                !
 ! R42   R(21,22)                1.2628         estimate D2E/DX2                !
 ! R43   R(21,31)                1.3515         estimate D2E/DX2                !
 ! R44   R(22,23)                1.4487         estimate D2E/DX2                !
 ! R45   R(23,24)                1.5087         estimate D2E/DX2                !
 ! R46   R(23,30)                1.5569         estimate D2E/DX2                !
 ! R47   R(23,50)                1.0946         estimate D2E/DX2                !
 ! R48   R(24,25)                1.3893         estimate D2E/DX2                !
 ! R49   R(24,29)                1.3871         estimate D2E/DX2                !
 ! R50   R(25,26)                1.3825         estimate D2E/DX2                !
 ! R51   R(25,51)                1.0803         estimate D2E/DX2                !
 ! R52   R(26,27)                1.3848         estimate D2E/DX2                !
 ! R53   R(26,52)                1.0803         estimate D2E/DX2                !
 ! R54   R(27,28)                1.3843         estimate D2E/DX2                !
 ! R55   R(27,53)                1.0801         estimate D2E/DX2                !
 ! R56   R(28,29)                1.3842         estimate D2E/DX2                !
 ! R57   R(28,54)                1.0802         estimate D2E/DX2                !
 ! R58   R(29,55)                1.0806         estimate D2E/DX2                !
 ! R59   R(30,31)                1.422          estimate D2E/DX2                !
 ! R60   R(30,56)                1.0934         estimate D2E/DX2                !
 ! R61   R(30,57)                1.0931         estimate D2E/DX2                !
 ! A1    A(2,1,32)             109.6883         estimate D2E/DX2                !
 ! A2    A(2,1,33)             109.7666         estimate D2E/DX2                !
 ! A3    A(2,1,34)             110.1497         estimate D2E/DX2                !
 ! A4    A(32,1,33)            108.5554         estimate D2E/DX2                !
 ! A5    A(32,1,34)            109.3256         estimate D2E/DX2                !
 ! A6    A(33,1,34)            109.3287         estimate D2E/DX2                !
 ! A7    A(1,2,3)              112.8723         estimate D2E/DX2                !
 ! A8    A(1,2,10)             110.199          estimate D2E/DX2                !
 ! A9    A(1,2,21)             111.1548         estimate D2E/DX2                !
 ! A10   A(3,2,10)             110.1067         estimate D2E/DX2                !
 ! A11   A(3,2,21)             110.5791         estimate D2E/DX2                !
 ! A12   A(10,2,21)            101.3403         estimate D2E/DX2                !
 ! A13   A(2,3,4)              112.0076         estimate D2E/DX2                !
 ! A14   A(2,3,35)             108.0153         estimate D2E/DX2                !
 ! A15   A(2,3,36)             107.5806         estimate D2E/DX2                !
 ! A16   A(4,3,35)             110.0877         estimate D2E/DX2                !
 ! A17   A(4,3,36)             110.0038         estimate D2E/DX2                !
 ! A18   A(35,3,36)            109.0587         estimate D2E/DX2                !
 ! A19   A(3,4,5)              120.4167         estimate D2E/DX2                !
 ! A20   A(3,4,9)              120.863          estimate D2E/DX2                !
 ! A21   A(5,4,9)              118.7184         estimate D2E/DX2                !
 ! A22   A(4,5,6)              120.6025         estimate D2E/DX2                !
 ! A23   A(4,5,37)             118.992          estimate D2E/DX2                !
 ! A24   A(6,5,37)             120.4054         estimate D2E/DX2                !
 ! A25   A(5,6,7)              120.2315         estimate D2E/DX2                !
 ! A26   A(5,6,38)             119.8454         estimate D2E/DX2                !
 ! A27   A(7,6,38)             119.9224         estimate D2E/DX2                !
 ! A28   A(6,7,8)              119.6069         estimate D2E/DX2                !
 ! A29   A(6,7,39)             120.224          estimate D2E/DX2                !
 ! A30   A(8,7,39)             120.1679         estimate D2E/DX2                !
 ! A31   A(7,8,9)              120.0878         estimate D2E/DX2                !
 ! A32   A(7,8,40)             120.0562         estimate D2E/DX2                !
 ! A33   A(9,8,40)             119.856          estimate D2E/DX2                !
 ! A34   A(4,9,8)              120.7458         estimate D2E/DX2                !
 ! A35   A(4,9,41)             119.6645         estimate D2E/DX2                !
 ! A36   A(8,9,41)             119.589          estimate D2E/DX2                !
 ! A37   A(2,10,11)            124.4689         estimate D2E/DX2                !
 ! A38   A(2,10,20)            117.6966         estimate D2E/DX2                !
 ! A39   A(11,10,20)           117.7176         estimate D2E/DX2                !
 ! A40   A(10,11,12)           108.308          estimate D2E/DX2                !
 ! A41   A(11,12,13)           111.9403         estimate D2E/DX2                !
 ! A42   A(11,12,19)           103.212          estimate D2E/DX2                !
 ! A43   A(11,12,42)           108.615          estimate D2E/DX2                !
 ! A44   A(13,12,19)           112.7598         estimate D2E/DX2                !
 ! A45   A(13,12,42)           108.7065         estimate D2E/DX2                !
 ! A46   A(19,12,42)           111.4883         estimate D2E/DX2                !
 ! A47   A(12,13,14)           121.0837         estimate D2E/DX2                !
 ! A48   A(12,13,18)           119.5809         estimate D2E/DX2                !
 ! A49   A(14,13,18)           119.3324         estimate D2E/DX2                !
 ! A50   A(13,14,15)           120.2893         estimate D2E/DX2                !
 ! A51   A(13,14,43)           118.8764         estimate D2E/DX2                !
 ! A52   A(15,14,43)           120.834          estimate D2E/DX2                !
 ! A53   A(14,15,16)           120.1965         estimate D2E/DX2                !
 ! A54   A(14,15,44)           119.762          estimate D2E/DX2                !
 ! A55   A(16,15,44)           120.0414         estimate D2E/DX2                !
 ! A56   A(15,16,17)           119.7364         estimate D2E/DX2                !
 ! A57   A(15,16,45)           120.2021         estimate D2E/DX2                !
 ! A58   A(17,16,45)           120.0615         estimate D2E/DX2                !
 ! A59   A(16,17,18)           120.1472         estimate D2E/DX2                !
 ! A60   A(16,17,46)           120.0724         estimate D2E/DX2                !
 ! A61   A(18,17,46)           119.7803         estimate D2E/DX2                !
 ! A62   A(13,18,17)           120.2953         estimate D2E/DX2                !
 ! A63   A(13,18,47)           119.6766         estimate D2E/DX2                !
 ! A64   A(17,18,47)           120.028          estimate D2E/DX2                !
 ! A65   A(12,19,20)           104.1007         estimate D2E/DX2                !
 ! A66   A(12,19,48)           112.2035         estimate D2E/DX2                !
 ! A67   A(12,19,49)           113.211          estimate D2E/DX2                !
 ! A68   A(20,19,48)           108.633          estimate D2E/DX2                !
 ! A69   A(20,19,49)           108.726          estimate D2E/DX2                !
 ! A70   A(48,19,49)           109.6919         estimate D2E/DX2                !
 ! A71   A(10,20,19)           106.6161         estimate D2E/DX2                !
 ! A72   A(2,21,22)            124.5166         estimate D2E/DX2                !
 ! A73   A(2,21,31)            117.6731         estimate D2E/DX2                !
 ! A74   A(22,21,31)           117.6651         estimate D2E/DX2                !
 ! A75   A(21,22,23)           108.2828         estimate D2E/DX2                !
 ! A76   A(22,23,24)           109.6788         estimate D2E/DX2                !
 ! A77   A(22,23,30)           103.0982         estimate D2E/DX2                !
 ! A78   A(22,23,50)           109.246          estimate D2E/DX2                !
 ! A79   A(24,23,30)           112.7065         estimate D2E/DX2                !
 ! A80   A(24,23,50)           109.8435         estimate D2E/DX2                !
 ! A81   A(30,23,50)           112.0282         estimate D2E/DX2                !
 ! A82   A(23,24,25)           119.561          estimate D2E/DX2                !
 ! A83   A(23,24,29)           121.2288         estimate D2E/DX2                !
 ! A84   A(25,24,29)           119.2099         estimate D2E/DX2                !
 ! A85   A(24,25,26)           120.5477         estimate D2E/DX2                !
 ! A86   A(24,25,51)           119.7692         estimate D2E/DX2                !
 ! A87   A(26,25,51)           119.6828         estimate D2E/DX2                !
 ! A88   A(25,26,27)           119.9479         estimate D2E/DX2                !
 ! A89   A(25,26,52)           119.6465         estimate D2E/DX2                !
 ! A90   A(27,26,52)           120.4054         estimate D2E/DX2                !
 ! A91   A(26,27,28)           119.8186         estimate D2E/DX2                !
 ! A92   A(26,27,53)           120.0767         estimate D2E/DX2                !
 ! A93   A(28,27,53)           120.1045         estimate D2E/DX2                !
 ! A94   A(27,28,29)           120.1871         estimate D2E/DX2                !
 ! A95   A(27,28,54)           120.0387         estimate D2E/DX2                !
 ! A96   A(29,28,54)           119.7742         estimate D2E/DX2                !
 ! A97   A(24,29,28)           120.288          estimate D2E/DX2                !
 ! A98   A(24,29,55)           119.7313         estimate D2E/DX2                !
 ! A99   A(28,29,55)           119.9807         estimate D2E/DX2                !
 ! A100  A(23,30,31)           104.2181         estimate D2E/DX2                !
 ! A101  A(23,30,56)           112.6913         estimate D2E/DX2                !
 ! A102  A(23,30,57)           112.317          estimate D2E/DX2                !
 ! A103  A(31,30,56)           108.7493         estimate D2E/DX2                !
 ! A104  A(31,30,57)           109.0057         estimate D2E/DX2                !
 ! A105  A(56,30,57)           109.6284         estimate D2E/DX2                !
 ! A106  A(21,31,30)           106.5093         estimate D2E/DX2                !
 ! D1    D(32,1,2,3)          -175.5869         estimate D2E/DX2                !
 ! D2    D(32,1,2,10)          -52.0306         estimate D2E/DX2                !
 ! D3    D(32,1,2,21)           59.5021         estimate D2E/DX2                !
 ! D4    D(33,1,2,3)           -56.3954         estimate D2E/DX2                !
 ! D5    D(33,1,2,10)           67.1609         estimate D2E/DX2                !
 ! D6    D(33,1,2,21)          178.6936         estimate D2E/DX2                !
 ! D7    D(34,1,2,3)            64.0356         estimate D2E/DX2                !
 ! D8    D(34,1,2,10)         -172.408          estimate D2E/DX2                !
 ! D9    D(34,1,2,21)          -60.8754         estimate D2E/DX2                !
 ! D10   D(1,2,3,4)            -58.4401         estimate D2E/DX2                !
 ! D11   D(1,2,3,35)            62.959          estimate D2E/DX2                !
 ! D12   D(1,2,3,36)          -179.4448         estimate D2E/DX2                !
 ! D13   D(10,2,3,4)           177.9526         estimate D2E/DX2                !
 ! D14   D(10,2,3,35)          -60.6484         estimate D2E/DX2                !
 ! D15   D(10,2,3,36)           56.9478         estimate D2E/DX2                !
 ! D16   D(21,2,3,4)            66.7836         estimate D2E/DX2                !
 ! D17   D(21,2,3,35)         -171.8174         estimate D2E/DX2                !
 ! D18   D(21,2,3,36)          -54.2211         estimate D2E/DX2                !
 ! D19   D(1,2,10,11)           26.4674         estimate D2E/DX2                !
 ! D20   D(1,2,10,20)         -157.5622         estimate D2E/DX2                !
 ! D21   D(3,2,10,11)          151.6169         estimate D2E/DX2                !
 ! D22   D(3,2,10,20)          -32.4127         estimate D2E/DX2                !
 ! D23   D(21,2,10,11)         -91.3063         estimate D2E/DX2                !
 ! D24   D(21,2,10,20)          84.6641         estimate D2E/DX2                !
 ! D25   D(1,2,21,22)          164.0469         estimate D2E/DX2                !
 ! D26   D(1,2,21,31)          -20.4475         estimate D2E/DX2                !
 ! D27   D(3,2,21,22)           37.8571         estimate D2E/DX2                !
 ! D28   D(3,2,21,31)         -146.6373         estimate D2E/DX2                !
 ! D29   D(10,2,21,22)         -78.8746         estimate D2E/DX2                !
 ! D30   D(10,2,21,31)          96.6311         estimate D2E/DX2                !
 ! D31   D(2,3,4,5)            -87.8262         estimate D2E/DX2                !
 ! D32   D(2,3,4,9)             91.672          estimate D2E/DX2                !
 ! D33   D(35,3,4,5)           151.9755         estimate D2E/DX2                !
 ! D34   D(35,3,4,9)           -28.5263         estimate D2E/DX2                !
 ! D35   D(36,3,4,5)            31.7673         estimate D2E/DX2                !
 ! D36   D(36,3,4,9)          -148.7346         estimate D2E/DX2                !
 ! D37   D(3,4,5,6)            178.5832         estimate D2E/DX2                !
 ! D38   D(3,4,5,37)            -1.3014         estimate D2E/DX2                !
 ! D39   D(9,4,5,6)             -0.9256         estimate D2E/DX2                !
 ! D40   D(9,4,5,37)           179.1898         estimate D2E/DX2                !
 ! D41   D(3,4,9,8)           -178.7441         estimate D2E/DX2                !
 ! D42   D(3,4,9,41)             1.5544         estimate D2E/DX2                !
 ! D43   D(5,4,9,8)              0.7624         estimate D2E/DX2                !
 ! D44   D(5,4,9,41)          -178.939          estimate D2E/DX2                !
 ! D45   D(4,5,6,7)              0.389          estimate D2E/DX2                !
 ! D46   D(4,5,6,38)          -179.9126         estimate D2E/DX2                !
 ! D47   D(37,5,6,7)          -179.728          estimate D2E/DX2                !
 ! D48   D(37,5,6,38)           -0.0297         estimate D2E/DX2                !
 ! D49   D(5,6,7,8)              0.327          estimate D2E/DX2                !
 ! D50   D(5,6,7,39)           179.9246         estimate D2E/DX2                !
 ! D51   D(38,6,7,8)          -179.3711         estimate D2E/DX2                !
 ! D52   D(38,6,7,39)            0.2265         estimate D2E/DX2                !
 ! D53   D(6,7,8,9)             -0.4898         estimate D2E/DX2                !
 ! D54   D(6,7,8,40)           179.4457         estimate D2E/DX2                !
 ! D55   D(39,7,8,9)           179.9123         estimate D2E/DX2                !
 ! D56   D(39,7,8,40)           -0.1521         estimate D2E/DX2                !
 ! D57   D(7,8,9,4)             -0.0604         estimate D2E/DX2                !
 ! D58   D(7,8,9,41)           179.6413         estimate D2E/DX2                !
 ! D59   D(40,8,9,4)          -179.9961         estimate D2E/DX2                !
 ! D60   D(40,8,9,41)           -0.2944         estimate D2E/DX2                !
 ! D61   D(2,10,11,12)         174.0417         estimate D2E/DX2                !
 ! D62   D(20,10,11,12)         -1.928          estimate D2E/DX2                !
 ! D63   D(2,10,20,19)        -173.8599         estimate D2E/DX2                !
 ! D64   D(11,10,20,19)          2.3878         estimate D2E/DX2                !
 ! D65   D(10,11,12,13)       -120.895          estimate D2E/DX2                !
 ! D66   D(10,11,12,19)          0.6377         estimate D2E/DX2                !
 ! D67   D(10,11,12,42)        119.07           estimate D2E/DX2                !
 ! D68   D(11,12,13,14)         -6.3091         estimate D2E/DX2                !
 ! D69   D(11,12,13,18)        173.0649         estimate D2E/DX2                !
 ! D70   D(19,12,13,14)       -122.171          estimate D2E/DX2                !
 ! D71   D(19,12,13,18)         57.203          estimate D2E/DX2                !
 ! D72   D(42,12,13,14)        113.6724         estimate D2E/DX2                !
 ! D73   D(42,12,13,18)        -66.9536         estimate D2E/DX2                !
 ! D74   D(11,12,19,20)          0.6673         estimate D2E/DX2                !
 ! D75   D(11,12,19,48)       -116.6131         estimate D2E/DX2                !
 ! D76   D(11,12,19,49)        118.5646         estimate D2E/DX2                !
 ! D77   D(13,12,19,20)        121.6449         estimate D2E/DX2                !
 ! D78   D(13,12,19,48)          4.3645         estimate D2E/DX2                !
 ! D79   D(13,12,19,49)       -120.4579         estimate D2E/DX2                !
 ! D80   D(42,12,19,20)       -115.7434         estimate D2E/DX2                !
 ! D81   D(42,12,19,48)        126.9762         estimate D2E/DX2                !
 ! D82   D(42,12,19,49)          2.1539         estimate D2E/DX2                !
 ! D83   D(12,13,14,15)        178.7992         estimate D2E/DX2                !
 ! D84   D(12,13,14,43)         -1.3848         estimate D2E/DX2                !
 ! D85   D(18,13,14,15)         -0.5764         estimate D2E/DX2                !
 ! D86   D(18,13,14,43)        179.2396         estimate D2E/DX2                !
 ! D87   D(12,13,18,17)       -178.9848         estimate D2E/DX2                !
 ! D88   D(12,13,18,47)          1.0949         estimate D2E/DX2                !
 ! D89   D(14,13,18,17)          0.4002         estimate D2E/DX2                !
 ! D90   D(14,13,18,47)       -179.52           estimate D2E/DX2                !
 ! D91   D(13,14,15,16)          0.2685         estimate D2E/DX2                !
 ! D92   D(13,14,15,44)       -179.6567         estimate D2E/DX2                !
 ! D93   D(43,14,15,16)       -179.5439         estimate D2E/DX2                !
 ! D94   D(43,14,15,44)          0.5309         estimate D2E/DX2                !
 ! D95   D(14,15,16,17)          0.2204         estimate D2E/DX2                !
 ! D96   D(14,15,16,45)       -179.8518         estimate D2E/DX2                !
 ! D97   D(44,15,16,17)       -179.8546         estimate D2E/DX2                !
 ! D98   D(44,15,16,45)          0.0732         estimate D2E/DX2                !
 ! D99   D(15,16,17,18)         -0.3964         estimate D2E/DX2                !
 ! D100  D(15,16,17,46)        179.7127         estimate D2E/DX2                !
 ! D101  D(45,16,17,18)        179.6757         estimate D2E/DX2                !
 ! D102  D(45,16,17,46)         -0.2151         estimate D2E/DX2                !
 ! D103  D(16,17,18,13)          0.0848         estimate D2E/DX2                !
 ! D104  D(16,17,18,47)       -179.9952         estimate D2E/DX2                !
 ! D105  D(46,17,18,13)        179.976          estimate D2E/DX2                !
 ! D106  D(46,17,18,47)         -0.104          estimate D2E/DX2                !
 ! D107  D(12,19,20,10)         -1.6579         estimate D2E/DX2                !
 ! D108  D(48,19,20,10)        118.0705         estimate D2E/DX2                !
 ! D109  D(49,19,20,10)       -122.6037         estimate D2E/DX2                !
 ! D110  D(2,21,22,23)         172.8472         estimate D2E/DX2                !
 ! D111  D(31,21,22,23)         -2.6588         estimate D2E/DX2                !
 ! D112  D(2,21,31,30)        -176.4067         estimate D2E/DX2                !
 ! D113  D(22,21,31,30)         -0.5873         estimate D2E/DX2                !
 ! D114  D(21,22,23,24)       -115.9064         estimate D2E/DX2                !
 ! D115  D(21,22,23,30)          4.3664         estimate D2E/DX2                !
 ! D116  D(21,22,23,50)        123.6486         estimate D2E/DX2                !
 ! D117  D(22,23,24,25)         55.2586         estimate D2E/DX2                !
 ! D118  D(22,23,24,29)       -124.531          estimate D2E/DX2                !
 ! D119  D(30,23,24,25)        -58.9806         estimate D2E/DX2                !
 ! D120  D(30,23,24,29)        121.2298         estimate D2E/DX2                !
 ! D121  D(50,23,24,25)        175.3401         estimate D2E/DX2                !
 ! D122  D(50,23,24,29)         -4.4495         estimate D2E/DX2                !
 ! D123  D(22,23,30,31)         -4.5707         estimate D2E/DX2                !
 ! D124  D(22,23,30,56)        113.162          estimate D2E/DX2                !
 ! D125  D(22,23,30,57)       -122.4208         estimate D2E/DX2                !
 ! D126  D(24,23,30,31)        113.6032         estimate D2E/DX2                !
 ! D127  D(24,23,30,56)       -128.664          estimate D2E/DX2                !
 ! D128  D(24,23,30,57)         -4.2468         estimate D2E/DX2                !
 ! D129  D(50,23,30,31)       -121.9075         estimate D2E/DX2                !
 ! D130  D(50,23,30,56)         -4.1748         estimate D2E/DX2                !
 ! D131  D(50,23,30,57)        120.2424         estimate D2E/DX2                !
 ! D132  D(23,24,25,26)       -179.968          estimate D2E/DX2                !
 ! D133  D(23,24,25,51)         -0.159          estimate D2E/DX2                !
 ! D134  D(29,24,25,26)         -0.1741         estimate D2E/DX2                !
 ! D135  D(29,24,25,51)        179.6349         estimate D2E/DX2                !
 ! D136  D(23,24,29,28)       -179.878          estimate D2E/DX2                !
 ! D137  D(23,24,29,55)          0.1084         estimate D2E/DX2                !
 ! D138  D(25,24,29,28)          0.3317         estimate D2E/DX2                !
 ! D139  D(25,24,29,55)       -179.6819         estimate D2E/DX2                !
 ! D140  D(24,25,26,27)         -0.0704         estimate D2E/DX2                !
 ! D141  D(24,25,26,52)       -179.902          estimate D2E/DX2                !
 ! D142  D(51,25,26,27)       -179.8796         estimate D2E/DX2                !
 ! D143  D(51,25,26,52)          0.2888         estimate D2E/DX2                !
 ! D144  D(25,26,27,28)          0.1589         estimate D2E/DX2                !
 ! D145  D(25,26,27,53)       -179.9663         estimate D2E/DX2                !
 ! D146  D(52,26,27,28)        179.9892         estimate D2E/DX2                !
 ! D147  D(52,26,27,53)         -0.136          estimate D2E/DX2                !
 ! D148  D(26,27,28,29)         -0.0015         estimate D2E/DX2                !
 ! D149  D(26,27,28,54)        179.8777         estimate D2E/DX2                !
 ! D150  D(53,27,28,29)       -179.8763         estimate D2E/DX2                !
 ! D151  D(53,27,28,54)          0.0028         estimate D2E/DX2                !
 ! D152  D(27,28,29,24)         -0.2459         estimate D2E/DX2                !
 ! D153  D(27,28,29,55)        179.7677         estimate D2E/DX2                !
 ! D154  D(54,28,29,24)        179.8746         estimate D2E/DX2                !
 ! D155  D(54,28,29,55)         -0.1118         estimate D2E/DX2                !
 ! D156  D(23,30,31,21)          3.2641         estimate D2E/DX2                !
 ! D157  D(56,30,31,21)       -117.1511         estimate D2E/DX2                !
 ! D158  D(57,30,31,21)        123.3692         estimate D2E/DX2                !
 --------------------------------------------------------------------------------
 Trust Radius=3.00D-01 FncErr=1.00D-07 GrdErr=1.00D-06 EigMax=2.50D+02 EigMin=1.00D-04
 Number of steps in this run=    335 maximum allowed number of steps=    342.
 GradGradGradGradGradGradGradGradGradGradGradGradGradGradGradGradGradGrad

 Leave Link  103 at Sun Feb 25 12:52:03 2024, MaxMem=  7516192768 cpu:               1.0 elap:               0.1
 (Enter /public/apps/g16-C01//g16/l202.exe)
 Symmetry turned off by external request.
 Stoichiometry    C27H26N2O2
 Framework group  C1[X(C27H26N2O2)]
 Deg. of freedom   165
 Full point group                 C1      NOp   1
                          Input orientation:                          
 ---------------------------------------------------------------------
 Center     Atomic      Atomic             Coordinates (Angstroms)
 Number     Number       Type             X           Y           Z
 ---------------------------------------------------------------------
      1          6           0        0.776976    3.020977   -0.326220
      2          6           0        0.641145    1.622085   -0.919415
      3          6           0        0.799262    1.603521   -2.453257
      4          6           0       -0.209524    2.483701   -3.133688
      5          6           0       -1.459588    1.984380   -3.479213
      6          6           0       -2.402255    2.799696   -4.079764
      7          6           0       -2.106317    4.124938   -4.351311
      8          6           0       -0.859059    4.627816   -4.024548
      9          6           0        0.081647    3.811766   -3.420744
     10          6           0        1.637948    0.689620   -0.285182
     11          7           0        2.116640    0.836265    0.874166
     12          6           0        2.924000   -0.323958    1.182587
     13          6           0        2.429823   -1.043883    2.414427
     14          6           0        1.406869   -0.517213    3.189952
     15          6           0        0.949730   -1.203219    4.302001
     16          6           0        1.514144   -2.417504    4.651385
     17          6           0        2.542663   -2.942777    3.886130
     18          6           0        2.998319   -2.260424    2.772429
     19          6           0        2.810599   -1.190782   -0.109158
     20          8           0        1.984513   -0.420082   -0.972009
     21          6           0       -0.659861    0.984467   -0.514154
     22          7           0       -1.165683   -0.027963   -1.074420
     23          6           0       -2.320190   -0.444014   -0.304613
     24          6           0       -2.078676   -1.817335    0.271429
     25          6           0       -0.952159   -2.044761    1.052068
     26          6           0       -0.710512   -3.295344    1.589512
     27          6           0       -1.596417   -4.332870    1.351890
     28          6           0       -2.720006   -4.113978    0.573452
     29          6           0       -2.959323   -2.862242    0.033098
     30          6           0       -2.428960    0.656662    0.791083
     31          8           0       -1.286222    1.475705    0.578024
     32          1           0        0.735316    2.964500    0.756966
     33          1           0        1.732928    3.450863   -0.613624
     34          1           0       -0.026607    3.659101   -0.684272
     35          1           0        1.810906    1.938013   -2.692574
     36          1           0        0.677750    0.572130   -2.784303
     37          1           0       -1.685756    0.949723   -3.270235
     38          1           0       -3.370988    2.399024   -4.342025
     39          1           0       -2.842030    4.761118   -4.821339
     40          1           0       -0.617292    5.658383   -4.241332
     41          1           0        1.055234    4.211288   -3.174308
     42          1           0        3.956758    0.004224    1.357192
     43          1           0        0.978980    0.434292    2.912192
     44          1           0        0.149193   -0.788007    4.896484
     45          1           0        1.155923   -2.953971    5.517643
     46          1           0        2.990376   -3.888124    4.156624
     47          1           0        3.800924   -2.672106    2.176635
     48          1           0        2.320280   -2.150792    0.078794
     49          1           0        3.771711   -1.358328   -0.601059
     50          1           0       -3.199906   -0.463599   -0.955587
     51          1           0       -0.257237   -1.238989    1.238547
     52          1           0        0.169192   -3.455554    2.195726
     53          1           0       -1.409947   -5.310606    1.771204
     54          1           0       -3.412382   -4.921267    0.384182
     55          1           0       -3.835518   -2.696045   -0.577186
     56          1           0       -3.326876    1.271347    0.683818
     57          1           0       -2.386358    0.242031    1.801645
 ---------------------------------------------------------------------
 Rotational constants (GHZ):           0.2590708           0.1071201           0.0868339
 Leave Link  202 at Sun Feb 25 12:52:03 2024, MaxMem=  7516192768 cpu:               1.8 elap:               0.1
 (Enter /public/apps/g16-C01//g16/l301.exe)
 Standard basis: def2SVPP (5D, 7F)
 Ernie: Thresh=  0.10000D-02 Tol=  0.10000D-05 Strict=F.
   486 basis functions,   879 primitive gaussians,   517 cartesian basis functions
   109 alpha electrons      109 beta electrons
       nuclear repulsion energy      3079.4315371786 Hartrees.
 IExCor=  402 DFT=T Ex+Corr=B3LYP ExCW=0 ScaHFX=  0.200000
 ScaDFX=  0.800000  0.720000  1.000000  0.810000 ScalE2=  1.000000  1.000000
 IRadAn=      5 IRanWt=     -1 IRanGd=            0 ICorTp=0 IEmpDi=141
 NAtoms=   57 NActive=   57 NUniq=   57 SFac= 1.00D+00 NAtFMM=   60 NAOKFM=F Big=F
 Integral buffers will be    131072 words long.
 Raffenetti 2 integral format.
 Two-electron integral symmetry is turned off.
 R6Disp:  Grimme-D3(BJ) Dispersion energy=       -0.1412158736 Hartrees.
 Nuclear repulsion after empirical dispersion term =     3079.2903213050 Hartrees.
 Leave Link  301 at Sun Feb 25 12:52:03 2024, MaxMem=  7516192768 cpu:               1.3 elap:               0.1
 (Enter /public/apps/g16-C01//g16/l302.exe)
 NPDir=0 NMtPBC=     1 NCelOv=     1 NCel=       1 NClECP=     1 NCelD=      1
         NCelK=      1 NCelE2=     1 NClLst=     1 CellRange=     0.0.
 One-electron integrals computed using PRISM.
   1 Symmetry operations used in ECPInt.
 ECPInt:  NShTT=   28441 NPrTT=  114007 LenC2=   25476 LenP2D=   66345.
 LDataN:  DoStor=T MaxTD1= 4 Len=   56
 NBasis=   486 RedAO= T EigKep=  2.60D-04  NBF=   486
 NBsUse=   486 1.00D-06 EigRej= -1.00D+00 NBFU=   486
 Precomputing XC quadrature grid using
 IXCGrd= 4 IRadAn=           5 IRanWt=          -1 IRanGd=           0 AccXCQ= 0.00D+00.
 Generated NRdTot=       0 NPtTot=           0 NUsed=           0 NTot=          32
 NSgBfM=   510   510   510   510   510 MxSgAt=    57 MxSgA2=    57.
 Leave Link  302 at Sun Feb 25 12:52:08 2024, MaxMem=  7516192768 cpu:              87.0 elap:               4.8
 (Enter /public/apps/g16-C01//g16/l303.exe)
 DipDrv:  MaxL=1.
 Leave Link  303 at Sun Feb 25 12:52:08 2024, MaxMem=  7516192768 cpu:               7.0 elap:               0.4
 (Enter /public/apps/g16-C01//g16/l401.exe)
 ExpMin= 1.22D-01 ExpMax= 2.27D+03 ExpMxC= 3.41D+02 IAcc=3 IRadAn=         5 AccDes= 0.00D+00
 Harris functional with IExCor=  402 and IRadAn=       5 diagonalized for initial guess.
 HarFok:  IExCor=  402 AccDes= 0.00D+00 IRadAn=         5 IDoV= 1 UseB2=F ITyADJ=14
 ICtDFT=  3500011 ScaDFX=  1.000000  1.000000  1.000000  1.000000
 FoFCou: FMM=F IPFlag=           0 FMFlag=      100000 FMFlg1=           0
         NFxFlg=           0 DoJE=T BraDBF=F KetDBF=T FulRan=T
         wScrn=  0.000000 ICntrl=       500 IOpCl=  0 I1Cent=   200000004 NGrid=           0
         NMat0=    1 NMatS0=      1 NMatT0=    0 NMatD0=    1 NMtDS0=    0 NMtDT0=    0
 Symmetry not used in FoFCou.
 Harris En= -1303.54851065916    
 JPrj=0 DoOrth=F DoCkMO=F.
 Leave Link  401 at Sun Feb 25 12:52:13 2024, MaxMem=  7516192768 cpu:              95.6 elap:               5.4
 (Enter /public/apps/g16-C01//g16/l502.exe)
 Two-electron integral symmetry not used.
 Closed shell SCF:
 Using DIIS extrapolation, IDIIS=  1040.
 NGot=  7516192768 LenX=  7515631681 LenY=  7515363875
 Requested convergence on RMS density matrix=1.00D-08 within 128 cycles.
 Requested convergence on MAX density matrix=1.00D-06.
 Requested convergence on             energy=1.00D-06.
 No special actions if energy rises.
 Fock matrices will be formed incrementally for  20 cycles.
 Integral accuracy reduced to 1.0D-05 until final iterations.

 Cycle   1  Pass 0  IDiag  1:
 FoFJK:  IHMeth= 1 ICntrl=       0 DoSepK=F KAlg= 0 I1Cent=           0 FoldK=F
 IRaf= 820000000 NMat=       1 IRICut=       1 DoRegI=T DoRafI=F ISym2E= 0 IDoP0=0 IntGTp=1.
 FoFCou: FMM=F IPFlag=           0 FMFlag=      100000 FMFlg1=           0
         NFxFlg=           0 DoJE=F BraDBF=F KetDBF=F FulRan=T
         wScrn=  0.000000 ICntrl=         0 IOpCl=  0 I1Cent=           0 NGrid=           0
         NMat0=    1 NMatS0=      1 NMatT0=    0 NMatD0=    1 NMtDS0=    0 NMtDT0=    0
 Symmetry not used in FoFCou.
 E= -1302.95674357349    
 DIIS: error= 2.25D-02 at cycle   1 NSaved=   1.
 NSaved= 1 IEnMin= 1 EnMin= -1302.95674357349     IErMin= 1 ErrMin= 2.25D-02
 ErrMax= 2.25D-02  0.00D+00 EMaxC= 1.00D-01 BMatC= 5.61D-01 BMatP= 5.61D-01
 IDIUse=3 WtCom= 7.75D-01 WtEn= 2.25D-01
 Coeff-Com:  0.100D+01
 Coeff-En:   0.100D+01
 Coeff:      0.100D+01
 Gap=     0.287 Goal=   None    Shift=    0.000
 GapD=    0.287 DampG=1.000 DampE=0.500 DampFc=0.5000 IDamp=-1.
 Damping current iteration by 5.00D-01
 RMSDP=5.21D-03 MaxDP=2.95D-01              OVMax= 2.05D-01

 Cycle   2  Pass 0  IDiag  1:
 RMSU=  2.42D-03    CP:  9.48D-01
 E= -1303.23571455433     Delta-E=       -0.278970980836 Rises=F Damp=T
 DIIS: error= 4.51D-03 at cycle   2 NSaved=   2.
 NSaved= 2 IEnMin= 2 EnMin= -1303.23571455433     IErMin= 2 ErrMin= 4.51D-03
 ErrMax= 4.51D-03  0.00D+00 EMaxC= 1.00D-01 BMatC= 3.82D-02 BMatP= 5.61D-01
 IDIUse=3 WtCom= 9.55D-01 WtEn= 4.51D-02
 Coeff-Com:  0.702D-01 0.930D+00
 Coeff-En:   0.966D-01 0.903D+00
 Coeff:      0.714D-01 0.929D+00
 Gap=     0.244 Goal=   None    Shift=    0.000
 RMSDP=1.58D-03 MaxDP=8.49D-02 DE=-2.79D-01 OVMax= 1.75D-01

 Cycle   3  Pass 0  IDiag  1:
 RMSU=  1.49D-03    CP:  9.19D-01  1.01D+00
 E= -1303.54524884279     Delta-E=       -0.309534288463 Rises=F Damp=F
 DIIS: error= 9.41D-03 at cycle   3 NSaved=   3.
 NSaved= 3 IEnMin= 3 EnMin= -1303.54524884279     IErMin= 2 ErrMin= 4.51D-03
 ErrMax= 9.41D-03  0.00D+00 EMaxC= 1.00D-01 BMatC= 5.09D-02 BMatP= 3.82D-02
 IDIUse=3 WtCom= 9.35D-02 WtEn= 9.07D-01
 Coeff-Com: -0.104D-01 0.545D+00 0.465D+00
 Coeff-En:   0.000D+00 0.000D+00 0.100D+01
 Coeff:     -0.968D-03 0.509D-01 0.950D+00
 Gap=     0.238 Goal=   None    Shift=    0.000
 RMSDP=1.60D-03 MaxDP=1.13D-01 DE=-3.10D-01 OVMax= 2.04D-01

 Cycle   4  Pass 0  IDiag  1:
 RMSU=  1.17D-03    CP:  9.22D-01  1.24D+00  3.79D-01
 E= -1303.39866496206     Delta-E=        0.146583880734 Rises=F Damp=F
 DIIS: error= 2.13D-02 at cycle   4 NSaved=   4.
 NSaved= 4 IEnMin= 3 EnMin= -1303.54524884279     IErMin= 2 ErrMin= 4.51D-03
 ErrMax= 2.13D-02  0.00D+00 EMaxC= 1.00D-01 BMatC= 2.16D-01 BMatP= 3.82D-02
 IDIUse=2 WtCom= 0.00D+00 WtEn= 1.00D+00
 Coeff-En:   0.000D+00 0.000D+00 0.752D+00 0.248D+00
 Coeff:      0.000D+00 0.000D+00 0.752D+00 0.248D+00
 Gap=     0.233 Goal=   None    Shift=    0.000
 RMSDP=8.43D-04 MaxDP=6.91D-02 DE= 1.47D-01 OVMax= 8.05D-02

 Cycle   5  Pass 0  IDiag  1:
 RMSU=  1.95D-04    CP:  9.19D-01  1.12D+00  6.95D-01  4.86D-01
 E= -1303.58016146074     Delta-E=       -0.181496498690 Rises=F Damp=F
 DIIS: error= 4.51D-03 at cycle   5 NSaved=   5.
 NSaved= 5 IEnMin= 5 EnMin= -1303.58016146074     IErMin= 2 ErrMin= 4.51D-03
 ErrMax= 4.51D-03  0.00D+00 EMaxC= 1.00D-01 BMatC= 1.25D-02 BMatP= 3.82D-02
 IDIUse=3 WtCom= 9.55D-01 WtEn= 4.51D-02
 Coeff-Com:  0.476D-02 0.503D-02 0.307D+00-0.203D-01 0.704D+00
 Coeff-En:   0.000D+00 0.000D+00 0.243D+00 0.000D+00 0.757D+00
 Coeff:      0.455D-02 0.480D-02 0.304D+00-0.194D-01 0.706D+00
 Gap=     0.225 Goal=   None    Shift=    0.000
 RMSDP=2.72D-04 MaxDP=2.16D-02 DE=-1.81D-01 OVMax= 2.18D-02

 Cycle   6  Pass 0  IDiag  1:
 RMSU=  7.12D-05    CP:  9.18D-01  1.08D+00  7.97D-01  3.25D-01  8.32D-01
 E= -1303.59116904119     Delta-E=       -0.011007580450 Rises=F Damp=F
 DIIS: error= 5.05D-04 at cycle   6 NSaved=   6.
 NSaved= 6 IEnMin= 6 EnMin= -1303.59116904119     IErMin= 6 ErrMin= 5.05D-04
 ErrMax= 5.05D-04  0.00D+00 EMaxC= 1.00D-01 BMatC= 1.45D-04 BMatP= 1.25D-02
 IDIUse=3 WtCom= 9.95D-01 WtEn= 5.05D-03
 Coeff-Com:  0.156D-02-0.466D-02 0.126D+00-0.426D-01 0.447D+00 0.472D+00
 Coeff-En:   0.000D+00 0.000D+00 0.000D+00 0.000D+00 0.000D+00 0.100D+01
 Coeff:      0.155D-02-0.464D-02 0.126D+00-0.424D-01 0.445D+00 0.475D+00
 Gap=     0.224 Goal=   None    Shift=    0.000
 RMSDP=3.56D-05 MaxDP=1.72D-03 DE=-1.10D-02 OVMax= 2.97D-03

 Cycle   7  Pass 0  IDiag  1:
 RMSU=  1.74D-05    CP:  9.18D-01  1.09D+00  7.97D-01  3.30D-01  8.50D-01
                    CP:  5.78D-01
 E= -1303.59132026370     Delta-E=       -0.000151222506 Rises=F Damp=F
 DIIS: error= 9.79D-05 at cycle   7 NSaved=   7.
 NSaved= 7 IEnMin= 7 EnMin= -1303.59132026370     IErMin= 7 ErrMin= 9.79D-05
 ErrMax= 9.79D-05  0.00D+00 EMaxC= 1.00D-01 BMatC= 6.02D-06 BMatP= 1.45D-04
 IDIUse=1 WtCom= 1.00D+00 WtEn= 0.00D+00
 Coeff-Com:  0.663D-03-0.270D-02 0.546D-01-0.238D-01 0.215D+00 0.263D+00
 Coeff-Com:  0.494D+00
 Coeff:      0.663D-03-0.270D-02 0.546D-01-0.238D-01 0.215D+00 0.263D+00
 Coeff:      0.494D+00
 Gap=     0.224 Goal=   None    Shift=    0.000
 RMSDP=7.65D-06 MaxDP=3.01D-04 DE=-1.51D-04 OVMax= 6.73D-04

 Initial convergence to 1.0D-05 achieved.  Increase integral accuracy.
 Cycle   8  Pass 1  IDiag  1:
 E= -1303.59131631279     Delta-E=        0.000003950910 Rises=F Damp=F
 DIIS: error= 2.15D-04 at cycle   1 NSaved=   1.
 NSaved= 1 IEnMin= 1 EnMin= -1303.59131631279     IErMin= 1 ErrMin= 2.15D-04
 ErrMax= 2.15D-04  0.00D+00 EMaxC= 1.00D-01 BMatC= 1.27D-05 BMatP= 1.27D-05
 IDIUse=3 WtCom= 9.98D-01 WtEn= 2.15D-03
 Coeff-Com:  0.100D+01
 Coeff-En:   0.100D+01
 Coeff:      0.100D+01
 Gap=     0.224 Goal=   None    Shift=    0.000
 RMSDP=7.65D-06 MaxDP=3.01D-04 DE= 3.95D-06 OVMax= 7.01D-04

 Cycle   9  Pass 1  IDiag  1:
 RMSU=  2.66D-04    CP:  1.00D+00
 E= -1303.59132933143     Delta-E=       -0.000013018637 Rises=F Damp=F
 DIIS: error= 6.02D-05 at cycle   2 NSaved=   2.
 NSaved= 2 IEnMin= 2 EnMin= -1303.59132933143     IErMin= 2 ErrMin= 6.02D-05
 ErrMax= 6.02D-05  0.00D+00 EMaxC= 1.00D-01 BMatC= 1.96D-06 BMatP= 1.27D-05
 IDIUse=1 WtCom= 1.00D+00 WtEn= 0.00D+00
 Coeff-Com:  0.172D+00 0.828D+00
 Coeff:      0.172D+00 0.828D+00
 Gap=     0.224 Goal=   None    Shift=    0.000
 RMSDP=9.36D-06 MaxDP=5.19D-04 DE=-1.30D-05 OVMax= 7.28D-04

 Cycle  10  Pass 1  IDiag  1:
 RMSU=  9.01D-06    CP:  1.00D+00  1.01D+00
 E= -1303.59132642517     Delta-E=        0.000002906258 Rises=F Damp=F
 DIIS: error= 9.69D-05 at cycle   3 NSaved=   3.
 NSaved= 3 IEnMin= 2 EnMin= -1303.59132933143     IErMin= 2 ErrMin= 6.02D-05
 ErrMax= 9.69D-05  0.00D+00 EMaxC= 1.00D-01 BMatC= 4.84D-06 BMatP= 1.96D-06
 IDIUse=1 WtCom= 1.00D+00 WtEn= 0.00D+00
 Coeff-Com: -0.237D-02 0.613D+00 0.389D+00
 Coeff:     -0.237D-02 0.613D+00 0.389D+00
 Gap=     0.224 Goal=   None    Shift=    0.000
 RMSDP=5.70D-06 MaxDP=2.59D-04 DE= 2.91D-06 OVMax= 4.92D-04

 Cycle  11  Pass 1  IDiag  1:
 RMSU=  1.17D-06    CP:  1.00D+00  1.01D+00  3.86D-01
 E= -1303.59133123898     Delta-E=       -0.000004813813 Rises=F Damp=F
 DIIS: error= 1.35D-05 at cycle   4 NSaved=   4.
 NSaved= 4 IEnMin= 4 EnMin= -1303.59133123898     IErMin= 4 ErrMin= 1.35D-05
 ErrMax= 1.35D-05  0.00D+00 EMaxC= 1.00D-01 BMatC= 7.41D-08 BMatP= 1.96D-06
 IDIUse=1 WtCom= 1.00D+00 WtEn= 0.00D+00
 Coeff-Com: -0.438D-02 0.385D+00 0.252D+00 0.367D+00
 Coeff:     -0.438D-02 0.385D+00 0.252D+00 0.367D+00
 Gap=     0.224 Goal=   None    Shift=    0.000
 RMSDP=6.17D-07 MaxDP=3.87D-05 DE=-4.81D-06 OVMax= 4.46D-05

 Cycle  12  Pass 1  IDiag  1:
 RMSU=  3.93D-07    CP:  1.00D+00  1.01D+00  4.00D-01  6.06D-01
 E= -1303.59133129930     Delta-E=       -0.000000060320 Rises=F Damp=F
 DIIS: error= 1.28D-06 at cycle   5 NSaved=   5.
 NSaved= 5 IEnMin= 5 EnMin= -1303.59133129930     IErMin= 5 ErrMin= 1.28D-06
 ErrMax= 1.28D-06  0.00D+00 EMaxC= 1.00D-01 BMatC= 1.02D-09 BMatP= 7.41D-08
 IDIUse=1 WtCom= 1.00D+00 WtEn= 0.00D+00
 Coeff-Com: -0.232D-02 0.192D+00 0.126D+00 0.202D+00 0.482D+00
 Coeff:     -0.232D-02 0.192D+00 0.126D+00 0.202D+00 0.482D+00
 Gap=     0.224 Goal=   None    Shift=    0.000
 RMSDP=1.21D-07 MaxDP=5.77D-06 DE=-6.03D-08 OVMax= 7.81D-06

 Cycle  13  Pass 1  IDiag  1:
 RMSU=  1.12D-07    CP:  1.00D+00  1.01D+00  4.00D-01  6.03D-01  8.81D-01
 E= -1303.59133130021     Delta-E=       -0.000000000902 Rises=F Damp=F
 DIIS: error= 4.15D-07 at cycle   6 NSaved=   6.
 NSaved= 6 IEnMin= 6 EnMin= -1303.59133130021     IErMin= 6 ErrMin= 4.15D-07
 ErrMax= 4.15D-07  0.00D+00 EMaxC= 1.00D-01 BMatC= 1.02D-10 BMatP= 1.02D-09
 IDIUse=1 WtCom= 1.00D+00 WtEn= 0.00D+00
 Coeff-Com: -0.837D-03 0.666D-01 0.439D-01 0.750D-01 0.277D+00 0.539D+00
 Coeff:     -0.837D-03 0.666D-01 0.439D-01 0.750D-01 0.277D+00 0.539D+00
 Gap=     0.224 Goal=   None    Shift=    0.000
 RMSDP=3.44D-08 MaxDP=1.14D-06 DE=-9.02D-10 OVMax= 2.87D-06

 Cycle  14  Pass 1  IDiag  1:
 RMSU=  2.72D-08    CP:  1.00D+00  1.01D+00  3.99D-01  6.05D-01  9.04D-01
                    CP:  8.38D-01
 E= -1303.59133130028     Delta-E=       -0.000000000069 Rises=F Damp=F
 DIIS: error= 1.90D-07 at cycle   7 NSaved=   7.
 NSaved= 7 IEnMin= 7 EnMin= -1303.59133130028     IErMin= 7 ErrMin= 1.90D-07
 ErrMax= 1.90D-07  0.00D+00 EMaxC= 1.00D-01 BMatC= 1.39D-11 BMatP= 1.02D-10
 IDIUse=1 WtCom= 1.00D+00 WtEn= 0.00D+00
 Coeff-Com: -0.194D-03 0.145D-01 0.968D-02 0.182D-01 0.102D+00 0.319D+00
 Coeff-Com:  0.536D+00
 Coeff:     -0.194D-03 0.145D-01 0.968D-02 0.182D-01 0.102D+00 0.319D+00
 Coeff:      0.536D+00
 Gap=     0.224 Goal=   None    Shift=    0.000
 RMSDP=1.15D-08 MaxDP=6.15D-07 DE=-6.91D-11 OVMax= 9.23D-07

 Cycle  15  Pass 1  IDiag  1:
 RMSU=  8.05D-09    CP:  1.00D+00  1.01D+00  4.00D-01  6.08D-01  9.03D-01
                    CP:  8.54D-01  7.46D-01
 E= -1303.59133130029     Delta-E=       -0.000000000018 Rises=F Damp=F
 DIIS: error= 6.95D-08 at cycle   8 NSaved=   8.
 NSaved= 8 IEnMin= 8 EnMin= -1303.59133130029     IErMin= 8 ErrMin= 6.95D-08
 ErrMax= 6.95D-08  0.00D+00 EMaxC= 1.00D-01 BMatC= 1.87D-12 BMatP= 1.39D-11
 IDIUse=1 WtCom= 1.00D+00 WtEn= 0.00D+00
 Coeff-Com: -0.699D-05 0.137D-04 0.952D-04 0.107D-02 0.261D-01 0.123D+00
 Coeff-Com:  0.321D+00 0.528D+00
 Coeff:     -0.699D-05 0.137D-04 0.952D-04 0.107D-02 0.261D-01 0.123D+00
 Coeff:      0.321D+00 0.528D+00
 Gap=     0.224 Goal=   None    Shift=    0.000
 RMSDP=4.38D-09 MaxDP=2.80D-07 DE=-1.82D-11 OVMax= 4.08D-07

 SCF Done:  E(RB3LYP) =  -1303.59133130     A.U. after   15 cycles
            NFock= 15  Conv=0.44D-08     -V/T= 2.0092
 KE= 1.291701060332D+03 PE=-9.183921475849D+03 EE= 3.509338762912D+03
 Leave Link  502 at Sun Feb 25 12:53:35 2024, MaxMem=  7516192768 cpu:            2138.8 elap:              81.6
 (Enter /public/apps/g16-C01//g16/l601.exe)
 Copying SCF densities to generalized density rwf, IOpCl= 0 IROHF=0.

 **********************************************************************

            Population analysis using the SCF Density.

 **********************************************************************

 Alpha  occ. eigenvalues --  -19.17283 -19.17228 -14.30499 -14.30220 -10.27745
 Alpha  occ. eigenvalues --  -10.27473 -10.24001 -10.23847 -10.22397 -10.22115
 Alpha  occ. eigenvalues --  -10.22042 -10.19499 -10.18916 -10.18911 -10.18844
 Alpha  occ. eigenvalues --  -10.18615 -10.18569 -10.18507 -10.18284 -10.18231
 Alpha  occ. eigenvalues --  -10.18122 -10.18097 -10.18064 -10.18029 -10.17934
 Alpha  occ. eigenvalues --  -10.17875 -10.17774 -10.17732 -10.17717 -10.17178
 Alpha  occ. eigenvalues --  -10.16497  -1.09629  -1.09175  -0.91212  -0.90943
 Alpha  occ. eigenvalues --   -0.86336  -0.85609  -0.85163  -0.83392  -0.78218
 Alpha  occ. eigenvalues --   -0.77325  -0.75022  -0.74549  -0.74095  -0.73610
 Alpha  occ. eigenvalues --   -0.73014  -0.71880  -0.68423  -0.64780  -0.64719
 Alpha  occ. eigenvalues --   -0.64158  -0.61229  -0.60591  -0.59975  -0.58953
 Alpha  occ. eigenvalues --   -0.58578  -0.58145  -0.57123  -0.53916  -0.53170
 Alpha  occ. eigenvalues --   -0.52905  -0.52416  -0.51000  -0.50011  -0.49010
 Alpha  occ. eigenvalues --   -0.48855  -0.47502  -0.46688  -0.46418  -0.45655
 Alpha  occ. eigenvalues --   -0.45537  -0.45095  -0.44751  -0.44245  -0.43065
 Alpha  occ. eigenvalues --   -0.42736  -0.42521  -0.42335  -0.42057  -0.41731
 Alpha  occ. eigenvalues --   -0.41023  -0.40443  -0.40077  -0.39121  -0.38304
 Alpha  occ. eigenvalues --   -0.37743  -0.37199  -0.36727  -0.36445  -0.36354
 Alpha  occ. eigenvalues --   -0.36016  -0.35285  -0.35156  -0.34904  -0.34630
 Alpha  occ. eigenvalues --   -0.34434  -0.33897  -0.33584  -0.33242  -0.27770
 Alpha  occ. eigenvalues --   -0.27543  -0.26335  -0.25910  -0.25645  -0.25540
 Alpha  occ. eigenvalues --   -0.25197  -0.25087  -0.24642  -0.24293
 Alpha virt. eigenvalues --   -0.01911  -0.01631  -0.01061  -0.00420  -0.00255
 Alpha virt. eigenvalues --   -0.00059   0.00406   0.04488   0.05580   0.06303
 Alpha virt. eigenvalues --    0.06674   0.07066   0.07377   0.07823   0.08972
 Alpha virt. eigenvalues --    0.09780   0.09961   0.10887   0.11107   0.11475
 Alpha virt. eigenvalues --    0.11905   0.12579   0.13029   0.13172   0.13240
 Alpha virt. eigenvalues --    0.13986   0.14178   0.14324   0.14719   0.14802
 Alpha virt. eigenvalues --    0.15240   0.15541   0.16042   0.16400   0.16705
 Alpha virt. eigenvalues --    0.17317   0.17909   0.18385   0.19937   0.20282
 Alpha virt. eigenvalues --    0.20521   0.22512   0.23276   0.23509   0.24489
 Alpha virt. eigenvalues --    0.25034   0.25809   0.26101   0.27560   0.28483
 Alpha virt. eigenvalues --    0.29113   0.29854   0.30079   0.30359   0.30933
 Alpha virt. eigenvalues --    0.31366   0.31592   0.32181   0.32367   0.32823
 Alpha virt. eigenvalues --    0.33024   0.33706   0.34278   0.36124   0.36887
 Alpha virt. eigenvalues --    0.37528   0.38351   0.39211   0.39667   0.39898
 Alpha virt. eigenvalues --    0.40327   0.40972   0.41516   0.42312   0.42675
 Alpha virt. eigenvalues --    0.43338   0.44273   0.44303   0.44735   0.45055
 Alpha virt. eigenvalues --    0.45651   0.46520   0.46805   0.47296   0.47824
 Alpha virt. eigenvalues --    0.48185   0.48368   0.48987   0.49155   0.49485
 Alpha virt. eigenvalues --    0.49831   0.50081   0.50435   0.50827   0.50899
 Alpha virt. eigenvalues --    0.51535   0.52714   0.52849   0.53535   0.53833
 Alpha virt. eigenvalues --    0.55041   0.55600   0.56264   0.56510   0.57179
 Alpha virt. eigenvalues --    0.57768   0.58024   0.58578   0.58753   0.58796
 Alpha virt. eigenvalues --    0.59566   0.59744   0.61057   0.61653   0.62059
 Alpha virt. eigenvalues --    0.62424   0.62982   0.63323   0.64290   0.64802
 Alpha virt. eigenvalues --    0.65383   0.65902   0.66388   0.66683   0.66970
 Alpha virt. eigenvalues --    0.67262   0.67327   0.67862   0.68050   0.68331
 Alpha virt. eigenvalues --    0.68581   0.69126   0.69309   0.69926   0.69991
 Alpha virt. eigenvalues --    0.70230   0.70414   0.70609   0.70729   0.71232
 Alpha virt. eigenvalues --    0.71678   0.71983   0.72234   0.72493   0.73072
 Alpha virt. eigenvalues --    0.73627   0.73948   0.74126   0.74381   0.74727
 Alpha virt. eigenvalues --    0.75198   0.75501   0.75811   0.76373   0.77013
 Alpha virt. eigenvalues --    0.77334   0.77715   0.78061   0.78405   0.78712
 Alpha virt. eigenvalues --    0.79856   0.80521   0.81518   0.82119   0.82531
 Alpha virt. eigenvalues --    0.83289   0.84384   0.84850   0.85473   0.85981
 Alpha virt. eigenvalues --    0.86540   0.87091   0.87226   0.88927   0.89145
 Alpha virt. eigenvalues --    0.89916   0.91359   0.92629   0.92987   0.93808
 Alpha virt. eigenvalues --    0.94431   0.95706   0.97327   0.98236   0.99961
 Alpha virt. eigenvalues --    1.00423   1.02738   1.02902   1.04234   1.05727
 Alpha virt. eigenvalues --    1.07699   1.08500   1.09295   1.10017   1.11532
 Alpha virt. eigenvalues --    1.12486   1.13426   1.14277   1.15497   1.18677
 Alpha virt. eigenvalues --    1.19635   1.21976   1.23417   1.24545   1.25611
 Alpha virt. eigenvalues --    1.27079   1.27731   1.27936   1.28328   1.29443
 Alpha virt. eigenvalues --    1.30335   1.30576   1.32097   1.33503   1.34403
 Alpha virt. eigenvalues --    1.37936   1.40570   1.41807   1.42345   1.43176
 Alpha virt. eigenvalues --    1.44535   1.46239   1.47562   1.47652   1.48174
 Alpha virt. eigenvalues --    1.48424   1.49355   1.49448   1.50058   1.50851
 Alpha virt. eigenvalues --    1.51089   1.51278   1.51817   1.53385   1.55115
 Alpha virt. eigenvalues --    1.55615   1.56158   1.58011   1.61673   1.63767
 Alpha virt. eigenvalues --    1.64414   1.65973   1.67728   1.67953   1.69936
 Alpha virt. eigenvalues --    1.73690   1.74259   1.75421   1.75767   1.76754
 Alpha virt. eigenvalues --    1.77203   1.77946   1.78492   1.78656   1.80403
 Alpha virt. eigenvalues --    1.80685   1.82389   1.82977   1.83776   1.84155
 Alpha virt. eigenvalues --    1.84531   1.85792   1.86549   1.87246   1.88488
 Alpha virt. eigenvalues --    1.88850   1.89513   1.90910   1.91381   1.92148
 Alpha virt. eigenvalues --    1.93194   1.94622   1.96287   1.98155   1.98692
 Alpha virt. eigenvalues --    1.99688   2.00244   2.01017   2.01700   2.02681
 Alpha virt. eigenvalues --    2.03277   2.03876   2.05572   2.07271   2.07596
 Alpha virt. eigenvalues --    2.08269   2.09116   2.10078   2.10228   2.10586
 Alpha virt. eigenvalues --    2.11056   2.12337   2.13542   2.14106   2.14704
 Alpha virt. eigenvalues --    2.15026   2.15105   2.16404   2.17196   2.18508
 Alpha virt. eigenvalues --    2.19682   2.20535   2.21831   2.23121   2.23551
 Alpha virt. eigenvalues --    2.25904   2.27702   2.28732   2.29308   2.30624
 Alpha virt. eigenvalues --    2.30834   2.31351   2.31866   2.32006   2.32451
 Alpha virt. eigenvalues --    2.34121   2.36155   2.36936   2.38322   2.41510
 Alpha virt. eigenvalues --    2.44180   2.45165   2.45766   2.47211   2.47632
 Alpha virt. eigenvalues --    2.48175   2.48913   2.51122   2.51402   2.53094
 Alpha virt. eigenvalues --    2.55964   2.57068   2.59137   2.60429   2.61811
 Alpha virt. eigenvalues --    2.64020   2.66218   2.67612   2.68232   2.68298
 Alpha virt. eigenvalues --    2.68735   2.71497   2.72113   2.73364   2.73481
 Alpha virt. eigenvalues --    2.73970   2.74275   2.74492   2.75614   2.78017
 Alpha virt. eigenvalues --    2.78084   2.78574   2.79126   2.80763   2.82973
 Alpha virt. eigenvalues --    2.87382   2.88212   2.91023   2.92101   2.96931
 Alpha virt. eigenvalues --    2.97813   2.98263   3.00818   3.04035   3.06945
 Alpha virt. eigenvalues --    3.07266   3.14519   3.15474   3.26036   3.27337
 Alpha virt. eigenvalues --    3.37918   3.40752   3.40907   3.41556   3.41752
 Alpha virt. eigenvalues --    3.59756   3.60781
          Condensed to atoms (all electrons):
 Mulliken charges:
               1
     1  C   -0.140279
     2  C   -0.186904
     3  C    0.036077
     4  C    0.048919
     5  C   -0.109718
     6  C   -0.038376
     7  C   -0.044169
     8  C   -0.041877
     9  C   -0.120325
    10  C    0.115184
    11  N   -0.160347
    12  C   -0.012401
    13  C    0.046220
    14  C   -0.099722
    15  C   -0.032856
    16  C   -0.045265
    17  C   -0.041708
    18  C   -0.115271
    19  C    0.091992
    20  O   -0.295735
    21  C    0.095946
    22  N   -0.162374
    23  C   -0.041596
    24  C    0.170682
    25  C   -0.171655
    26  C   -0.062847
    27  C   -0.040807
    28  C   -0.040595
    29  C   -0.137793
    30  C    0.096437
    31  O   -0.298355
    32  H    0.119782
    33  H    0.077669
    34  H    0.107757
    35  H    0.062488
    36  H    0.103451
    37  H    0.058653
    38  H    0.040593
    39  H    0.044065
    40  H    0.042334
    41  H    0.031816
    42  H    0.085280
    43  H    0.067696
    44  H    0.047759
    45  H    0.047993
    46  H    0.046726
    47  H    0.034299
    48  H    0.101909
    49  H    0.088000
    50  H    0.055507
    51  H    0.096077
    52  H    0.067937
    53  H    0.043415
    54  H    0.044746
    55  H    0.031829
    56  H    0.091658
    57  H    0.100077
 Sum of Mulliken charges =  -0.00000
 Mulliken charges with hydrogens summed into heavy atoms:
               1
     1  C    0.164929
     2  C   -0.186904
     3  C    0.202016
     4  C    0.048919
     5  C   -0.051065
     6  C    0.002217
     7  C   -0.000104
     8  C    0.000457
     9  C   -0.088509
    10  C    0.115184
    11  N   -0.160347
    12  C    0.072879
    13  C    0.046220
    14  C   -0.032025
    15  C    0.014903
    16  C    0.002728
    17  C    0.005017
    18  C   -0.080972
    19  C    0.281902
    20  O   -0.295735
    21  C    0.095946
    22  N   -0.162374
    23  C    0.013911
    24  C    0.170682
    25  C   -0.075579
    26  C    0.005091
    27  C    0.002608
    28  C    0.004152
    29  C   -0.105964
    30  C    0.288172
    31  O   -0.298355
 Electronic spatial extent (au):  <R**2>=          12561.1919
 Charge=              0.0000 electrons
 Dipole moment (field-independent basis, Debye):
    X=             -0.1018    Y=             -1.1448    Z=              0.9895  Tot=              1.5166
 Quadrupole moment (field-independent basis, Debye-Ang):
   XX=           -164.9821   YY=           -173.5435   ZZ=           -185.2621
   XY=             -3.7992   XZ=             -0.6260   YZ=             -8.0311
 Traceless Quadrupole moment (field-independent basis, Debye-Ang):
   XX=              9.6138   YY=              1.0524   ZZ=            -10.6662
   XY=             -3.7992   XZ=             -0.6260   YZ=             -8.0311
 Octapole moment (field-independent basis, Debye-Ang**2):
  XXX=              1.0754  YYY=            -10.1711  ZZZ=             41.3695  XYY=              9.0000
  XXY=            -16.1635  XXZ=            -27.6282  XZZ=            -17.8049  YZZ=            -11.8183
  YYZ=              0.1679  XYZ=            -12.8410
 Hexadecapole moment (field-independent basis, Debye-Ang**3):
 XXXX=          -3939.5373 YYYY=          -6313.8755 ZZZZ=          -6862.1006 XXXY=            140.5126
 XXXZ=          -1011.4308 YYYX=            221.2749 YYYZ=           2143.2561 ZZZX=          -1087.9403
 ZZZY=           2352.4711 XXYY=          -1703.2334 XXZZ=          -1828.2443 YYZZ=          -2102.2537
 XXYZ=            760.4118 YYXZ=           -287.1347 ZZXY=            -13.2583
 N-N= 3.079290321305D+03 E-N=-9.183921475320D+03  KE= 1.291701060332D+03
 No NMR shielding tensors so no spin-rotation constants.
 Leave Link  601 at Sun Feb 25 12:53:36 2024, MaxMem=  7516192768 cpu:              25.6 elap:               1.4
 (Enter /public/apps/g16-C01//g16/l701.exe)
 ... and contract with generalized density number  0.
 Compute integral first derivatives.
 R6Disp: Adding Grimme-D3(BJ) dispersion energy 1st derivatives to the gradient.
   1 Symmetry operations used in ECPInt.
 ECPInt:  NShTT=   28441 NPrTT=  114007 LenC2=   25476 LenP2D=   66345.
 LDataN:  DoStor=T MaxTD1= 5 Len=  102
 Leave Link  701 at Sun Feb 25 12:53:37 2024, MaxMem=  7516192768 cpu:              18.3 elap:               0.6
 (Enter /public/apps/g16-C01//g16/l702.exe)
 L702 exits ... SP integral derivatives will be done elsewhere.
 Leave Link  702 at Sun Feb 25 12:53:37 2024, MaxMem=  7516192768 cpu:               0.8 elap:               0.0
 (Enter /public/apps/g16-C01//g16/l703.exe)
 Integral derivatives from FoFJK, PRISM(SPDF).
 Compute integral first derivatives, UseDBF=F ICtDFT=           0.
 Calling FoFJK, ICntrl=      2127 FMM=F ISym2X=0 I1Cent= 0 IOpClX= 0 NMat=1 NMatS=1 NMatT=0.
 FoFJK:  IHMeth= 1 ICntrl=    2127 DoSepK=F KAlg= 0 I1Cent=           0 FoldK=F
 IRaf=         0 NMat=       1 IRICut=       1 DoRegI=T DoRafI=F ISym2E= 0 IDoP0=0 IntGTp=1.
 FoFCou: FMM=F IPFlag=           0 FMFlag=      100000 FMFlg1=         800
         NFxFlg=           0 DoJE=F BraDBF=F KetDBF=F FulRan=T
         wScrn=  0.000000 ICntrl=      2127 IOpCl=  0 I1Cent=           0 NGrid=           0
         NMat0=    1 NMatS0=      1 NMatT0=    0 NMatD0=    1 NMtDS0=    0 NMtDT0=    0
 Symmetry not used in FoFCou.
 Leave Link  703 at Sun Feb 25 12:53:48 2024, MaxMem=  7516192768 cpu:             310.8 elap:              10.5
 (Enter /public/apps/g16-C01//g16/l716.exe)
 Dipole        =-4.00682955D-02-4.50395089D-01 3.89282229D-01
 -------------------------------------------------------------------
 Center     Atomic                   Forces (Hartrees/Bohr)
 Number     Number              X              Y              Z
 -------------------------------------------------------------------
      1        6          -0.001317555   -0.005799068    0.000047838
      2        6           0.002431577    0.000393822    0.001488923
      3        6          -0.007195326    0.001166169    0.001098816
      4        6           0.008590647   -0.005664732    0.000602779
      5        6          -0.002362543   -0.003694865   -0.000538040
      6        6          -0.003805243   -0.000764506   -0.001110348
      7        6          -0.003558610    0.002578901   -0.001840056
      8        6           0.001166618    0.004545608   -0.000542329
      9        6           0.002051037    0.001223507    0.000021523
     10        6           0.004104350    0.000687269   -0.002837634
     11        7           0.002259058    0.011429349    0.010953675
     12        6          -0.003130184   -0.004234022   -0.002139424
     13        6           0.004208759    0.004889832   -0.005513940
     14        6          -0.000633734    0.004115243   -0.000302405
     15        6          -0.002537485    0.000772261    0.002194754
     16        6          -0.001638452   -0.002241723    0.003962534
     17        6           0.002329634   -0.004597772    0.000852885
     18        6           0.000763126    0.000277465   -0.000955150
     19        6           0.004491636   -0.002875204    0.003876679
     20        8          -0.004416669    0.002350118   -0.007918134
     21        6          -0.004092825    0.002832407   -0.001319488
     22        7           0.003074999   -0.005992890   -0.014272213
     23        6           0.000744827   -0.001000203    0.006795388
     24        6          -0.005060231    0.005441230   -0.005340200
     25        6           0.001651103    0.002936618   -0.000563157
     26        6           0.005009078    0.000700127    0.003176084
     27        6          -0.000195502   -0.004539122    0.000965923
     28        6          -0.002619635   -0.004672667   -0.000098158
     29        6          -0.001228087    0.002382188   -0.000735049
     30        6          -0.007124439   -0.003478311   -0.000572857
     31        8           0.006547155    0.007559195    0.003817058
     32        1          -0.000058121    0.000998127    0.008559301
     33        1           0.009081827    0.004597845   -0.002760717
     34        1          -0.006310676    0.005906051   -0.002647249
     35        1           0.006849785    0.000905135   -0.001340340
     36        1           0.001517690   -0.005039500   -0.002529616
     37        1          -0.001660743   -0.008341891    0.001557327
     38        1          -0.008895503   -0.003920179   -0.002544518
     39        1          -0.006875044    0.005988410   -0.004477350
     40        1           0.002327907    0.009526568   -0.002077002
     41        1           0.008828300    0.003271696    0.002436551
     42        1           0.005527185    0.000331451    0.000440824
     43        1          -0.003793392    0.007071283   -0.002757142
     44        1          -0.007561843    0.003866290    0.005520691
     45        1          -0.003352078   -0.005048329    0.008101981
     46        1           0.004081771   -0.008821571    0.002600430
     47        1           0.007564884   -0.004408761   -0.005137838
     48        1          -0.002113176   -0.004610929   -0.000200764
     49        1           0.005155358   -0.001545749   -0.003372415
     50        1          -0.005065851   -0.000718393   -0.001779086
     51        1           0.005892282    0.006000887    0.001936483
     52        1           0.007927368   -0.000889098    0.005495622
     53        1           0.001709484   -0.009240081    0.003950820
     54        1          -0.006491376   -0.007716491   -0.001802459
     55        1          -0.008065219    0.001730426   -0.005820758
     56        1          -0.004774863    0.004061730    0.000139430
     57        1           0.000046959   -0.000681152    0.005251517
 -------------------------------------------------------------------
 Cartesian Forces:  Max     0.014272213 RMS     0.004561443
 Leave Link  716 at Sun Feb 25 12:53:48 2024, MaxMem=  7516192768 cpu:               0.9 elap:               0.1
 (Enter /public/apps/g16-C01//g16/l103.exe)

 GradGradGradGradGradGradGradGradGradGradGradGradGradGradGradGradGradGrad
 Berny optimization.
 FormGI is forming the generalized inverse of G from B-inverse, IUseBI=4.
 Internal  Forces:  Max     0.015913891 RMS     0.004886862
 Search for a local minimum.
 Step number   1 out of a maximum of  335
 All quantities printed in internal units (Hartrees-Bohrs-Radians)
 RMS Force = .48869D-02 SwitMx=.10000D-02 MixMth= 1
 Mixed Optimization -- RFO/linear search
 Second derivative matrix not updated -- first step.
 ITU=  0
     Eigenvalues ---    0.00230   0.00428   0.00606   0.00608   0.00634
     Eigenvalues ---    0.00651   0.00698   0.00707   0.00742   0.01532
     Eigenvalues ---    0.01532   0.01594   0.01602   0.01624   0.02235
     Eigenvalues ---    0.02245   0.02250   0.02261   0.02267   0.02268
     Eigenvalues ---    0.02274   0.02276   0.02279   0.02286   0.02287
     Eigenvalues ---    0.02291   0.02291   0.02293   0.02295   0.02295
[...]
 0.00000061,0.00000411,-0.00005245,0.00002134,-0.00006034,0.00001153,-0
 .00002764,0.00005833,0.00001938,0.00002921,-0.00001672,0.00002339,-0.0
 0000077,-0.00003775,-0.00003583,-0.00000044,-0.00002904,-0.00003948,-0
 .00001880,0.00001453,-0.00000545,-0.00001107,0.00001457,-0.00000803,-0
 .00000809,-0.00000130,0.00000283,-0.00001293,-0.00001381,0.00001706,0.
 00003065,-0.00003204,0.00001565,-0.00002249,0.00004854,-0.00006918,0.0
 0004544,0.00015506,0.00008844,-0.00052943,0.00024117,-0.00109378,0.002
 26345,0.00170305,-0.01020294,0.00305546,-0.01028902,0.00159221,-0.0037
 7508,-0.00274834,0.00029653,-0.00024665,0.00073737,0.00323151,0.001377
 96,-0.00279617,-0.00348855,-0.00154299,-0.00453956,-0.23359335,0.01523
 180,-0.13776646,0.00024162,0.00008242,-0.00016006,0.00024039,0.0002256
 4,0.00011963,-0.00000411,0.00000609,0.00000121,-0.00000171,0.00000291,
 -0.00000318,0.00000421,-0.00000738,-0.00000171,0.00000421,0.00000452,0
 .00000289,-0.00000877,-0.00000123,-0.00000388,-0.00001148,-0.00001145,
 -0.00001036,0.00000659,-0.00000660,0.00000382,0.00000023,0.00000121,-0
 .00000120,0.00000180,0.00000123,-0.00000060,0.00000456,0.00000394,-0.0
 0000145,-0.00000318,-0.00000663,0.00000587,0.00000714,0.00002909,0.,0.
 00000505,0.00000365,0.00000581,0.00000331,0.00000453,0.00000129,0.0000
 0300,0.00000363,0.00000259,-0.00000055,0.00000561,0.00000373,0.0000169
 2,-0.00001566,-0.00001224,-0.00001005,-0.00001055,0.00000809,0.0005763
 7,-0.00078141,0.00039713,-0.00045440,0.00026665,-0.00056606,-0.0003756
 5,0.00011718,0.00043237,-0.00020636,-0.00012449,-0.00028624,-0.0007139
 2,0.00057984,0.00223129,0.24398892,0.00002556,-0.00000437,-0.00001421,
 -0.00000051,0.00001283,0.00002098,0.00000935,-0.00000010,0.00001333,0.
 00000283,0.00000085,-0.00000275,-0.00000421,-0.00001886,-0.00000414,0.
 00000940,0.00000305,-0.00000448,0.00000208,-0.00000034,-0.00000040,-0.
 00000012,0.00000215,-0.00000181,0.00000009,-0.00000156,-0.00000120,-0.
 00006922,0.00009805,-0.00008001,0.00003244,-0.00003972,0.00005005,0.00
 000364,0.00001666,-0.00000254,0.00000608,-0.00000985,-0.00003163,-0.00
 002298,0.00000044,-0.00002167,-0.00001247,-0.00001956,0.00002187,-0.00
 000564,0.00001142,0.00000394,0.00000885,0.00001188,-0.00001275,0.00000
 599,-0.00001644,0.00002006,0.00000024,0.00001337,-0.00001383,0.0000311
 8,-0.00004064,0.00002274,-0.00006949,-0.00014085,-0.00029231,0.0004370
 0,0.00030219,0.00009419,-0.00160480,0.00114658,-0.00176075,-0.02005481
 ,0.00521796,-0.01406508,-0.00278145,-0.00387686,-0.00013718,-0.0001241
 3,-0.00103171,-0.00002652,0.00023849,-0.00454651,0.00210043,0.02399483
 ,0.00234937,0.01670970,0.01544940,-0.05951474,0.01440082,-0.00002277,-
 0.00010576,0.00002143,0.00016263,0.00010135,0.00022334,-0.00000855,0.0
 0000054,-0.00000193,0.00000838,0.00001298,0.00000018,-0.00000243,-0.00
 000611,0.00000307,0.00000863,0.00000814,-0.00000940,-0.00001228,0.0000
 0299,0.00000692,-0.00000351,0.00000290,0.00001673,-0.00000016,-0.00000
 248,0.00000610,-0.00000174,0.00000368,-0.00000037,0.00000094,0.0000033
 7,0.00000004,0.00000172,0.00000120,0.00000204,0.00000221,-0.00000457,0
 .00000340,0.00000113,0.00002312,0.00000009,0.00000051,0.00000064,-0.00
 000003,-0.00000124,0.00000023,-0.00000403,-0.00000525,0.00000003,-0.00
 000308,-0.00000344,0.00000106,0.00000019,0.00000407,-0.00001675,-0.000
 00016,0.00000152,-0.00000661,0.00000414,0.00060641,-0.00041116,0.00043
 018,-0.00103351,0.00027438,-0.00065005,0.00010705,0.00005922,-0.000112
 34,0.00109333,-0.00005144,0.00078062,-0.00005555,0.00112608,-0.0009249
 1,-0.01634268,0.05902834,0.00001348,0.00000128,-0.00000310,0.00003244,
 -0.00000160,0.00003824,-0.00000060,0.00000285,0.00000477,-0.00000471,-
 0.00000043,-0.00000326,0.00000410,0.00000320,-0.00000254,-0.00000321,-
 0.00000377,-0.00000311,0.00000155,-0.00000141,-0.00000009,0.00000018,-
 0.00000052,-0.00000001,0.00000236,-0.00000181,0.00000162,-0.00002561,0
 .00010440,-0.00001293,0.00000119,-0.00004335,0.00001269,0.00001089,0.0
 0001208,0.00000642,-0.00000764,0.00000136,-0.00002731,-0.00000971,0.00
 000458,-0.00000590,-0.00000402,0.00000215,0.00002544,-0.00002821,0.000
 00772,0.00000351,0.00001072,-0.00001075,-0.00002106,0.00000871,-0.0000
 2633,0.00000628,0.00001843,0.00002589,-0.00001249,-0.00000123,-0.00006
 169,0.00000050,0.00013182,0.00009119,-0.00019385,0.00017118,0.00060578
 ,0.00008930,0.00207933,0.00033857,-0.00276555,-0.00621467,0.00188066,-
 0.00047503,-0.00277022,-0.00075586,0.00460146,0.00064905,-0.00009565,-
 0.00021655,-0.00260240,0.00281560,0.00463745,-0.00871682,-0.00095479,-
 0.00242369,-0.13812585,0.01437839,-0.13475822,0.00002247,-0.00042095,0
 .00023032,0.00002597,-0.00004815,-0.00001474,-0.00000304,0.00000318,0.
 00000029,0.00000035,0.00000496,0.00000053,0.00000074,-0.00000387,0.000
 00151,0.00000175,0.00000020,-0.00000253,-0.00000137,0.00000208,-0.0000
 0208,-0.00000261,0.00000298,0.00000412,0.00000060,0.00000193,0.0000026
 1,0.00000030,-0.00000168,0.00000187,-0.00000042,-0.00000121,0.00000071
 ,0.00000011,0.00000088,-0.00000008,-0.00000278,-0.00000247,-0.00000017
 ,0.00000206,0.00001069,0.00000569,0.00000343,-0.00000084,-0.00000108,0
 .00000186,0.00000440,0.00000052,0.00000247,0.00000195,0.00000158,0.000
 00212,0.00000212,0.00000223,0.00000552,-0.00001788,0.00000035,-0.00000
 435,-0.00000891,0.00000453,0.00029249,-0.00045030,0.00041714,-0.000343
 97,0.00017038,0.00005485,0.00045289,-0.00010746,-0.00070779,-0.0004774
 9,-0.00003723,-0.00007751,0.00231414,-0.00049570,-0.00239109,0.1531517
 1,-0.01683055,0.13403457,-0.00004249,0.00012605,-0.00000790,0.00020939
 ,0.00004954,0.00068624,-0.00029266,-0.00009865,-0.00010699,-0.00009641
 ,0.00006991,-0.00006592,0.00006984,0.00000652,-0.00000386,0.00000357,-
 0.00003144,-0.00002257,0.00002929,-0.00004527,0.00001203,0.00000942,0.
 00000099,-0.00000338,0.00002572,-0.00001522,0.00001374,0.00032433,-0.0
 0023401,-0.00000523,-0.00012104,0.00003796,0.00002536,0.00005635,-0.00
 006492,0.00002908,-0.00002589,0.00001612,0.00002846,0.00001939,-0.0000
 4529,-0.00002068,-0.00003170,0.00001487,0.00002286,0.00000442,0.000010
 08,-0.00001197,-0.00000076,0.00000236,-0.00000562,0.00001503,-0.000002
 76,-0.00002030,0.00005901,-0.00005187,0.00003816,-0.00011528,0.0001303
 1,-0.00002745,-0.00080565,-0.00295560,-0.00835387,0.00150931,0.0011651
 2,0.00120303,0.00217521,-0.00024860,-0.00095423,0.00108961,-0.00036347
 ,0.00013544,0.00012026,-0.00035351,0.00004825,0.00004244,0.00015304,-0
 .00002422,-0.00006555,-0.00006286,-0.00003533,0.00007463,0.00000948,0.
 00008238,-0.00022381,0.00014431,-0.00004988,-0.18023263,0.12690089,-0.
 02958112,-0.03797665,0.00743969,0.00487322,0.00005796,0.00010658,0.000
 03113,-0.00001846,-0.00007260,0.00001463,-0.00000807,-0.00003339,0.000
 02598,-0.00000971,-0.00003222,0.00013115,0.00003730,-0.00000768,-0.000
 02050,-0.00005124,0.00003658,-0.00004163,0.00001484,0.00000402,0.00002
 878,0.00000171,-0.00000638,0.00001134,0.00000078,-0.00000688,0.0000066
 9,0.00000799,0.00001446,-0.00000182,-0.00002076,0.00002185,-0.00000930
 ,0.00003096,0.00000996,0.00007662,0.00000542,-0.00000080,-0.00001013,-
 0.00000005,0.00000719,-0.00000520,0.00000025,0.00000525,-0.00000370,0.
 00000172,-0.00000131,0.00000376,0.00000074,0.00001012,-0.00000068,-0.0
 0001656,0.00000994,-0.00000254,0.00139092,-0.00071037,0.00025464,0.000
 02449,-0.00009341,0.00003228,0.00000101,-0.00000309,-0.00000452,-0.000
 00727,0.00000904,0.00000475,-0.00000601,0.00001959,-0.00000463,0.00001
 206,0.00000484,-0.00000388,0.20900124,-0.00000053,0.00004513,-0.000006
 78,0.00025331,-0.00024761,0.00071223,-0.00015918,-0.00009959,-0.000044
 90,0.00002909,-0.00001048,0.00001790,-0.00001780,0.00001832,0.00001827
 ,-0.00000620,0.00000601,0.00001305,-0.00000630,0.00000334,-0.00000110,
 0.00000293,-0.00000568,-0.00000041,-0.00000414,0.00000820,-0.00000338,
 0.00016878,-0.00020646,0.00000091,-0.00005163,0.00007956,-0.00000289,0
 .00000066,-0.00005105,0.00001506,-0.00002144,0.00000314,0.00004433,0.0
 0003931,-0.00000091,0.00001297,0.00002132,0.00000770,-0.00000458,0.000
 01568,0.00002005,-0.00001477,0.00000352,0.00001618,0.00000184,0.000003
 96,0.00001523,0.00000493,-0.00001231,-0.00005009,0.00003672,-0.0000193
 8,0.00014357,-0.00003045,-0.00192609,-0.00162801,-0.00469446,0.0023029
 3,0.00071807,-0.00000798,0.01243617,-0.01325049,0.00554545,-0.00007623
 ,-0.00157368,-0.00381418,-0.00007212,-0.00028532,-0.00013064,-0.000068
 74,0.00029889,-0.00006017,-0.00015888,-0.00026025,-0.00010668,-0.00009
 039,-0.00024233,0.00028759,0.00064250,-0.00013896,0.00027319,0.1340885
 6,-0.16943109,0.03038284,-0.02304071,0.01644727,0.00040750,0.00000913,
 0.00002424,-0.00001113,-0.00000007,-0.00002286,-0.00001014,-0.00000410
 ,-0.00001542,0.00003022,-0.00001065,0.00001244,0.00006154,0.00000340,0
 .00000261,0.00002834,0.00001784,-0.00004402,-0.00002570,-0.00000429,0.
 00000049,-0.00001615,0.00000240,-0.00000218,-0.00000252,-0.00000190,-0
 .00000333,0.00000020,-0.00000541,-0.00000273,-0.00000009,-0.00000179,0
 .00001573,-0.00000467,-0.00001475,-0.00003050,0.00001561,-0.00000584,-
 0.00000515,-0.00001449,-0.00000468,-0.00000453,-0.00000357,-0.00000369
 ,-0.00000297,-0.00000490,-0.00000236,-0.00000597,-0.00000320,-0.000019
 71,0.00002477,0.00000186,0.00000311,0.00001516,-0.00000878,-0.00036103
 ,0.00063530,0.00020855,-0.00007607,-0.00000513,0.00002806,0.00001512,-
 0.00002895,0.00001048,0.00000266,-0.00002525,0.00000558,-0.00000717,-0
 .00008431,0.00004367,-0.00002016,-0.00001896,-0.00013165,-0.13141933,0
 .17423996,0.00000320,-0.00004608,0.00002624,-0.00002694,-0.00000640,-0
 .00014308,0.00009751,0.00002422,-0.00000267,0.00004409,-0.00001499,0.0
 0003652,-0.00003256,0.00001562,0.00004042,-0.00002849,0.00000860,0.000
 01399,-0.00000872,0.00001840,-0.00000394,-0.00000708,-0.00000604,-0.00
 000275,-0.00000418,-0.00000432,-0.00000257,-0.00003058,-0.00002094,-0.
 00000792,-0.00002938,0.00000625,0.00000961,0.00000484,0.00000109,-0.00
 001049,0.00001122,0.00000139,-0.00001615,-0.00000852,-0.00002210,0.000
 00478,-0.00000250,-0.00000454,-0.00001718,-0.00000238,-0.00001379,0.00
 000871,-0.00000426,0.00000856,0.00000371,-0.00000397,0.00001119,0.0000
 0255,0.00000507,-0.00001665,0.00000465,-0.00001538,0.00002009,-0.00000
 791,0.00040981,0.00033895,-0.00110233,-0.00005399,0.00090293,-0.000683
 90,0.01493204,-0.01661697,0.00601838,0.00012939,-0.00113617,-0.0031054
 8,-0.00019741,-0.00001893,0.00019391,-0.00002768,-0.00012380,0.0002528
 8,0.00012586,-0.00002400,0.00003776,-0.00024648,0.00002912,0.00002326,
 0.00027984,-0.00058083,0.00046845,-0.03265685,0.03186504,-0.06377244,0
 .00581423,-0.00422358,0.00535724,-0.00001294,0.00000645,-0.00000117,-0
 .00000857,0.00000700,-0.00000708,-0.00000548,0.00002751,0.00000596,-0.
 00000193,0.00001232,-0.00002551,-0.00000047,0.00000577,0.00000746,0.00
 002276,-0.00002859,-0.00004265,-0.00000541,0.00000283,-0.00001934,0.00
 000301,-0.00000536,0.00000125,-0.00000425,-0.00000509,0.00000149,-0.00
 000807,-0.00000514,-0.00000097,-0.00000290,0.00000024,0.00000368,0.000
 01495,0.00002498,-0.00001263,0.00000542,0.00000410,0.00003148,0.000001
 52,0.00000293,-0.00000201,-0.00000334,0.00000355,-0.00000005,-0.000003
 61,0.00000268,0.00000157,-0.00000356,0.00000319,-0.00000307,-0.0000024
 9,0.00000327,0.00000131,0.00012339,0.00041611,0.00149889,0.00025456,0.
 00004985,-0.00008871,0.00001143,-0.00002169,0.00001275,0.00002237,0.00
 000468,-0.00001329,0.00002210,-0.00006365,0.00001194,0.00000998,0.0000
 0227,-0.00007478,0.03218133,-0.02963123,0.05676722,0.00006405,0.000171
 34,0.00003481,-0.00043416,0.00086045,0.00062450,-0.00032743,-0.0000468
 9,0.00000154,-0.00005021,0.00004679,-0.00003987,0.00002181,-0.00000922
 ,0.00000213,0.00000073,-0.00001162,-0.00001479,0.00001626,-0.00002155,
 0.00000581,0.00000245,0.00000606,-0.00000187,0.00001463,-0.00000632,0.
 00000997,0.00016892,-0.00028104,0.00029422,-0.00009481,0.00010429,-0.0
 0014561,0.00003421,-0.00006033,0.00002255,-0.00004221,0.00000385,0.000
 10169,0.00004719,0.00006271,-0.00002893,0.00004089,-0.00000437,0.00001
 462,0.00000477,0.00004229,-0.00002357,0.00001709,-0.00000901,-0.000013
 40,0.00002096,-0.00001568,-0.00001888,0.00002628,-0.00002097,0.0000319
 2,-0.00009343,0.00009250,-0.00008005,-0.00246926,-0.00581158,-0.001778
 55,0.00007335,0.00028428,0.00076623,0.00214220,0.00130192,0.00058588,0
 .00041013,0.00019884,0.00038393,0.00036963,0.00008710,0.00016497,-0.00
 006570,0.00006239,-0.00006452,-0.00004325,-0.00002378,-0.00001656,-0.0
 0004708,-0.00008197,0.00006232,-0.00011914,0.00002676,0.00002610,-0.04
 815367,0.00528518,-0.00653190,-0.01153211,-0.01451844,0.03458051,0.000
 05046,0.00001273,0.00001952,-0.00003069,-0.00003027,0.00001675,0.00000
 709,0.00001893,-0.00003123,-0.00001539,-0.00003517,0.00013425,0.000013
 73,-0.00000768,-0.00000430,-0.00002595,0.00002166,-0.00002024,0.000010
 20,0.00000022,0.00001914,0.00000062,-0.00000203,0.00000533,0.00000188,
 -0.00000282,0.00000175,0.00000600,0.00000911,-0.00000277,-0.00000664,0
 .00001984,-0.00001438,-0.00005986,-0.00007440,0.00003886,-0.00000402,-
 0.00000353,-0.00005132,-0.00000014,-0.00000766,0.00000364,0.00000416,-
 0.00000412,-0.00000424,0.00000695,-0.00001324,-0.00000145,-0.00001211,
 0.00001899,0.00000395,-0.00000368,0.00000802,-0.00001101,-0.00004393,0
 .00012277,0.00023976,-0.00049709,0.00010134,0.00012890,-0.00000639,-0.
 00000801,0.00002131,-0.00000482,-0.00002956,-0.00000874,0.00000856,-0.
 00001151,-0.00002860,-0.00003697,-0.00001787,-0.00006161,0.00374206,0.
 00763270,-0.02107955,0.05689287,0.00010503,0.00007641,0.00003167,-0.00
 031165,0.00046615,0.00029797,-0.00012773,-0.00007957,-0.00000062,0.000
 00981,0.00000433,0.00000565,-0.00003948,-0.00002788,-0.00000182,0.0000
 1087,0.00001382,0.00000698,-0.00000269,0.00001381,-0.00000180,-0.00000
 277,0.00000717,-0.00000689,0.00000199,-0.00000578,0.00000357,-0.000003
 40,-0.00004681,0.00004862,-0.00003168,-0.00000437,-0.00000952,0.000021
 42,-0.00000939,0.00001002,-0.00000245,-0.00000729,0.00001275,-0.000015
 81,0.00002675,-0.00006057,-0.00005186,-0.00000357,0.00003411,-0.000002
 32,-0.00001002,-0.00001144,0.00000237,-0.00001745,-0.00000252,0.000010
 66,-0.00001839,-0.00002263,0.00001320,0.00003897,-0.00001695,-0.000002
 14,-0.00001765,-0.00000175,0.00018017,-0.00535101,-0.00442275,0.002692
 16,-0.00055083,-0.00341366,0.00159722,0.00966714,-0.01938979,-0.000115
 76,0.00126984,-0.00077556,0.00019378,-0.00021067,-0.00015343,-0.000002
 29,-0.00016594,0.00023018,0.00012753,0.00009940,0.00000354,-0.00002420
 ,0.00007711,-0.00005521,-0.00015449,-0.00002520,-0.00016745,0.00172462
 ,-0.08330410,0.09197913,-0.01100353,-0.00532528,0.01751315,0.00001710,
 0.00002807,0.00002377,-0.00001929,0.00001031,0.00001392,0.00001128,0.0
 0001972,-0.00001486,0.00000953,0.00002955,0.00005664,-0.00001671,0.000
 03662,0.00003123,0.00002814,-0.00001943,0.00003808,-0.00000184,-0.0000
 0221,-0.00000819,0.00000180,0.00000247,-0.00000069,-0.00000092,-0.0000
 0121,0.00000033,0.00000036,0.00000298,-0.00000097,-0.00000667,0.000005
 50,-0.00000287,-0.00001466,0.00001143,0.00005410,0.00000668,0.00002266
 ,-0.00001933,0.00000401,0.00000297,0.00000470,0.00000596,0.00000052,0.
 00000069,0.00000602,-0.00000186,0.00000261,0.00001101,-0.00000947,-0.0
 0000132,-0.00000437,-0.00000858,0.00000240,-0.00024912,-0.00116896,-0.
 00145140,0.00033671,-0.00008342,-0.00003332,0.00003099,0.00000575,-0.0
 0004771,0.00000411,0.00002498,0.00000166,-0.00001992,0.00003364,0.0000
 3107,0.00007136,0.00004888,0.00003538,0.00042427,-0.00501714,0.0188097
 0,0.00456757,0.08944652,0.00007299,-0.00001856,-0.00001982,-0.00018998
 ,0.00012262,-0.00000667,0.00008805,-0.00001777,0.00001070,0.00001959,-
 0.00001632,0.00000557,-0.00003742,-0.00004567,-0.00002597,0.00003993,0
 .00001181,0.00000016,-0.00000334,0.00001099,-0.00000175,-0.00000452,0.
 00000614,-0.00000496,-0.00001011,-0.00000615,-0.00000315,-0.00019044,0
 .00015365,-0.00014776,0.00008534,-0.00008327,0.00008637,-0.00002584,0.
 00005108,-0.00001146,0.00003680,-0.00000381,-0.00005974,-0.00000694,0.
 00000278,0.00000974,-0.00001501,-0.00000944,-0.00000155,-0.00000815,-0
 .00001423,0.00001332,-0.00000006,-0.00000898,-0.00000370,-0.00001077,-
 0.00001305,0.00001386,-0.00004111,0.00007778,-0.00005829,0.00012608,-0
 .00010720,0.00008455,-0.00076428,-0.00092709,-0.00061212,0.00126453,-0
 .00014829,-0.00191570,-0.00066009,0.00615920,-0.01334923,-0.00027437,0
 .00224230,0.00075308,-0.00031475,0.00018639,0.00062427,0.00014735,-0.0
 0045488,0.00022242,0.00031293,0.00023131,0.00015265,-0.00022042,0.0002
 5345,-0.00029882,-0.00028518,-0.00066020,0.00031978,0.00537078,0.09317
 667,-0.29059341,0.00351764,-0.00045869,0.00348440,-0.00003097,-0.00000
 708,-0.00001826,0.00002318,0.00003773,-0.00000324,-0.00000568,-0.00002
 187,0.00000518,0.00002672,0.00005267,-0.00003316,-0.00003662,0.0000362
 5,0.00004204,0.00003106,0.00000331,0.00007008,-0.00000516,-0.00000395,
 0.00000137,-0.00000353,0.00001025,-0.00000421,0.00000162,0.00000857,-0
 .00000239,0.00000330,0.00000007,0.00000440,0.00000875,-0.00001757,0.00
 000987,-0.00001063,0.00001236,-0.00003822,0.00000331,0.00000004,0.0000
 1892,0.00000302,0.00000159,0.00000525,0.00000222,-0.00000071,0.0000043
 4,-0.00000146,0.00000763,0.00000020,0.00001277,-0.00002584,-0.00000184
 ,0.00000609,-0.00001560,0.00000999,0.00043569,-0.00132394,-0.00134489,
 0.00027311,0.00010892,-0.00005468,-0.00000479,-0.00001318,0.00001049,0
 .00001913,0.00002100,-0.00000950,0.00003351,-0.00000861,-0.00002933,0.
 00005738,0.00005126,0.00000547,-0.00059229,0.00058269,-0.00167801,-0.0
 0826895,-0.09918856,0.30436336\\0.00000093,0.00000109,0.00000112,-0.00
 000011,0.00000056,-0.00000507,0.00000446,-0.00000409,0.00000194,-0.000
 00455,0.00000201,-0.00000220,0.00000070,-0.00000015,-0.00000004,0.0000
 0035,-0.00000059,0.00000021,0.00000044,0.00000042,0.00000012,-0.000000
 76,0.00000037,-0.00000047,0.00000171,-0.00000185,-0.00000005,0.,-0.000
 00639,-0.00000391,0.00000156,0.00000399,0.00000565,0.00000064,0.000005
 65,-0.00000410,-0.00000113,-0.00000043,0.00000401,0.00000034,-0.000000
 74,-0.00000233,-0.00000049,-0.00000017,0.00000015,0.00000062,0.0000004
 2,-0.00000004,-0.00000092,0.00000011,-0.00000066,0.00000141,-0.0000010
 1,0.00000124,0.00000106,-0.00000669,-0.00000153,-0.00000197,0.00000508
 ,-0.00000074,-0.00000180,0.00000449,0.00001369,-0.00000386,-0.00000628
 ,-0.00000034,0.00000595,0.00000306,-0.00000416,-0.00000038,-0.00000206
 ,0.00000205,-0.00000074,0.00000164,-0.00000082,-0.00000108,0.00000011,
 -0.00000061,-0.00000040,-0.00000049,-0.00000061,0.00000049,-0.00000028
 ,0.00000057,-0.00000069,0.00000135,-0.00000132,-0.00000418,-0.00000458
 ,0.00000045,0.00000650,0.00000083,-0.00000442,0.00000019,0.00000019,0.
 00000010,-0.00000013,-0.00000059,0.00000089,-0.00000019,-0.00000108,0.
 00000009,-0.00000120,0.00000138,0.00000083,-0.00000196,0.00000075,-0.0
 0000017,0.00000023,0.00000015,-0.00000037,0.,0.00000021,0.00000004,0.0
 0000002,-0.00000028,0.00000005,-0.00000004,-0.00000022,-0.00000017,-0.
 00000031,0.00000011,-0.00000059,-0.00000142,-0.00000106,0.00000102,0.0
 0000040,0.00000079,0.00000091,0.00000032,0.00000005,0.00000010,-0.0000
 0002,0.00000001,-0.00000027,0.00000002,0.00000030,0.00000036,0.0000003
 8,0.00000123,-0.00000013,0.00000086,0.00000064,0.00000043,-0.00000115,
 -0.00000066,-0.00000066,-0.00000061,0.00000054,0.00000060,-0.00000090,
 -0.00000001,-0.00000079,0.00000024,0.00000006,0.00000021,0.00000022,0.
 00000053,0.00000039,-0.00000020,0.00000038,0.00000015,0.00000018,-0.00
 000029,0.00000042,-0.00000055,-0.00000074,-0.00000143,0.00000155,0.000
 00219,0.00000021\\\@
 The archive entry for this job was punched.


 THE THINKER DIES, BUT HIS THOUGHTS ARE BEYOND THE 
 REACH OF DESTRUCTION.  MEN ARE MORTAL; BUT IDEAS 
 ARE IMMORTAL.
                              -- WALTER LIPPMANN
 Job cpu time:       0 days  7 hours  6 minutes 31.9 seconds.
 Elapsed time:       0 days  0 hours 14 minutes 58.3 seconds.
 File lengths (MBytes):  RWF=   1581 Int=      0 D2E=      0 Chk=     22 Scr=      1
 Normal termination of Gaussian 16 at Sun Feb 25 13:35:58 2024.
