 Entering Gaussian System, Link 0=g16
 Initial command:
 /public/apps/g16-C01//g16/l1.exe "/public/home/ljq/tmp/Gau-80214.inp" -scrdir="/public/home/ljq/tmp/"
 Entering Link 1 = /public/apps/g16-C01//g16/l1.exe PID=     80215.
  
 Copyright (c) 1988-2019, Gaussian, Inc.  All Rights Reserved.
  
 This is part of the Gaussian(R) 16 program.  It is based on
 the Gaussian(R) 09 system (copyright 2009, Gaussian, Inc.),
 the Gaussian(R) 03 system (copyright 2003, Gaussian, Inc.),
 the Gaussian(R) 98 system (copyright 1998, Gaussian, Inc.),
 the Gaussian(R) 94 system (copyright 1995, Gaussian, Inc.),
 the Gaussian 92(TM) system (copyright 1992, Gaussian, Inc.),
 the Gaussian 90(TM) system (copyright 1990, Gaussian, Inc.),
 the Gaussian 88(TM) system (copyright 1988, Gaussian, Inc.),
 the Gaussian 86(TM) system (copyright 1986, Carnegie Mellon
 University), and the Gaussian 82(TM) system (copyright 1983,
 Carnegie Mellon University). Gaussian is a federally registered
 trademark of Gaussian, Inc.
  
 This software contains proprietary and confidential information,
 including trade secrets, belonging to Gaussian, Inc.
  
 This software is provided under written license and may be
 used, copied, transmitted, or stored only in accord with that
 written license.
  
 The following legend is applicable only to US Government
 contracts under FAR:
  
                    RESTRICTED RIGHTS LEGEND
  
 Use, reproduction and disclosure by the US Government is
 subject to restrictions as set forth in subparagraphs (a)
 and (c) of the Commercial Computer Software - Restricted
 Rights clause in FAR 52.227-19.
  
 Gaussian, Inc.
 340 Quinnipiac St., Bldg. 40, Wallingford CT 06492
  
  
 ---------------------------------------------------------------
 Warning -- This program may not be used in any manner that
 competes with the business of Gaussian, Inc. or will provide
 assistance to any competitor of Gaussian, Inc.  The licensee
 of this program is prohibited from giving any competitor of
 Gaussian, Inc. access to this program.  By using this program,
 the user acknowledges that Gaussian, Inc. is engaged in the
 business of creating and licensing software in the field of
 computational chemistry and represents and warrants to the
 licensee that it is not a competitor of Gaussian, Inc. and that
 it will not use this program in any manner prohibited above.
 ---------------------------------------------------------------
  

 Cite this work as:
 Gaussian 16, Revision C.01,
 M. J. Frisch, G. W. Trucks, H. B. Schlegel, G. E. Scuseria, 
 M. A. Robb, J. R. Cheeseman, G. Scalmani, V. Barone, 
 G. A. Petersson, H. Nakatsuji, X. Li, M. Caricato, A. V. Marenich, 
 J. Bloino, B. G. Janesko, R. Gomperts, B. Mennucci, H. P. Hratchian, 
 J. V. Ortiz, A. F. Izmaylov, J. L. Sonnenberg, D. Williams-Young, 
 F. Ding, F. Lipparini, F. Egidi, J. Goings, B. Peng, A. Petrone, 
 T. Henderson, D. Ranasinghe, V. G. Zakrzewski, J. Gao, N. Rega, 
 G. Zheng, W. Liang, M. Hada, M. Ehara, K. Toyota, R. Fukuda, 
 J. Hasegawa, M. Ishida, T. Nakajima, Y. Honda, O. Kitao, H. Nakai, 
 T. Vreven, K. Throssell, J. A. Montgomery, Jr., J. E. Peralta, 
 F. Ogliaro, M. J. Bearpark, J. J. Heyd, E. N. Brothers, K. N. Kudin, 
 V. N. Staroverov, T. A. Keith, R. Kobayashi, J. Normand, 
 K. Raghavachari, A. P. Rendell, J. C. Burant, S. S. Iyengar, 
 J. Tomasi, M. Cossi, J. M. Millam, M. Klene, C. Adamo, R. Cammi, 
 J. W. Ochterski, R. L. Martin, K. Morokuma, O. Farkas, 
 J. B. Foresman, and D. J. Fox, Gaussian, Inc., Wallingford CT, 2019.
 
 ******************************************
 Gaussian 16:  ES64L-G16RevC.01  3-Jul-2019
                25-Feb-2024 
 ******************************************
 %nproc=40
 Will use up to   40 processors via shared memory.
 %mem=56GB
 ------------------------------------------
 #p opt freq b3lyp/def2svpp em=gd3bj nosymm
 ------------------------------------------
 1/18=20,19=15,26=3,38=1/1,3;
 2/9=110,12=2,15=1,17=6,18=5,40=1/2;
 3/5=43,7=202,11=2,25=1,30=1,71=1,74=-5,124=41/1,2,3;
 4//1;
 5/5=2,38=5/2;
 6/7=2,8=2,9=2,10=2,28=1/1;
 7/30=1/1,2,3,16;
 1/18=20,19=15,26=3/3(2);
 2/9=110,15=1/2;
 99//99;
 2/9=110,15=1/2;
 3/5=43,7=202,11=2,25=1,30=1,71=1,74=-5,124=41/1,2,3;
 4/5=5,16=3,69=1/1;
 5/5=2,38=5/2;
 7/30=1/1,2,3,16;
 1/18=20,19=15,26=3/3(-5);
 2/9=110,15=1/2;
 6/7=2,8=2,9=2,10=2,19=2,28=1/1;
 99/9=1/99;
 Leave Link    1 at Sun Feb 25 23:41:22 2024, MaxMem=  7516192768 cpu:               1.1 elap:               0.0
 (Enter /public/apps/g16-C01//g16/l101.exe)
 ----------------------
 $$$$Singlemol####0????
 ----------------------
 Symbolic Z-matrix:
 Charge =  0 Multiplicity = 1
 C                    -2.7781   -4.13087  -0.7965 
 C                    -2.18075  -5.1899   -0.13316 
 C                    -0.97044  -5.0099    0.5114 
 C                    -0.34743  -3.76781   0.49781 
 C                     0.98593  -3.59735   1.18733 
 C                     2.09224  -4.53369   0.60621 
 O                     3.09467  -3.64354   0.13913 
 C                     2.64524  -2.38457   0.40458 
 C                     3.4822   -1.26568   0.00453 
 C                     4.82299  -1.43645  -0.33068 
 C                     5.62395  -0.36363  -0.70052 
 C                     5.11946   0.92255  -0.75683 
 C                     3.78181   1.12062  -0.43984 
 C                     2.9713    0.03026  -0.06283 
 O                     1.70059   0.4142    0.18561 
 C                     1.65363   1.75238  -0.0116 
 C                     0.54777   2.58685   0.1419 
 C                    -0.75917   2.08615   0.5385 
 N                    -1.72644   2.82771   0.8958 
 C                    -2.85794   1.97792   1.19454 
 C                    -4.02253   2.27523   0.28329 
 C                    -3.82384   2.37898  -1.08769 
 C                    -4.88966   2.62845  -1.93272 
 C                    -6.16645   2.77188  -1.4166 
 C                    -6.37129   2.66847  -0.05157 
 C                    -5.30395   2.42322   0.79453 
 C                    -2.29269   0.5394    0.98244 
 O                    -0.96544   0.74923   0.5285 
 C                     0.74044   3.94678  -0.09523 
 C                     1.97525   4.45241  -0.47666 
 C                     3.07171   3.62348  -0.63507 
 C                     2.91026   2.2654   -0.39743 
 N                     1.52917  -2.27763   0.9907 
 C                    -0.95197  -2.70605  -0.15971 
 C                    -2.16261  -2.89138  -0.80533 
 H                    -3.72161  -4.27308  -1.30298 
 H                    -2.6586   -6.15873  -0.11832 
 H                    -0.50521  -5.83727   1.02945 
 H                     0.84863  -3.76382   2.26358 
 H                     1.72718  -5.12859  -0.23635 
 H                     2.53084  -5.19499   1.35833 
 H                     5.23582  -2.43239  -0.29275 
 H                     6.65956  -0.54196  -0.94744 
 H                     5.7439    1.7545   -1.04361 
 H                    -3.15885   2.14614   2.23406 
 H                    -2.82652   2.2737   -1.49058 
 H                    -4.72357   2.71171  -2.99693 
 H                    -6.99915   2.96623  -2.07649 
 H                    -7.36511   2.78156   0.35645 
 H                    -5.46686   2.34663   1.86013 
 H                    -2.8483   -0.01436   0.22088 
 H                    -2.26274  -0.04691   1.90434 
 H                    -0.10955   4.59831   0.0286 
 H                     2.07856   5.51233  -0.65228 
 H                     4.03145   4.01727  -0.93211 
 H                    -0.46837  -1.74104  -0.14904 
 H                    -2.62613  -2.06427  -1.32396 
 
 ITRead=  0  0  0  0  0  0  0  0  0  0  0  0  0  0  0  0  0  0  0  0
 ITRead=  0  0  0  0  0  0  0  0  0  0  0  0  0  0  0  0  0  0  0  0
 ITRead=  0  0  0  0  0  0  0  0  0  0  0  0  0  0  0  0  0
 MicOpt= -1 -1 -1 -1 -1 -1 -1 -1 -1 -1 -1 -1 -1 -1 -1 -1 -1 -1 -1 -1
 MicOpt= -1 -1 -1 -1 -1 -1 -1 -1 -1 -1 -1 -1 -1 -1 -1 -1 -1 -1 -1 -1
 MicOpt= -1 -1 -1 -1 -1 -1 -1 -1 -1 -1 -1 -1 -1 -1 -1 -1 -1
 NAtoms=     57 NQM=       57 NQMF=       0 NMMI=      0 NMMIF=      0
                NMic=       0 NMicF=      0.
                    Isotopes and Nuclear Properties:
 (Nuclear quadrupole moments (NQMom) in fm**2, nuclear magnetic moments (NMagM)
  in nuclear magnetons)

  Atom         1           2           3           4           5           6           7           8           9          10
 IAtWgt=          12          12          12          12          12          12          16          12          12          12
 AtmWgt=  12.0000000  12.0000000  12.0000000  12.0000000  12.0000000  12.0000000  15.9949146  12.0000000  12.0000000  12.0000000
 NucSpn=           0           0           0           0           0           0           0           0           0           0
 AtZEff=  -0.0000000  -0.0000000  -0.0000000  -0.0000000  -0.0000000  -0.0000000  -0.0000000  -0.0000000  -0.0000000  -0.0000000
 NQMom=    0.0000000   0.0000000   0.0000000   0.0000000   0.0000000   0.0000000   0.0000000   0.0000000   0.0000000   0.0000000
 NMagM=    0.0000000   0.0000000   0.0000000   0.0000000   0.0000000   0.0000000   0.0000000   0.0000000   0.0000000   0.0000000
 AtZNuc=   6.0000000   6.0000000   6.0000000   6.0000000   6.0000000   6.0000000   8.0000000   6.0000000   6.0000000   6.0000000

  Atom        11          12          13          14          15          16          17          18          19          20
 IAtWgt=          12          12          12          12          16          12          12          12          14          12
 AtmWgt=  12.0000000  12.0000000  12.0000000  12.0000000  15.9949146  12.0000000  12.0000000  12.0000000  14.0030740  12.0000000
 NucSpn=           0           0           0           0           0           0           0           0           2           0
 AtZEff=  -0.0000000  -0.0000000  -0.0000000  -0.0000000  -0.0000000  -0.0000000  -0.0000000  -0.0000000  -0.0000000  -0.0000000
 NQMom=    0.0000000   0.0000000   0.0000000   0.0000000   0.0000000   0.0000000   0.0000000   0.0000000   2.0440000   0.0000000
 NMagM=    0.0000000   0.0000000   0.0000000   0.0000000   0.0000000   0.0000000   0.0000000   0.0000000   0.4037610   0.0000000
 AtZNuc=   6.0000000   6.0000000   6.0000000   6.0000000   8.0000000   6.0000000   6.0000000   6.0000000   7.0000000   6.0000000

  Atom        21          22          23          24          25          26          27          28          29          30
 IAtWgt=          12          12          12          12          12          12          12          16          12          12
 AtmWgt=  12.0000000  12.0000000  12.0000000  12.0000000  12.0000000  12.0000000  12.0000000  15.9949146  12.0000000  12.0000000
 NucSpn=           0           0           0           0           0           0           0           0           0           0
 AtZEff=  -0.0000000  -0.0000000  -0.0000000  -0.0000000  -0.0000000  -0.0000000  -0.0000000  -0.0000000  -0.0000000  -0.0000000
 NQMom=    0.0000000   0.0000000   0.0000000   0.0000000   0.0000000   0.0000000   0.0000000   0.0000000   0.0000000   0.0000000
 NMagM=    0.0000000   0.0000000   0.0000000   0.0000000   0.0000000   0.0000000   0.0000000   0.0000000   0.0000000   0.0000000
 AtZNuc=   6.0000000   6.0000000   6.0000000   6.0000000   6.0000000   6.0000000   6.0000000   8.0000000   6.0000000   6.0000000

  Atom        31          32          33          34          35          36          37          38          39          40
 IAtWgt=          12          12          14          12          12           1           1           1           1           1
 AtmWgt=  12.0000000  12.0000000  14.0030740  12.0000000  12.0000000   1.0078250   1.0078250   1.0078250   1.0078250   1.0078250
 NucSpn=           0           0           2           0           0           1           1           1           1           1
 AtZEff=  -0.0000000  -0.0000000  -0.0000000  -0.0000000  -0.0000000  -0.0000000  -0.0000000  -0.0000000  -0.0000000  -0.0000000
 NQMom=    0.0000000   0.0000000   2.0440000   0.0000000   0.0000000   0.0000000   0.0000000   0.0000000   0.0000000   0.0000000
 NMagM=    0.0000000   0.0000000   0.4037610   0.0000000   0.0000000   2.7928460   2.7928460   2.7928460   2.7928460   2.7928460
 AtZNuc=   6.0000000   6.0000000   7.0000000   6.0000000   6.0000000   1.0000000   1.0000000   1.0000000   1.0000000   1.0000000

  Atom        41          42          43          44          45          46          47          48          49          50
 IAtWgt=           1           1           1           1           1           1           1           1           1           1
 AtmWgt=   1.0078250   1.0078250   1.0078250   1.0078250   1.0078250   1.0078250   1.0078250   1.0078250   1.0078250   1.0078250
 NucSpn=           1           1           1           1           1           1           1           1           1           1
 AtZEff=  -0.0000000  -0.0000000  -0.0000000  -0.0000000  -0.0000000  -0.0000000  -0.0000000  -0.0000000  -0.0000000  -0.0000000
 NQMom=    0.0000000   0.0000000   0.0000000   0.0000000   0.0000000   0.0000000   0.0000000   0.0000000   0.0000000   0.0000000
 NMagM=    2.7928460   2.7928460   2.7928460   2.7928460   2.7928460   2.7928460   2.7928460   2.7928460   2.7928460   2.7928460
 AtZNuc=   1.0000000   1.0000000   1.0000000   1.0000000   1.0000000   1.0000000   1.0000000   1.0000000   1.0000000   1.0000000

  Atom        51          52          53          54          55          56          57
 IAtWgt=           1           1           1           1           1           1           1
 AtmWgt=   1.0078250   1.0078250   1.0078250   1.0078250   1.0078250   1.0078250   1.0078250
 NucSpn=           1           1           1           1           1           1           1
 AtZEff=  -0.0000000  -0.0000000  -0.0000000  -0.0000000  -0.0000000  -0.0000000  -0.0000000
 NQMom=    0.0000000   0.0000000   0.0000000   0.0000000   0.0000000   0.0000000   0.0000000
 NMagM=    2.7928460   2.7928460   2.7928460   2.7928460   2.7928460   2.7928460   2.7928460
 AtZNuc=   1.0000000   1.0000000   1.0000000   1.0000000   1.0000000   1.0000000   1.0000000
 Leave Link  101 at Sun Feb 25 23:41:22 2024, MaxMem=  7516192768 cpu:               7.1 elap:               0.2
 (Enter /public/apps/g16-C01//g16/l103.exe)

 GradGradGradGradGradGradGradGradGradGradGradGradGradGradGradGradGradGrad
 Berny optimization.
 Initialization pass.
                           ----------------------------
                           !    Initial Parameters    !
                           ! (Angstroms and Degrees)  !
 --------------------------                            --------------------------
 ! Name  Definition              Value          Derivative Info.                !
 --------------------------------------------------------------------------------
 ! R1    R(1,2)                  1.3851         estimate D2E/DX2                !
 ! R2    R(1,35)                 1.3839         estimate D2E/DX2                !
 ! R3    R(1,36)                 1.0803         estimate D2E/DX2                !
 ! R4    R(2,3)                  1.383          estimate D2E/DX2                !
 ! R5    R(2,37)                 1.0804         estimate D2E/DX2                !
 ! R6    R(3,4)                  1.3897         estimate D2E/DX2                !
 ! R7    R(3,38)                 1.0814         estimate D2E/DX2                !
 ! R8    R(4,5)                  1.5107         estimate D2E/DX2                !
 ! R9    R(4,34)                 1.3875         estimate D2E/DX2                !
 ! R10   R(5,6)                  1.5615         estimate D2E/DX2                !
 ! R11   R(5,33)                 1.4406         estimate D2E/DX2                !
 ! R12   R(5,39)                 1.0977         estimate D2E/DX2                !
 ! R13   R(6,7)                  1.4196         estimate D2E/DX2                !
 ! R14   R(6,40)                 1.0941         estimate D2E/DX2                !
 ! R15   R(6,41)                 1.0933         estimate D2E/DX2                !
 ! R16   R(7,8)                  1.3629         estimate D2E/DX2                !
 ! R17   R(8,9)                  1.4534         estimate D2E/DX2                !
 ! R18   R(8,33)                 1.2651         estimate D2E/DX2                !
 ! R19   R(9,10)                 1.3926         estimate D2E/DX2                !
 ! R20   R(9,14)                 1.3946         estimate D2E/DX2                !
 ! R21   R(10,11)                1.389          estimate D2E/DX2                !
 ! R22   R(10,42)                1.0788         estimate D2E/DX2                !
 ! R23   R(11,12)                1.3827         estimate D2E/DX2                !
 ! R24   R(11,43)                1.0795         estimate D2E/DX2                !
 ! R25   R(12,13)                1.3889         estimate D2E/DX2                !
 ! R26   R(12,44)                1.079          estimate D2E/DX2                !
 ! R27   R(13,14)                1.4099         estimate D2E/DX2                !
 ! R28   R(13,32)                1.4394         estimate D2E/DX2                !
 ! R29   R(14,15)                1.3505         estimate D2E/DX2                !
 ! R30   R(15,16)                1.3534         estimate D2E/DX2                !
 ! R31   R(16,17)                1.3939         estimate D2E/DX2                !
 ! R32   R(16,32)                1.4111         estimate D2E/DX2                !
 ! R33   R(17,18)                1.4547         estimate D2E/DX2                !
 ! R34   R(17,29)                1.3938         estimate D2E/DX2                !
 ! R35   R(18,19)                1.2701         estimate D2E/DX2                !
 ! R36   R(18,28)                1.3528         estimate D2E/DX2                !
 ! R37   R(19,20)                1.4463         estimate D2E/DX2                !
 ! R38   R(20,21)                1.5083         estimate D2E/DX2                !
 ! R39   R(20,27)                1.5601         estimate D2E/DX2                !
 ! R40   R(20,45)                1.0952         estimate D2E/DX2                !
 ! R41   R(21,22)                1.3892         estimate D2E/DX2                !
 ! R42   R(21,26)                1.3876         estimate D2E/DX2                !
 ! R43   R(22,23)                1.3829         estimate D2E/DX2                !
 ! R44   R(22,46)                1.0808         estimate D2E/DX2                !
 ! R45   R(23,24)                1.3846         estimate D2E/DX2                !
 ! R46   R(23,47)                1.0803         estimate D2E/DX2                !
 ! R47   R(24,25)                1.3842         estimate D2E/DX2                !
 ! R48   R(24,48)                1.0801         estimate D2E/DX2                !
 ! R49   R(25,26)                1.3839         estimate D2E/DX2                !
 ! R50   R(25,49)                1.0803         estimate D2E/DX2                !
 ! R51   R(26,50)                1.0807         estimate D2E/DX2                !
 ! R52   R(27,28)                1.4183         estimate D2E/DX2                !
 ! R53   R(27,51)                1.0933         estimate D2E/DX2                !
 ! R54   R(27,52)                1.093          estimate D2E/DX2                !
 ! R55   R(29,30)                1.3878         estimate D2E/DX2                !
 ! R56   R(29,53)                1.0781         estimate D2E/DX2                !
 ! R57   R(30,31)                1.3836         estimate D2E/DX2                !
 ! R58   R(30,54)                1.0793         estimate D2E/DX2                !
 ! R59   R(31,32)                1.3881         estimate D2E/DX2                !
 ! R60   R(31,55)                1.0791         estimate D2E/DX2                !
 ! R61   R(34,35)                1.3845         estimate D2E/DX2                !
 ! R62   R(34,56)                1.0794         estimate D2E/DX2                !
 ! R63   R(35,57)                1.0807         estimate D2E/DX2                !
 ! A1    A(2,1,35)             119.7396         estimate D2E/DX2                !
 ! A2    A(2,1,36)             120.0376         estimate D2E/DX2                !
 ! A3    A(35,1,36)            120.2228         estimate D2E/DX2                !
 ! A4    A(1,2,3)              120.074          estimate D2E/DX2                !
 ! A5    A(1,2,37)             120.0992         estimate D2E/DX2                !
 ! A6    A(3,2,37)             119.8268         estimate D2E/DX2                !
 ! A7    A(2,3,4)              120.2724         estimate D2E/DX2                !
 ! A8    A(2,3,38)             120.0133         estimate D2E/DX2                !
 ! A9    A(4,3,38)             119.7144         estimate D2E/DX2                !
 ! A10   A(3,4,5)              119.4767         estimate D2E/DX2                !
 ! A11   A(3,4,34)             119.5564         estimate D2E/DX2                !
 ! A12   A(5,4,34)             120.9638         estimate D2E/DX2                !
 ! A13   A(4,5,6)              112.8166         estimate D2E/DX2                !
 ! A14   A(4,5,33)             111.9546         estimate D2E/DX2                !
 ! A15   A(4,5,39)             108.6627         estimate D2E/DX2                !
 ! A16   A(6,5,33)             103.3768         estimate D2E/DX2                !
 ! A17   A(6,5,39)             111.258          estimate D2E/DX2                !
 ! A18   A(33,5,39)            108.6585         estimate D2E/DX2                !
 ! A19   A(5,6,7)              104.2836         estimate D2E/DX2                !
 ! A20   A(5,6,40)             112.1006         estimate D2E/DX2                !
 ! A21   A(5,6,41)             113.0101         estimate D2E/DX2                !
 ! A22   A(7,6,40)             108.854          estimate D2E/DX2                !
 ! A23   A(7,6,41)             108.8037         estimate D2E/DX2                !
 ! A24   A(40,6,41)            109.5564         estimate D2E/DX2                !
 ! A25   A(6,7,8)              106.3966         estimate D2E/DX2                !
 ! A26   A(7,8,9)              117.8804         estimate D2E/DX2                !
 ! A27   A(7,8,33)             117.3374         estimate D2E/DX2                !
 ! A28   A(9,8,33)             124.7808         estimate D2E/DX2                !
 ! A29   A(8,9,10)             121.7553         estimate D2E/DX2                !
 ! A30   A(8,9,14)             121.1776         estimate D2E/DX2                !
 ! A31   A(10,9,14)            117.067          estimate D2E/DX2                !
 ! A32   A(9,10,11)            121.6408         estimate D2E/DX2                !
 ! A33   A(9,10,42)            118.2421         estimate D2E/DX2                !
 ! A34   A(11,10,42)           120.1165         estimate D2E/DX2                !
 ! A35   A(10,11,12)           121.2585         estimate D2E/DX2                !
 ! A36   A(10,11,43)           119.1129         estimate D2E/DX2                !
 ! A37   A(12,11,43)           119.6286         estimate D2E/DX2                !
 ! A38   A(11,12,13)           118.343          estimate D2E/DX2                !
 ! A39   A(11,12,44)           121.122          estimate D2E/DX2                !
 ! A40   A(13,12,44)           120.5344         estimate D2E/DX2                !
 ! A41   A(12,13,14)           120.2906         estimate D2E/DX2                !
 ! A42   A(12,13,32)           134.6921         estimate D2E/DX2                !
 ! A43   A(14,13,32)           105.016          estimate D2E/DX2                !
 ! A44   A(9,14,13)            121.3949         estimate D2E/DX2                !
 ! A45   A(9,14,15)            126.8683         estimate D2E/DX2                !
 ! A46   A(13,14,15)           111.7298         estimate D2E/DX2                !
 ! A47   A(14,15,16)           106.6742         estimate D2E/DX2                !
 ! A48   A(15,16,17)           127.1141         estimate D2E/DX2                !
 ! A49   A(15,16,32)           111.6171         estimate D2E/DX2                !
 ! A50   A(17,16,32)           121.2649         estimate D2E/DX2                !
 ! A51   A(16,17,18)           122.4641         estimate D2E/DX2                !
 ! A52   A(16,17,29)           117.1104         estimate D2E/DX2                !
 ! A53   A(18,17,29)           120.4247         estimate D2E/DX2                !
 ! A54   A(17,18,19)           124.0531         estimate D2E/DX2                !
 ! A55   A(17,18,28)           118.3688         estimate D2E/DX2                !
 ! A56   A(19,18,28)           117.5781         estimate D2E/DX2                !
 ! A57   A(18,19,20)           108.1116         estimate D2E/DX2                !
 ! A58   A(19,20,21)           111.3124         estimate D2E/DX2                !
 ! A59   A(19,20,27)           103.3119         estimate D2E/DX2                !
 ! A60   A(19,20,45)           108.7095         estimate D2E/DX2                !
 ! A61   A(21,20,27)           112.2948         estimate D2E/DX2                !
 ! A62   A(21,20,45)           109.33           estimate D2E/DX2                !
 ! A63   A(27,20,45)           111.7297         estimate D2E/DX2                !
 ! A64   A(20,21,22)           120.034          estimate D2E/DX2                !
 ! A65   A(20,21,26)           120.7628         estimate D2E/DX2                !
 ! A66   A(22,21,26)           119.1921         estimate D2E/DX2                !
 ! A67   A(21,22,23)           120.4179         estimate D2E/DX2                !
 ! A68   A(21,22,46)           119.5126         estimate D2E/DX2                !
 ! A69   A(23,22,46)           120.0663         estimate D2E/DX2                !
 ! A70   A(22,23,24)           120.1077         estimate D2E/DX2                !
 ! A71   A(22,23,47)           119.8269         estimate D2E/DX2                !
 ! A72   A(24,23,47)           120.0654         estimate D2E/DX2                !
 ! A73   A(23,24,25)           119.7569         estimate D2E/DX2                !
 ! A74   A(23,24,48)           120.1202         estimate D2E/DX2                !
 ! A75   A(25,24,48)           120.1227         estimate D2E/DX2                !
 ! A76   A(24,25,26)           120.134          estimate D2E/DX2                !
 ! A77   A(24,25,49)           120.0533         estimate D2E/DX2                !
 ! A78   A(26,25,49)           119.8125         estimate D2E/DX2                !
 ! A79   A(21,26,25)           120.3908         estimate D2E/DX2                !
 ! A80   A(21,26,50)           119.6665         estimate D2E/DX2                !
 ! A81   A(25,26,50)           119.9428         estimate D2E/DX2                !
 ! A82   A(20,27,28)           104.2501         estimate D2E/DX2                !
 ! A83   A(20,27,51)           112.1857         estimate D2E/DX2                !
 ! A84   A(20,27,52)           112.9483         estimate D2E/DX2                !
 ! A85   A(28,27,51)           109.1202         estimate D2E/DX2                !
 ! A86   A(28,27,52)           108.8851         estimate D2E/DX2                !
 ! A87   A(51,27,52)           109.2542         estimate D2E/DX2                !
 ! A88   A(18,28,27)           106.6501         estimate D2E/DX2                !
 ! A89   A(17,29,30)           121.6847         estimate D2E/DX2                !
 ! A90   A(17,29,53)           117.4585         estimate D2E/DX2                !
 ! A91   A(30,29,53)           120.8567         estimate D2E/DX2                !
 ! A92   A(29,30,31)           121.218          estimate D2E/DX2                !
 ! A93   A(29,30,54)           119.1885         estimate D2E/DX2                !
 ! A94   A(31,30,54)           119.5935         estimate D2E/DX2                !
 ! A95   A(30,31,32)           118.3172         estimate D2E/DX2                !
 ! A96   A(30,31,55)           121.1782         estimate D2E/DX2                !
 ! A97   A(32,31,55)           120.5043         estimate D2E/DX2                !
 ! A98   A(13,32,16)           104.959          estimate D2E/DX2                !
 ! A99   A(13,32,31)           134.6374         estimate D2E/DX2                !
 ! A100  A(16,32,31)           120.4029         estimate D2E/DX2                !
 ! A101  A(5,33,8)             108.5691         estimate D2E/DX2                !
 ! A102  A(4,34,35)            119.9699         estimate D2E/DX2                !
 ! A103  A(4,34,56)            118.9613         estimate D2E/DX2                !
 ! A104  A(35,34,56)           121.0662         estimate D2E/DX2                !
 ! A105  A(1,35,34)            120.3855         estimate D2E/DX2                !
 ! A106  A(1,35,57)            119.8526         estimate D2E/DX2                !
 ! A107  A(34,35,57)           119.761          estimate D2E/DX2                !
 ! D1    D(35,1,2,3)            -0.345          estimate D2E/DX2                !
 ! D2    D(35,1,2,37)          179.6896         estimate D2E/DX2                !
 ! D3    D(36,1,2,3)           179.7649         estimate D2E/DX2                !
 ! D4    D(36,1,2,37)           -0.2005         estimate D2E/DX2                !
 ! D5    D(2,1,35,34)            0.2474         estimate D2E/DX2                !
 ! D6    D(2,1,35,57)          179.8816         estimate D2E/DX2                !
 ! D7    D(36,1,35,34)        -179.8627         estimate D2E/DX2                !
 ! D8    D(36,1,35,57)          -0.2285         estimate D2E/DX2                !
 ! D9    D(1,2,3,4)              0.0124         estimate D2E/DX2                !
 ! D10   D(1,2,3,38)           179.9667         estimate D2E/DX2                !
 ! D11   D(37,2,3,4)           179.9779         estimate D2E/DX2                !
 ! D12   D(37,2,3,38)           -0.0678         estimate D2E/DX2                !
 ! D13   D(2,3,4,5)           -178.9436         estimate D2E/DX2                !
 ! D14   D(2,3,4,34)             0.4171         estimate D2E/DX2                !
 ! D15   D(38,3,4,5)             1.102          estimate D2E/DX2                !
 ! D16   D(38,3,4,34)         -179.5373         estimate D2E/DX2                !
 ! D17   D(3,4,5,6)             59.6452         estimate D2E/DX2                !
 ! D18   D(3,4,5,33)           175.7622         estimate D2E/DX2                !
 ! D19   D(3,4,5,39)           -64.2221         estimate D2E/DX2                !
 ! D20   D(34,4,5,6)          -119.7062         estimate D2E/DX2                !
 ! D21   D(34,4,5,33)           -3.5892         estimate D2E/DX2                !
 ! D22   D(34,4,5,39)          116.4265         estimate D2E/DX2                !
 ! D23   D(3,4,34,35)           -0.5138         estimate D2E/DX2                !
 ! D24   D(3,4,34,56)          178.9029         estimate D2E/DX2                !
 ! D25   D(5,4,34,35)          178.8371         estimate D2E/DX2                !
 ! D26   D(5,4,34,56)           -1.7462         estimate D2E/DX2                !
 ! D27   D(4,5,6,7)            120.1098         estimate D2E/DX2                !
 ! D28   D(4,5,6,40)             2.51           estimate D2E/DX2                !
 ! D29   D(4,5,6,41)          -121.8896         estimate D2E/DX2                !
 ! D30   D(33,5,6,7)            -1.0192         estimate D2E/DX2                !
 ! D31   D(33,5,6,40)         -118.619          estimate D2E/DX2                !
 ! D32   D(33,5,6,41)          116.9815         estimate D2E/DX2                !
 ! D33   D(39,5,6,7)          -117.4664         estimate D2E/DX2                !
 ! D34   D(39,5,6,40)          124.9338         estimate D2E/DX2                !
 ! D35   D(39,5,6,41)            0.5343         estimate D2E/DX2                !
 ! D36   D(4,5,33,8)          -119.9206         estimate D2E/DX2                !
 ! D37   D(6,5,33,8)             1.7895         estimate D2E/DX2                !
 ! D38   D(39,5,33,8)          120.0612         estimate D2E/DX2                !
 ! D39   D(5,6,7,8)             -0.0267         estimate D2E/DX2                !
 ! D40   D(40,6,7,8)           119.7872         estimate D2E/DX2                !
 ! D41   D(41,6,7,8)          -120.8769         estimate D2E/DX2                !
 ! D42   D(6,7,8,9)           -179.0909         estimate D2E/DX2                !
 ! D43   D(6,7,8,33)             1.323          estimate D2E/DX2                !
 ! D44   D(7,8,9,10)           -15.641          estimate D2E/DX2                !
 ! D45   D(7,8,9,14)           164.2009         estimate D2E/DX2                !
 ! D46   D(33,8,9,10)          163.9113         estimate D2E/DX2                !
 ! D47   D(33,8,9,14)          -16.2468         estimate D2E/DX2                !
 ! D48   D(7,8,33,5)            -2.062          estimate D2E/DX2                !
 ! D49   D(9,8,33,5)           178.3835         estimate D2E/DX2                !
 ! D50   D(8,9,10,11)         -179.3839         estimate D2E/DX2                !
 ! D51   D(8,9,10,42)            0.3305         estimate D2E/DX2                !
 ! D52   D(14,9,10,11)           0.7679         estimate D2E/DX2                !
 ! D53   D(14,9,10,42)        -179.5177         estimate D2E/DX2                !
 ! D54   D(8,9,14,13)          179.4783         estimate D2E/DX2                !
 ! D55   D(8,9,14,15)           -1.5722         estimate D2E/DX2                !
 ! D56   D(10,9,14,13)          -0.6727         estimate D2E/DX2                !
 ! D57   D(10,9,14,15)         178.2768         estimate D2E/DX2                !
 ! D58   D(9,10,11,12)          -0.2798         estimate D2E/DX2                !
 ! D59   D(9,10,11,43)         179.6927         estimate D2E/DX2                !
 ! D60   D(42,10,11,12)       -179.989          estimate D2E/DX2                !
 ! D61   D(42,10,11,43)         -0.0165         estimate D2E/DX2                !
 ! D62   D(10,11,12,13)         -0.328          estimate D2E/DX2                !
 ! D63   D(10,11,12,44)        179.9461         estimate D2E/DX2                !
 ! D64   D(43,11,12,13)        179.6996         estimate D2E/DX2                !
 ! D65   D(43,11,12,44)         -0.0263         estimate D2E/DX2                !
 ! D66   D(11,12,13,14)          0.4168         estimate D2E/DX2                !
 ! D67   D(11,12,13,32)       -179.1044         estimate D2E/DX2                !
 ! D68   D(44,12,13,14)       -179.8556         estimate D2E/DX2                !
 ! D69   D(44,12,13,32)          0.6232         estimate D2E/DX2                !
 ! D70   D(12,13,14,9)           0.0913         estimate D2E/DX2                !
 ! D71   D(12,13,14,15)       -179.004          estimate D2E/DX2                !
 ! D72   D(32,13,14,9)         179.7389         estimate D2E/DX2                !
 ! D73   D(32,13,14,15)          0.6435         estimate D2E/DX2                !
 ! D74   D(12,13,32,16)        178.9989         estimate D2E/DX2                !
 ! D75   D(12,13,32,31)         -1.3272         estimate D2E/DX2                !
 ! D76   D(14,13,32,16)         -0.5731         estimate D2E/DX2                !
 ! D77   D(14,13,32,31)        179.1008         estimate D2E/DX2                !
 ! D78   D(9,14,15,16)        -179.4722         estimate D2E/DX2                !
 ! D79   D(13,14,15,16)         -0.4374         estimate D2E/DX2                !
 ! D80   D(14,15,16,17)       -179.2432         estimate D2E/DX2                !
 ! D81   D(14,15,16,32)          0.0419         estimate D2E/DX2                !
 ! D82   D(15,16,17,18)         -0.7743         estimate D2E/DX2                !
 ! D83   D(15,16,17,29)        178.8942         estimate D2E/DX2                !
 ! D84   D(32,16,17,18)       -179.9968         estimate D2E/DX2                !
 ! D85   D(32,16,17,29)         -0.3283         estimate D2E/DX2                !
 ! D86   D(15,16,32,13)          0.3466         estimate D2E/DX2                !
 ! D87   D(15,16,32,31)       -179.3844         estimate D2E/DX2                !
 ! D88   D(17,16,32,13)        179.6797         estimate D2E/DX2                !
 ! D89   D(17,16,32,31)         -0.0513         estimate D2E/DX2                !
 ! D90   D(16,17,18,19)        168.1554         estimate D2E/DX2                !
 ! D91   D(16,17,18,28)        -11.866          estimate D2E/DX2                !
 ! D92   D(29,17,18,19)        -11.5024         estimate D2E/DX2                !
 ! D93   D(29,17,18,28)        168.4761         estimate D2E/DX2                !
 ! D94   D(16,17,29,30)          0.4266         estimate D2E/DX2                !
 ! D95   D(16,17,29,53)       -179.5808         estimate D2E/DX2                !
 ! D96   D(18,17,29,30)       -179.8977         estimate D2E/DX2                !
 ! D97   D(18,17,29,53)          0.0948         estimate D2E/DX2                !
 ! D98   D(17,18,19,20)        179.1787         estimate D2E/DX2                !
 ! D99   D(28,18,19,20)         -0.8001         estimate D2E/DX2                !
 ! D100  D(17,18,28,27)        178.6414         estimate D2E/DX2                !
 ! D101  D(19,18,28,27)         -1.3786         estimate D2E/DX2                !
 ! D102  D(18,19,20,21)       -118.3278         estimate D2E/DX2                !
 ! D103  D(18,19,20,27)          2.3875         estimate D2E/DX2                !
 ! D104  D(18,19,20,45)        121.1911         estimate D2E/DX2                !
 ! D105  D(19,20,21,22)         47.8205         estimate D2E/DX2                !
 ! D106  D(19,20,21,26)       -133.402          estimate D2E/DX2                !
 ! D107  D(27,20,21,22)        -67.4623         estimate D2E/DX2                !
 ! D108  D(27,20,21,26)        111.3152         estimate D2E/DX2                !
 ! D109  D(45,20,21,22)        167.9355         estimate D2E/DX2                !
 ! D110  D(45,20,21,26)        -13.287          estimate D2E/DX2                !
 ! D111  D(19,20,27,28)         -3.0809         estimate D2E/DX2                !
 ! D112  D(19,20,27,51)       -121.0205         estimate D2E/DX2                !
 ! D113  D(19,20,27,52)        114.9651         estimate D2E/DX2                !
 ! D114  D(21,20,27,28)        116.964          estimate D2E/DX2                !
 ! D115  D(21,20,27,51)         -0.9756         estimate D2E/DX2                !
 ! D116  D(21,20,27,52)       -124.99           estimate D2E/DX2                !
 ! D117  D(45,20,27,28)       -119.7696         estimate D2E/DX2                !
 ! D118  D(45,20,27,51)        122.2909         estimate D2E/DX2                !
 ! D119  D(45,20,27,52)         -1.7235         estimate D2E/DX2                !
 ! D120  D(20,21,22,23)        178.8818         estimate D2E/DX2                !
 ! D121  D(20,21,22,46)         -1.7672         estimate D2E/DX2                !
 ! D122  D(26,21,22,23)          0.0851         estimate D2E/DX2                !
 ! D123  D(26,21,22,46)        179.4362         estimate D2E/DX2                !
 ! D124  D(20,21,26,25)       -178.6569         estimate D2E/DX2                !
 ! D125  D(20,21,26,50)          1.3763         estimate D2E/DX2                !
 ! D126  D(22,21,26,25)          0.1307         estimate D2E/DX2                !
 ! D127  D(22,21,26,50)       -179.8361         estimate D2E/DX2                !
 ! D128  D(21,22,23,24)         -0.2441         estimate D2E/DX2                !
 ! D129  D(21,22,23,47)        179.7244         estimate D2E/DX2                !
 ! D130  D(46,22,23,24)       -179.5916         estimate D2E/DX2                !
 ! D131  D(46,22,23,47)          0.377          estimate D2E/DX2                !
 ! D132  D(22,23,24,25)          0.1863         estimate D2E/DX2                !
 ! D133  D(22,23,24,48)       -179.9686         estimate D2E/DX2                !
 ! D134  D(47,23,24,25)       -179.7822         estimate D2E/DX2                !
 ! D135  D(47,23,24,48)          0.0629         estimate D2E/DX2                !
 ! D136  D(23,24,25,26)          0.0289         estimate D2E/DX2                !
 ! D137  D(23,24,25,49)        179.875          estimate D2E/DX2                !
 ! D138  D(48,24,25,26)       -179.8161         estimate D2E/DX2                !
 ! D139  D(48,24,25,49)          0.0299         estimate D2E/DX2                !
 ! D140  D(24,25,26,21)         -0.1882         estimate D2E/DX2                !
 ! D141  D(24,25,26,50)        179.7785         estimate D2E/DX2                !
 ! D142  D(49,25,26,21)        179.9654         estimate D2E/DX2                !
 ! D143  D(49,25,26,50)         -0.0679         estimate D2E/DX2                !
 ! D144  D(20,27,28,18)          2.6978         estimate D2E/DX2                !
 ! D145  D(51,27,28,18)        122.7237         estimate D2E/DX2                !
 ! D146  D(52,27,28,18)       -118.1023         estimate D2E/DX2                !
 ! D147  D(17,29,30,31)         -0.1444         estimate D2E/DX2                !
 ! D148  D(17,29,30,54)        179.8473         estimate D2E/DX2                !
 ! D149  D(53,29,30,31)        179.8633         estimate D2E/DX2                !
 ! D150  D(53,29,30,54)         -0.145          estimate D2E/DX2                !
 ! D151  D(29,30,31,32)         -0.2474         estimate D2E/DX2                !
 ! D152  D(29,30,31,55)        179.9723         estimate D2E/DX2                !
 ! D153  D(54,30,31,32)        179.7609         estimate D2E/DX2                !
 ! D154  D(54,30,31,55)         -0.0194         estimate D2E/DX2                !
 ! D155  D(30,31,32,13)       -179.2939         estimate D2E/DX2                !
 ! D156  D(30,31,32,16)          0.3409         estimate D2E/DX2                !
 ! D157  D(55,31,32,13)          0.4879         estimate D2E/DX2                !
 ! D158  D(55,31,32,16)       -179.8773         estimate D2E/DX2                !
 ! D159  D(4,34,35,1)            0.1836         estimate D2E/DX2                !
 ! D160  D(4,34,35,57)        -179.4509         estimate D2E/DX2                !
 ! D161  D(56,34,35,1)        -179.2206         estimate D2E/DX2                !
 ! D162  D(56,34,35,57)          1.1449         estimate D2E/DX2                !
 --------------------------------------------------------------------------------
 Trust Radius=3.00D-01 FncErr=1.00D-07 GrdErr=1.00D-06 EigMax=2.50D+02 EigMin=1.00D-04
 Number of steps in this run=    342 maximum allowed number of steps=    342.
 GradGradGradGradGradGradGradGradGradGradGradGradGradGradGradGradGradGrad

 Leave Link  103 at Sun Feb 25 23:41:22 2024, MaxMem=  7516192768 cpu:               0.8 elap:               0.0
 (Enter /public/apps/g16-C01//g16/l202.exe)
 Symmetry turned off by external request.
 Stoichiometry    C30H22N2O3
 Framework group  C1[X(C30H22N2O3)]
 Deg. of freedom   165
 Full point group                 C1      NOp   1
                          Input orientation:                          
 ---------------------------------------------------------------------
 Center     Atomic      Atomic             Coordinates (Angstroms)
 Number     Number       Type             X           Y           Z
 ---------------------------------------------------------------------
      1          6           0       -2.778098   -4.130868   -0.796501
      2          6           0       -2.180752   -5.189901   -0.133162
      3          6           0       -0.970441   -5.009905    0.511399
      4          6           0       -0.347428   -3.767806    0.497809
      5          6           0        0.985930   -3.597347    1.187333
      6          6           0        2.092241   -4.533692    0.606213
      7          8           0        3.094667   -3.643539    0.139131
      8          6           0        2.645236   -2.384572    0.404578
      9          6           0        3.482196   -1.265677    0.004528
     10          6           0        4.822993   -1.436445   -0.330680
     11          6           0        5.623949   -0.363631   -0.700523
     12          6           0        5.119461    0.922548   -0.756831
     13          6           0        3.781813    1.120620   -0.439842
     14          6           0        2.971299    0.030262   -0.062834
     15          8           0        1.700590    0.414199    0.185605
     16          6           0        1.653632    1.752379   -0.011595
     17          6           0        0.547768    2.586847    0.141903
     18          6           0       -0.759166    2.086153    0.538503
     19          7           0       -1.726444    2.827707    0.895802
     20          6           0       -2.857936    1.977915    1.194539
     21          6           0       -4.022530    2.275234    0.283292
     22          6           0       -3.823836    2.378975   -1.087687
     23          6           0       -4.889662    2.628451   -1.932721
     24          6           0       -6.166448    2.771877   -1.416602
     25          6           0       -6.371288    2.668467   -0.051571
     26          6           0       -5.303952    2.423224    0.794525
     27          6           0       -2.292694    0.539402    0.982436
     28          8           0       -0.965443    0.749225    0.528501
     29          6           0        0.740441    3.946776   -0.095233
     30          6           0        1.975247    4.452408   -0.476663
     31          6           0        3.071714    3.623481   -0.635070
     32          6           0        2.910259    2.265395   -0.397431
     33          7           0        1.529170   -2.277627    0.990696
     34          6           0       -0.951970   -2.706045   -0.159711
     35          6           0       -2.162605   -2.891375   -0.805326
     36          1           0       -3.721607   -4.273082   -1.302982
     37          1           0       -2.658602   -6.158733   -0.118318
     38          1           0       -0.505209   -5.837269    1.029446
     39          1           0        0.848628   -3.763817    2.263576
     40          1           0        1.727184   -5.128587   -0.236350
     41          1           0        2.530838   -5.194991    1.358331
     42          1           0        5.235818   -2.432386   -0.292752
     43          1           0        6.659563   -0.541961   -0.947442
     44          1           0        5.743903    1.754500   -1.043606
     45          1           0       -3.158855    2.146135    2.234058
     46          1           0       -2.826515    2.273696   -1.490584
     47          1           0       -4.723574    2.711712   -2.996932
     48          1           0       -6.999145    2.966233   -2.076491
     49          1           0       -7.365112    2.781561    0.356451
     50          1           0       -5.466862    2.346632    1.860129
     51          1           0       -2.848303   -0.014356    0.220879
     52          1           0       -2.262741   -0.046914    1.904335
     53          1           0       -0.109545    4.598307    0.028601
     54          1           0        2.078555    5.512333   -0.652284
     55          1           0        4.031447    4.017268   -0.932106
     56          1           0       -0.468372   -1.741042   -0.149038
     57          1           0       -2.626127   -2.064266   -1.323956
 ---------------------------------------------------------------------
 Rotational constants (GHZ):           0.1411162           0.0916603           0.0588615
 Leave Link  202 at Sun Feb 25 23:41:22 2024, MaxMem=  7516192768 cpu:               1.5 elap:               0.1
 (Enter /public/apps/g16-C01//g16/l301.exe)
 Standard basis: def2SVPP (5D, 7F)
 Ernie: Thresh=  0.10000D-02 Tol=  0.10000D-05 Strict=F.
   534 basis functions,   963 primitive gaussians,   569 cartesian basis functions
   120 alpha electrons      120 beta electrons
       nuclear repulsion energy      3448.3381128767 Hartrees.
 IExCor=  402 DFT=T Ex+Corr=B3LYP ExCW=0 ScaHFX=  0.200000
 ScaDFX=  0.800000  0.720000  1.000000  0.810000 ScalE2=  1.000000  1.000000
 IRadAn=      5 IRanWt=     -1 IRanGd=            0 ICorTp=0 IEmpDi=141
 NAtoms=   57 NActive=   57 NUniq=   57 SFac= 1.00D+00 NAtFMM=   60 NAOKFM=F Big=F
 Integral buffers will be    131072 words long.
 Raffenetti 2 integral format.
 Two-electron integral symmetry is turned off.
 R6Disp:  Grimme-D3(BJ) Dispersion energy=       -0.1377898412 Hartrees.
 Nuclear repulsion after empirical dispersion term =     3448.2003230355 Hartrees.
 Leave Link  301 at Sun Feb 25 23:41:22 2024, MaxMem=  7516192768 cpu:               1.4 elap:               0.1
 (Enter /public/apps/g16-C01//g16/l302.exe)
 NPDir=0 NMtPBC=     1 NCelOv=     1 NCel=       1 NClECP=     1 NCelD=      1
         NCelK=      1 NCelE2=     1 NClLst=     1 CellRange=     0.0.
 One-electron integrals computed using PRISM.
   1 Symmetry operations used in ECPInt.
 ECPInt:  NShTT=   32385 NPrTT=  129807 LenC2=   27078 LenP2D=   68022.
 LDataN:  DoStor=T MaxTD1= 4 Len=   56
 NBasis=   534 RedAO= T EigKep=  1.83D-04  NBF=   534
 NBsUse=   534 1.00D-06 EigRej= -1.00D+00 NBFU=   534
 Precomputing XC quadrature grid using
 IXCGrd= 4 IRadAn=           5 IRanWt=          -1 IRanGd=           0 AccXCQ= 0.00D+00.
 Generated NRdTot=       0 NPtTot=           0 NUsed=           0 NTot=          32
 NSgBfM=   560   559   559   560   560 MxSgAt=    57 MxSgA2=    57.
 Leave Link  302 at Sun Feb 25 23:41:23 2024, MaxMem=  7516192768 cpu:              25.1 elap:               0.7
 (Enter /public/apps/g16-C01//g16/l303.exe)
 DipDrv:  MaxL=1.
 Leave Link  303 at Sun Feb 25 23:41:23 2024, MaxMem=  7516192768 cpu:               2.8 elap:               0.1
 (Enter /public/apps/g16-C01//g16/l401.exe)
 ExpMin= 1.22D-01 ExpMax= 2.27D+03 ExpMxC= 3.41D+02 IAcc=3 IRadAn=         5 AccDes= 0.00D+00
 Harris functional with IExCor=  402 and IRadAn=       5 diagonalized for initial guess.
 HarFok:  IExCor=  402 AccDes= 0.00D+00 IRadAn=         5 IDoV= 1 UseB2=F ITyADJ=14
 ICtDFT=  3500011 ScaDFX=  1.000000  1.000000  1.000000  1.000000
 FoFCou: FMM=F IPFlag=           0 FMFlag=      100000 FMFlg1=           0
         NFxFlg=           0 DoJE=T BraDBF=F KetDBF=T FulRan=T
         wScrn=  0.000000 ICntrl=       500 IOpCl=  0 I1Cent=   200000004 NGrid=           0
         NMat0=    1 NMatS0=      1 NMatT0=    0 NMatD0=    1 NMtDS0=    0 NMtDT0=    0
 Symmetry not used in FoFCou.
 Harris En= -1490.53232076301    
 JPrj=0 DoOrth=F DoCkMO=F.
 Leave Link  401 at Sun Feb 25 23:41:24 2024, MaxMem=  7516192768 cpu:              43.8 elap:               1.1
 (Enter /public/apps/g16-C01//g16/l502.exe)
 Two-electron integral symmetry not used.
 Closed shell SCF:
 Using DIIS extrapolation, IDIIS=  1040.
 NGot=  7516192768 LenX=  7515516397 LenY=  7515192067
 Requested convergence on RMS density matrix=1.00D-08 within 128 cycles.
 Requested convergence on MAX density matrix=1.00D-06.
 Requested convergence on             energy=1.00D-06.
 No special actions if energy rises.
 Fock matrices will be formed incrementally for  20 cycles.
 Integral accuracy reduced to 1.0D-05 until final iterations.

 Cycle   1  Pass 0  IDiag  1:
 FoFJK:  IHMeth= 1 ICntrl=       0 DoSepK=F KAlg= 0 I1Cent=           0 FoldK=F
 IRaf= 740000000 NMat=       1 IRICut=       1 DoRegI=T DoRafI=F ISym2E= 0 IDoP0=0 IntGTp=1.
 FoFCou: FMM=F IPFlag=           0 FMFlag=      100000 FMFlg1=           0
         NFxFlg=           0 DoJE=F BraDBF=F KetDBF=F FulRan=T
         wScrn=  0.000000 ICntrl=         0 IOpCl=  0 I1Cent=           0 NGrid=           0
         NMat0=    1 NMatS0=      1 NMatT0=    0 NMatD0=    1 NMtDS0=    0 NMtDT0=    0
 Symmetry not used in FoFCou.
 E= -1489.98224113263    
 DIIS: error= 3.11D-02 at cycle   1 NSaved=   1.
 NSaved= 1 IEnMin= 1 EnMin= -1489.98224113263     IErMin= 1 ErrMin= 3.11D-02
 ErrMax= 3.11D-02  0.00D+00 EMaxC= 1.00D-01 BMatC= 5.60D-01 BMatP= 5.60D-01
 IDIUse=3 WtCom= 6.89D-01 WtEn= 3.11D-01
 Coeff-Com:  0.100D+01
 Coeff-En:   0.100D+01
 Coeff:      0.100D+01
 Gap=     0.179 Goal=   None    Shift=    0.000
 GapD=    0.179 DampG=1.000 DampE=0.500 DampFc=0.5000 IDamp=-1.
 Damping current iteration by 5.00D-01
 RMSDP=5.03D-03 MaxDP=1.47D-01              OVMax= 2.63D-01

 Cycle   2  Pass 0  IDiag  1:
 RMSU=  2.31D-03    CP:  9.45D-01
 E= -1490.23950508042     Delta-E=       -0.257263947791 Rises=F Damp=T
 DIIS: error= 7.09D-03 at cycle   2 NSaved=   2.
 NSaved= 2 IEnMin= 2 EnMin= -1490.23950508042     IErMin= 2 ErrMin= 7.09D-03
 ErrMax= 7.09D-03  0.00D+00 EMaxC= 1.00D-01 BMatC= 5.43D-02 BMatP= 5.60D-01
 IDIUse=3 WtCom= 9.29D-01 WtEn= 7.09D-02
 Coeff-Com:  0.101D+00 0.899D+00
 Coeff-En:   0.156D+00 0.844D+00
 Coeff:      0.105D+00 0.895D+00
 Gap=     0.212 Goal=   None    Shift=    0.000
 RMSDP=1.84D-03 MaxDP=8.00D-02 DE=-2.57D-01 OVMax= 2.48D-01

 Cycle   3  Pass 0  IDiag  1:
 RMSU=  1.71D-03    CP:  9.09D-01  1.07D+00
 E= -1490.52403493522     Delta-E=       -0.284529854802 Rises=F Damp=F
 DIIS: error= 1.21D-02 at cycle   3 NSaved=   3.
 NSaved= 3 IEnMin= 3 EnMin= -1490.52403493522     IErMin= 2 ErrMin= 7.09D-03
 ErrMax= 1.21D-02  0.00D+00 EMaxC= 1.00D-01 BMatC= 8.82D-02 BMatP= 5.43D-02
 IDIUse=2 WtCom= 0.00D+00 WtEn= 1.00D+00
 Coeff-En:   0.000D+00 0.000D+00 0.100D+01
 Coeff:      0.000D+00 0.000D+00 0.100D+01
 Gap=     0.198 Goal=   None    Shift=    0.000
 RMSDP=2.27D-03 MaxDP=1.25D-01 DE=-2.85D-01 OVMax= 2.75D-01

 Cycle   4  Pass 0  IDiag  1:
 RMSU=  1.40D-03    CP:  9.17D-01  1.36D+00  3.94D-02
 E= -1490.13008659217     Delta-E=        0.393948343049 Rises=F Damp=F
 DIIS: error= 3.46D-02 at cycle   4 NSaved=   4.
 NSaved= 4 IEnMin= 3 EnMin= -1490.52403493522     IErMin= 2 ErrMin= 7.09D-03
 ErrMax= 3.46D-02  0.00D+00 EMaxC= 1.00D-01 BMatC= 4.82D-01 BMatP= 5.43D-02
 IDIUse=2 WtCom= 0.00D+00 WtEn= 1.00D+00
 Coeff-En:   0.000D+00 0.000D+00 0.787D+00 0.213D+00
 Coeff:      0.000D+00 0.000D+00 0.787D+00 0.213D+00
 Gap=     0.203 Goal=   None    Shift=    0.000
 RMSDP=1.18D-03 MaxDP=6.67D-02 DE= 3.94D-01 OVMax= 1.39D-01

 Cycle   5  Pass 0  IDiag  1:
 RMSU=  2.37D-04    CP:  9.12D-01  1.19D+00  5.28D-01  5.05D-01
 E= -1490.57820433668     Delta-E=       -0.448117744510 Rises=F Damp=F
 DIIS: error= 9.21D-03 at cycle   5 NSaved=   5.
 NSaved= 5 IEnMin= 5 EnMin= -1490.57820433668     IErMin= 2 ErrMin= 7.09D-03
 ErrMax= 9.21D-03  0.00D+00 EMaxC= 1.00D-01 BMatC= 3.56D-02 BMatP= 5.43D-02
 IDIUse=3 WtCom= 9.08D-01 WtEn= 9.21D-02
 Coeff-Com:  0.386D-02 0.192D-01 0.327D+00-0.573D-01 0.707D+00
 Coeff-En:   0.000D+00 0.000D+00 0.335D+00 0.000D+00 0.665D+00
 Coeff:      0.350D-02 0.174D-01 0.328D+00-0.521D-01 0.703D+00
 Gap=     0.168 Goal=   None    Shift=    0.000
 RMSDP=4.61D-04 MaxDP=2.01D-02 DE=-4.48D-01 OVMax= 5.39D-02

 Cycle   6  Pass 0  IDiag  1:
 RMSU=  1.05D-04    CP:  9.10D-01  1.14D+00  7.18D-01  3.06D-01  7.97D-01
 E= -1490.61399237245     Delta-E=       -0.035788035764 Rises=F Damp=F
 DIIS: error= 7.76D-04 at cycle   6 NSaved=   6.
 NSaved= 6 IEnMin= 6 EnMin= -1490.61399237245     IErMin= 6 ErrMin= 7.76D-04
 ErrMax= 7.76D-04  0.00D+00 EMaxC= 1.00D-01 BMatC= 5.26D-04 BMatP= 3.56D-02
 IDIUse=3 WtCom= 9.92D-01 WtEn= 7.76D-03
 Coeff-Com: -0.917D-03 0.721D-02 0.154D+00-0.690D-01 0.492D+00 0.417D+00
 Coeff-En:   0.000D+00 0.000D+00 0.000D+00 0.000D+00 0.000D+00 0.100D+01
 Coeff:     -0.909D-03 0.716D-02 0.152D+00-0.684D-01 0.488D+00 0.422D+00
 Gap=     0.168 Goal=   None    Shift=    0.000
 RMSDP=5.64D-05 MaxDP=3.36D-03 DE=-3.58D-02 OVMax= 6.98D-03

 Cycle   7  Pass 0  IDiag  1:
 RMSU=  2.54D-05    CP:  9.10D-01  1.14D+00  7.13D-01  3.10D-01  8.67D-01
                    CP:  5.60D-01
 E= -1490.61449410703     Delta-E=       -0.000501734585 Rises=F Damp=F
 DIIS: error= 2.08D-04 at cycle   7 NSaved=   7.
 NSaved= 7 IEnMin= 7 EnMin= -1490.61449410703     IErMin= 7 ErrMin= 2.08D-04
 ErrMax= 2.08D-04  0.00D+00 EMaxC= 1.00D-01 BMatC= 1.48D-05 BMatP= 5.26D-04
 IDIUse=3 WtCom= 9.98D-01 WtEn= 2.08D-03
 Coeff-Com: -0.594D-03 0.263D-02 0.619D-01-0.327D-01 0.213D+00 0.216D+00
 Coeff-Com:  0.540D+00
 Coeff-En:   0.000D+00 0.000D+00 0.000D+00 0.000D+00 0.000D+00 0.000D+00
 Coeff-En:   0.100D+01
 Coeff:     -0.592D-03 0.263D-02 0.618D-01-0.326D-01 0.212D+00 0.215D+00
 Coeff:      0.541D+00
 Gap=     0.168 Goal=   None    Shift=    0.000
 RMSDP=1.21D-05 MaxDP=5.23D-04 DE=-5.02D-04 OVMax= 8.83D-04

 Cycle   8  Pass 0  IDiag  1:
 RMSU=  8.21D-06    CP:  9.10D-01  1.14D+00  7.14D-01  3.10D-01  8.64D-01
                    CP:  5.64D-01  6.59D-01
 E= -1490.61451165884     Delta-E=       -0.000017551808 Rises=F Damp=F
 DIIS: error= 8.19D-05 at cycle   8 NSaved=   8.
 NSaved= 8 IEnMin= 8 EnMin= -1490.61451165884     IErMin= 8 ErrMin= 8.19D-05
 ErrMax= 8.19D-05  0.00D+00 EMaxC= 1.00D-01 BMatC= 2.56D-06 BMatP= 1.48D-05
 IDIUse=1 WtCom= 1.00D+00 WtEn= 0.00D+00
 Coeff-Com: -0.366D-04-0.571D-05 0.146D-01-0.822D-02 0.498D-01 0.593D-01
 Coeff-Com:  0.320D+00 0.565D+00
 Coeff:     -0.366D-04-0.571D-05 0.146D-01-0.822D-02 0.498D-01 0.593D-01
 Coeff:      0.320D+00 0.565D+00
 Gap=     0.168 Goal=   None    Shift=    0.000
 RMSDP=4.61D-06 MaxDP=2.09D-04 DE=-1.76D-05 OVMax= 4.59D-04

 Initial convergence to 1.0D-05 achieved.  Increase integral accuracy.
 Cycle   9  Pass 1  IDiag  1:
 E= -1490.61443347158     Delta-E=        0.000078187265 Rises=F Damp=F
 DIIS: error= 2.04D-04 at cycle   1 NSaved=   1.
 NSaved= 1 IEnMin= 1 EnMin= -1490.61443347158     IErMin= 1 ErrMin= 2.04D-04
 ErrMax= 2.04D-04  0.00D+00 EMaxC= 1.00D-01 BMatC= 1.69D-05 BMatP= 1.69D-05
 IDIUse=3 WtCom= 9.98D-01 WtEn= 2.04D-03
 Coeff-Com:  0.100D+01
 Coeff-En:   0.100D+01
 Coeff:      0.100D+01
 Gap=     0.168 Goal=   None    Shift=    0.000
 RMSDP=4.61D-06 MaxDP=2.09D-04 DE= 7.82D-05 OVMax= 6.39D-04

 Cycle  10  Pass 1  IDiag  1:
 RMSU=  2.81D-04    CP:  1.00D+00
 E= -1490.61445086276     Delta-E=       -0.000017391186 Rises=F Damp=F
 DIIS: error= 7.34D-05 at cycle   2 NSaved=   2.
 NSaved= 2 IEnMin= 2 EnMin= -1490.61445086276     IErMin= 2 ErrMin= 7.34D-05
 ErrMax= 7.34D-05  0.00D+00 EMaxC= 1.00D-01 BMatC= 2.08D-06 BMatP= 1.69D-05
 IDIUse=1 WtCom= 1.00D+00 WtEn= 0.00D+00
 Coeff-Com:  0.140D+00 0.860D+00
 Coeff:      0.140D+00 0.860D+00
 Gap=     0.168 Goal=   None    Shift=    0.000
 RMSDP=9.62D-06 MaxDP=6.13D-04 DE=-1.74D-05 OVMax= 9.79D-04

 Cycle  11  Pass 1  IDiag  1:
 RMSU=  9.27D-06    CP:  1.00D+00  1.01D+00
 E= -1490.61444606914     Delta-E=        0.000004793622 Rises=F Damp=F
 DIIS: error= 1.44D-04 at cycle   3 NSaved=   3.
 NSaved= 3 IEnMin= 2 EnMin= -1490.61445086276     IErMin= 2 ErrMin= 7.34D-05
 ErrMax= 1.44D-04  0.00D+00 EMaxC= 1.00D-01 BMatC= 6.97D-06 BMatP= 2.08D-06
 IDIUse=3 WtCom= 4.54D-01 WtEn= 5.46D-01
 Coeff-Com: -0.408D-02 0.649D+00 0.355D+00
 Coeff-En:   0.000D+00 0.710D+00 0.290D+00
 Coeff:     -0.185D-02 0.682D+00 0.319D+00
 Gap=     0.168 Goal=   None    Shift=    0.000
 RMSDP=5.40D-06 MaxDP=3.79D-04 DE= 4.79D-06 OVMax= 5.89D-04

 Cycle  12  Pass 1  IDiag  1:
 RMSU=  1.16D-06    CP:  1.00D+00  1.01D+00  4.35D-01
 E= -1490.61445281791     Delta-E=       -0.000006748773 Rises=F Damp=F
 DIIS: error= 1.07D-05 at cycle   4 NSaved=   4.
 NSaved= 4 IEnMin= 4 EnMin= -1490.61445281791     IErMin= 4 ErrMin= 1.07D-05
 ErrMax= 1.07D-05  0.00D+00 EMaxC= 1.00D-01 BMatC= 1.16D-07 BMatP= 2.08D-06
 IDIUse=1 WtCom= 1.00D+00 WtEn= 0.00D+00
 Coeff-Com: -0.411D-02 0.397D+00 0.169D+00 0.438D+00
 Coeff:     -0.411D-02 0.397D+00 0.169D+00 0.438D+00
 Gap=     0.168 Goal=   None    Shift=    0.000
 RMSDP=8.52D-07 MaxDP=3.16D-05 DE=-6.75D-06 OVMax= 7.26D-05

 Cycle  13  Pass 1  IDiag  1:
 RMSU=  3.94D-07    CP:  1.00D+00  1.01D+00  3.62D-01  7.13D-01
 E= -1490.61445293623     Delta-E=       -0.000000118316 Rises=F Damp=F
 DIIS: error= 1.58D-06 at cycle   5 NSaved=   5.
 NSaved= 5 IEnMin= 5 EnMin= -1490.61445293623     IErMin= 5 ErrMin= 1.58D-06
 ErrMax= 1.58D-06  0.00D+00 EMaxC= 1.00D-01 BMatC= 2.07D-09 BMatP= 1.16D-07
 IDIUse=1 WtCom= 1.00D+00 WtEn= 0.00D+00
 Coeff-Com: -0.251D-02 0.233D+00 0.964D-01 0.284D+00 0.390D+00
 Coeff:     -0.251D-02 0.233D+00 0.964D-01 0.284D+00 0.390D+00
 Gap=     0.168 Goal=   None    Shift=    0.000
 RMSDP=1.20D-07 MaxDP=7.40D-06 DE=-1.18D-07 OVMax= 1.04D-05

 Cycle  14  Pass 1  IDiag  1:
 RMSU=  1.06D-07    CP:  1.00D+00  1.01D+00  3.63D-01  7.16D-01  8.60D-01
 E= -1490.61445293829     Delta-E=       -0.000000002055 Rises=F Damp=F
 DIIS: error= 5.53D-07 at cycle   6 NSaved=   6.
 NSaved= 6 IEnMin= 6 EnMin= -1490.61445293829     IErMin= 6 ErrMin= 5.53D-07
 ErrMax= 5.53D-07  0.00D+00 EMaxC= 1.00D-01 BMatC= 6.22D-11 BMatP= 2.07D-09
 IDIUse=1 WtCom= 1.00D+00 WtEn= 0.00D+00
 Coeff-Com: -0.877D-03 0.797D-01 0.325D-01 0.102D+00 0.191D+00 0.595D+00
 Coeff:     -0.877D-03 0.797D-01 0.325D-01 0.102D+00 0.191D+00 0.595D+00
 Gap=     0.168 Goal=   None    Shift=    0.000
 RMSDP=2.83D-08 MaxDP=1.71D-06 DE=-2.06D-09 OVMax= 2.63D-06

 Cycle  15  Pass 1  IDiag  1:
 RMSU=  2.60D-08    CP:  1.00D+00  1.01D+00  3.63D-01  7.14D-01  8.81D-01
                    CP:  9.44D-01
 E= -1490.61445293829     Delta-E=       -0.000000000005 Rises=F Damp=F
 DIIS: error= 3.33D-07 at cycle   7 NSaved=   7.
 NSaved= 7 IEnMin= 7 EnMin= -1490.61445293829     IErMin= 7 ErrMin= 3.33D-07
 ErrMax= 3.33D-07  0.00D+00 EMaxC= 1.00D-01 BMatC= 2.40D-11 BMatP= 6.22D-11
 IDIUse=1 WtCom= 1.00D+00 WtEn= 0.00D+00
 Coeff-Com: -0.938D-04 0.771D-02 0.282D-02 0.131D-01 0.504D-01 0.409D+00
 Coeff-Com:  0.517D+00
 Coeff:     -0.938D-04 0.771D-02 0.282D-02 0.131D-01 0.504D-01 0.409D+00
 Coeff:      0.517D+00
 Gap=     0.168 Goal=   None    Shift=    0.000
 RMSDP=1.36D-08 MaxDP=6.53D-07 DE=-5.46D-12 OVMax= 1.29D-06

 Cycle  16  Pass 1  IDiag  1:
 RMSU=  8.94D-09    CP:  1.00D+00  1.01D+00  3.63D-01  7.18D-01  8.84D-01
                    CP:  9.53D-01  6.55D-01
 E= -1490.61445293832     Delta-E=       -0.000000000029 Rises=F Damp=F
 DIIS: error= 4.00D-08 at cycle   8 NSaved=   8.
 NSaved= 8 IEnMin= 8 EnMin= -1490.61445293832     IErMin= 8 ErrMin= 4.00D-08
 ErrMax= 4.00D-08  0.00D+00 EMaxC= 1.00D-01 BMatC= 1.94D-12 BMatP= 2.40D-11
 IDIUse=1 WtCom= 1.00D+00 WtEn= 0.00D+00
 Coeff-Com:  0.153D-04-0.185D-02-0.970D-03-0.362D-03 0.145D-01 0.201D+00
 Coeff-Com:  0.313D+00 0.475D+00
 Coeff:      0.153D-04-0.185D-02-0.970D-03-0.362D-03 0.145D-01 0.201D+00
 Coeff:      0.313D+00 0.475D+00
 Gap=     0.168 Goal=   None    Shift=    0.000
 RMSDP=4.08D-09 MaxDP=1.89D-07 DE=-2.91D-11 OVMax= 3.27D-07

 SCF Done:  E(RB3LYP) =  -1490.61445294     A.U. after   16 cycles
            NFock= 16  Conv=0.41D-08     -V/T= 2.0091
 KE= 1.477193336935D+03 PE=-1.035863298845D+04 EE= 3.942624875546D+03
 Leave Link  502 at Sun Feb 25 23:42:01 2024, MaxMem=  7516192768 cpu:            1452.2 elap:              36.5
 (Enter /public/apps/g16-C01//g16/l601.exe)
 Copying SCF densities to generalized density rwf, IOpCl= 0 IROHF=0.

 **********************************************************************

            Population analysis using the SCF Density.

 **********************************************************************

 Alpha  occ. eigenvalues --  -19.20422 -19.16877 -19.16637 -14.30040 -14.29974
 Alpha  occ. eigenvalues --  -10.27641 -10.27493 -10.25817 -10.25743 -10.23730
 Alpha  occ. eigenvalues --  -10.23281 -10.21912 -10.21706 -10.21110 -10.20950
 Alpha  occ. eigenvalues --  -10.20324 -10.20261 -10.20218 -10.20113 -10.19873
 Alpha  occ. eigenvalues --  -10.19507 -10.19326 -10.19160 -10.18940 -10.18768
 Alpha  occ. eigenvalues --  -10.18346 -10.18339 -10.18251 -10.18226 -10.18212
 Alpha  occ. eigenvalues --  -10.18176 -10.18122 -10.17954 -10.17902 -10.17155
 Alpha  occ. eigenvalues --   -1.12130  -1.08834  -1.08764  -0.90794  -0.90495
 Alpha  occ. eigenvalues --   -0.87338  -0.87009  -0.85363  -0.85097  -0.81190
 Alpha  occ. eigenvalues --   -0.79557  -0.77537  -0.76468  -0.74982  -0.74210
 Alpha  occ. eigenvalues --   -0.73888  -0.73812  -0.72100  -0.71882  -0.66582
 Alpha  occ. eigenvalues --   -0.65047  -0.64469  -0.63916  -0.62221  -0.61415
 Alpha  occ. eigenvalues --   -0.60598  -0.60173  -0.58469  -0.58075  -0.57546
 Alpha  occ. eigenvalues --   -0.54698  -0.54526  -0.53109  -0.52691  -0.52365
 Alpha  occ. eigenvalues --   -0.51140  -0.50655  -0.50097  -0.49064  -0.48661
 Alpha  occ. eigenvalues --   -0.47986  -0.47141  -0.46989  -0.46297  -0.45623
 Alpha  occ. eigenvalues --   -0.45299  -0.44957  -0.44705  -0.44190  -0.43483
 Alpha  occ. eigenvalues --   -0.42607  -0.42380  -0.41875  -0.41799  -0.41518
 Alpha  occ. eigenvalues --   -0.41001  -0.40618  -0.40222  -0.39032  -0.38772
 Alpha  occ. eigenvalues --   -0.38136  -0.37654  -0.37458  -0.36790  -0.36660
 Alpha  occ. eigenvalues --   -0.36218  -0.35816  -0.35578  -0.34854  -0.34676
 Alpha  occ. eigenvalues --   -0.34357  -0.34108  -0.33903  -0.30198  -0.28066
 Alpha  occ. eigenvalues --   -0.27393  -0.26950  -0.26000  -0.25715  -0.25420
 Alpha  occ. eigenvalues --   -0.25221  -0.24739  -0.24634  -0.23590  -0.22977
 Alpha virt. eigenvalues --   -0.06185  -0.04304  -0.00973  -0.00863  -0.00774
 Alpha virt. eigenvalues --   -0.00280  -0.00046   0.00900   0.04411   0.06271
 Alpha virt. eigenvalues --    0.06308   0.06349   0.06856   0.07545   0.07642
 Alpha virt. eigenvalues --    0.08278   0.08786   0.09990   0.10160   0.10812
 Alpha virt. eigenvalues --    0.10935   0.11875   0.12228   0.12684   0.13059
 Alpha virt. eigenvalues --    0.13389   0.14087   0.14175   0.14599   0.15070
 Alpha virt. eigenvalues --    0.15518   0.15784   0.16479   0.16788   0.16851
 Alpha virt. eigenvalues --    0.17543   0.18017   0.18454   0.18972   0.19665
 Alpha virt. eigenvalues --    0.20449   0.21296   0.22987   0.23210   0.23810
 Alpha virt. eigenvalues --    0.24815   0.25836   0.25934   0.26670   0.27322
 Alpha virt. eigenvalues --    0.27839   0.28234   0.29121   0.29765   0.30009
 Alpha virt. eigenvalues --    0.30267   0.30626   0.30916   0.31265   0.31561
 Alpha virt. eigenvalues --    0.32430   0.32505   0.32631   0.32962   0.33747
 Alpha virt. eigenvalues --    0.35208   0.35617   0.36291   0.36432   0.37024
 Alpha virt. eigenvalues --    0.37423   0.37784   0.39065   0.39776   0.40174
 Alpha virt. eigenvalues --    0.40740   0.41680   0.41769   0.42109   0.43144
 Alpha virt. eigenvalues --    0.43416   0.43826   0.43890   0.44646   0.44752
 Alpha virt. eigenvalues --    0.44848   0.45903   0.46389   0.46607   0.47062
 Alpha virt. eigenvalues --    0.47268   0.47516   0.47811   0.48027   0.48684
 Alpha virt. eigenvalues --    0.48896   0.49251   0.49715   0.49951   0.50144
 Alpha virt. eigenvalues --    0.50637   0.51038   0.51434   0.51691   0.51814
 Alpha virt. eigenvalues --    0.52072   0.52800   0.53378   0.53816   0.54336
 Alpha virt. eigenvalues --    0.55149   0.55466   0.55802   0.56706   0.56791
 Alpha virt. eigenvalues --    0.57226   0.57506   0.58446   0.58956   0.59371
 Alpha virt. eigenvalues --    0.59924   0.60686   0.61349   0.61686   0.62386
 Alpha virt. eigenvalues --    0.62888   0.63338   0.64036   0.64146   0.64401
 Alpha virt. eigenvalues --    0.65014   0.65946   0.66477   0.66567   0.67088
 Alpha virt. eigenvalues --    0.67118   0.67561   0.67825   0.67949   0.68232
 Alpha virt. eigenvalues --    0.68497   0.68643   0.68907   0.69514   0.69718
 Alpha virt. eigenvalues --    0.69977   0.70148   0.70461   0.70777   0.71047
 Alpha virt. eigenvalues --    0.71415   0.71738   0.72131   0.72951   0.73184
 Alpha virt. eigenvalues --    0.73602   0.73645   0.74250   0.74565   0.74786
 Alpha virt. eigenvalues --    0.75269   0.75453   0.75772   0.76086   0.76394
 Alpha virt. eigenvalues --    0.76880   0.77346   0.78230   0.78539   0.79024
 Alpha virt. eigenvalues --    0.79483   0.80266   0.80645   0.80953   0.81460
 Alpha virt. eigenvalues --    0.81934   0.82771   0.83620   0.83935   0.84513
 Alpha virt. eigenvalues --    0.85582   0.85998   0.86594   0.87347   0.87867
 Alpha virt. eigenvalues --    0.88207   0.88895   0.89659   0.90738   0.92234
 Alpha virt. eigenvalues --    0.93549   0.95317   0.95666   0.96414   0.97465
 Alpha virt. eigenvalues --    0.97928   1.00350   1.01177   1.02180   1.03436
 Alpha virt. eigenvalues --    1.05467   1.07304   1.07379   1.08096   1.08469
 Alpha virt. eigenvalues --    1.09524   1.11177   1.12507   1.13576   1.14472
 Alpha virt. eigenvalues --    1.15419   1.16160   1.17602   1.18638   1.20494
 Alpha virt. eigenvalues --    1.20708   1.22110   1.23987   1.24661   1.25971
 Alpha virt. eigenvalues --    1.26214   1.27257   1.27427   1.28727   1.29073
 Alpha virt. eigenvalues --    1.29438   1.30101   1.32726   1.34444   1.35449
 Alpha virt. eigenvalues --    1.37246   1.37403   1.38310   1.40129   1.42021
 Alpha virt. eigenvalues --    1.42493   1.42946   1.43775   1.44258   1.45499
 Alpha virt. eigenvalues --    1.45698   1.46271   1.46375   1.47064   1.47469
 Alpha virt. eigenvalues --    1.48277   1.48710   1.48817   1.48928   1.49325
 Alpha virt. eigenvalues --    1.50551   1.50764   1.51252   1.52318   1.53285
 Alpha virt. eigenvalues --    1.55514   1.57000   1.60021   1.61353   1.62515
 Alpha virt. eigenvalues --    1.64779   1.65001   1.66863   1.67353   1.68540
 Alpha virt. eigenvalues --    1.70194   1.71771   1.73295   1.74194   1.75350
 Alpha virt. eigenvalues --    1.75790   1.75966   1.76239   1.77145   1.78089
 Alpha virt. eigenvalues --    1.78560   1.78929   1.79608   1.81168   1.82768
 Alpha virt. eigenvalues --    1.82850   1.83060   1.83771   1.84127   1.85253
 Alpha virt. eigenvalues --    1.86373   1.86858   1.87228   1.87751   1.88698
 Alpha virt. eigenvalues --    1.89353   1.89543   1.92153   1.92987   1.93964
 Alpha virt. eigenvalues --    1.94300   1.95854   1.97963   1.98849   1.99814
 Alpha virt. eigenvalues --    2.00210   2.00256   2.01105   2.02181   2.02789
 Alpha virt. eigenvalues --    2.04778   2.05408   2.06379   2.06820   2.07965
 Alpha virt. eigenvalues --    2.08264   2.09298   2.09533   2.10129   2.10662
 Alpha virt. eigenvalues --    2.11509   2.12427   2.12854   2.13341   2.14033
 Alpha virt. eigenvalues --    2.14342   2.15058   2.15651   2.16758   2.18643
 Alpha virt. eigenvalues --    2.20384   2.20640   2.22102   2.22469   2.23766
 Alpha virt. eigenvalues --    2.24312   2.25352   2.26118   2.27232   2.28133
 Alpha virt. eigenvalues --    2.28849   2.29132   2.29797   2.30598   2.30943
 Alpha virt. eigenvalues --    2.31335   2.31996   2.32374   2.34920   2.36096
 Alpha virt. eigenvalues --    2.37149   2.37934   2.44512   2.44995   2.45516
 Alpha virt. eigenvalues --    2.45937   2.47594   2.48393   2.49695   2.50776
 Alpha virt. eigenvalues --    2.52043   2.52559   2.53868   2.54829   2.54932
 Alpha virt. eigenvalues --    2.56601   2.58527   2.61313   2.62039   2.65182
 Alpha virt. eigenvalues --    2.66523   2.67018   2.67553   2.68222   2.68363
 Alpha virt. eigenvalues --    2.70066   2.70702   2.71621   2.72189   2.72550
 Alpha virt. eigenvalues --    2.72686   2.74029   2.74618   2.74987   2.77727
 Alpha virt. eigenvalues --    2.78078   2.79159   2.80226   2.83166   2.86042
 Alpha virt. eigenvalues --    2.87042   2.87202   2.88615   2.90970   2.91964
 Alpha virt. eigenvalues --    2.93313   2.96846   2.97193   2.98897   3.00164
 Alpha virt. eigenvalues --    3.01108   3.07045   3.08123   3.13472   3.15281
 Alpha virt. eigenvalues --    3.19075   3.23870   3.24268   3.26537   3.30326
 Alpha virt. eigenvalues --    3.33275   3.39554   3.41044   3.41706   3.42652
 Alpha virt. eigenvalues --    3.47601   3.61068   3.63294   3.77944
          Condensed to atoms (all electrons):
 Mulliken charges:
               1
     1  C   -0.041258
     2  C   -0.043554
     3  C   -0.115802
     4  C    0.063179
     5  C   -0.016615
     6  C    0.097942
     7  O   -0.310435
     8  C    0.070376
     9  C    0.048636
    10  C   -0.113329
    11  C   -0.024723
    12  C   -0.155045
    13  C    0.114395
    14  C    0.151417
    15  O   -0.173830
    16  C    0.169552
    17  C    0.019992
    18  C    0.069458
    19  N   -0.158011
    20  C   -0.025424
    21  C    0.147939
    22  C   -0.133064
    23  C   -0.038560
    24  C   -0.042620
    25  C   -0.041109
    26  C   -0.128791
    27  C    0.084828
    28  O   -0.291003
    29  C   -0.110040
    30  C   -0.022219
    31  C   -0.154378
    32  C    0.113470
    33  N   -0.146387
    34  C   -0.133592
    35  C   -0.045368
    36  H    0.044477
    37  H    0.043800
    38  H    0.030244
    39  H    0.082349
    40  H    0.093897
    41  H    0.084101
    42  H    0.055440
    43  H    0.050251
    44  H    0.039869
    45  H    0.059969
    46  H    0.055330
    47  H    0.045936
    48  H    0.047310
    49  H    0.045946
    50  H    0.033840
    51  H    0.104467
    52  H    0.096292
    53  H    0.062105
    54  H    0.050901
    55  H    0.039146
    56  H    0.093006
    57  H    0.055294
 Sum of Mulliken charges =  -0.00000
 Mulliken charges with hydrogens summed into heavy atoms:
               1
     1  C    0.003219
     2  C    0.000246
     3  C   -0.085558
     4  C    0.063179
     5  C    0.065734
     6  C    0.275940
     7  O   -0.310435
     8  C    0.070376
     9  C    0.048636
    10  C   -0.057889
    11  C    0.025529
    12  C   -0.115176
    13  C    0.114395
    14  C    0.151417
    15  O   -0.173830
    16  C    0.169552
    17  C    0.019992
    18  C    0.069458
    19  N   -0.158011
    20  C    0.034545
    21  C    0.147939
    22  C   -0.077733
    23  C    0.007376
    24  C    0.004690
    25  C    0.004837
    26  C   -0.094952
    27  C    0.285588
    28  O   -0.291003
    29  C   -0.047934
    30  C    0.028682
    31  C   -0.115231
    32  C    0.113470
    33  N   -0.146387
    34  C   -0.040586
    35  C    0.009926
 Electronic spatial extent (au):  <R**2>=          17398.3780
 Charge=             -0.0000 electrons
 Dipole moment (field-independent basis, Debye):
    X=              0.8459    Y=             -1.0554    Z=             -0.3114  Tot=              1.3880
 Quadrupole moment (field-independent basis, Debye-Ang):
   XX=           -177.5028   YY=           -188.6304   ZZ=           -197.4234
   XY=              5.5721   XZ=             -2.0650   YZ=             -8.4017
 Traceless Quadrupole moment (field-independent basis, Debye-Ang):
   XX=             10.3494   YY=             -0.7782   ZZ=             -9.5712
   XY=              5.5721   XZ=             -2.0650   YZ=             -8.4017
 Octapole moment (field-independent basis, Debye-Ang**2):
  XXX=             45.8514  YYY=            -88.9290  ZZZ=             17.2817  XYY=             58.3066
  XXY=             30.6384  XXZ=            -20.1131  XZZ=            -17.7644  YZZ=              0.6589
  YYZ=              9.7724  XYZ=            -17.0885
 Hexadecapole moment (field-independent basis, Debye-Ang**3):
 XXXX=         -12032.4930 YYYY=          -9658.1260 ZZZZ=           -935.1690 XXXY=            924.6049
 XXXZ=           -169.4370 YYYX=           1276.7678 YYYZ=             92.1863 ZZZX=            -20.9254
 ZZZY=            283.2974 XXYY=          -3786.3393 XXZZ=          -2278.4835 YYZZ=          -1867.0797
 XXYZ=             53.7004 YYXZ=             27.9480 ZZXY=            262.7512
 N-N= 3.448200323036D+03 E-N=-1.035863299781D+04  KE= 1.477193336935D+03
 No NMR shielding tensors so no spin-rotation constants.
 Leave Link  601 at Sun Feb 25 23:42:01 2024, MaxMem=  7516192768 cpu:              10.1 elap:               0.3
 (Enter /public/apps/g16-C01//g16/l701.exe)
 ... and contract with generalized density number  0.
 Compute integral first derivatives.
 R6Disp: Adding Grimme-D3(BJ) dispersion energy 1st derivatives to the gradient.
   1 Symmetry operations used in ECPInt.
 ECPInt:  NShTT=   32385 NPrTT=  129807 LenC2=   27078 LenP2D=   68022.
 LDataN:  DoStor=T MaxTD1= 5 Len=  102
 Leave Link  701 at Sun Feb 25 23:42:01 2024, MaxMem=  7516192768 cpu:              11.4 elap:               0.3
 (Enter /public/apps/g16-C01//g16/l702.exe)
 L702 exits ... SP integral derivatives will be done elsewhere.
 Leave Link  702 at Sun Feb 25 23:42:01 2024, MaxMem=  7516192768 cpu:               0.4 elap:               0.0
 (Enter /public/apps/g16-C01//g16/l703.exe)
 Integral derivatives from FoFJK, PRISM(SPDF).
 Compute integral first derivatives, UseDBF=F ICtDFT=           0.
 Calling FoFJK, ICntrl=      2127 FMM=F ISym2X=0 I1Cent= 0 IOpClX= 0 NMat=1 NMatS=1 NMatT=0.
 FoFJK:  IHMeth= 1 ICntrl=    2127 DoSepK=F KAlg= 0 I1Cent=           0 FoldK=F
 IRaf=         0 NMat=       1 IRICut=       1 DoRegI=T DoRafI=F ISym2E= 0 IDoP0=0 IntGTp=1.
 FoFCou: FMM=F IPFlag=           0 FMFlag=      100000 FMFlg1=         800
         NFxFlg=           0 DoJE=F BraDBF=F KetDBF=F FulRan=T
         wScrn=  0.000000 ICntrl=      2127 IOpCl=  0 I1Cent=           0 NGrid=           0
         NMat0=    1 NMatS0=      1 NMatT0=    0 NMatD0=    1 NMtDS0=    0 NMtDT0=    0
 Symmetry not used in FoFCou.
 Leave Link  703 at Sun Feb 25 23:42:09 2024, MaxMem=  7516192768 cpu:             312.6 elap:               7.9
 (Enter /public/apps/g16-C01//g16/l716.exe)
 Dipole        = 3.32816530D-01-4.15236012D-01-1.22518250D-01
 -------------------------------------------------------------------
 Center     Atomic                   Forces (Hartrees/Bohr)
 Number     Number              X              Y              Z
 -------------------------------------------------------------------
      1        6          -0.004529724   -0.000425457   -0.002150084
      2        6          -0.001781704   -0.004904101    0.000290541
      3        6           0.000887680   -0.000319530    0.001071226
      4        6           0.006520630    0.000943372    0.005880029
      5        6           0.001496330   -0.003906388   -0.005547183
      6        6          -0.004601720   -0.003901468    0.003825965
      7        8           0.009415731    0.005723460   -0.004650302
      8        6           0.001242332   -0.004557902    0.000551760
      9        6          -0.005172251   -0.003021165    0.000566819
     10        6          -0.000006204   -0.001731366   -0.000319050
     11        6           0.005502173   -0.001115773   -0.001062454
     12        6          -0.001992486    0.001919965    0.000290627
     13        6          -0.004296713   -0.001264901    0.001540606
     14        6           0.011733500   -0.002318653   -0.002625033
     15        8          -0.004877271   -0.002970849    0.001938128
     16        6           0.001187433    0.013085638   -0.002467979
     17        6           0.000252680   -0.012668388   -0.000134151
     18        6          -0.003501099    0.000952846    0.002052224
     19        7           0.001273499    0.014274820    0.002421270
     20        6          -0.001162817   -0.005046676   -0.004623107
     21        6           0.004036143   -0.000326193    0.008337573
     22        6           0.002793590   -0.000107197   -0.000535778
     23        6           0.001836100   -0.000504657   -0.004222689
     24        6          -0.004437213    0.000981264   -0.001973693
     25        6          -0.005052097    0.000383573    0.000830670
     26        6           0.001298157   -0.000671422    0.001839983
     27        6          -0.007492338    0.000176734    0.004509552
     28        8           0.008970324   -0.002948046   -0.004086387
     29        6          -0.000991176    0.000236586    0.000493676
     30        6          -0.000521796    0.004878323   -0.000558705
     31        6           0.001688695   -0.003187771    0.000080022
     32        6          -0.001610344   -0.003997162    0.000875071
     33        7          -0.007877017    0.010838541    0.007298647
     34        6           0.002025353    0.003553611    0.000724030
     35        6          -0.002267572    0.002758509   -0.002462433
     36        1          -0.008822031   -0.001310165   -0.004735949
     37        1          -0.004574029   -0.009087253    0.000042329
     38        1           0.003829351   -0.008073368    0.004781513
     39        1          -0.000529838   -0.002040230    0.005201940
     40        1          -0.000810527   -0.003460207   -0.003894636
     41        1           0.002812156   -0.004271539    0.003761339
     42        1           0.003189178   -0.008706768    0.000279031
[...]
 .00000693,-0.00001889,-0.00005432,-0.00001278,0.00002350,0.00006899,0.
 00001606,-0.00000562,0.00001976,0.00005076,0.00000272,-0.00002447,-0.0
 0001631,0.00011227,0.00001055,-0.00004210,0.00005360,-0.00046293,-0.00
 003593,-0.00050232,0.00050066,-0.00093036,-0.00024238,-0.00010624,0.00
 002535,0.00003020,-0.00031007,-0.00003612,0.00210590,0.00018705,0.0016
 6837,0.00044270,0.00024078,-0.00046214,-0.00006099,0.00001205,-0.00039
 312,-0.00014025,-0.00006967,0.00007631,0.00006127,0.00001844,-0.000021
 83,0.00000346,-0.00000377,0.00002926,-0.00000337,0.00000030,-0.0000126
 1,-0.00000122,-0.00000060,0.00001133,-0.00000477,-0.00000278,-0.000004
 06,-0.00000170,-0.00000002,-0.00000004,-0.00000583,-0.00000150,-0.0000
 1699,0.00003861,0.00000441,-0.00000708,-0.00007237,-0.00005599,0.00006
 572,-0.00085188,0.00430517,0.00203639,-0.01504531,-0.01001893,0.007540
 32,-0.27806068,-0.07682205,0.08782984,-0.00011892,-0.00045649,0.001309
 44,-0.00001286,-0.00003771,0.00000481,0.00000564,0.00000560,-0.0000007
 5,-0.00000017,-0.00000336,-0.00000272,-0.00000200,0.00000101,0.0000002
 6,-0.00000215,-0.00000205,0.00000014,0.00000109,-0.00000164,0.00000107
 ,-0.00000262,-0.00000390,0.00000170,-0.00000290,-0.00000365,-0.0000009
 9,-0.00000054,-0.00000443,0.00000252,0.00000952,-0.00000096,0.00000815
 ,0.00001599,-0.00002821,0.00001132,0.00010371,0.00004008,0.00002771,-0
 .00001597,-0.00000396,0.00000594,0.00000555,0.00000252,0.00001629,-0.0
 0000068,-0.00000082,-0.00000468,-0.00000256,-0.00000231,-0.00000165,-0
 .00000253,-0.00000275,-0.00000099,0.00000350,0.00000116,0.00000037,-0.
 00000179,-0.00000660,0.00000477,-0.00001095,-0.00000029,0.00000675,-0.
 00066537,-0.00049886,0.00027701,0.00061505,-0.00015389,-0.00157005,0.2
 9219882,0.00000084,0.00000038,-0.00000027,-0.00000037,-0.00000056,-0.0
 0000066,0.00000578,-0.00000493,0.00000212,-0.00000848,0.00000819,-0.00
 000342,0.00001335,-0.00001657,-0.00000197,-0.00001257,-0.00001337,0.00
 000090,0.00003418,-0.00000210,-0.00003171,-0.00010265,-0.00000920,0.00
 006286,0.00008568,0.00011258,-0.00000539,0.00001265,0.00006196,-0.0000
 0973,0.00034002,-0.00005623,-0.00012583,-0.00046793,-0.00029524,0.0001
 7681,0.00047289,0.00158556,-0.00069790,-0.00093455,0.00034901,0.000259
 10,-0.00110185,-0.00177495,0.00050813,0.00138456,-0.00385404,0.0008760
 6,0.00028581,-0.00107253,-0.00004089,0.00006325,-0.00003068,-0.0001461
 6,-0.00002516,0.00006809,0.00003819,-0.00003542,0.00001475,-0.00000533
 ,0.00000027,-0.00000145,0.00000311,-0.00000206,-0.00000080,0.00000009,
 0.00000051,0.00000019,0.00000017,0.00000013,-0.00000074,-0.00000057,0.
 00000010,-0.00000015,0.00000032,-0.00000071,-0.00000092,-0.00000152,0.
 00002520,0.00002344,-0.00001482,-0.00001130,0.00005598,-0.00001902,0.0
 0318702,-0.00216741,0.00020797,0.01883781,0.01105225,-0.00696680,-0.07
 808409,-0.08681824,0.03152593,-0.02818216,-0.00341117,0.01016552,0.000
 03876,-0.00001909,-0.00001592,0.00001154,0.00001078,0.00000324,-0.0000
 0136,-0.00000454,-0.00000051,-0.00000022,-0.00000037,0.00000039,0.0000
 0046,-0.00000006,0.00000063,-0.00000135,-0.00000161,0.00000043,0.00000
 281,0.00000400,0.00000001,0.00000093,0.00000127,0.00000056,0.00000289,
 0.00000034,-0.00000170,0.00002924,0.00001845,-0.00000914,0.00000160,-0
 .00001319,0.00000759,0.00053699,-0.00016590,-0.00016069,-0.00000506,-0
 .00000263,0.00000049,0.00000007,-0.00000197,0.00000036,-0.00000037,0.0
 0000040,-0.00000032,-0.00000031,0.00000026,-0.00000013,-0.00000037,0.0
 0000017,-0.00000008,0.00000034,0.00000036,-0.00000021,-0.00000252,0.00
 000182,-0.00000219,-0.00000385,-0.00000006,0.00000179,0.00080158,0.000
 37136,-0.00031136,-0.00090694,0.00093084,-0.00039820,0.08370044,0.0850
 5587,-0.00000036,0.00000014,-0.00000056,0.00000029,0.00000035,-0.00000
 065,0.00000089,-0.00000041,-0.00000022,0.00000323,0.00000133,0.0000000
 9,-0.00000508,-0.00000316,0.00001132,-0.00000004,-0.00000511,0.0000050
 0,0.00000367,0.00001609,-0.00000580,-0.00000823,-0.00003266,0.00002019
 ,0.00003915,-0.00000456,0.00014309,-0.00002604,0.00000687,-0.00004889,
 -0.00004329,-0.00000065,0.00006808,-0.00004803,0.00017839,-0.00016910,
 -0.00106883,-0.00065267,-0.00302953,0.00017569,-0.00000663,-0.00024168
 ,0.00003264,0.00035912,-0.00021515,0.00137993,0.00130186,0.00665239,-0
 .00020471,-0.00029543,-0.00065648,-0.00052991,-0.00023417,-0.00103888,
 0.00005939,-0.00001915,0.00016491,-0.00002586,0.00002758,0.00000388,0.
 00000777,-0.00000150,-0.00000062,-0.00000456,-0.00000555,0.00000103,0.
 00000132,0.00000095,0.00000017,0.00000019,-0.00000049,-0.00000158,0.00
 000114,0.00000040,0.00000003,0.00000053,-0.00000002,0.00000104,-0.0000
 1704,0.00004598,0.00003988,0.00009979,0.00009365,-0.00002418,0.0022180
 3,0.00002541,0.00638626,0.00354672,0.00246032,0.00285357,0.08812583,0.
 03070940,-0.07080685,0.00505354,0.00133360,0.00236462,0.00001327,0.000
 02062,-0.00002556,-0.00000253,-0.00000194,-0.00000155,0.00000115,0.000
 00133,-0.00000092,0.00000031,-0.00000022,0.00000057,0.00000069,0.00000
 101,0.00000050,-0.00000057,0.00000144,0.00000011,0.00000113,0.00000178
 ,-0.00000209,-0.00000002,0.00000026,0.00000005,-0.00000052,0.00000301,
 -0.00000119,0.00000331,-0.00000211,0.00002365,0.00001342,0.00001081,0.
 00004834,-0.00002777,0.00002695,0.00018138,-0.00000981,-0.00001233,0.0
 0000554,-0.00000078,0.,0.00000056,-0.00000195,-0.00000024,-0.00000160,
 0.00000025,0.00000063,0.00000048,0.00000090,0.00000092,-0.00000027,0.0
 0000007,0.00000098,-0.00000110,0.00001069,0.00000406,-0.00001038,0.000
 00100,-0.00000460,-0.00000472,0.00014747,0.00012478,-0.00009172,-0.001
 46254,-0.00060373,-0.00372000,-0.09745010,-0.03487109,0.06112366,-0.00
 264917,0.00141399,-0.00422014,-0.00027588,0.00090533,0.00000337,0.0004
 2546,0.00161049,-0.00281595,0.01120353,0.00660660,0.00087156,-0.000824
 79,-0.00003939,0.00104249,0.00025111,0.00000835,-0.00030100,-0.0000219
 4,-0.00101204,-0.00024292,-0.00169867,0.00103143,0.00067624,0.00015732
 ,-0.00007339,0.00000400,-0.00013378,0.00003587,0.00008547,0.00004425,0
 .00011728,-0.00002015,0.00007679,0.00000909,-0.00004156,0.00007716,0.0
 0002016,-0.00001461,-0.00063751,0.00018466,0.00005597,-0.00012608,0.00
 063343,0.00010022,0.00020296,-0.00122462,0.00010836,-0.00005170,0.0000
 1486,0.00004120,0.00059061,0.00109601,-0.00057407,-0.00010480,-0.00034
 502,0.00022749,-0.00012140,0.00014159,-0.00005771,-0.00003734,-0.00005
 019,0.00001179,0.00010700,-0.00001567,0.00001308,-0.00001103,-0.000063
 47,-0.00004153,0.00002299,0.00000935,-0.00000251,-0.00000033,0.0000065
 1,0.00002072,-0.00003483,-0.00003822,0.00000999,-0.00007047,0.00046190
 ,0.00026180,-0.00039959,-0.00118593,-0.00016570,-0.00006019,0.00009741
 ,-0.00001613,-0.00008380,0.00007011,0.00001976,-0.00001318,-0.00011324
 ,0.00000776,0.00023644,0.00016036,-0.00011527,-0.00192586,0.00168391,-
 0.00091130,-0.16633138,-0.13923221,-0.02009504,-0.01201218,-0.02156568
 ,-0.00193733,-0.00056094,-0.00094655,-0.00005830,-0.00013115,0.0000178
 4,0.00036002,0.00041043,0.00072317,-0.00010404,0.00018884,-0.00016882,
 0.00012625,-0.00005967,-0.00005490,-0.00001847,-0.00001077,-0.00008901
 ,0.00000930,-0.00000244,-0.00001092,-0.00000983,0.00001819,0.00000768,
 -0.00001004,0.00002231,0.00000517,-0.00000551,0.00001976,-0.00004405,0
 .00002060,0.00000523,0.00004548,-0.00001134,-0.00000559,0.00000786,0.0
 0000812,0.00001172,0.00000348,0.00001288,0.00001853,0.00000376,-0.0000
 0525,-0.00001214,0.00000422,-0.00000007,-0.00039818,0.00002290,0.00033
 795,-0.00004302,-0.00014266,-0.00004838,0.00002255,0.00003894,-0.00000
 137,-0.00001035,0.00000775,0.00000525,0.00000572,0.00001255,-0.0000033
 1,0.17409959,0.00123789,0.00115773,0.00164595,0.00090727,0.00005088,0.
 00015442,0.00230347,-0.00313510,0.00282769,-0.01732629,-0.01732890,-0.
 00257379,-0.00157939,-0.00054029,-0.00119962,-0.00014128,-0.00037907,0
 .00023717,0.00000040,0.00087456,0.00083216,0.00150183,-0.00003648,-0.0
 0134358,-0.00002947,-0.00002322,-0.00012217,0.00010573,-0.00009748,-0.
 00005200,0.00001731,-0.00015509,0.00001223,-0.00014661,0.00003290,0.00
 004637,0.00018817,0.00013302,-0.00010371,-0.00080375,0.00052129,0.0003
 1692,0.00051270,-0.00045622,-0.00006129,-0.00012248,-0.00027807,-0.000
 08050,0.00001572,0.00012827,0.00002719,-0.00013972,-0.00145835,0.00035
 454,-0.00020464,0.00030581,-0.00005213,0.00004002,0.00003820,-0.000065
 13,0.00000509,0.00003196,0.00003718,-0.00004961,0.00001114,-0.00002720
 ,0.00001590,0.00003423,0.00003935,-0.00001261,-0.00003143,-0.00000970,
 -0.00001344,-0.00002286,-0.00001105,0.00002244,0.00000350,-0.00002449,
 0.00057034,-0.00006422,-0.00043068,0.00006408,0.00027549,-0.00000368,0
 .00000247,-0.00010238,0.00004237,0.00009310,-0.00000932,-0.00002424,0.
 00002348,0.00005850,-0.00002412,-0.00001753,0.00001846,0.00001922,-0.0
 0169291,0.00052185,-0.00048761,-0.13864484,-0.22901354,-0.01476785,0.0
 0549090,0.00876191,0.00074042,0.00039584,0.00034550,0.00009809,-0.0000
 0327,-0.00002043,-0.00018792,-0.00091714,-0.00086164,-0.00009332,-0.00
 012391,0.00007602,-0.00004904,-0.00000859,0.00002587,0.00005212,0.0000
 0526,0.00003417,-0.00005183,0.00003586,0.00000096,-0.00000647,-0.00000
 997,-0.00001444,0.00000967,0.00000396,-0.00000395,-0.00000070,-0.00004
 374,0.00001171,-0.00000768,0.00000510,-0.00001704,0.00003326,-0.000000
 44,0.00000088,-0.00000997,-0.00001318,-0.00000126,-0.00000711,-0.00001
 492,-0.00000287,-0.00000006,0.00000071,0.00000459,0.00000625,-0.000046
 30,-0.00004473,-0.00013515,-0.00010113,0.00000752,0.00009450,-0.000015
 65,-0.00001037,-0.00000406,0.00000985,0.00000310,-0.00000696,0.0000065
 4,0.00001214,-0.00000214,0.14879219,0.24016820,-0.00388474,0.00180483,
 0.00527892,0.00000249,0.00019035,-0.00074039,-0.00274917,0.00283171,0.
 00477879,0.00618126,0.00772497,0.00512649,0.00159959,-0.00046335,-0.00
 326732,0.00060319,-0.00007794,0.00037639,0.00016782,-0.00071245,-0.000
 65016,-0.00066231,0.00004952,0.00064453,0.00005371,0.00001877,-0.00008
 370,-0.00002215,0.00001833,0.00002803,-0.00000677,0.00003248,-0.000026
 50,0.00004353,-0.00000445,-0.00000016,0.00000318,-0.00001568,0.0000044
 3,0.00023354,-0.00003064,0.00006950,-0.00036907,-0.00027182,-0.0002330
 1,0.00001837,0.00023258,0.00003340,0.00000849,0.00005167,-0.00010274,-
 0.00023017,-0.00114894,0.00095806,-0.00033433,0.00051054,-0.00033160,0
 .00014810,0.00008661,0.00010371,0.00009808,0.00002790,0.00013920,0.000
 01458,-0.00006155,-0.00006485,-0.00001023,-0.00003894,-0.00001869,-0.0
 0001084,-0.00000486,-0.00005012,0.00001142,-0.00001586,0.00000142,-0.0
 0001976,-0.00003845,-0.00002190,0.00046452,-0.00016978,-0.00029203,0.0
 0021748,0.00071009,-0.00059856,0.00001042,-0.00004272,0.00002373,0.000
 03183,-0.00001245,-0.00002161,0.00001095,0.00004222,0.00000206,-0.0000
 1744,0.00000217,0.00002060,-0.00029544,0.00051837,-0.00052651,-0.02151
 334,-0.01720902,-0.04482199,-0.00699129,-0.00900045,0.00305921,-0.0003
 1927,-0.00035254,0.00013100,0.00034600,-0.00020666,-0.00084829,0.00029
 042,0.00052681,0.00021745,-0.00065562,0.00022565,-0.00007198,0.0000180
 3,-0.00005877,-0.00000484,0.00004523,-0.00009435,-0.00007643,-0.000003
 15,0.00000014,0.00000935,0.00000867,0.00000212,0.00000111,0.00000040,0
 .00000372,0.00000199,-0.00006837,0.00002061,-0.00003463,0.00000268,0.0
 0005649,0.00003986,-0.00001489,0.00000956,-0.00001972,-0.00000544,0.00
 000195,-0.00000125,-0.00000353,-0.00000159,-0.00000482,0.00001689,0.00
 001053,-0.00001172,0.00026216,-0.00011190,-0.00006917,-0.00003101,0.00
 003547,0.00003633,-0.00000944,-0.00001135,0.00000330,0.00000670,0.0000
 0581,0.00000081,0.00000437,-0.00000035,0.00000041,0.02542845,0.0152593
 9,0.03522197,0.01001206,-0.01936605,0.00640663,-0.00138855,-0.00348489
 ,-0.00240753,-0.00088862,-0.00055618,0.00004913,-0.00386158,-0.0005247
 4,-0.00404143,0.00017082,0.00113534,-0.00012184,-0.00007952,0.00002831
 ,-0.00024506,-0.00006736,0.00002185,0.00006274,0.00011701,-0.00003567,
 -0.00011025,-0.00000411,0.00000190,0.00000389,0.00000857,-0.00001304,-
 0.00000187,0.00000251,-0.00002075,0.00000302,-0.00002351,0.00000206,0.
 00000922,0.00002300,0.00001584,-0.00001312,-0.00012328,0.00005453,0.00
 003000,0.00010391,-0.00002019,0.00001528,-0.00002852,-0.00004969,-0.00
 001089,-0.00000816,0.00002831,-0.00000488,0.00000818,-0.00045550,0.000
 11489,-0.00017520,0.00009191,-0.00006304,0.00016870,-0.00011123,-0.000
 05819,-0.00015469,0.00058948,-0.00004544,-0.00031743,0.00065731,0.0000
 5849,0.00016499,0.00052725,-0.00006410,-0.00038268,-0.00013775,-0.0001
 6171,-0.00048694,0.00003858,0.00021262,-0.00023981,0.00033666,0.000255
 62,0.00008701,-0.00021625,-0.00016906,-0.00001174,0.00034489,0.0000929
 9,-0.00000022,-0.00002564,0.00000818,0.00001218,0.00000213,-0.00000116
 ,-0.00000119,0.00000419,0.00000036,-0.00000613,0.00000051,0.00000417,0
 .00000545,-0.00008142,0.00011901,-0.00360415,0.02699219,-0.00874519,-0
 .07984316,0.07207582,-0.03136097,0.00027355,0.00097665,0.00150691,0.00
 031033,-0.00099532,0.00025599,-0.00006098,0.00013677,0.00036994,-0.000
 20394,0.00000985,-0.00010799,0.00002968,0.00000836,0.00003043,-0.00004
 240,0.00004395,0.00005965,0.00000724,0.00000050,-0.00000301,-0.0000016
 2,-0.00000231,-0.00000053,0.00000029,-0.00000046,-0.00000131,-0.000058
 55,-0.00000942,-0.00002804,0.00002891,-0.00022272,0.00004037,0.0000579
 7,-0.00010354,0.00007398,0.00004225,-0.00002386,0.00003396,0.00004948,
 -0.00000938,-0.00002412,0.00003425,-0.00004170,-0.00005252,0.00007341,
 0.00004454,-0.00009797,-0.00000332,0.00007144,0.00000268,-0.00000011,0
 .00000035,-0.00000075,0.00000208,0.00000147,-0.00000207,0.00000081,0.0
 0000135,-0.00000153,0.00064167,-0.00015081,0.00187524,0.07963115,0.009
 01977,-0.01643005,0.00781354,-0.00415691,-0.00155907,0.00024660,-0.000
 54757,0.00063286,-0.00051302,-0.00023743,0.00184306,0.00103894,-0.0001
 9922,0.00001524,-0.00005788,-0.00002511,-0.00001570,0.00006289,-0.0000
 0518,-0.00000871,-0.00001790,-0.00001640,0.00003243,0.00003589,0.00000
 032,-0.00000048,-0.00000316,0.00000377,-0.00000187,-0.00000272,0.00000
 021,-0.00000322,-0.00000131,-0.00000144,0.00000037,0.00000011,0.000002
 99,0.00000643,-0.00000164,-0.00000912,0.00000421,0.00000686,-0.0000023
 5,-0.00004231,-0.00000478,0.00000198,0.00004080,-0.00000393,0.00000378
 ,-0.00000754,-0.00000032,-0.00010834,0.00008054,-0.00003896,0.00009967
 ,-0.00002404,0.00007315,-0.00008964,0.00003679,0.00000832,0.00074334,-
 0.00104468,-0.00060995,0.00017103,-0.00120311,-0.00004097,0.00076340,-
 0.00039840,0.00038396,0.00017585,-0.00032734,-0.00008148,-0.00007217,-
 0.00042568,-0.00001310,0.00043466,-0.00054006,-0.00003482,0.00014851,0
 .00025793,-0.00007565,0.00000298,-0.00005564,0.00013240,0.00000162,-0.
 00000767,0.00000339,0.00000665,-0.00000610,-0.00000297,0.00000437,0.00
 000784,-0.00000286,-0.00000480,-0.00000120,0.00000166,0.00001432,0.000
 00430,-0.00000256,-0.00077634,0.00123304,0.00018640,0.07124309,-0.2902
 9901,0.08177482,0.00042067,0.00096852,-0.00089010,0.00041476,-0.000747
 75,0.00035792,0.00013060,-0.00006780,-0.00017018,0.00004310,-0.0000051
 7,0.00000233,-0.00000960,-0.00001136,-0.00000499,0.00000351,-0.0000013
 9,-0.00001453,0.00000080,-0.00000050,0.00000141,0.00000087,-0.00000031
 ,0.00000063,-0.00000005,0.00000040,0.00000049,0.00004826,0.00002435,0.
 00004827,-0.00003930,0.00008119,-0.00001651,-0.00006688,0.00012510,-0.
 00007549,-0.00011515,0.00003882,-0.00002609,-0.00008096,0.00004238,0.0
 0001422,-0.00008200,0.00004759,0.00005725,-0.00006518,-0.00017535,-0.0
 0010180,-0.00001176,-0.00008122,0.00002259,-0.00000217,-0.00000314,0.0
 0000044,0.00000050,0.00000054,-0.00000021,0.00000114,0.00000026,0.0000
 0053,0.00040428,0.00045840,-0.00085452,-0.07758575,0.30751248,0.000251
 75,-0.00291959,0.00493498,-0.00227499,0.00052452,0.00605151,-0.0000273
 4,-0.00060067,-0.00061977,-0.00421536,0.00111066,0.00526282,0.00021722
 ,0.00048132,-0.00002666,-0.00010222,0.00000713,0.00002419,-0.00010288,
 -0.00002905,0.00002591,0.00010317,0.00009694,0.00000755,-0.00001439,-0
 .00000866,0.00000191,0.00001931,-0.00001243,-0.00001084,0.00000047,-0.
 00002412,-0.00000155,-0.00001955,0.00000240,0.00000696,0.00002061,0.00
 002396,-0.00001265,-0.00008892,0.00003988,0.00003357,0.00007571,-0.000
 10094,-0.00001299,-0.00001637,0.00009778,-0.00001256,0.00001029,0.0000
 3964,-0.00001098,-0.00015469,-0.00038121,0.00017378,0.00005476,0.00012
 368,-0.00010085,-0.00005413,-0.00018632,-0.00002471,-0.00016078,-0.000
 13427,-0.00000182,-0.00005952,0.00036927,0.00043185,0.00013919,0.00009
 776,-0.00025500,-0.00039999,-0.00024227,0.00013319,0.00009444,0.000121
 06,-0.00001402,0.00036914,0.00013447,-0.00034731,-0.00020168,-0.000268
 97,0.00001682,0.00022412,0.00029194,-0.00007218,0.00001302,-0.00003731
 ,0.00000421,0.00002788,-0.00001165,-0.00001055,0.00001112,0.00002470,-
 0.00000796,-0.00001619,-0.00000574,0.00000615,-0.00003100,-0.00005290,
 0.00004827,-0.00257288,0.01066000,0.00080145,-0.03106077,0.08105414,-0
 .06829457,0.00157338,-0.00071575,-0.00344658,-0.00003749,-0.00016671,0
 .00020462,0.00037184,-0.00017835,-0.00093932,-0.00004021,0.00007020,-0
 .00003174,-0.00004585,-0.00003721,-0.00001040,-0.00002789,0.00002037,-
 0.00000396,0.00000757,-0.00000029,0.00000091,0.00000048,-0.00000235,0.
 00000129,-0.00000009,0.00000043,0.00000092,-0.00001351,0.00001591,-0.0
 0000300,0.00001893,0.00000565,-0.00001037,-0.00002339,0.00005002,-0.00
 006200,-0.00004324,0.00002108,-0.00002921,-0.00000704,-0.00001189,-0.0
 0001978,0.00001751,-0.00002235,-0.00003263,-0.00009904,-0.00001616,-0.
 00047982,0.00006055,0.00015969,0.00004496,-0.00000804,-0.00001139,0.00
 000446,0.00000471,0.00000301,-0.00000082,0.00000332,0.00000112,0.00000
 048,0.00197875,-0.00085952,-0.00331735,0.03625018,-0.08861064,0.060001
 17\\-0.00000169,0.00000159,-0.00000029,0.00000290,-0.00000173,0.000002
 33,-0.00000410,0.00000013,-0.00000059,0.00000082,0.00000128,0.00000030
 ,0.00000539,-0.00000186,0.00000202,-0.00000678,-0.00000174,0.00000066,
 -0.00000575,0.00001104,-0.00000530,0.00001456,-0.00001031,-0.00000602,
 -0.00000244,0.00000431,-0.00000135,0.00000137,-0.00000039,0.00000123,0
 .00000236,-0.00000017,-0.00000022,-0.00000136,-0.00000016,-0.00000322,
 0.00000295,-0.00000117,0.00000513,-0.00000676,-0.00000183,0.00000221,0
 .00000174,-0.00000009,-0.00000179,0.00000114,0.00000623,-0.00000573,0.
 00000411,0.00000592,-0.00000262,0.00001095,-0.00003578,0.00002047,-0.0
 0002153,0.00000309,-0.00001138,0.00001036,0.00000274,-0.00000231,-0.00
 000600,0.00000282,-0.00000159,-0.00000012,-0.00000192,-0.00000197,0.00
 000399,0.00000344,0.00000257,-0.00000345,-0.00000263,0.00000294,-0.000
 00270,-0.00000294,-0.00000638,0.00000542,0.00000945,0.00000604,-0.0000
 1142,0.00000175,0.00000404,0.00001175,0.00002578,-0.00001000,-0.000007
 66,-0.00000412,0.00000661,0.00000657,-0.00000041,-0.00000307,0.0000002
 3,0.00000477,0.00000400,-0.00000362,-0.00000561,-0.00000572,-0.0000047
 3,0.00000361,0.00000461,0.00000183,-0.00000307,-0.00000016,0.00000085,
 0.00000207,-0.00000127,-0.00000050,-0.00000005,-0.00000014,-0.00000045
 ,0.00000009,-0.00000002,0.00000112,-0.00000020,0.00000029,-0.00000275,
 -0.00000244,-0.00000262,0.00000271,-0.00000272,0.00000076,0.00000045,0
 .00000139,0.00000375,-0.00000114,-0.00000056,-0.00000055,-0.00000014,0
 .00000034,-0.00000128,0.00000052,0.00000022,0.00000043,-0.00000329,-0.
 00000156,0.00000074,0.00000177,0.00000102,0.00000157,-0.00000038,-0.00
 000020,0.00000010,0.00000034,0.00000098,0.00000026,-0.00000071,0.00000
 090,0.00000237,0.00000030,-0.00000183,0.00000145,-0.00000013,-0.000002
 34,-0.00000004,0.00000112,-0.00000461,-0.00000094,0.00000160,0.0000008
 9,-0.00000110,-0.00000052,0.00000022,0.00000129,-0.00000047,-0.0000007
 7,-0.00000241,-0.00000057,0.00000079,-0.00000014,0.00000194,-0.0000036
 5,0.00000202\\\@
 The archive entry for this job was punched.


 IF YOU'RE NOT PART OF THE SOLUTION,
 THEN YOU'RE PART OF THE PRECIPITATE.
 Job cpu time:       0 days  5 hours 23 minutes  9.1 seconds.
 Elapsed time:       0 days  0 hours  8 minutes  6.5 seconds.
 File lengths (MBytes):  RWF=   1909 Int=      0 D2E=      0 Chk=     26 Scr=      1
 Normal termination of Gaussian 16 at Mon Feb 26 00:07:47 2024.
