 Entering Gaussian System, Link 0=g16
 Initial command:
 /public/apps/g16-C01//g16/l1.exe "/public/home/ljq/tmp/Gau-79302.inp" -scrdir="/public/home/ljq/tmp/"
 Entering Link 1 = /public/apps/g16-C01//g16/l1.exe PID=     79303.
  
 Copyright (c) 1988-2019, Gaussian, Inc.  All Rights Reserved.
  
 This is part of the Gaussian(R) 16 program.  It is based on
 the Gaussian(R) 09 system (copyright 2009, Gaussian, Inc.),
 the Gaussian(R) 03 system (copyright 2003, Gaussian, Inc.),
 the Gaussian(R) 98 system (copyright 1998, Gaussian, Inc.),
 the Gaussian(R) 94 system (copyright 1995, Gaussian, Inc.),
 the Gaussian 92(TM) system (copyright 1992, Gaussian, Inc.),
 the Gaussian 90(TM) system (copyright 1990, Gaussian, Inc.),
 the Gaussian 88(TM) system (copyright 1988, Gaussian, Inc.),
 the Gaussian 86(TM) system (copyright 1986, Carnegie Mellon
 University), and the Gaussian 82(TM) system (copyright 1983,
 Carnegie Mellon University). Gaussian is a federally registered
 trademark of Gaussian, Inc.
  
 This software contains proprietary and confidential information,
 including trade secrets, belonging to Gaussian, Inc.
  
 This software is provided under written license and may be
 used, copied, transmitted, or stored only in accord with that
 written license.
  
 The following legend is applicable only to US Government
 contracts under FAR:
  
                    RESTRICTED RIGHTS LEGEND
  
 Use, reproduction and disclosure by the US Government is
 subject to restrictions as set forth in subparagraphs (a)
 and (c) of the Commercial Computer Software - Restricted
 Rights clause in FAR 52.227-19.
  
 Gaussian, Inc.
 340 Quinnipiac St., Bldg. 40, Wallingford CT 06492
  
  
 ---------------------------------------------------------------
 Warning -- This program may not be used in any manner that
 competes with the business of Gaussian, Inc. or will provide
 assistance to any competitor of Gaussian, Inc.  The licensee
 of this program is prohibited from giving any competitor of
 Gaussian, Inc. access to this program.  By using this program,
 the user acknowledges that Gaussian, Inc. is engaged in the
 business of creating and licensing software in the field of
 computational chemistry and represents and warrants to the
 licensee that it is not a competitor of Gaussian, Inc. and that
 it will not use this program in any manner prohibited above.
 ---------------------------------------------------------------
  

 Cite this work as:
 Gaussian 16, Revision C.01,
 M. J. Frisch, G. W. Trucks, H. B. Schlegel, G. E. Scuseria, 
 M. A. Robb, J. R. Cheeseman, G. Scalmani, V. Barone, 
 G. A. Petersson, H. Nakatsuji, X. Li, M. Caricato, A. V. Marenich, 
 J. Bloino, B. G. Janesko, R. Gomperts, B. Mennucci, H. P. Hratchian, 
 J. V. Ortiz, A. F. Izmaylov, J. L. Sonnenberg, D. Williams-Young, 
 F. Ding, F. Lipparini, F. Egidi, J. Goings, B. Peng, A. Petrone, 
 T. Henderson, D. Ranasinghe, V. G. Zakrzewski, J. Gao, N. Rega, 
 G. Zheng, W. Liang, M. Hada, M. Ehara, K. Toyota, R. Fukuda, 
 J. Hasegawa, M. Ishida, T. Nakajima, Y. Honda, O. Kitao, H. Nakai, 
 T. Vreven, K. Throssell, J. A. Montgomery, Jr., J. E. Peralta, 
 F. Ogliaro, M. J. Bearpark, J. J. Heyd, E. N. Brothers, K. N. Kudin, 
 V. N. Staroverov, T. A. Keith, R. Kobayashi, J. Normand, 
 K. Raghavachari, A. P. Rendell, J. C. Burant, S. S. Iyengar, 
 J. Tomasi, M. Cossi, J. M. Millam, M. Klene, C. Adamo, R. Cammi, 
 J. W. Ochterski, R. L. Martin, K. Morokuma, O. Farkas, 
 J. B. Foresman, and D. J. Fox, Gaussian, Inc., Wallingford CT, 2019.
 
 ******************************************
 Gaussian 16:  ES64L-G16RevC.01  3-Jul-2019
                25-Feb-2024 
 ******************************************
 %nproc=40
 Will use up to   40 processors via shared memory.
 %mem=56GB
 ------------------------------------------
 #p opt freq b3lyp/def2svpp em=gd3bj nosymm
 ------------------------------------------
 1/18=20,19=15,26=3,38=1/1,3;
 2/9=110,12=2,15=1,17=6,18=5,40=1/2;
 3/5=43,7=202,11=2,25=1,30=1,71=1,74=-5,124=41/1,2,3;
 4//1;
 5/5=2,38=5/2;
 6/7=2,8=2,9=2,10=2,28=1/1;
 7/30=1/1,2,3,16;
 1/18=20,19=15,26=3/3(2);
 2/9=110,15=1/2;
 99//99;
 2/9=110,15=1/2;
 3/5=43,7=202,11=2,25=1,30=1,71=1,74=-5,124=41/1,2,3;
 4/5=5,16=3,69=1/1;
 5/5=2,38=5/2;
 7/30=1/1,2,3,16;
 1/18=20,19=15,26=3/3(-5);
 2/9=110,15=1/2;
 6/7=2,8=2,9=2,10=2,19=2,28=1/1;
 99/9=1/99;
 Leave Link    1 at Sun Feb 25 17:45:30 2024, MaxMem=  7516192768 cpu:               2.2 elap:               0.1
 (Enter /public/apps/g16-C01//g16/l101.exe)
 ----------------------
 $$$$Singlemol####0????
 ----------------------
 Symbolic Z-matrix:
 Charge =  0 Multiplicity = 1
 C                    -3.82386  -1.99489   0.72598 
 C                    -3.38504  -2.42409  -0.51567 
 C                    -2.04875  -2.73026  -0.72344 
 C                    -1.16758  -2.59717   0.3308 
 C                    -1.59871  -2.14375   1.57166 
 C                    -2.93238  -1.84628   1.77789 
 C                    -0.4716   -2.03797   2.55369 
 C                     0.76455  -2.55237   1.79452 
 O                     1.73493  -1.52412   1.62525 
 C                     1.73162  -1.19976   0.31464 
 C                     2.50028   0.0181   -0.10287 
 C                     1.53233   1.14206   0.09276 
 N                     0.49279   1.06668   0.80649 
 C                    -0.21872   2.31854   0.68423 
 C                    -1.47052   2.14004  -0.12868 
 C                    -2.57177   1.36762   0.18013 
 C                    -3.6075    1.29409  -0.73821 
 C                    -3.53481   1.98071  -1.93907 
 C                    -2.42255   2.74903  -2.24891 
 C                    -1.38611   2.82037  -1.33787 
 C                    -0.09528   3.57523  -1.46714 
 C                     0.70852   3.1954   -0.21197 
 O                     1.79167   2.32136  -0.52063 
 C                     3.79028   0.22446   0.73167 
 C                     4.95264   0.14028  -0.26386 
 C                     4.38524  -0.64944  -1.43967 
 C                     2.97096  -0.09573  -1.56289 
 N                     1.03411  -1.90527  -0.46783 
 C                     0.31022  -2.8675    0.3354 
 H                    -4.87     -1.7706    0.87771 
 H                    -4.08979  -2.52442  -1.32799 
 H                    -1.69867  -3.06394  -1.68798 
 H                    -3.27504  -1.50373   2.74393 
 H                    -0.30448  -0.99506   2.83182 
 H                    -0.66159  -2.61436   3.46036 
 H                     1.24733  -3.39169   2.30247 
 H                    -0.41932   2.73011   1.67764 
 H                    -2.6145    0.82286   1.10983 
 H                    -4.47477   0.69122  -0.51588 
 H                    -4.34955   1.91374  -2.64512 
 H                    -2.36399   3.2778   -3.18908 
 H                    -0.2692    4.65218  -1.50993 
 H                     0.45381   3.28439  -2.3645 
 H                     1.12201   4.07107   0.29718 
 H                     3.77095   1.18397   1.2474 
 H                     3.85675  -0.55765   1.48644 
 H                     5.23082   1.14066  -0.59884 
 H                     5.83144  -0.33008   0.17521 
 H                     4.96538  -0.5205   -2.35215 
 H                     4.34541  -1.71232  -1.19717 
 H                     2.99589   0.89713  -2.01216 
 H                     2.30023  -0.7373   -2.12977 
 H                     0.5436   -3.88022  -0.00961 
 
 ITRead=  0  0  0  0  0  0  0  0  0  0  0  0  0  0  0  0  0  0  0  0
 ITRead=  0  0  0  0  0  0  0  0  0  0  0  0  0  0  0  0  0  0  0  0
 ITRead=  0  0  0  0  0  0  0  0  0  0  0  0  0
 MicOpt= -1 -1 -1 -1 -1 -1 -1 -1 -1 -1 -1 -1 -1 -1 -1 -1 -1 -1 -1 -1
 MicOpt= -1 -1 -1 -1 -1 -1 -1 -1 -1 -1 -1 -1 -1 -1 -1 -1 -1 -1 -1 -1
 MicOpt= -1 -1 -1 -1 -1 -1 -1 -1 -1 -1 -1 -1 -1
 NAtoms=     53 NQM=       53 NQMF=       0 NMMI=      0 NMMIF=      0
                NMic=       0 NMicF=      0.
                    Isotopes and Nuclear Properties:
 (Nuclear quadrupole moments (NQMom) in fm**2, nuclear magnetic moments (NMagM)
  in nuclear magnetons)

  Atom         1           2           3           4           5           6           7           8           9          10
 IAtWgt=          12          12          12          12          12          12          12          12          16          12
 AtmWgt=  12.0000000  12.0000000  12.0000000  12.0000000  12.0000000  12.0000000  12.0000000  12.0000000  15.9949146  12.0000000
 NucSpn=           0           0           0           0           0           0           0           0           0           0
 AtZEff=  -0.0000000  -0.0000000  -0.0000000  -0.0000000  -0.0000000  -0.0000000  -0.0000000  -0.0000000  -0.0000000  -0.0000000
 NQMom=    0.0000000   0.0000000   0.0000000   0.0000000   0.0000000   0.0000000   0.0000000   0.0000000   0.0000000   0.0000000
 NMagM=    0.0000000   0.0000000   0.0000000   0.0000000   0.0000000   0.0000000   0.0000000   0.0000000   0.0000000   0.0000000
 AtZNuc=   6.0000000   6.0000000   6.0000000   6.0000000   6.0000000   6.0000000   6.0000000   6.0000000   8.0000000   6.0000000

  Atom        11          12          13          14          15          16          17          18          19          20
 IAtWgt=          12          12          14          12          12          12          12          12          12          12
 AtmWgt=  12.0000000  12.0000000  14.0030740  12.0000000  12.0000000  12.0000000  12.0000000  12.0000000  12.0000000  12.0000000
 NucSpn=           0           0           2           0           0           0           0           0           0           0
 AtZEff=  -0.0000000  -0.0000000  -0.0000000  -0.0000000  -0.0000000  -0.0000000  -0.0000000  -0.0000000  -0.0000000  -0.0000000
 NQMom=    0.0000000   0.0000000   2.0440000   0.0000000   0.0000000   0.0000000   0.0000000   0.0000000   0.0000000   0.0000000
 NMagM=    0.0000000   0.0000000   0.4037610   0.0000000   0.0000000   0.0000000   0.0000000   0.0000000   0.0000000   0.0000000
 AtZNuc=   6.0000000   6.0000000   7.0000000   6.0000000   6.0000000   6.0000000   6.0000000   6.0000000   6.0000000   6.0000000

  Atom        21          22          23          24          25          26          27          28          29          30
 IAtWgt=          12          12          16          12          12          12          12          14          12           1
 AtmWgt=  12.0000000  12.0000000  15.9949146  12.0000000  12.0000000  12.0000000  12.0000000  14.0030740  12.0000000   1.0078250
 NucSpn=           0           0           0           0           0           0           0           2           0           1
 AtZEff=  -0.0000000  -0.0000000  -0.0000000  -0.0000000  -0.0000000  -0.0000000  -0.0000000  -0.0000000  -0.0000000  -0.0000000
 NQMom=    0.0000000   0.0000000   0.0000000   0.0000000   0.0000000   0.0000000   0.0000000   2.0440000   0.0000000   0.0000000
 NMagM=    0.0000000   0.0000000   0.0000000   0.0000000   0.0000000   0.0000000   0.0000000   0.4037610   0.0000000   2.7928460
 AtZNuc=   6.0000000   6.0000000   8.0000000   6.0000000   6.0000000   6.0000000   6.0000000   7.0000000   6.0000000   1.0000000

  Atom        31          32          33          34          35          36          37          38          39          40
 IAtWgt=           1           1           1           1           1           1           1           1           1           1
 AtmWgt=   1.0078250   1.0078250   1.0078250   1.0078250   1.0078250   1.0078250   1.0078250   1.0078250   1.0078250   1.0078250
 NucSpn=           1           1           1           1           1           1           1           1           1           1
 AtZEff=  -0.0000000  -0.0000000  -0.0000000  -0.0000000  -0.0000000  -0.0000000  -0.0000000  -0.0000000  -0.0000000  -0.0000000
 NQMom=    0.0000000   0.0000000   0.0000000   0.0000000   0.0000000   0.0000000   0.0000000   0.0000000   0.0000000   0.0000000
 NMagM=    2.7928460   2.7928460   2.7928460   2.7928460   2.7928460   2.7928460   2.7928460   2.7928460   2.7928460   2.7928460
 AtZNuc=   1.0000000   1.0000000   1.0000000   1.0000000   1.0000000   1.0000000   1.0000000   1.0000000   1.0000000   1.0000000

  Atom        41          42          43          44          45          46          47          48          49          50
 IAtWgt=           1           1           1           1           1           1           1           1           1           1
 AtmWgt=   1.0078250   1.0078250   1.0078250   1.0078250   1.0078250   1.0078250   1.0078250   1.0078250   1.0078250   1.0078250
 NucSpn=           1           1           1           1           1           1           1           1           1           1
 AtZEff=  -0.0000000  -0.0000000  -0.0000000  -0.0000000  -0.0000000  -0.0000000  -0.0000000  -0.0000000  -0.0000000  -0.0000000
 NQMom=    0.0000000   0.0000000   0.0000000   0.0000000   0.0000000   0.0000000   0.0000000   0.0000000   0.0000000   0.0000000
 NMagM=    2.7928460   2.7928460   2.7928460   2.7928460   2.7928460   2.7928460   2.7928460   2.7928460   2.7928460   2.7928460
 AtZNuc=   1.0000000   1.0000000   1.0000000   1.0000000   1.0000000   1.0000000   1.0000000   1.0000000   1.0000000   1.0000000

  Atom        51          52          53
 IAtWgt=           1           1           1
 AtmWgt=   1.0078250   1.0078250   1.0078250
 NucSpn=           1           1           1
 AtZEff=  -0.0000000  -0.0000000  -0.0000000
 NQMom=    0.0000000   0.0000000   0.0000000
 NMagM=    2.7928460   2.7928460   2.7928460
 AtZNuc=   1.0000000   1.0000000   1.0000000
 Leave Link  101 at Sun Feb 25 17:45:31 2024, MaxMem=  7516192768 cpu:               6.9 elap:               0.2
 (Enter /public/apps/g16-C01//g16/l103.exe)

 GradGradGradGradGradGradGradGradGradGradGradGradGradGradGradGradGradGrad
 Berny optimization.
 Initialization pass.
                           ----------------------------
                           !    Initial Parameters    !
                           ! (Angstroms and Degrees)  !
 --------------------------                            --------------------------
 ! Name  Definition              Value          Derivative Info.                !
 --------------------------------------------------------------------------------
 ! R1    R(1,2)                  1.3851         estimate D2E/DX2                !
 ! R2    R(1,6)                  1.3868         estimate D2E/DX2                !
 ! R3    R(1,30)                 1.0806         estimate D2E/DX2                !
 ! R4    R(2,3)                  1.3866         estimate D2E/DX2                !
 ! R5    R(2,31)                 1.0801         estimate D2E/DX2                !
 ! R6    R(3,4)                  1.3804         estimate D2E/DX2                !
 ! R7    R(3,32)                 1.079          estimate D2E/DX2                !
 ! R8    R(4,5)                  1.3897         estimate D2E/DX2                !
 ! R9    R(4,29)                 1.5023         estimate D2E/DX2                !
 ! R10   R(5,6)                  1.3819         estimate D2E/DX2                !
 ! R11   R(5,7)                  1.4987         estimate D2E/DX2                !
 ! R12   R(6,33)                 1.0807         estimate D2E/DX2                !
 ! R13   R(7,8)                  1.5392         estimate D2E/DX2                !
 ! R14   R(7,34)                 1.0922         estimate D2E/DX2                !
 ! R15   R(7,35)                 1.091          estimate D2E/DX2                !
 ! R16   R(8,9)                  1.4239         estimate D2E/DX2                !
 ! R17   R(8,29)                 1.5604         estimate D2E/DX2                !
 ! R18   R(8,36)                 1.0934         estimate D2E/DX2                !
 ! R19   R(9,10)                 1.3502         estimate D2E/DX2                !
 ! R20   R(10,11)                1.4994         estimate D2E/DX2                !
 ! R21   R(10,28)                1.2635         estimate D2E/DX2                !
 ! R22   R(11,12)                1.4962         estimate D2E/DX2                !
 ! R23   R(11,24)                1.5502         estimate D2E/DX2                !
 ! R24   R(11,27)                1.5382         estimate D2E/DX2                !
 ! R25   R(12,13)                1.2632         estimate D2E/DX2                !
 ! R26   R(12,23)                1.3543         estimate D2E/DX2                !
 ! R27   R(13,14)                1.4451         estimate D2E/DX2                !
 ! R28   R(14,15)                1.5032         estimate D2E/DX2                !
 ! R29   R(14,22)                1.5594         estimate D2E/DX2                !
 ! R30   R(14,37)                1.0938         estimate D2E/DX2                !
 ! R31   R(15,16)                1.3801         estimate D2E/DX2                !
 ! R32   R(15,20)                1.39           estimate D2E/DX2                !
 ! R33   R(16,17)                1.3862         estimate D2E/DX2                !
 ! R34   R(16,38)                1.0784         estimate D2E/DX2                !
 ! R35   R(17,18)                1.3852         estimate D2E/DX2                !
 ! R36   R(17,39)                1.0794         estimate D2E/DX2                !
 ! R37   R(18,19)                1.3869         estimate D2E/DX2                !
 ! R38   R(18,40)                1.0802         estimate D2E/DX2                !
 ! R39   R(19,20)                1.3818         estimate D2E/DX2                !
 ! R40   R(19,41)                1.0803         estimate D2E/DX2                !
 ! R41   R(20,21)                1.5009         estimate D2E/DX2                !
 ! R42   R(21,22)                1.5381         estimate D2E/DX2                !
 ! R43   R(21,42)                1.0917         estimate D2E/DX2                !
 ! R44   R(21,43)                1.0915         estimate D2E/DX2                !
 ! R45   R(22,23)                1.4256         estimate D2E/DX2                !
 ! R46   R(22,44)                1.0941         estimate D2E/DX2                !
 ! R47   R(24,25)                1.5327         estimate D2E/DX2                !
 ! R48   R(24,45)                1.0895         estimate D2E/DX2                !
 ! R49   R(24,46)                1.0889         estimate D2E/DX2                !
 ! R50   R(25,26)                1.5258         estimate D2E/DX2                !
 ! R51   R(25,47)                1.091          estimate D2E/DX2                !
 ! R52   R(25,48)                1.0892         estimate D2E/DX2                !
 ! R53   R(26,27)                1.5238         estimate D2E/DX2                !
 ! R54   R(26,49)                1.0889         estimate D2E/DX2                !
 ! R55   R(26,50)                1.0909         estimate D2E/DX2                !
 ! R56   R(27,51)                1.0901         estimate D2E/DX2                !
 ! R57   R(27,52)                1.0876         estimate D2E/DX2                !
 ! R58   R(28,29)                1.4474         estimate D2E/DX2                !
 ! R59   R(29,53)                1.095          estimate D2E/DX2                !
 ! A1    A(2,1,6)              120.6299         estimate D2E/DX2                !
 ! A2    A(2,1,30)             119.7945         estimate D2E/DX2                !
 ! A3    A(6,1,30)             119.5753         estimate D2E/DX2                !
 ! A4    A(1,2,3)              120.5358         estimate D2E/DX2                !
 ! A5    A(1,2,31)             119.7528         estimate D2E/DX2                !
 ! A6    A(3,2,31)             119.711          estimate D2E/DX2                !
 ! A7    A(2,3,4)              118.6499         estimate D2E/DX2                !
 ! A8    A(2,3,32)             120.9917         estimate D2E/DX2                !
 ! A9    A(4,3,32)             120.3582         estimate D2E/DX2                !
 ! A10   A(3,4,5)              121.0204         estimate D2E/DX2                !
 ! A11   A(3,4,29)             127.799          estimate D2E/DX2                !
 ! A12   A(5,4,29)             111.171          estimate D2E/DX2                !
 ! A13   A(4,5,6)              120.1917         estimate D2E/DX2                !
 ! A14   A(4,5,7)              112.0125         estimate D2E/DX2                !
 ! A15   A(6,5,7)              127.7954         estimate D2E/DX2                !
 ! A16   A(1,6,5)              118.9544         estimate D2E/DX2                !
 ! A17   A(1,6,33)             120.5405         estimate D2E/DX2                !
 ! A18   A(5,6,33)             120.5051         estimate D2E/DX2                !
 ! A19   A(5,7,8)              104.9054         estimate D2E/DX2                !
 ! A20   A(5,7,34)             110.4467         estimate D2E/DX2                !
 ! A21   A(5,7,35)             112.1038         estimate D2E/DX2                !
 ! A22   A(8,7,34)             108.774          estimate D2E/DX2                !
 ! A23   A(8,7,35)             111.9119         estimate D2E/DX2                !
 ! A24   A(34,7,35)            108.6313         estimate D2E/DX2                !
 ! A25   A(7,8,9)              111.3835         estimate D2E/DX2                !
 ! A26   A(7,8,29)             107.1506         estimate D2E/DX2                !
 ! A27   A(7,8,36)             112.4591         estimate D2E/DX2                !
 ! A28   A(9,8,29)             103.4798         estimate D2E/DX2                !
 ! A29   A(9,8,36)             107.9768         estimate D2E/DX2                !
 ! A30   A(29,8,36)            114.0758         estimate D2E/DX2                !
 ! A31   A(8,9,10)             106.6907         estimate D2E/DX2                !
 ! A32   A(9,10,11)            117.6557         estimate D2E/DX2                !
 ! A33   A(9,10,28)            117.9264         estimate D2E/DX2                !
 ! A34   A(11,10,28)           124.3375         estimate D2E/DX2                !
 ! A35   A(10,11,12)           104.0104         estimate D2E/DX2                !
 ! A36   A(10,11,24)           112.6314         estimate D2E/DX2                !
 ! A37   A(10,11,27)           111.1637         estimate D2E/DX2                !
 ! A38   A(12,11,24)           111.5908         estimate D2E/DX2                !
 ! A39   A(12,11,27)           112.189          estimate D2E/DX2                !
 ! A40   A(24,11,27)           105.4379         estimate D2E/DX2                !
 ! A41   A(11,12,13)           124.1558         estimate D2E/DX2                !
 ! A42   A(11,12,23)           118.1011         estimate D2E/DX2                !
 ! A43   A(13,12,23)           117.7388         estimate D2E/DX2                !
 ! A44   A(12,13,14)           107.7988         estimate D2E/DX2                !
 ! A45   A(13,14,15)           110.6637         estimate D2E/DX2                !
 ! A46   A(13,14,22)           104.0616         estimate D2E/DX2                !
 ! A47   A(13,14,37)           109.8406         estimate D2E/DX2                !
 ! A48   A(15,14,22)           104.5449         estimate D2E/DX2                !
 ! A49   A(15,14,37)           112.5253         estimate D2E/DX2                !
 ! A50   A(22,14,37)           114.7969         estimate D2E/DX2                !
 ! A51   A(14,15,16)           127.585          estimate D2E/DX2                !
 ! A52   A(14,15,20)           111.2072         estimate D2E/DX2                !
 ! A53   A(16,15,20)           121.133          estimate D2E/DX2                !
 ! A54   A(15,16,17)           118.5327         estimate D2E/DX2                !
 ! A55   A(15,16,38)           120.48           estimate D2E/DX2                !
 ! A56   A(17,16,38)           120.9806         estimate D2E/DX2                !
 ! A57   A(16,17,18)           120.5856         estimate D2E/DX2                !
 ! A58   A(16,17,39)           119.5727         estimate D2E/DX2                !
 ! A59   A(18,17,39)           119.8407         estimate D2E/DX2                !
 ! A60   A(17,18,19)           120.6881         estimate D2E/DX2                !
 ! A61   A(17,18,40)           119.7582         estimate D2E/DX2                !
 ! A62   A(19,18,40)           119.5528         estimate D2E/DX2                !
 ! A63   A(18,19,20)           118.8724         estimate D2E/DX2                !
 ! A64   A(18,19,41)           120.6029         estimate D2E/DX2                !
 ! A65   A(20,19,41)           120.5235         estimate D2E/DX2                !
 ! A66   A(15,20,19)           120.1815         estimate D2E/DX2                !
 ! A67   A(15,20,21)           111.9194         estimate D2E/DX2                !
 ! A68   A(19,20,21)           127.8991         estimate D2E/DX2                !
 ! A69   A(20,21,22)           104.7714         estimate D2E/DX2                !
 ! A70   A(20,21,42)           111.2532         estimate D2E/DX2                !
 ! A71   A(20,21,43)           111.6818         estimate D2E/DX2                !
 ! A72   A(22,21,42)           111.0284         estimate D2E/DX2                !
 ! A73   A(22,21,43)           110.0114         estimate D2E/DX2                !
 ! A74   A(42,21,43)           108.105          estimate D2E/DX2                !
 ! A75   A(14,22,21)           107.2835         estimate D2E/DX2                !
 ! A76   A(14,22,23)           103.3822         estimate D2E/DX2                !
 ! A77   A(14,22,44)           114.0367         estimate D2E/DX2                !
 ! A78   A(21,22,23)           111.8244         estimate D2E/DX2                !
 ! A79   A(21,22,44)           112.31           estimate D2E/DX2                !
 ! A80   A(23,22,44)           107.7168         estimate D2E/DX2                !
 ! A81   A(12,23,22)           106.8761         estimate D2E/DX2                !
 ! A82   A(11,24,25)           105.9082         estimate D2E/DX2                !
 ! A83   A(11,24,45)           110.9342         estimate D2E/DX2                !
 ! A84   A(11,24,46)           109.1678         estimate D2E/DX2                !
 ! A85   A(25,24,45)           111.6711         estimate D2E/DX2                !
 ! A86   A(25,24,46)           111.3744         estimate D2E/DX2                !
 ! A87   A(45,24,46)           107.7891         estimate D2E/DX2                !
 ! A88   A(24,25,26)           104.2965         estimate D2E/DX2                !
 ! A89   A(24,25,47)           110.0245         estimate D2E/DX2                !
 ! A90   A(24,25,48)           111.9477         estimate D2E/DX2                !
 ! A91   A(26,25,47)           109.4376         estimate D2E/DX2                !
 ! A92   A(26,25,48)           112.7791         estimate D2E/DX2                !
 ! A93   A(47,25,48)           108.3014         estimate D2E/DX2                !
 ! A94   A(25,26,27)           102.6728         estimate D2E/DX2                !
 ! A95   A(25,26,49)           112.7268         estimate D2E/DX2                !
 ! A96   A(25,26,50)           110.2759         estimate D2E/DX2                !
 ! A97   A(27,26,49)           112.5619         estimate D2E/DX2                !
 ! A98   A(27,26,50)           109.7622         estimate D2E/DX2                !
 ! A99   A(49,26,50)           108.7282         estimate D2E/DX2                !
 ! A100  A(11,27,26)           103.5407         estimate D2E/DX2                !
 ! A101  A(11,27,51)           109.3166         estimate D2E/DX2                !
 ! A102  A(11,27,52)           110.4676         estimate D2E/DX2                !
 ! A103  A(26,27,51)           110.0643         estimate D2E/DX2                !
 ! A104  A(26,27,52)           113.5897         estimate D2E/DX2                !
 ! A105  A(51,27,52)           109.6682         estimate D2E/DX2                !
 ! A106  A(10,28,29)           107.6753         estimate D2E/DX2                !
 ! A107  A(4,29,8)             104.6512         estimate D2E/DX2                !
 ! A108  A(4,29,28)            111.7544         estimate D2E/DX2                !
 ! A109  A(4,29,53)            112.0304         estimate D2E/DX2                !
 ! A110  A(8,29,28)            103.8302         estimate D2E/DX2                !
 ! A111  A(8,29,53)            114.7929         estimate D2E/DX2                !
 ! A112  A(28,29,53)           109.4745         estimate D2E/DX2                !
 ! D1    D(6,1,2,3)              0.8843         estimate D2E/DX2                !
 ! D2    D(6,1,2,31)          -179.3247         estimate D2E/DX2                !
 ! D3    D(30,1,2,3)          -179.2848         estimate D2E/DX2                !
 ! D4    D(30,1,2,31)            0.5062         estimate D2E/DX2                !
 ! D5    D(2,1,6,5)             -0.5218         estimate D2E/DX2                !
 ! D6    D(2,1,6,33)           179.5088         estimate D2E/DX2                !
 ! D7    D(30,1,6,5)           179.647          estimate D2E/DX2                !
 ! D8    D(30,1,6,33)           -0.3224         estimate D2E/DX2                !
 ! D9    D(1,2,3,4)             -0.0605         estimate D2E/DX2                !
 ! D10   D(1,2,3,32)          -179.9157         estimate D2E/DX2                !
 ! D11   D(31,2,3,4)          -179.8516         estimate D2E/DX2                !
 ! D12   D(31,2,3,32)            0.2933         estimate D2E/DX2                !
 ! D13   D(2,3,4,5)             -1.1189         estimate D2E/DX2                !
 ! D14   D(2,3,4,29)          -179.8922         estimate D2E/DX2                !
 ! D15   D(32,3,4,5)           178.7373         estimate D2E/DX2                !
 ! D16   D(32,3,4,29)           -0.0361         estimate D2E/DX2                !
 ! D17   D(3,4,5,6)              1.4886         estimate D2E/DX2                !
 ! D18   D(3,4,5,7)           -178.3027         estimate D2E/DX2                !
 ! D19   D(29,4,5,6)          -179.5508         estimate D2E/DX2                !
 ! D20   D(29,4,5,7)             0.6579         estimate D2E/DX2                !
 ! D21   D(3,4,29,8)          -179.6495         estimate D2E/DX2                !
 ! D22   D(3,4,29,28)           68.6132         estimate D2E/DX2                !
 ! D23   D(3,4,29,53)          -54.6645         estimate D2E/DX2                !
 ! D24   D(5,4,29,8)             1.4778         estimate D2E/DX2                !
 ! D25   D(5,4,29,28)         -110.2595         estimate D2E/DX2                !
 ! D26   D(5,4,29,53)          126.4628         estimate D2E/DX2                !
 ! D27   D(4,5,6,1)             -0.6476         estimate D2E/DX2                !
 ! D28   D(4,5,6,33)           179.3219         estimate D2E/DX2                !
 ! D29   D(7,5,6,1)            179.1075         estimate D2E/DX2                !
 ! D30   D(7,5,6,33)            -0.923          estimate D2E/DX2                !
 ! D31   D(4,5,7,8)             -2.524          estimate D2E/DX2                !
 ! D32   D(4,5,7,34)           114.52           estimate D2E/DX2                !
 ! D33   D(4,5,7,35)          -124.1865         estimate D2E/DX2                !
 ! D34   D(6,5,7,8)            177.7042         estimate D2E/DX2                !
 ! D35   D(6,5,7,34)           -65.2518         estimate D2E/DX2                !
 ! D36   D(6,5,7,35)            56.0418         estimate D2E/DX2                !
 ! D37   D(5,7,8,9)            115.8132         estimate D2E/DX2                !
 ! D38   D(5,7,8,29)             3.3044         estimate D2E/DX2                !
 ! D39   D(5,7,8,36)          -122.82           estimate D2E/DX2                !
 ! D40   D(34,7,8,9)            -2.3701         estimate D2E/DX2                !
 ! D41   D(34,7,8,29)         -114.8789         estimate D2E/DX2                !
 ! D42   D(34,7,8,36)          118.9967         estimate D2E/DX2                !
 ! D43   D(35,7,8,9)          -122.3988         estimate D2E/DX2                !
 ! D44   D(35,7,8,29)          125.0923         estimate D2E/DX2                !
 ! D45   D(35,7,8,36)           -1.032          estimate D2E/DX2                !
 ! D46   D(7,8,9,10)          -109.0972         estimate D2E/DX2                !
 ! D47   D(29,8,9,10)            5.7068         estimate D2E/DX2                !
 ! D48   D(36,8,9,10)          126.9593         estimate D2E/DX2                !
 ! D49   D(7,8,29,4)            -2.955          estimate D2E/DX2                !
 ! D50   D(7,8,29,28)          114.3601         estimate D2E/DX2                !
 ! D51   D(7,8,29,53)         -126.1732         estimate D2E/DX2                !
 ! D52   D(9,8,29,4)          -120.7534         estimate D2E/DX2                !
 ! D53   D(9,8,29,28)           -3.4382         estimate D2E/DX2                !
 ! D54   D(9,8,29,53)          116.0284         estimate D2E/DX2                !
 ! D55   D(36,8,29,4)          122.1997         estimate D2E/DX2                !
 ! D56   D(36,8,29,28)        -120.4851         estimate D2E/DX2                !
 ! D57   D(36,8,29,53)          -1.0185         estimate D2E/DX2                !
 ! D58   D(8,9,10,11)          170.0396         estimate D2E/DX2                !
 ! D59   D(8,9,10,28)           -6.8416         estimate D2E/DX2                !
 ! D60   D(9,10,11,12)         -86.1814         estimate D2E/DX2                !
 ! D61   D(9,10,11,24)          34.811          estimate D2E/DX2                !
 ! D62   D(9,10,11,27)         152.8883         estimate D2E/DX2                !
 ! D63   D(28,10,11,12)         90.4812         estimate D2E/DX2                !
 ! D64   D(28,10,11,24)       -148.5265         estimate D2E/DX2                !
 ! D65   D(28,10,11,27)        -30.4492         estimate D2E/DX2                !
 ! D66   D(9,10,28,29)           4.4011         estimate D2E/DX2                !
 ! D67   D(11,10,28,29)       -172.2531         estimate D2E/DX2                !
 ! D68   D(10,11,12,13)         18.0065         estimate D2E/DX2                !
 ! D69   D(10,11,12,23)       -162.7699         estimate D2E/DX2                !
 ! D70   D(24,11,12,13)       -103.6801         estimate D2E/DX2                !
 ! D71   D(24,11,12,23)         75.5435         estimate D2E/DX2                !
 ! D72   D(27,11,12,13)        138.2473         estimate D2E/DX2                !
 ! D73   D(27,11,12,23)        -42.5291         estimate D2E/DX2                !
 ! D74   D(10,11,24,25)        118.2053         estimate D2E/DX2                !
 ! D75   D(10,11,24,45)       -120.4522         estimate D2E/DX2                !
 ! D76   D(10,11,24,46)         -1.8138         estimate D2E/DX2                !
 ! D77   D(12,11,24,25)       -125.2386         estimate D2E/DX2                !
 ! D78   D(12,11,24,45)         -3.8961         estimate D2E/DX2                !
 ! D79   D(12,11,24,46)        114.7423         estimate D2E/DX2                !
 ! D80   D(27,11,24,25)         -3.1891         estimate D2E/DX2                !
 ! D81   D(27,11,24,45)        118.1534         estimate D2E/DX2                !
 ! D82   D(27,11,24,46)       -123.2082         estimate D2E/DX2                !
 ! D83   D(10,11,27,26)        -94.6568         estimate D2E/DX2                !
 ! D84   D(10,11,27,51)        148.0625         estimate D2E/DX2                !
 ! D85   D(10,11,27,52)         27.298          estimate D2E/DX2                !
 ! D86   D(12,11,27,26)        149.3492         estimate D2E/DX2                !
 ! D87   D(12,11,27,51)         32.0685         estimate D2E/DX2                !
 ! D88   D(12,11,27,52)        -88.696          estimate D2E/DX2                !
 ! D89   D(24,11,27,26)         27.6865         estimate D2E/DX2                !
 ! D90   D(24,11,27,51)        -89.5942         estimate D2E/DX2                !
 ! D91   D(24,11,27,52)        149.6413         estimate D2E/DX2                !
 ! D92   D(11,12,13,14)       -176.7298         estimate D2E/DX2                !
 ! D93   D(23,12,13,14)          4.044          estimate D2E/DX2                !
 ! D94   D(11,12,23,22)        178.1263         estimate D2E/DX2                !
 ! D95   D(13,12,23,22)         -2.5996         estimate D2E/DX2                !
 ! D96   D(12,13,14,15)        108.2481         estimate D2E/DX2                !
 ! D97   D(12,13,14,22)         -3.5391         estimate D2E/DX2                !
 ! D98   D(12,13,14,37)       -126.9074         estimate D2E/DX2                !
 ! D99   D(13,14,15,16)         63.9066         estimate D2E/DX2                !
 ! D100  D(13,14,15,20)       -112.9431         estimate D2E/DX2                !
 ! D101  D(22,14,15,16)        175.3831         estimate D2E/DX2                !
 ! D102  D(22,14,15,20)         -1.4666         estimate D2E/DX2                !
 ! D103  D(37,14,15,16)        -59.3996         estimate D2E/DX2                !
 ! D104  D(37,14,15,20)        123.7507         estimate D2E/DX2                !
 ! D105  D(13,14,22,21)        120.3542         estimate D2E/DX2                !
 ! D106  D(13,14,22,23)          2.0447         estimate D2E/DX2                !
 ! D107  D(13,14,22,44)       -114.6099         estimate D2E/DX2                !
 ! D108  D(15,14,22,21)          4.1984         estimate D2E/DX2                !
 ! D109  D(15,14,22,23)       -114.1111         estimate D2E/DX2                !
 ! D110  D(15,14,22,44)        129.2343         estimate D2E/DX2                !
 ! D111  D(37,14,22,21)       -119.5702         estimate D2E/DX2                !
 ! D112  D(37,14,22,23)        122.1203         estimate D2E/DX2                !
 ! D113  D(37,14,22,44)          5.4657         estimate D2E/DX2                !
 ! D114  D(14,15,16,17)       -177.302          estimate D2E/DX2                !
 ! D115  D(14,15,16,38)          1.7658         estimate D2E/DX2                !
 ! D116  D(20,15,16,17)         -0.7335         estimate D2E/DX2                !
 ! D117  D(20,15,16,38)        178.3343         estimate D2E/DX2                !
 ! D118  D(14,15,20,19)        178.0759         estimate D2E/DX2                !
 ! D119  D(14,15,20,21)         -1.9804         estimate D2E/DX2                !
 ! D120  D(16,15,20,19)          0.9923         estimate D2E/DX2                !
 ! D121  D(16,15,20,21)       -179.0641         estimate D2E/DX2                !
 ! D122  D(15,16,17,18)          0.0762         estimate D2E/DX2                !
 ! D123  D(15,16,17,39)        179.7177         estimate D2E/DX2                !
 ! D124  D(38,16,17,18)       -178.9867         estimate D2E/DX2                !
 ! D125  D(38,16,17,39)          0.6548         estimate D2E/DX2                !
 ! D126  D(16,17,18,19)          0.3296         estimate D2E/DX2                !
 ! D127  D(16,17,18,40)        179.9843         estimate D2E/DX2                !
 ! D128  D(39,17,18,19)       -179.311          estimate D2E/DX2                !
 ! D129  D(39,17,18,40)          0.3438         estimate D2E/DX2                !
 ! D130  D(17,18,19,20)         -0.08           estimate D2E/DX2                !
 ! D131  D(17,18,19,41)        179.5256         estimate D2E/DX2                !
 ! D132  D(40,18,19,20)       -179.7355         estimate D2E/DX2                !
 ! D133  D(40,18,19,41)         -0.1298         estimate D2E/DX2                !
 ! D134  D(18,19,20,15)         -0.5691         estimate D2E/DX2                !
 ! D135  D(18,19,20,21)        179.4971         estimate D2E/DX2                !
 ! D136  D(41,19,20,15)        179.8249         estimate D2E/DX2                !
 ! D137  D(41,19,20,21)         -0.1089         estimate D2E/DX2                !
 ! D138  D(15,20,21,22)          4.5707         estimate D2E/DX2                !
 ! D139  D(15,20,21,42)       -115.4776         estimate D2E/DX2                !
 ! D140  D(15,20,21,43)        123.6278         estimate D2E/DX2                !
 ! D141  D(19,20,21,22)       -175.491          estimate D2E/DX2                !
 ! D142  D(19,20,21,42)         64.4606         estimate D2E/DX2                !
 ! D143  D(19,20,21,43)        -56.4339         estimate D2E/DX2                !
 ! D144  D(20,21,22,14)         -5.254          estimate D2E/DX2                !
 ! D145  D(20,21,22,23)        107.4338         estimate D2E/DX2                !
 ! D146  D(20,21,22,44)       -131.3241         estimate D2E/DX2                !
 ! D147  D(42,21,22,14)        114.9442         estimate D2E/DX2                !
 ! D148  D(42,21,22,23)       -132.368          estimate D2E/DX2                !
 ! D149  D(42,21,22,44)        -11.1259         estimate D2E/DX2                !
 ! D150  D(43,21,22,14)       -125.43           estimate D2E/DX2                !
 ! D151  D(43,21,22,23)        -12.7423         estimate D2E/DX2                !
 ! D152  D(43,21,22,44)        108.4998         estimate D2E/DX2                !
 ! D153  D(14,22,23,12)          0.0182         estimate D2E/DX2                !
 ! D154  D(21,22,23,12)       -115.0845         estimate D2E/DX2                !
 ! D155  D(44,22,23,12)        121.0517         estimate D2E/DX2                !
 ! D156  D(11,24,25,26)        -22.5166         estimate D2E/DX2                !
 ! D157  D(11,24,25,47)         94.7664         estimate D2E/DX2                !
 ! D158  D(11,24,25,48)       -144.7562         estimate D2E/DX2                !
 ! D159  D(45,24,25,26)       -143.3828         estimate D2E/DX2                !
 ! D160  D(45,24,25,47)        -26.0998         estimate D2E/DX2                !
 ! D161  D(45,24,25,48)         94.3776         estimate D2E/DX2                !
 ! D162  D(46,24,25,26)         96.0497         estimate D2E/DX2                !
 ! D163  D(46,24,25,47)       -146.6673         estimate D2E/DX2                !
 ! D164  D(46,24,25,48)        -26.1899         estimate D2E/DX2                !
 ! D165  D(24,25,26,27)         39.884          estimate D2E/DX2                !
 ! D166  D(24,25,26,49)        161.2532         estimate D2E/DX2                !
 ! D167  D(24,25,26,50)        -77.0218         estimate D2E/DX2                !
 ! D168  D(47,25,26,27)        -77.8037         estimate D2E/DX2                !
 ! D169  D(47,25,26,49)         43.5656         estimate D2E/DX2                !
 ! D170  D(47,25,26,50)        165.2906         estimate D2E/DX2                !
 ! D171  D(48,25,26,27)        161.5755         estimate D2E/DX2                !
 ! D172  D(48,25,26,49)        -77.0553         estimate D2E/DX2                !
 ! D173  D(48,25,26,50)         44.6697         estimate D2E/DX2                !
 ! D174  D(25,26,27,11)        -41.7809         estimate D2E/DX2                !
 ! D175  D(25,26,27,51)         74.975          estimate D2E/DX2                !
 ! D176  D(25,26,27,52)       -161.6246         estimate D2E/DX2                !
 ! D177  D(49,26,27,11)       -163.2626         estimate D2E/DX2                !
 ! D178  D(49,26,27,51)        -46.5067         estimate D2E/DX2                !
 ! D179  D(49,26,27,52)         76.8936         estimate D2E/DX2                !
 ! D180  D(50,26,27,11)         75.4908         estimate D2E/DX2                !
 ! D181  D(50,26,27,51)       -167.7533         estimate D2E/DX2                !
 ! D182  D(50,26,27,52)        -44.353          estimate D2E/DX2                !
 ! D183  D(10,28,29,4)         112.0285         estimate D2E/DX2                !
 ! D184  D(10,28,29,8)          -0.2247         estimate D2E/DX2                !
 ! D185  D(10,28,29,53)       -123.2576         estimate D2E/DX2                !
 --------------------------------------------------------------------------------
 Trust Radius=3.00D-01 FncErr=1.00D-07 GrdErr=1.00D-06 EigMax=2.50D+02 EigMin=1.00D-04
 Number of steps in this run=    318 maximum allowed number of steps=    318.
 GradGradGradGradGradGradGradGradGradGradGradGradGradGradGradGradGradGrad

 Leave Link  103 at Sun Feb 25 17:45:31 2024, MaxMem=  7516192768 cpu:               0.9 elap:               0.0
 (Enter /public/apps/g16-C01//g16/l202.exe)
 Symmetry turned off by external request.
 Stoichiometry    C25H24N2O2
 Framework group  C1[X(C25H24N2O2)]
 Deg. of freedom   153
 Full point group                 C1      NOp   1
                          Input orientation:                          
 ---------------------------------------------------------------------
 Center     Atomic      Atomic             Coordinates (Angstroms)
 Number     Number       Type             X           Y           Z
 ---------------------------------------------------------------------
      1          6           0       -3.823859   -1.994887    0.725981
      2          6           0       -3.385036   -2.424086   -0.515674
      3          6           0       -2.048751   -2.730261   -0.723438
      4          6           0       -1.167582   -2.597165    0.330800
      5          6           0       -1.598714   -2.143748    1.571659
      6          6           0       -2.932378   -1.846278    1.777886
      7          6           0       -0.471602   -2.037967    2.553690
      8          6           0        0.764545   -2.552373    1.794517
      9          8           0        1.734930   -1.524122    1.625251
     10          6           0        1.731624   -1.199755    0.314635
     11          6           0        2.500282    0.018104   -0.102871
     12          6           0        1.532330    1.142063    0.092759
     13          7           0        0.492787    1.066677    0.806487
     14          6           0       -0.218721    2.318543    0.684233
     15          6           0       -1.470520    2.140035   -0.128676
     16          6           0       -2.571771    1.367623    0.180128
     17          6           0       -3.607499    1.294088   -0.738211
     18          6           0       -3.534807    1.980707   -1.939070
     19          6           0       -2.422549    2.749026   -2.248908
     20          6           0       -1.386114    2.820371   -1.337872
     21          6           0       -0.095282    3.575229   -1.467138
     22          6           0        0.708519    3.195403   -0.211968
     23          8           0        1.791674    2.321355   -0.520629
     24          6           0        3.790278    0.224455    0.731668
     25          6           0        4.952641    0.140280   -0.263864
     26          6           0        4.385244   -0.649436   -1.439672
     27          6           0        2.970962   -0.095733   -1.562890
     28          7           0        1.034108   -1.905267   -0.467831
     29          6           0        0.310217   -2.867501    0.335398
     30          1           0       -4.870003   -1.770599    0.877707
     31          1           0       -4.089787   -2.524422   -1.327988
     32          1           0       -1.698674   -3.063940   -1.687978
     33          1           0       -3.275036   -1.503729    2.743926
     34          1           0       -0.304481   -0.995055    2.831817
     35          1           0       -0.661594   -2.614357    3.460356
     36          1           0        1.247328   -3.391693    2.302465
     37          1           0       -0.419317    2.730112    1.677643
     38          1           0       -2.614496    0.822857    1.109828
     39          1           0       -4.474766    0.691222   -0.515883
     40          1           0       -4.349547    1.913736   -2.645124
     41          1           0       -2.363987    3.277800   -3.189083
     42          1           0       -0.269196    4.652181   -1.509931
     43          1           0        0.453813    3.284395   -2.364500
     44          1           0        1.122009    4.071069    0.297176
     45          1           0        3.770945    1.183975    1.247400
     46          1           0        3.856753   -0.557646    1.486443
     47          1           0        5.230818    1.140656   -0.598840
     48          1           0        5.831435   -0.330075    0.175209
     49          1           0        4.965383   -0.520504   -2.352150
     50          1           0        4.345413   -1.712315   -1.197167
     51          1           0        2.995885    0.897131   -2.012165
     52          1           0        2.300233   -0.737303   -2.129773
     53          1           0        0.543595   -3.880224   -0.009605
 ---------------------------------------------------------------------
 Rotational constants (GHZ):           0.2271048           0.1839925           0.1204943
 Leave Link  202 at Sun Feb 25 17:45:31 2024, MaxMem=  7516192768 cpu:               2.3 elap:               0.1
 (Enter /public/apps/g16-C01//g16/l301.exe)
 Standard basis: def2SVPP (5D, 7F)
 Ernie: Thresh=  0.10000D-02 Tol=  0.10000D-05 Strict=F.
   454 basis functions,   821 primitive gaussians,   483 cartesian basis functions
   102 alpha electrons      102 beta electrons
       nuclear repulsion energy      2867.0520436961 Hartrees.
 IExCor=  402 DFT=T Ex+Corr=B3LYP ExCW=0 ScaHFX=  0.200000
 ScaDFX=  0.800000  0.720000  1.000000  0.810000 ScalE2=  1.000000  1.000000
 IRadAn=      5 IRanWt=     -1 IRanGd=            0 ICorTp=0 IEmpDi=141
 NAtoms=   53 NActive=   53 NUniq=   53 SFac= 1.00D+00 NAtFMM=   60 NAOKFM=F Big=F
 Integral buffers will be    131072 words long.
 Raffenetti 2 integral format.
 Two-electron integral symmetry is turned off.
 R6Disp:  Grimme-D3(BJ) Dispersion energy=       -0.1303127154 Hartrees.
 Nuclear repulsion after empirical dispersion term =     2866.9217309807 Hartrees.
 Leave Link  301 at Sun Feb 25 17:45:31 2024, MaxMem=  7516192768 cpu:               1.9 elap:               0.1
 (Enter /public/apps/g16-C01//g16/l302.exe)
 NPDir=0 NMtPBC=     1 NCelOv=     1 NCel=       1 NClECP=     1 NCelD=      1
         NCelK=      1 NCelE2=     1 NClLst=     1 CellRange=     0.0.
 One-electron integrals computed using PRISM.
   1 Symmetry operations used in ECPInt.
 ECPInt:  NShTT=   24753 NPrTT=   99239 LenC2=   22995 LenP2D=   60646.
 LDataN:  DoStor=T MaxTD1= 4 Len=   56
 NBasis=   454 RedAO= T EigKep=  2.30D-04  NBF=   454
 NBsUse=   454 1.00D-06 EigRej= -1.00D+00 NBFU=   454
 Precomputing XC quadrature grid using
 IXCGrd= 4 IRadAn=           5 IRanWt=          -1 IRanGd=           0 AccXCQ= 0.00D+00.
 Generated NRdTot=       0 NPtTot=           0 NUsed=           0 NTot=          32
 NSgBfM=   480   480   480   480   480 MxSgAt=    53 MxSgA2=    53.
 Leave Link  302 at Sun Feb 25 17:45:32 2024, MaxMem=  7516192768 cpu:              20.9 elap:               0.6
 (Enter /public/apps/g16-C01//g16/l303.exe)
 DipDrv:  MaxL=1.
 Leave Link  303 at Sun Feb 25 17:45:32 2024, MaxMem=  7516192768 cpu:               7.1 elap:               0.3
 (Enter /public/apps/g16-C01//g16/l401.exe)
 ExpMin= 1.22D-01 ExpMax= 2.27D+03 ExpMxC= 3.41D+02 IAcc=3 IRadAn=         5 AccDes= 0.00D+00
 Harris functional with IExCor=  402 and IRadAn=       5 diagonalized for initial guess.
 HarFok:  IExCor=  402 AccDes= 0.00D+00 IRadAn=         5 IDoV= 1 UseB2=F ITyADJ=14
 ICtDFT=  3500011 ScaDFX=  1.000000  1.000000  1.000000  1.000000
 FoFCou: FMM=F IPFlag=           0 FMFlag=      100000 FMFlg1=           0
         NFxFlg=           0 DoJE=T BraDBF=F KetDBF=T FulRan=T
         wScrn=  0.000000 ICntrl=       500 IOpCl=  0 I1Cent=   200000004 NGrid=           0
         NMat0=    1 NMatS0=      1 NMatT0=    0 NMatD0=    1 NMtDS0=    0 NMtDT0=    0
 Symmetry not used in FoFCou.
 Harris En= -1226.17938681770    
 JPrj=0 DoOrth=F DoCkMO=F.
 Leave Link  401 at Sun Feb 25 17:45:34 2024, MaxMem=  7516192768 cpu:              66.4 elap:               1.8
 (Enter /public/apps/g16-C01//g16/l502.exe)
 Two-electron integral symmetry not used.
 Closed shell SCF:
 Using DIIS extrapolation, IDIIS=  1040.
 NGot=  7516192768 LenX=  7515701427 LenY=  7515467655
 Requested convergence on RMS density matrix=1.00D-08 within 128 cycles.
 Requested convergence on MAX density matrix=1.00D-06.
 Requested convergence on             energy=1.00D-06.
 No special actions if energy rises.
 Fock matrices will be formed incrementally for  20 cycles.
 Integral accuracy reduced to 1.0D-05 until final iterations.

 Cycle   1  Pass 0  IDiag  1:
 FoFJK:  IHMeth= 1 ICntrl=       0 DoSepK=F KAlg= 0 I1Cent=           0 FoldK=F
 IRaf= 860000000 NMat=       1 IRICut=       1 DoRegI=T DoRafI=F ISym2E= 0 IDoP0=0 IntGTp=1.
 FoFCou: FMM=F IPFlag=           0 FMFlag=      100000 FMFlg1=           0
         NFxFlg=           0 DoJE=F BraDBF=F KetDBF=F FulRan=T
         wScrn=  0.000000 ICntrl=         0 IOpCl=  0 I1Cent=           0 NGrid=           0
         NMat0=    1 NMatS0=      1 NMatT0=    0 NMatD0=    1 NMtDS0=    0 NMtDT0=    0
 Symmetry not used in FoFCou.
 E= -1225.65299301225    
 DIIS: error= 2.64D-02 at cycle   1 NSaved=   1.
 NSaved= 1 IEnMin= 1 EnMin= -1225.65299301225     IErMin= 1 ErrMin= 2.64D-02
 ErrMax= 2.64D-02  0.00D+00 EMaxC= 1.00D-01 BMatC= 5.30D-01 BMatP= 5.30D-01
 IDIUse=3 WtCom= 7.36D-01 WtEn= 2.64D-01
 Coeff-Com:  0.100D+01
 Coeff-En:   0.100D+01
 Coeff:      0.100D+01
 Gap=     0.269 Goal=   None    Shift=    0.000
 GapD=    0.269 DampG=1.000 DampE=0.500 DampFc=0.5000 IDamp=-1.
 Damping current iteration by 5.00D-01
 RMSDP=5.64D-03 MaxDP=2.70D-01              OVMax= 1.97D-01

 Cycle   2  Pass 0  IDiag  1:
 RMSU=  2.71D-03    CP:  9.58D-01
 E= -1225.89922496237     Delta-E=       -0.246231950123 Rises=F Damp=T
 DIIS: error= 6.88D-03 at cycle   2 NSaved=   2.
 NSaved= 2 IEnMin= 2 EnMin= -1225.89922496237     IErMin= 2 ErrMin= 6.88D-03
 ErrMax= 6.88D-03  0.00D+00 EMaxC= 1.00D-01 BMatC= 4.13D-02 BMatP= 5.30D-01
 IDIUse=3 WtCom= 9.31D-01 WtEn= 6.88D-02
 Coeff-Com:  0.954D-01 0.905D+00
 Coeff-En:   0.146D+00 0.854D+00
 Coeff:      0.989D-01 0.901D+00
 Gap=     0.270 Goal=   None    Shift=    0.000
 RMSDP=2.08D-03 MaxDP=1.20D-01 DE=-2.46D-01 OVMax= 1.84D-01

 Cycle   3  Pass 0  IDiag  1:
 RMSU=  1.96D-03    CP:  9.25D-01  8.97D-01
 E= -1226.19483259961     Delta-E=       -0.295607637245 Rises=F Damp=F
 DIIS: error= 8.69D-03 at cycle   3 NSaved=   3.
 NSaved= 3 IEnMin= 3 EnMin= -1226.19483259961     IErMin= 2 ErrMin= 6.88D-03
 ErrMax= 8.69D-03  0.00D+00 EMaxC= 1.00D-01 BMatC= 5.18D-02 BMatP= 4.13D-02
 IDIUse=3 WtCom= 9.69D-02 WtEn= 9.03D-01
 Coeff-Com:  0.272D-02 0.532D+00 0.465D+00
 Coeff-En:   0.000D+00 0.000D+00 0.100D+01
 Coeff:      0.263D-03 0.515D-01 0.948D+00
 Gap=     0.231 Goal=   None    Shift=    0.000
 RMSDP=2.01D-03 MaxDP=1.54D-01 DE=-2.96D-01 OVMax= 1.87D-01

 Cycle   4  Pass 0  IDiag  1:
 RMSU=  1.42D-03    CP:  9.32D-01  1.19D+00  4.06D-01
 E= -1226.03214882648     Delta-E=        0.162683773136 Rises=F Damp=F
 DIIS: error= 1.98D-02 at cycle   4 NSaved=   4.
 NSaved= 4 IEnMin= 3 EnMin= -1226.19483259961     IErMin= 2 ErrMin= 6.88D-03
 ErrMax= 1.98D-02  0.00D+00 EMaxC= 1.00D-01 BMatC= 2.33D-01 BMatP= 4.13D-02
 IDIUse=2 WtCom= 0.00D+00 WtEn= 1.00D+00
 Coeff-En:   0.000D+00 0.000D+00 0.759D+00 0.241D+00
 Coeff:      0.000D+00 0.000D+00 0.759D+00 0.241D+00
 Gap=     0.242 Goal=   None    Shift=    0.000
 RMSDP=1.05D-03 MaxDP=9.37D-02 DE= 1.63D-01 OVMax= 8.92D-02

 Cycle   5  Pass 0  IDiag  1:
 RMSU=  2.36D-04    CP:  9.28D-01  1.03D+00  6.87D-01  4.74D-01
 E= -1226.22935805918     Delta-E=       -0.197209232698 Rises=F Damp=F
 DIIS: error= 4.67D-03 at cycle   5 NSaved=   5.
 NSaved= 5 IEnMin= 5 EnMin= -1226.22935805918     IErMin= 5 ErrMin= 4.67D-03
 ErrMax= 4.67D-03  0.00D+00 EMaxC= 1.00D-01 BMatC= 1.43D-02 BMatP= 4.13D-02
 IDIUse=3 WtCom= 9.53D-01 WtEn= 4.67D-02
 Coeff-Com:  0.533D-02 0.228D-02 0.297D+00-0.418D-01 0.737D+00
 Coeff-En:   0.000D+00 0.000D+00 0.265D+00 0.000D+00 0.735D+00
 Coeff:      0.508D-02 0.217D-02 0.296D+00-0.399D-01 0.737D+00
 Gap=     0.225 Goal=   None    Shift=    0.000
 RMSDP=3.45D-04 MaxDP=2.66D-02 DE=-1.97D-01 OVMax= 2.75D-02

 Cycle   6  Pass 0  IDiag  1:
 RMSU=  7.49D-05    CP:  9.26D-01  9.84D-01  7.89D-01  3.10D-01  8.77D-01
 E= -1226.24210043711     Delta-E=       -0.012742377935 Rises=F Damp=F
 DIIS: error= 2.87D-04 at cycle   6 NSaved=   6.
 NSaved= 6 IEnMin= 6 EnMin= -1226.24210043711     IErMin= 6 ErrMin= 2.87D-04
 ErrMax= 2.87D-04  0.00D+00 EMaxC= 1.00D-01 BMatC= 8.16D-05 BMatP= 1.43D-02
 IDIUse=3 WtCom= 9.97D-01 WtEn= 2.87D-03
 Coeff-Com:  0.180D-02-0.486D-02 0.121D+00-0.432D-01 0.419D+00 0.506D+00
 Coeff-En:   0.000D+00 0.000D+00 0.000D+00 0.000D+00 0.000D+00 0.100D+01
 Coeff:      0.179D-02-0.485D-02 0.121D+00-0.430D-01 0.418D+00 0.507D+00
 Gap=     0.224 Goal=   None    Shift=    0.000
 RMSDP=3.64D-05 MaxDP=1.53D-03 DE=-1.27D-02 OVMax= 2.16D-03

 Cycle   7  Pass 0  IDiag  1:
 RMSU=  1.95D-05    CP:  9.26D-01  9.84D-01  7.92D-01  3.14D-01  8.70D-01
                    CP:  6.04D-01
 E= -1226.24218496001     Delta-E=       -0.000084522898 Rises=F Damp=F
 DIIS: error= 1.35D-04 at cycle   7 NSaved=   7.
 NSaved= 7 IEnMin= 7 EnMin= -1226.24218496001     IErMin= 7 ErrMin= 1.35D-04
 ErrMax= 1.35D-04  0.00D+00 EMaxC= 1.00D-01 BMatC= 7.80D-06 BMatP= 8.16D-05
 IDIUse=3 WtCom= 9.99D-01 WtEn= 1.35D-03
 Coeff-Com:  0.815D-03-0.301D-02 0.559D-01-0.252D-01 0.214D+00 0.310D+00
 Coeff-Com:  0.448D+00
 Coeff-En:   0.000D+00 0.000D+00 0.000D+00 0.000D+00 0.000D+00 0.000D+00
 Coeff-En:   0.100D+01
 Coeff:      0.814D-03-0.301D-02 0.558D-01-0.252D-01 0.214D+00 0.309D+00
 Coeff:      0.449D+00
 Gap=     0.224 Goal=   None    Shift=    0.000
 RMSDP=9.32D-06 MaxDP=3.30D-04 DE=-8.45D-05 OVMax= 8.25D-04

 Initial convergence to 1.0D-05 achieved.  Increase integral accuracy.
 Cycle   8  Pass 1  IDiag  1:
 E= -1226.24215581068     Delta-E=        0.000029149327 Rises=F Damp=F
 DIIS: error= 2.29D-04 at cycle   1 NSaved=   1.
 NSaved= 1 IEnMin= 1 EnMin= -1226.24215581068     IErMin= 1 ErrMin= 2.29D-04
 ErrMax= 2.29D-04  0.00D+00 EMaxC= 1.00D-01 BMatC= 9.93D-06 BMatP= 9.93D-06
 IDIUse=3 WtCom= 9.98D-01 WtEn= 2.29D-03
 Coeff-Com:  0.100D+01
 Coeff-En:   0.100D+01
 Coeff:      0.100D+01
 Gap=     0.224 Goal=   None    Shift=    0.000
 RMSDP=9.32D-06 MaxDP=3.30D-04 DE= 2.91D-05 OVMax= 7.51D-04

 Cycle   9  Pass 1  IDiag  1:
 RMSU=  2.03D-04    CP:  1.00D+00
 E= -1226.24216507768     Delta-E=       -0.000009266998 Rises=F Damp=F
 DIIS: error= 7.29D-05 at cycle   2 NSaved=   2.
 NSaved= 2 IEnMin= 2 EnMin= -1226.24216507768     IErMin= 2 ErrMin= 7.29D-05
 ErrMax= 7.29D-05  0.00D+00 EMaxC= 1.00D-01 BMatC= 2.06D-06 BMatP= 9.93D-06
 IDIUse=1 WtCom= 1.00D+00 WtEn= 0.00D+00
 Coeff-Com:  0.213D+00 0.787D+00
 Coeff:      0.213D+00 0.787D+00
 Gap=     0.224 Goal=   None    Shift=    0.000
 RMSDP=1.07D-05 MaxDP=4.67D-04 DE=-9.27D-06 OVMax= 8.74D-04

 Cycle  10  Pass 1  IDiag  1:
 RMSU=  1.05D-05    CP:  1.00D+00  1.01D+00
 E= -1226.24216233721     Delta-E=        0.000002740475 Rises=F Damp=F
 DIIS: error= 1.06D-04 at cycle   3 NSaved=   3.
 NSaved= 3 IEnMin= 2 EnMin= -1226.24216507768     IErMin= 2 ErrMin= 7.29D-05
 ErrMax= 1.06D-04  0.00D+00 EMaxC= 1.00D-01 BMatC= 4.79D-06 BMatP= 2.06D-06
 IDIUse=3 WtCom= 4.92D-01 WtEn= 5.08D-01
 Coeff-Com: -0.139D-02 0.605D+00 0.396D+00
 Coeff-En:   0.000D+00 0.649D+00 0.351D+00
 Coeff:     -0.686D-03 0.627D+00 0.373D+00
 Gap=     0.224 Goal=   None    Shift=    0.000
 RMSDP=6.09D-06 MaxDP=2.80D-04 DE= 2.74D-06 OVMax= 4.99D-04

 Cycle  11  Pass 1  IDiag  1:
 RMSU=  1.19D-06    CP:  1.00D+00  1.01D+00  4.38D-01
 E= -1226.24216714766     Delta-E=       -0.000004810456 Rises=F Damp=F
 DIIS: error= 1.13D-05 at cycle   4 NSaved=   4.
 NSaved= 4 IEnMin= 4 EnMin= -1226.24216714766     IErMin= 4 ErrMin= 1.13D-05
 ErrMax= 1.13D-05  0.00D+00 EMaxC= 1.00D-01 BMatC= 6.42D-08 BMatP= 2.06D-06
 IDIUse=1 WtCom= 1.00D+00 WtEn= 0.00D+00
 Coeff-Com: -0.426D-02 0.366D+00 0.212D+00 0.426D+00
 Coeff:     -0.426D-02 0.366D+00 0.212D+00 0.426D+00
 Gap=     0.224 Goal=   None    Shift=    0.000
 RMSDP=7.49D-07 MaxDP=2.82D-05 DE=-4.81D-06 OVMax= 6.36D-05

 Cycle  12  Pass 1  IDiag  1:
 RMSU=  3.76D-07    CP:  1.00D+00  1.01D+00  4.00D-01  5.78D-01
 E= -1226.24216721283     Delta-E=       -0.000000065172 Rises=F Damp=F
 DIIS: error= 1.48D-06 at cycle   5 NSaved=   5.
 NSaved= 5 IEnMin= 5 EnMin= -1226.24216721283     IErMin= 5 ErrMin= 1.48D-06
 ErrMax= 1.48D-06  0.00D+00 EMaxC= 1.00D-01 BMatC= 1.62D-09 BMatP= 6.42D-08
 IDIUse=1 WtCom= 1.00D+00 WtEn= 0.00D+00
 Coeff-Com: -0.255D-02 0.203D+00 0.115D+00 0.260D+00 0.424D+00
 Coeff:     -0.255D-02 0.203D+00 0.115D+00 0.260D+00 0.424D+00
 Gap=     0.224 Goal=   None    Shift=    0.000
 RMSDP=1.54D-07 MaxDP=5.25D-06 DE=-6.52D-08 OVMax= 1.03D-05

 Cycle  13  Pass 1  IDiag  1:
 RMSU=  1.29D-07    CP:  1.00D+00  1.01D+00  4.01D-01  5.74D-01  7.80D-01
 E= -1226.24216721439     Delta-E=       -0.000000001557 Rises=F Damp=F
 DIIS: error= 2.89D-07 at cycle   6 NSaved=   6.
 NSaved= 6 IEnMin= 6 EnMin= -1226.24216721439     IErMin= 6 ErrMin= 2.89D-07
 ErrMax= 2.89D-07  0.00D+00 EMaxC= 1.00D-01 BMatC= 7.64D-11 BMatP= 1.62D-09
 IDIUse=1 WtCom= 1.00D+00 WtEn= 0.00D+00
 Coeff-Com: -0.838D-03 0.633D-01 0.355D-01 0.869D-01 0.220D+00 0.595D+00
 Coeff:     -0.838D-03 0.633D-01 0.355D-01 0.869D-01 0.220D+00 0.595D+00
 Gap=     0.224 Goal=   None    Shift=    0.000
 RMSDP=3.33D-08 MaxDP=1.62D-06 DE=-1.56D-09 OVMax= 2.00D-06

 Cycle  14  Pass 1  IDiag  1:
 RMSU=  2.93D-08    CP:  1.00D+00  1.01D+00  4.00D-01  5.72D-01  8.01D-01
                    CP:  9.10D-01
 E= -1226.24216721447     Delta-E=       -0.000000000079 Rises=F Damp=F
 DIIS: error= 5.88D-08 at cycle   7 NSaved=   7.
 NSaved= 7 IEnMin= 7 EnMin= -1226.24216721447     IErMin= 7 ErrMin= 5.88D-08
 ErrMax= 5.88D-08  0.00D+00 EMaxC= 1.00D-01 BMatC= 5.30D-12 BMatP= 7.64D-11
 IDIUse=1 WtCom= 1.00D+00 WtEn= 0.00D+00
 Coeff-Com: -0.146D-03 0.102D-01 0.559D-02 0.157D-01 0.604D-01 0.270D+00
 Coeff-Com:  0.639D+00
 Coeff:     -0.146D-03 0.102D-01 0.559D-02 0.157D-01 0.604D-01 0.270D+00
 Coeff:      0.639D+00
 Gap=     0.224 Goal=   None    Shift=    0.000
 RMSDP=1.14D-08 MaxDP=5.23D-07 DE=-7.87D-11 OVMax= 4.55D-07

 Cycle  15  Pass 1  IDiag  1:
 RMSU=  7.09D-09    CP:  1.00D+00  1.01D+00  4.00D-01  5.76D-01  8.06D-01
                    CP:  9.16D-01  7.84D-01
 E= -1226.24216721447     Delta-E=        0.000000000003 Rises=F Damp=F
 DIIS: error= 2.92D-08 at cycle   8 NSaved=   8.
 NSaved= 8 IEnMin= 7 EnMin= -1226.24216721447     IErMin= 8 ErrMin= 2.92D-08
 ErrMax= 2.92D-08  0.00D+00 EMaxC= 1.00D-01 BMatC= 9.76D-13 BMatP= 5.30D-12
 IDIUse=1 WtCom= 1.00D+00 WtEn= 0.00D+00
 Coeff-Com:  0.650D-05-0.963D-03-0.612D-03-0.430D-03 0.107D-01 0.877D-01
 Coeff-Com:  0.359D+00 0.545D+00
 Coeff:      0.650D-05-0.963D-03-0.612D-03-0.430D-03 0.107D-01 0.877D-01
 Coeff:      0.359D+00 0.545D+00
 Gap=     0.224 Goal=   None    Shift=    0.000
 RMSDP=3.52D-09 MaxDP=1.53D-07 DE= 2.73D-12 OVMax= 2.70D-07

 SCF Done:  E(RB3LYP) =  -1226.24216721     A.U. after   15 cycles
            NFock= 15  Conv=0.35D-08     -V/T= 2.0092
 KE= 1.215122554181D+03 PE=-8.581179817551D+03 EE= 3.272893365174D+03
 Leave Link  502 at Sun Feb 25 17:46:07 2024, MaxMem=  7516192768 cpu:            1207.6 elap:              30.7
 (Enter /public/apps/g16-C01//g16/l601.exe)
 Copying SCF densities to generalized density rwf, IOpCl= 0 IROHF=0.

 **********************************************************************

            Population analysis using the SCF Density.

 **********************************************************************

 Alpha  occ. eigenvalues --  -19.17063 -19.16063 -14.29915 -14.29183 -10.27042
 Alpha  occ. eigenvalues --  -10.26361 -10.24328 -10.23620 -10.21425 -10.20940
 Alpha  occ. eigenvalues --  -10.20904 -10.18643 -10.18482 -10.18281 -10.18038
 Alpha  occ. eigenvalues --  -10.18015 -10.17977 -10.17934 -10.17905 -10.17886
 Alpha  occ. eigenvalues --  -10.17817 -10.17769 -10.17720 -10.17710 -10.17640
 Alpha  occ. eigenvalues --  -10.17634 -10.17133 -10.16969 -10.16814  -1.09114
 Alpha  occ. eigenvalues --   -1.08285  -0.90815  -0.89841  -0.87115  -0.86081
 Alpha  occ. eigenvalues --   -0.84644  -0.80580  -0.80200  -0.75969  -0.74967
 Alpha  occ. eigenvalues --   -0.74018  -0.71930  -0.70912  -0.70555  -0.68830
 Alpha  occ. eigenvalues --   -0.67867  -0.63295  -0.62334  -0.60354  -0.59097
 Alpha  occ. eigenvalues --   -0.58900  -0.57797  -0.57211  -0.57102  -0.56269
 Alpha  occ. eigenvalues --   -0.53239  -0.52470  -0.51850  -0.50837  -0.50135
 Alpha  occ. eigenvalues --   -0.48803  -0.48234  -0.46688  -0.45867  -0.45312
 Alpha  occ. eigenvalues --   -0.44983  -0.44814  -0.44471  -0.43742  -0.43252
 Alpha  occ. eigenvalues --   -0.42645  -0.42064  -0.41576  -0.41025  -0.40844
 Alpha  occ. eigenvalues --   -0.40571  -0.40380  -0.39268  -0.38786  -0.37409
 Alpha  occ. eigenvalues --   -0.35787  -0.35618  -0.35523  -0.35080  -0.34646
 Alpha  occ. eigenvalues --   -0.34444  -0.34062  -0.33852  -0.33842  -0.33722
 Alpha  occ. eigenvalues --   -0.33293  -0.32971  -0.32694  -0.32113  -0.27108
 Alpha  occ. eigenvalues --   -0.26347  -0.25857  -0.25209  -0.24894  -0.24398
 Alpha  occ. eigenvalues --   -0.24255  -0.23566
 Alpha virt. eigenvalues --   -0.01147  -0.00927  -0.00245   0.00110   0.02478
 Alpha virt. eigenvalues --    0.02981   0.05954   0.06011   0.06666   0.07287
 Alpha virt. eigenvalues --    0.08089   0.08554   0.09008   0.09608   0.10353
 Alpha virt. eigenvalues --    0.11224   0.11339   0.11839   0.12230   0.12756
 Alpha virt. eigenvalues --    0.13324   0.13561   0.13602   0.14566   0.14698
 Alpha virt. eigenvalues --    0.15350   0.15501   0.15642   0.15794   0.16016
 Alpha virt. eigenvalues --    0.16711   0.16948   0.17609   0.18832   0.19016
 Alpha virt. eigenvalues --    0.19050   0.19523   0.20211   0.20882   0.21795
 Alpha virt. eigenvalues --    0.22690   0.24654   0.24814   0.25512   0.26465
 Alpha virt. eigenvalues --    0.26615   0.27383   0.27727   0.28201   0.29053
 Alpha virt. eigenvalues --    0.29510   0.30635   0.31229   0.31805   0.32372
 Alpha virt. eigenvalues --    0.32993   0.33745   0.34518   0.35001   0.36325
 Alpha virt. eigenvalues --    0.36744   0.37110   0.37521   0.39300   0.40833
 Alpha virt. eigenvalues --    0.41539   0.41999   0.42403   0.42555   0.43668
 Alpha virt. eigenvalues --    0.43811   0.45109   0.45660   0.45743   0.45946
 Alpha virt. eigenvalues --    0.46418   0.47258   0.47799   0.48037   0.48436
 Alpha virt. eigenvalues --    0.49221   0.49431   0.49764   0.50609   0.50997
 Alpha virt. eigenvalues --    0.51446   0.52215   0.52570   0.53394   0.53475
 Alpha virt. eigenvalues --    0.55414   0.56059   0.56708   0.57597   0.57918
 Alpha virt. eigenvalues --    0.57934   0.58220   0.59166   0.59535   0.59966
 Alpha virt. eigenvalues --    0.60900   0.61440   0.61914   0.62716   0.62919
 Alpha virt. eigenvalues --    0.63091   0.63896   0.64113   0.64314   0.64731
 Alpha virt. eigenvalues --    0.65445   0.65633   0.65970   0.66441   0.66906
 Alpha virt. eigenvalues --    0.67296   0.67496   0.67787   0.67986   0.68162
 Alpha virt. eigenvalues --    0.68469   0.68743   0.69226   0.69539   0.69605
 Alpha virt. eigenvalues --    0.70093   0.70538   0.70782   0.71006   0.71194
 Alpha virt. eigenvalues --    0.71522   0.71733   0.72078   0.72297   0.72718
 Alpha virt. eigenvalues --    0.72888   0.73501   0.73850   0.74116   0.75069
 Alpha virt. eigenvalues --    0.75327   0.75725   0.76182   0.76381   0.77044
 Alpha virt. eigenvalues --    0.77085   0.77648   0.78756   0.78938   0.79295
 Alpha virt. eigenvalues --    0.79743   0.81244   0.82010   0.83063   0.83563
 Alpha virt. eigenvalues --    0.84801   0.85955   0.86491   0.87060   0.87546
 Alpha virt. eigenvalues --    0.88695   0.89558   0.90054   0.90711   0.91131
 Alpha virt. eigenvalues --    0.91373   0.92286   0.93369   0.94826   0.95130
 Alpha virt. eigenvalues --    0.96814   0.98060   0.99763   1.01178   1.03602
 Alpha virt. eigenvalues --    1.04481   1.06398   1.07994   1.09179   1.10172
 Alpha virt. eigenvalues --    1.11605   1.12439   1.13826   1.14484   1.15985
 Alpha virt. eigenvalues --    1.18880   1.19137   1.20112   1.22278   1.24750
 Alpha virt. eigenvalues --    1.25699   1.26264   1.27410   1.28418   1.28966
 Alpha virt. eigenvalues --    1.29931   1.31215   1.32934   1.34342   1.35125
 Alpha virt. eigenvalues --    1.38065   1.40155   1.42199   1.45153   1.45837
 Alpha virt. eigenvalues --    1.46588   1.47526   1.48524   1.49153   1.49362
 Alpha virt. eigenvalues --    1.49726   1.51375   1.52389   1.53892   1.54620
 Alpha virt. eigenvalues --    1.56318   1.58978   1.62203   1.64297   1.65190
 Alpha virt. eigenvalues --    1.66425   1.66736   1.68883   1.70000   1.72088
 Alpha virt. eigenvalues --    1.72719   1.73930   1.74563   1.76506   1.77294
 Alpha virt. eigenvalues --    1.77928   1.78116   1.78756   1.79548   1.80220
 Alpha virt. eigenvalues --    1.81058   1.82161   1.82551   1.83587   1.84604
 Alpha virt. eigenvalues --    1.86030   1.86199   1.86722   1.87011   1.87653
 Alpha virt. eigenvalues --    1.88718   1.89143   1.89517   1.90728   1.91054
 Alpha virt. eigenvalues --    1.92060   1.92786   1.95126   1.96394   1.98074
 Alpha virt. eigenvalues --    1.98246   1.98418   2.00002   2.00669   2.00715
 Alpha virt. eigenvalues --    2.01536   2.02359   2.03863   2.04683   2.05479
 Alpha virt. eigenvalues --    2.06341   2.06762   2.10185   2.10928   2.12007
 Alpha virt. eigenvalues --    2.12542   2.13797   2.14406   2.14626   2.15977
 Alpha virt. eigenvalues --    2.16884   2.17090   2.18389   2.18553   2.19543
 Alpha virt. eigenvalues --    2.20480   2.20798   2.21220   2.23233   2.23742
 Alpha virt. eigenvalues --    2.25034   2.27670   2.28063   2.31383   2.33083
 Alpha virt. eigenvalues --    2.33290   2.34143   2.34892   2.35436   2.37795
 Alpha virt. eigenvalues --    2.40396   2.40999   2.42546   2.42678   2.44872
 Alpha virt. eigenvalues --    2.47198   2.48654   2.48758   2.50689   2.51606
 Alpha virt. eigenvalues --    2.53545   2.54564   2.55738   2.55939   2.57318
 Alpha virt. eigenvalues --    2.59255   2.61207   2.61638   2.62019   2.63190
 Alpha virt. eigenvalues --    2.65590   2.65874   2.66062   2.69564   2.70106
 Alpha virt. eigenvalues --    2.71139   2.73566   2.74401   2.76366   2.76663
 Alpha virt. eigenvalues --    2.79393   2.79867   2.80676   2.83917   2.84516
 Alpha virt. eigenvalues --    2.85271   2.85481   2.89631   2.90404   2.92155
 Alpha virt. eigenvalues --    2.94332   2.97949   2.99511   3.01603   3.03770
 Alpha virt. eigenvalues --    3.11007   3.11670   3.15180   3.16014   3.25053
 Alpha virt. eigenvalues --    3.26340   3.39924   3.40897   3.43541   3.43719
 Alpha virt. eigenvalues --    3.60959   3.62341
          Condensed to atoms (all electrons):
 Mulliken charges:
               1
     1  C   -0.037150
     2  C   -0.036267
     3  C   -0.123163
     4  C    0.091327
     5  C   -0.026161
     6  C   -0.142956
     7  C    0.046901
     8  C    0.045232
     9  O   -0.288147
    10  C    0.095000
    11  C   -0.180249
    12  C    0.108795
    13  N   -0.143941
    14  C    0.002849
    15  C    0.075772
    16  C   -0.114655
    17  C   -0.040221
    18  C   -0.031851
    19  C   -0.136978
    20  C   -0.021737
    21  C    0.029244
    22  C    0.058931
    23  O   -0.302377
    24  C   -0.041777
    25  C   -0.128877
    26  C   -0.116266
    27  C   -0.046860
    28  N   -0.152452
    29  C    0.005159
    30  H    0.045021
    31  H    0.042557
    32  H    0.032561
    33  H    0.026608
    34  H    0.094561
    35  H    0.077999
    36  H    0.069713
    37  H    0.070730
    38  H    0.042015
    39  H    0.042311
    40  H    0.041893
    41  H    0.025060
    42  H    0.084998
    43  H    0.086138
    44  H    0.070476
    45  H    0.073941
    46  H    0.094210
    47  H    0.066878
    48  H    0.073673
    49  H    0.076139
    50  H    0.067488
    51  H    0.074819
    52  H    0.105109
    53  H    0.067978
 Sum of Mulliken charges =  -0.00000
 Mulliken charges with hydrogens summed into heavy atoms:
               1
     1  C    0.007870
     2  C    0.006290
     3  C   -0.090603
     4  C    0.091327
     5  C   -0.026161
     6  C   -0.116348
     7  C    0.219461
     8  C    0.114946
     9  O   -0.288147
    10  C    0.095000
    11  C   -0.180249
    12  C    0.108795
    13  N   -0.143941
    14  C    0.073579
    15  C    0.075772
    16  C   -0.072640
    17  C    0.002089
    18  C    0.010042
    19  C   -0.111917
    20  C   -0.021737
    21  C    0.200379
    22  C    0.129407
    23  O   -0.302377
    24  C    0.126374
    25  C    0.011674
    26  C    0.027361
    27  C    0.133068
    28  N   -0.152452
    29  C    0.073137
 Electronic spatial extent (au):  <R**2>=           9395.8700
 Charge=             -0.0000 electrons
 Dipole moment (field-independent basis, Debye):
    X=             -0.1377    Y=              0.9463    Z=              0.5036  Tot=              1.0808
 Quadrupole moment (field-independent basis, Debye-Ang):
   XX=           -162.1833   YY=           -159.9823   ZZ=           -163.9658
   XY=              0.4929   XZ=              0.8462   YZ=             -3.6357
 Traceless Quadrupole moment (field-independent basis, Debye-Ang):
   XX=             -0.1395   YY=              2.0615   ZZ=             -1.9220
   XY=              0.4929   XZ=              0.8462   YZ=             -3.6357
 Octapole moment (field-independent basis, Debye-Ang**2):
  XXX=             -5.1833  YYY=             21.9809  ZZZ=              7.9193  XYY=             26.2711
  XXY=            -10.5108  XXZ=             -6.1281  XZZ=            -13.3295  YZZ=              4.1343
  YYZ=              4.3157  XYZ=             -1.8247
 Hexadecapole moment (field-independent basis, Debye-Ang**3):
 XXXX=          -6467.6891 YYYY=          -4450.2022 ZZZZ=          -1738.8489 XXXY=            -12.8151
 XXXZ=             27.1541 YYYX=            -77.0520 YYYZ=            626.3638 ZZZX=            -11.4578
 ZZZY=            600.3448 XXYY=          -1964.5317 XXZZ=          -1365.8483 YYZZ=           -999.3837
 XXYZ=            219.2282 YYXZ=             51.2378 ZZXY=            -20.4677
 N-N= 2.866921730981D+03 E-N=-8.581179809219D+03  KE= 1.215122554181D+03
 No NMR shielding tensors so no spin-rotation constants.
 Leave Link  601 at Sun Feb 25 17:46:08 2024, MaxMem=  7516192768 cpu:               5.4 elap:               0.2
 (Enter /public/apps/g16-C01//g16/l701.exe)
 ... and contract with generalized density number  0.
 Compute integral first derivatives.
 R6Disp: Adding Grimme-D3(BJ) dispersion energy 1st derivatives to the gradient.
   1 Symmetry operations used in ECPInt.
 ECPInt:  NShTT=   24753 NPrTT=   99239 LenC2=   22995 LenP2D=   60646.
 LDataN:  DoStor=T MaxTD1= 5 Len=  102
 Leave Link  701 at Sun Feb 25 17:46:08 2024, MaxMem=  7516192768 cpu:               8.5 elap:               0.2
 (Enter /public/apps/g16-C01//g16/l702.exe)
 L702 exits ... SP integral derivatives will be done elsewhere.
 Leave Link  702 at Sun Feb 25 17:46:08 2024, MaxMem=  7516192768 cpu:               0.2 elap:               0.0
 (Enter /public/apps/g16-C01//g16/l703.exe)
 Integral derivatives from FoFJK, PRISM(SPDF).
 Compute integral first derivatives, UseDBF=F ICtDFT=           0.
 Calling FoFJK, ICntrl=      2127 FMM=F ISym2X=0 I1Cent= 0 IOpClX= 0 NMat=1 NMatS=1 NMatT=0.
 FoFJK:  IHMeth= 1 ICntrl=    2127 DoSepK=F KAlg= 0 I1Cent=           0 FoldK=F
 IRaf=         0 NMat=       1 IRICut=       1 DoRegI=T DoRafI=F ISym2E= 0 IDoP0=0 IntGTp=1.
 FoFCou: FMM=F IPFlag=           0 FMFlag=      100000 FMFlg1=         800
         NFxFlg=           0 DoJE=F BraDBF=F KetDBF=F FulRan=T
         wScrn=  0.000000 ICntrl=      2127 IOpCl=  0 I1Cent=           0 NGrid=           0
         NMat0=    1 NMatS0=      1 NMatT0=    0 NMatD0=    1 NMtDS0=    0 NMtDT0=    0
 Symmetry not used in FoFCou.
 Leave Link  703 at Sun Feb 25 17:46:15 2024, MaxMem=  7516192768 cpu:             301.2 elap:               7.6
 (Enter /public/apps/g16-C01//g16/l716.exe)
 Dipole        =-5.41837585D-02 3.72295869D-01 1.98146099D-01
 -------------------------------------------------------------------
 Center     Atomic                   Forces (Hartrees/Bohr)
 Number     Number              X              Y              Z
 -------------------------------------------------------------------
      1        6          -0.004671398    0.001562310    0.003076088
      2        6          -0.001950865   -0.001399079   -0.005747688
      3        6          -0.000130995   -0.000476229   -0.001767366
      4        6           0.005823344   -0.002787135    0.002584866
      5        6           0.004318944   -0.000656196    0.003153516
      6        6          -0.001999305    0.000508527    0.002176625
      7        6           0.002316389    0.000066413   -0.002861818
      8        6          -0.005742250   -0.004681066    0.004213492
      9        8           0.007896586    0.004246432    0.004426325
     10        6           0.002303986   -0.003733888   -0.002345075
     11        6          -0.004060512    0.004491386    0.000488599
     12        6           0.002530890    0.000259214    0.001734959
     13        7          -0.006606987   -0.009313036    0.010199376
     14        6          -0.000376889    0.000484170   -0.002701031
     15        6           0.004693673    0.004755443    0.003007327
     16        6          -0.000781326   -0.000699637    0.001976854
     17        6          -0.003460503   -0.003511342    0.003690452
     18        6          -0.002766410    0.001214102   -0.004855111
     19        6          -0.000653814    0.000842749   -0.002638363
     20        6           0.004752428    0.002462042    0.000745697
     21        6           0.000991924   -0.003093120    0.003697449
     22        6          -0.006022706    0.009674524    0.000176921
     23        8           0.009553162   -0.002869857   -0.004864303
     24        6           0.004882194    0.001505538   -0.001507823
     25        6          -0.003475407   -0.004099411   -0.000089953
     26        6          -0.001978846    0.007048422    0.001572171
     27        6           0.003689327   -0.004846439    0.000173584
     28        7           0.000365795   -0.001600968   -0.015463544
     29        6           0.000795696    0.001316609    0.001395013
     30        1          -0.009756790    0.002193672    0.001083379
     31        1          -0.006745164   -0.000817225   -0.007586020
     32        1           0.003169234   -0.003077526   -0.009511839
     33        1          -0.003481774    0.003232246    0.008765904
     34        1           0.001831626    0.006267165    0.003372002
     35        1          -0.001289768   -0.003742751    0.007876172
     36        1           0.002761047   -0.002929749    0.002257771
     37        1          -0.000931959    0.003846990    0.005567933
     38        1          -0.000706912   -0.005692213    0.008137994
     39        1          -0.008009396   -0.005923285    0.002002710
     40        1          -0.007861059   -0.000786127   -0.006574407
     41        1           0.000154476    0.004800967   -0.009062906
     42        1          -0.000215746    0.008749506   -0.001359407
     43        1           0.004830371    0.000093931   -0.006542340
     44        1           0.002512860    0.003191268    0.001969771
     45        1           0.000248333    0.005794597    0.005444574
     46        1           0.000315184   -0.003795848    0.006056930
     47        1           0.003222963    0.007779114   -0.002684008
     48        1           0.008677551   -0.002328682    0.003509995
     49        1           0.005268684   -0.001015320   -0.008244855
     50        1           0.000294755   -0.009641568    0.001104658
     51        1          -0.000089065    0.006321376   -0.003248468
     52        1          -0.005512726   -0.002811462   -0.005249192
     53        1           0.001077150   -0.006379556   -0.000733588
 -------------------------------------------------------------------
 Cartesian Forces:  Max     0.015463544 RMS     0.004576235
 Leave Link  716 at Sun Feb 25 17:46:16 2024, MaxMem=  7516192768 cpu:               0.4 elap:               0.0
 (Enter /public/apps/g16-C01//g16/l103.exe)

 GradGradGradGradGradGradGradGradGradGradGradGradGradGradGradGradGradGrad
[...]
 0039,0.00000354,0.00000114,0.00000083,-0.00000066,0.00000533,0.0000029
 1,0.00000304,0.00000211,0.00000403,-0.00000495,-0.00000401,-0.00001415
 ,-0.00002148,-0.00002422,0.00008952,0.00004663,-0.00171199,0.00013844,
 -0.00250718,-0.00779139,-0.02644171,-0.00628336,-0.00419159,-0.0317974
 5,-0.05217493,-0.00121949,0.00181322,-0.00045158,-0.00004621,0.0003806
 0,0.00019831,0.00008720,0.00022743,-0.00005329,-0.00000604,-0.00000035
 ,-0.00000014,-0.00000911,-0.00000026,-0.00000249,0.00000644,-0.0000027
 2,0.00000155,-0.00000472,0.00000120,0.00000536,-0.00000656,0.00000096,
 0.00000127,-0.00001441,-0.00000351,0.00000986,-0.00000523,-0.00000657,
 -0.00001169,-0.00000107,-0.00000894,0.00000361,-0.00000004,-0.00000576
 ,-0.00000246,0.00000364,-0.00000169,0.00000283,-0.00000146,0.00000025,
 -0.00000131,0.00000122,0.00000152,-0.00000037,-0.00000258,0.00000213,0
 .00000117,0.00000196,-0.00000415,0.00000309,-0.00000258,0.00001167,0.0
 0000134,0.00012792,-0.00007546,0.00003503,0.00045302,-0.00043188,-0.00
 024901,-0.00098262,-0.00114744,-0.00304323,-0.00011639,-0.00059993,0.0
 0137520,0.00430987,0.02318764,0.00444752,0.01155841,0.03414994,0.05799
 296,-0.00003506,0.00001661,-0.00000927,-0.00000614,0.00000958,0.000003
 01,-0.00000803,0.00001274,0.00000981,0.00008203,-0.00004958,-0.0000122
 0,-0.00003637,0.00001187,0.00002048,0.00000585,0.00001552,-0.00000842,
 0.00001390,-0.00004848,0.00001198,0.00018994,0.00003083,0.00019215,-0.
 00046670,-0.00086941,0.00064335,0.00003778,0.00049820,0.00136581,-0.00
 349489,-0.00893059,0.00346447,-0.00016759,-0.00257555,0.00090391,0.000
 19006,0.00049717,-0.00022973,0.00006240,-0.00001155,0.00000666,0.00000
 080,0.00000567,-0.00002241,-0.00000180,-0.00002053,0.00002719,0.000007
 92,0.00001619,0.00000416,0.00000310,-0.00000276,0.00000125,0.00002115,
 0.00001235,-0.00003010,-0.00004018,-0.00006800,0.00000015,-0.00002599,
 -0.00004349,0.00007106,-0.00045985,0.00056974,-0.00001840,-0.00013903,
 0.00081591,-0.00030831,0.00016818,-0.00005773,-0.00077077,-0.00019406,
 0.00012763,0.00059840,0.00421905,0.02758296,-0.00712552,-0.05739243,-0
 .04694639,0.01130307,-0.00035011,-0.00074052,0.00058640,0.00024899,0.0
 0036910,0.00013385,-0.00001386,-0.00000429,0.00000342,-0.00001469,-0.0
 0000599,-0.00000545,0.00001922,0.00000633,0.00000882,-0.00000719,-0.00
 000174,0.00001164,0.00000425,-0.00000242,0.00001133,-0.00003336,0.0000
 0588,0.00001870,-0.00004955,-0.00006827,0.00008080,0.00003272,0.000039
 01,-0.00001939,-0.00000040,-0.00001354,-0.00000665,0.00002018,0.000002
 10,0.00000644,0.00000686,0.00000356,0.00000513,-0.00001031,0.00000800,
 -0.00000275,0.00004789,-0.00001256,-0.00002491,-0.00002334,0.00015628,
 -0.00006786,0.00007299,-0.00009757,-0.00005431,0.00036584,0.00000566,-
 0.00047655,-0.00006534,0.00004282,0.00014268,-0.00016818,0.00007149,-0
 .00021450,0.00000788,-0.00019432,-0.00000136,0.00190775,-0.00020051,0.
 00001967,-0.00411992,0.00300800,-0.00077569,0.06194124,-0.00001792,0.0
 0000705,-0.00000516,-0.00000123,0.00000608,0.00000622,-0.00000318,0.00
 000462,0.00000412,0.00004454,-0.00002142,0.00000550,-0.00002664,0.0000
 0434,0.00000186,0.00000614,0.00000581,-0.00000263,0.00001099,-0.000004
 01,0.00000544,0.00003822,0.00004820,0.00000326,0.00006892,0.00019220,0
 .00000482,-0.00006503,0.00028370,-0.00134069,-0.00038343,0.00179461,-0
 .00087182,0.00046380,-0.00095020,0.00094603,-0.00011775,0.00020679,-0.
 00010259,0.00006406,-0.00010994,-0.00007499,0.00000574,0.00003717,-0.0
 0000885,-0.00000047,-0.00000364,0.00000795,0.00000252,0.00000645,0.000
 00148,-0.00000323,-0.00000258,-0.00000599,0.00000879,-0.00000204,-0.00
 001217,-0.00003134,-0.00002563,-0.00000271,-0.00006383,0.00003127,0.00
 005361,-0.00005421,0.00019068,-0.00027019,0.00181998,-0.00101808,-0.00
 226173,0.00020061,0.00008974,-0.00066593,0.00025031,-0.00044693,-0.000
 03952,-0.00212806,-0.01428959,0.00313828,-0.04871592,-0.28145159,0.076
 71230,-0.00007372,-0.00010483,0.00054013,0.00012683,0.00017784,0.00003
 118,-0.00000732,-0.00000126,0.00000207,-0.00000810,-0.00000264,-0.0000
 0319,0.00001328,0.00000265,0.00000638,-0.00000409,0.00000022,0.0000061
 5,-0.00000195,0.00000074,0.00000238,-0.00000980,-0.00000045,0.00000744
 ,0.00000622,0.00001249,0.00001968,0.00002999,0.00001090,-0.00000791,0.
 00000300,-0.00000585,-0.00000316,0.00000742,-0.00000017,0.00000209,-0.
 00000124,0.00000097,0.00000069,-0.00000693,0.00000856,-0.00000557,0.00
 000494,0.00000568,-0.00001328,0.00004392,0.00000135,0.00001708,0.00001
 827,-0.00001200,-0.00001248,0.00007659,0.00048495,-0.00007195,0.000060
 47,0.00025600,0.00006592,0.00016232,-0.00003441,0.00020998,0.00000567,
 0.00010158,0.00010924,-0.00014552,0.00139643,-0.00033910,0.00304688,-0
 .00043304,0.00058667,0.04671771,0.30259883,0.00002793,-0.00001133,0.00
 000468,0.00001157,-0.00000873,0.00001159,0.00001447,-0.00001983,-0.000
 03440,-0.00005982,0.00007107,-0.00001564,0.00003127,-0.00001202,-0.000
 04267,-0.00000245,-0.00001252,0.00001810,0.00000518,0.00007977,0.00000
 839,-0.00041829,-0.00002676,-0.00020636,0.00131508,0.00205548,-0.00082
 033,-0.00087024,-0.00361555,-0.00527171,0.00790583,0.02995146,-0.01217
 783,0.00038166,0.00274097,0.00009578,-0.00025402,-0.00035215,0.0002496
 3,-0.00015603,0.00003658,0.00001620,-0.00000162,-0.00002077,0.00006666
 ,-0.00000668,0.00001941,-0.00004440,-0.00000609,-0.00001276,-0.0000013
 1,-0.00001224,-0.00000711,-0.00001654,-0.00001299,-0.00002777,0.000016
 48,0.00001997,0.00003858,-0.00002418,-0.00000804,0.00000735,0.00003956
 ,0.00051097,-0.00084935,0.00017736,-0.00051757,-0.00032219,0.00038486,
 0.00062357,0.00054908,0.00138421,-0.00026001,-0.00019927,-0.00010693,0
 .00086903,-0.00369531,0.00019984,0.01019863,0.07196377,-0.07212744,-0.
 00029050,0.00013652,0.00066282,0.00006503,0.00001335,0.00012727,0.0000
 1084,0.00000395,-0.00000006,0.00001238,0.00000392,0.00000366,-0.000003
 28,0.00000782,0.00000317,0.00000606,0.00000084,-0.00000904,-0.00000605
 ,-0.00000168,0.00000039,0.00003816,-0.00000523,-0.00001615,0.00012631,
 0.00015022,-0.00003953,-0.00004217,-0.00004266,0.00001291,0.00000290,0
 .00001372,0.00000442,-0.00001570,-0.00000069,-0.00000767,-0.00000945,-
 0.00000201,-0.00000301,-0.00000264,0.00000765,-0.00000507,-0.00003117,
 0.00001207,-0.00001988,0.00002446,-0.00002708,0.00002265,-0.00007464,0
 .00009091,0.00004429,-0.00048702,-0.00030575,-0.00051396,0.00018379,-0
 .00036656,0.00015622,-0.00007683,0.00010809,0.00000815,0.00006664,-0.0
 0004899,0.00005746,-0.00029571,-0.00065755,0.00062372,0.00097419,-0.00
 083200,0.00073234,-0.01801543,-0.07989230,0.07901137,0.00000102,-0.000
 00256,-0.00000349,-0.00000868,0.00000765,0.00000042,0.00001053,0.00001
 016,-0.00001077,0.00001206,-0.00000987,0.00001425,-0.00000067,0.000006
 86,-0.00000259,0.00000566,-0.00000029,0.00000373,0.00001688,0.00000123
 ,0.00002278,-0.00010419,-0.00008623,0.00005561,0.00019910,0.00011200,-
 0.00029862,0.00007495,-0.00088464,-0.00056696,0.00807592,0.00582420,0.
 00580930,0.00113118,-0.00000395,-0.00005830,-0.00026110,-0.00009744,-0
 .00016069,-0.00000249,0.00000503,0.00002324,0.00000543,-0.00000753,0.0
 0000132,0.,-0.00000737,0.00000691,-0.00000135,-0.00000880,-0.00000398,
 -0.00000191,-0.00000041,-0.00000461,0.00000262,-0.00000416,-0.00000647
 ,0.00000304,0.00003097,0.00000351,0.00000897,0.00000542,-0.00000289,-0
 .00001995,-0.00000279,-0.00004680,0.00000777,-0.00005834,-0.00001636,-
 0.00096008,0.00036382,0.00216484,-0.00249855,0.00159655,0.00077952,-0.
 01457364,-0.00905556,-0.01380839,-0.19308129,-0.07905258,-0.11299812,-
 0.00099656,-0.00094617,0.00166698,-0.00006307,0.00011401,0.00011496,0.
 00000215,-0.00000056,-0.00000057,0.00000192,-0.00000094,0.00000129,-0.
 00000757,-0.00001724,-0.00000423,0.00000061,0.00000025,-0.00000160,0.0
 0000167,0.00000338,0.00000146,-0.00000154,0.00000135,-0.00000014,0.000
 00198,0.00000515,0.00000752,-0.00000532,-0.00000283,-0.00000022,-0.000
 00197,0.00000139,0.00000309,-0.00000203,0.00000066,-0.00000015,0.00000
 216,-0.00000022,0.00000078,0.00000299,-0.00000535,0.00000335,-0.000007
 15,-0.00000181,0.00000125,-0.00000299,-0.00002083,0.00000097,0.0000018
 6,0.00000127,0.00000132,-0.00016172,-0.00005960,0.00008475,0.00076744,
 -0.00015375,0.00020189,-0.00029376,-0.00005743,-0.00063909,-0.00029976
 ,-0.00004906,-0.00054817,-0.00082498,0.00032272,0.00021339,0.00144754,
 -0.00030315,0.00004955,-0.00232033,-0.00143646,-0.00154017,0.20469710,
 0.00003654,-0.00001508,0.00000826,0.00000576,-0.00001283,-0.00001024,0
 .00001024,-0.00001137,0.00000672,-0.00008287,0.00002403,0.00001936,0.0
 0004092,-0.00001017,-0.00002134,-0.00000649,-0.00001048,0.00000789,-0.
 00001888,-0.00000006,0.00001107,-0.00013004,-0.00010434,-0.00001259,-0
 .00008619,0.00025740,-0.00100941,0.00031257,0.00007657,0.00115833,-0.0
 0023271,-0.00103923,-0.00042458,-0.00065943,0.00015628,-0.00038823,0.0
 0024722,-0.00007588,0.00004663,0.00001007,-0.00005992,-0.00005299,-0.0
 0001190,0.00002962,-0.00004646,0.00001223,0.00002836,-0.00000718,0.000
 00905,0.00000364,0.00000272,0.00001080,0.00001284,0.00001864,-0.000009
 55,0.00001625,0.00004481,-0.00001543,-0.00001002,0.00002086,0.00000921
 ,-0.00001649,-0.00004793,-0.00001117,0.00007238,-0.00011125,0.00041570
 ,-0.00030285,0.00024681,0.00116528,-0.00028619,-0.00039468,0.00334422,
 -0.00125565,0.00068091,0.01287729,0.00734710,0.01199379,-0.08216757,-0
 .09304077,-0.06472274,-0.00004716,-0.00108899,0.00125968,-0.00025606,-
 0.00022619,-0.00007031,0.00001294,0.00000316,-0.00000380,0.00001591,0.
 00000708,0.00000522,-0.00003263,-0.00000534,-0.00001264,0.00000640,0.0
 0000013,-0.00001026,0.00000666,0.00000339,-0.00001121,0.00001854,0.000
 00379,-0.00001228,0.00000478,0.00001844,-0.00002045,0.00000892,0.00001
 064,0.00000929,0.00000006,0.00000999,0.00000216,-0.00001243,-0.0000020
 5,-0.00000504,0.00000307,-0.00000286,-0.00000361,0.00001170,-0.0000179
 3,0.00000294,-0.00000736,0.00000390,0.00002867,-0.00002827,-0.00005624
 ,0.00001049,-0.00000190,0.00000262,0.00001488,0.00025022,0.00028683,0.
 00019154,-0.00014734,0.00033247,0.00014576,0.00031266,0.00005532,0.000
 65918,0.00026028,0.00000881,0.00050688,0.00029649,-0.00006584,-0.00029
 291,-0.00002507,0.00108041,0.00057310,-0.01963887,-0.00903970,-0.01675
 060,0.08389710,0.09688015,-0.00003467,0.00000951,-0.00001024,0.0000001
 3,-0.00000054,0.00001270,-0.00001117,0.00001684,0.00002484,0.00009294,
 -0.00001466,-0.00003706,-0.00006033,0.00000858,-0.00000535,0.00001358,
 0.00000427,-0.00000761,0.00002699,0.00000486,0.00000626,0.00003798,-0.
 00006412,0.00022797,0.00012988,-0.00016440,0.00131551,-0.00177956,-0.0
 0147704,-0.00103878,-0.02075766,-0.01181013,-0.01617594,-0.00197181,0.
 00117275,0.00009836,0.00085329,-0.00005188,0.00001006,0.00006272,0.000
 02668,-0.00005654,-0.00000833,-0.00002899,-0.00004697,0.00000870,0.000
 00632,0.00002068,-0.00000361,0.00001279,0.00000103,0.00000954,-0.00000
 480,0.00001414,0.00000622,0.00000957,0.00001067,0.00000654,-0.00001914
 ,0.00001412,-0.00001128,-0.00000981,-0.00001346,-0.00005713,-0.0000629
 5,-0.00006139,0.00015435,-0.00017700,0.00007951,0.00108394,0.00081912,
 -0.00548964,0.00059443,-0.00077087,-0.00077359,0.00312710,0.00152624,0
 .00257737,-0.10792588,-0.05916711,-0.13117388,-0.00027500,-0.00058520,
 0.00040174,0.00065263,0.00056279,0.00044330,-0.00001206,-0.00000027,0.
 00000212,-0.00001552,-0.00000025,-0.00000508,0.00002687,0.00001443,0.0
 0001609,-0.00000940,0.00000190,0.00001167,-0.00001944,-0.00000345,0.00
 001514,-0.00002069,-0.00000092,0.00002125,0.00001146,-0.00000329,0.000
 08871,0.00000725,-0.00003393,0.00000633,0.00000036,-0.00001406,-0.0000
 1041,0.00001044,-0.00000306,0.00000523,-0.00000279,0.00000017,-0.00000
 229,0.00000064,0.00000496,-0.00000215,0.00000460,0.00000341,0.00000847
 ,0.00000433,-0.00000668,0.00000938,0.00001554,0.00000562,-0.00000479,0
 .00013081,-0.00011430,0.00016061,-0.00162699,-0.00031673,-0.00064037,-
 0.00013821,0.00017141,-0.00002223,0.00000816,0.00005606,0.00009515,-0.
 00008756,0.00009633,-0.00033533,-0.00030143,0.00013565,0.00046610,0.00
 854543,0.00351877,0.00739709,0.11951149,0.06676317,0.14236171,-0.00027
 608,0.00022245,-0.00015388,-0.00035052,-0.00072535,0.00065697,0.001589
 56,-0.00058249,0.00117312,-0.00991158,0.02906334,0.01040641,-0.0034686
 0,0.00044109,-0.00111783,-0.00019627,-0.00092773,0.00105719,-0.0009662
 5,0.00042402,-0.00108200,0.00457949,-0.00933911,-0.00298187,-0.0013961
 0,-0.00212931,-0.00097891,-0.00017780,-0.00153814,0.00151644,-0.001129
 45,0.00040236,-0.00021321,-0.00007631,0.00035256,-0.00002507,0.0001772
 0,-0.00010558,-0.00003356,-0.00007375,0.00001508,0.00000007,-0.0000389
 3,-0.00000690,-0.00005343,0.00001169,-0.00003785,0.00006646,-0.0000125
 2,0.00001145,-0.00001469,0.00001402,-0.00000206,0.00002129,0.00001147,
 0.00001672,-0.00000960,0.00001651,-0.00000183,0.00000460,-0.00001420,0
 .00000044,-0.00000815,-0.00004308,0.00002591,0.00000814,0.00007400,-0.
 00009327,-0.00000965,-0.00001433,-0.00034921,0.00012864,0.00003712,-0.
 00004372,-0.00001919,0.00001949,-0.00006486,-0.00002472,0.00002184,-0.
 00006155,-0.00007824,0.00336599,-0.01905199,-0.00266087,-0.06087761,0.
 06272014,0.01608392,-0.00000044,0.00007627,-0.00004912,-0.00004394,-0.
 00001045,-0.00003764,0.00001201,0.00035523,-0.00075180,-0.00033497,0.0
 0004440,0.00009324,0.00027794,-0.00006287,0.00009222,0.00033033,-0.000
 09572,-0.00003806,0.00055963,-0.00004471,0.00073350,0.00001241,-0.0000
 1727,-0.00000135,-0.00002588,-0.00006245,-0.00002037,0.00002893,-0.000
 00794,0.00002673,-0.00000025,0.00000199,-0.00000382,0.00000252,0.00000
 566,-0.00000121,0.00001092,0.00000237,0.00000491,0.00000818,0.00000524
 ,0.00000114,0.00000972,-0.00000462,0.00000039,-0.00015011,-0.00003566,
 -0.00001550,0.00004483,0.00001996,0.00003583,-0.00001321,0.00001818,0.
 00001168,-0.00000368,0.00001197,-0.00001846,-0.00001073,0.00002333,0.0
 0001093,0.00000447,0.00002856,0.00003275,-0.00003327,-0.00000077,0.000
 05094,0.00002010,0.00001647,-0.00000781,0.06839950,-0.00013980,0.00014
 726,0.00040114,0.00065566,0.00002571,-0.00014960,-0.00069575,0.0005287
 5,-0.00054574,0.00270510,-0.00040595,-0.00189374,0.00052300,-0.0005620
 1,0.00023124,-0.00017745,-0.00002826,-0.00024914,-0.00030578,0.0003095
 0,0.00000284,0.00134345,-0.00100880,0.00032555,0.00090091,0.00023847,-
 0.00138610,0.00117265,-0.00143308,0.00540352,-0.00126572,0.00035895,-0
 .00047351,-0.00011610,0.00046928,-0.00002282,0.00012938,-0.00019222,-0
 .00004727,-0.00008670,0.00004822,0.00000710,-0.00001644,-0.00001808,-0
 .00003228,0.00000339,-0.00000405,0.00001269,-0.00000505,-0.00000359,-0
 .00000010,0.00000493,0.00000170,0.00000804,0.00000200,0.00000807,-0.00
 000319,0.00001510,-0.00000288,0.00000919,-0.00000925,-0.00000294,-0.00
 000729,-0.00006781,0.00004982,0.00002776,0.00010974,-0.00024860,0.0000
 2593,0.00007494,-0.00043442,0.00023944,0.00005272,-0.00004280,-0.00002
 381,0.00000641,-0.00005046,0.00003031,0.00002384,-0.00005563,-0.000153
 46,-0.00423786,-0.02421195,-0.00134025,0.05855477,-0.26307878,-0.07549
 950,0.00000534,-0.00003529,0.00003934,0.00002929,-0.00001953,-0.000006
 95,0.00017124,-0.00025772,0.00027491,0.00004908,-0.00001266,0.00001082
 ,-0.00001790,0.00001482,0.00000154,0.00011851,-0.00004587,-0.00011877,
 -0.00042661,0.00110805,-0.00018847,0.00001790,-0.00001885,-0.00000386,
 -0.00001850,-0.00000729,0.00000222,0.00000832,0.00000347,0.00000228,0.
 00000654,-0.00000099,0.00000578,-0.00000045,-0.00000342,0.00000523,0.0
 0001179,-0.00000739,0.00000327,0.00000213,0.00000508,0.00000357,0.0000
 0971,-0.00001850,-0.00000544,-0.00019794,-0.00003477,-0.00003967,0.000
 02736,0.00002654,0.00001534,-0.00003057,0.00002096,0.00001689,-0.00000
 593,0.00001515,-0.00001620,-0.00003958,0.00000147,0.00001304,0.0000552
 6,-0.00000522,-0.00002102,-0.00005424,-0.00000790,0.00006394,0.0000267
 2,0.00002488,-0.00004663,-0.05890174,0.28885375,-0.00002085,0.00019483
 ,0.00040915,0.00063236,-0.00004776,-0.00034131,-0.00065539,0.00006756,
 0.00020118,0.00070812,0.00053753,0.00200182,-0.00007443,-0.00010823,-0
 .00069158,-0.00006083,0.00017362,-0.00009804,-0.00113777,-0.00108494,-
 0.00281263,0.00881638,-0.02053190,-0.00491911,-0.00216414,-0.00403957,
 0.00040657,-0.00001392,0.00303179,-0.00519681,0.00121497,-0.00066278,0
 .00045330,0.00016119,-0.00023193,-0.00009543,-0.00012246,0.00007197,0.
 00013949,0.00001980,0.00000178,0.00000083,0.00000579,0.00000846,0.0000
 1653,0.00000652,0.00001358,-0.00002067,0.00000463,-0.00000706,0.000005
 25,-0.00000407,-0.00000135,-0.00000758,-0.00000224,-0.00000596,0.00000
 184,-0.00000414,0.00000331,-0.00000204,0.00000329,0.00000288,0.0000061
 7,0.00002780,-0.00001325,-0.00000796,-0.00009947,0.00003631,0.00003825
 ,-0.00000663,0.00040377,-0.00022782,-0.00004278,-0.00002241,0.00004106
 ,-0.00002311,0.00001094,0.00002069,0.00000872,0.00000127,0.00011962,-0
 .00270029,0.02426750,0.00837809,0.01622239,-0.07692986,-0.07457758,0.0
 0000826,-0.00009260,0.00003157,0.00001827,-0.00001343,0.00000736,0.000
 03376,-0.00021343,-0.00006692,-0.00002579,-0.00004281,0.00003051,0.000
 50085,-0.00029628,-0.00059066,0.00034268,-0.00017456,-0.00031227,0.000
 08391,0.00055172,0.00162471,-0.00001235,0.00002246,0.00000041,-0.00000
 455,0.00000912,0.00000151,-0.00001117,0.00000171,-0.00000431,-0.000001
 48,0.00000039,0.00000091,-0.00000089,-0.00000116,0.00000053,-0.0000054
 8,-0.00000052,-0.00000322,-0.00000224,-0.00000261,0.00000093,-0.000005
 60,0.00000698,0.00000031,0.00014853,0.00003294,0.00008387,0.00003514,-
 0.00000891,0.00003752,0.00000560,0.00000132,-0.00001338,-0.00000455,0.
 00000220,-0.00001585,0.00001467,-0.00000191,-0.00000858,0.00001783,-0.
 00001279,-0.00000283,-0.00000124,-0.00000281,-0.00003714,-0.00002610,0
 .00000297,-0.00001022,-0.02180752,0.07509192,0.07600395\\-0.00001811,0
 .00002061,-0.00006041,-0.00005373,0.00001994,0.00003540,0.00004636,-0.
 00000423,0.00000741,0.00000821,-0.00003046,-0.00003909,0.00002193,0.00
 000637,0.00004025,0.00001883,-0.00000313,0.00003099,-0.00009774,-0.000
 04454,0.00008790,0.00021050,0.00022607,-0.00005664,-0.00007889,-0.0001
 2496,0.00017310,0.00024359,-0.00019044,-0.00036067,-0.00052813,0.00065
 466,0.00029548,-0.00012730,0.00000568,-0.00019399,-0.00003849,0.000072
 31,0.00005960,-0.00006626,-0.00002218,0.00011479,-0.00008116,0.0000138
 6,-0.00001722,0.00005241,0.00000487,0.00004686,-0.00004668,-0.00000493
 ,-0.00006731,-0.00002356,-0.00003194,0.00001554,0.00003385,0.00000527,
 -0.00001601,0.00001502,0.00002207,0.00000903,-0.00005780,0.00001258,-0
 .00005370,0.00021273,-0.00007254,-0.00004112,-0.00011351,-0.00004829,0
 .00017899,-0.00008366,-0.00075289,0.00051114,0.00065567,0.00065147,-0.
 00021161,-0.00014945,-0.00035604,0.00000990,0.00006792,-0.00009272,-0.
 00027500,-0.00005558,0.00002499,-0.00002340,-0.00004688,-0.00001476,-0
 .00002191,-0.00002717,0.00001066,0.00000792,-0.00001030,-0.00000116,-0
 .00002095,-0.00000171,-0.00000930,-0.00002370,-0.00000938,0.00000376,0
 .00002262,0.00001416,0.00002743,-0.00005245,0.00000259,0.00001561,0.00
 001304,-0.00002047,-0.00000086,0.00002749,0.00001926,-0.00000531,0.000
 01781,-0.00002501,-0.00002083,-0.00000476,0.00000709,-0.00001977,0.000
 01520,-0.00001149,0.00000369,-0.00002361,-0.00000068,0.00001690,-0.000
 01828,-0.00000869,0.00001852,0.00001984,0.00000386,0.00000968,-0.00000
 141,-0.00001696,0.00004820,-0.00004103,0.00013118,-0.00010756,-0.00017
 351,-0.00001597,0.00018426,0.00015298,0.00008379,-0.00004296,-0.000145
 85,-0.00011867,-0.00003922,-0.00009390,0.00009597,0.00009005,0.0000675
 7,-0.00006734,-0.00006779,0.00007727,0.00008484,-0.00007407,0.00008375
 ,-0.00004011,0.00001171,-0.00004240,0.00001112,0.00000166,-0.00004196\
 \\@
 The archive entry for this job was punched.


 SCIENCE AT ITS BEST PROVIDES US WITH BETTER QUESTIONS, 
 NOT ABSOLUTE ANSWERS

                                    -- NORMAN COUSINS, 1976
 Job cpu time:       0 days  3 hours 56 minutes 39.4 seconds.
 Elapsed time:       0 days  0 hours  5 minutes 58.5 seconds.
 File lengths (MBytes):  RWF=   1293 Int=      0 D2E=      0 Chk=     20 Scr=      1
 Normal termination of Gaussian 16 at Sun Feb 25 18:19:01 2024.
