 Entering Gaussian System, Link 0=g16
 Initial command:
 /public/apps/g16-C01//g16/l1.exe "/public/home/ljq/tmp/Gau-28152.inp" -scrdir="/public/home/ljq/tmp/"
 Entering Link 1 = /public/apps/g16-C01//g16/l1.exe PID=     28153.
  
 Copyright (c) 1988-2019, Gaussian, Inc.  All Rights Reserved.
  
 This is part of the Gaussian(R) 16 program.  It is based on
 the Gaussian(R) 09 system (copyright 2009, Gaussian, Inc.),
 the Gaussian(R) 03 system (copyright 2003, Gaussian, Inc.),
 the Gaussian(R) 98 system (copyright 1998, Gaussian, Inc.),
 the Gaussian(R) 94 system (copyright 1995, Gaussian, Inc.),
 the Gaussian 92(TM) system (copyright 1992, Gaussian, Inc.),
 the Gaussian 90(TM) system (copyright 1990, Gaussian, Inc.),
 the Gaussian 88(TM) system (copyright 1988, Gaussian, Inc.),
 the Gaussian 86(TM) system (copyright 1986, Carnegie Mellon
 University), and the Gaussian 82(TM) system (copyright 1983,
 Carnegie Mellon University). Gaussian is a federally registered
 trademark of Gaussian, Inc.
  
 This software contains proprietary and confidential information,
 including trade secrets, belonging to Gaussian, Inc.
  
 This software is provided under written license and may be
 used, copied, transmitted, or stored only in accord with that
 written license.
  
 The following legend is applicable only to US Government
 contracts under FAR:
  
                    RESTRICTED RIGHTS LEGEND
  
 Use, reproduction and disclosure by the US Government is
 subject to restrictions as set forth in subparagraphs (a)
 and (c) of the Commercial Computer Software - Restricted
 Rights clause in FAR 52.227-19.
  
 Gaussian, Inc.
 340 Quinnipiac St., Bldg. 40, Wallingford CT 06492
  
  
 ---------------------------------------------------------------
 Warning -- This program may not be used in any manner that
 competes with the business of Gaussian, Inc. or will provide
 assistance to any competitor of Gaussian, Inc.  The licensee
 of this program is prohibited from giving any competitor of
 Gaussian, Inc. access to this program.  By using this program,
 the user acknowledges that Gaussian, Inc. is engaged in the
 business of creating and licensing software in the field of
 computational chemistry and represents and warrants to the
 licensee that it is not a competitor of Gaussian, Inc. and that
 it will not use this program in any manner prohibited above.
 ---------------------------------------------------------------
  

 Cite this work as:
 Gaussian 16, Revision C.01,
 M. J. Frisch, G. W. Trucks, H. B. Schlegel, G. E. Scuseria, 
 M. A. Robb, J. R. Cheeseman, G. Scalmani, V. Barone, 
 G. A. Petersson, H. Nakatsuji, X. Li, M. Caricato, A. V. Marenich, 
 J. Bloino, B. G. Janesko, R. Gomperts, B. Mennucci, H. P. Hratchian, 
 J. V. Ortiz, A. F. Izmaylov, J. L. Sonnenberg, D. Williams-Young, 
 F. Ding, F. Lipparini, F. Egidi, J. Goings, B. Peng, A. Petrone, 
 T. Henderson, D. Ranasinghe, V. G. Zakrzewski, J. Gao, N. Rega, 
 G. Zheng, W. Liang, M. Hada, M. Ehara, K. Toyota, R. Fukuda, 
 J. Hasegawa, M. Ishida, T. Nakajima, Y. Honda, O. Kitao, H. Nakai, 
 T. Vreven, K. Throssell, J. A. Montgomery, Jr., J. E. Peralta, 
 F. Ogliaro, M. J. Bearpark, J. J. Heyd, E. N. Brothers, K. N. Kudin, 
 V. N. Staroverov, T. A. Keith, R. Kobayashi, J. Normand, 
 K. Raghavachari, A. P. Rendell, J. C. Burant, S. S. Iyengar, 
 J. Tomasi, M. Cossi, J. M. Millam, M. Klene, C. Adamo, R. Cammi, 
 J. W. Ochterski, R. L. Martin, K. Morokuma, O. Farkas, 
 J. B. Foresman, and D. J. Fox, Gaussian, Inc., Wallingford CT, 2019.
 
 ******************************************
 Gaussian 16:  ES64L-G16RevC.01  3-Jul-2019
                26-Feb-2024 
 ******************************************
 %nproc=40
 Will use up to   40 processors via shared memory.
 %mem=56GB
 ------------------------------------------
 #p opt freq b3lyp/def2svpp em=gd3bj nosymm
 ------------------------------------------
 1/18=20,19=15,26=3,38=1/1,3;
 2/9=110,12=2,15=1,17=6,18=5,40=1/2;
 3/5=43,7=202,11=2,25=1,30=1,71=1,74=-5,124=41/1,2,3;
 4//1;
 5/5=2,38=5/2;
 6/7=2,8=2,9=2,10=2,28=1/1;
 7/30=1/1,2,3,16;
 1/18=20,19=15,26=3/3(2);
 2/9=110,15=1/2;
 99//99;
 2/9=110,15=1/2;
 3/5=43,7=202,11=2,25=1,30=1,71=1,74=-5,124=41/1,2,3;
 4/5=5,16=3,69=1/1;
 5/5=2,38=5/2;
 7/30=1/1,2,3,16;
 1/18=20,19=15,26=3/3(-5);
 2/9=110,15=1/2;
 6/7=2,8=2,9=2,10=2,19=2,28=1/1;
 99/9=1/99;
 Leave Link    1 at Mon Feb 26 00:22:36 2024, MaxMem=  7516192768 cpu:               0.8 elap:               0.0
 (Enter /public/apps/g16-C01//g16/l101.exe)
 ----------------------
 $$$$Singlemol####0????
 ----------------------
 Symbolic Z-matrix:
 Charge =  0 Multiplicity = 1
 C                     5.96409   3.04229   0.29924 
 C                     4.75203   2.67135   0.85423 
 C                     4.00927   1.65016   0.28701 
 C                     4.47248   0.99577  -0.8445 
 C                     3.7004   -0.14437  -1.46343 
 C                     4.37512  -1.52587  -1.18817 
 O                     3.38314  -2.2663   -0.49388 
 C                     2.29555  -1.45496  -0.38752 
 C                     1.11685  -1.9741    0.29438 
 C                     1.10501  -3.27762   0.78962 
 C                    -0.01807  -3.76065   1.4368 
 C                    -1.13159  -2.95587   1.5971 
 C                    -1.12462  -1.65104   1.10506 
 C                    -2.29425  -0.79668   1.26538 
 N                    -2.37453   0.40117   0.85995 
 C                    -3.68697   0.90659   1.17718 
 C                    -4.46332   1.32082  -0.04965 
 C                    -5.66507   2.00143   0.10442 
 C                    -6.4141    2.35458  -1.00294 
 C                    -5.96814   2.03309  -2.27444 
 C                    -4.77006   1.3591   -2.43218 
 C                    -4.02086   1.00124  -1.32456 
 C                    -4.36478  -0.28971   1.9184 
 O                    -3.38296  -1.31409   1.89771 
 C                     0.00067  -1.16037   0.45253 
 N                     2.38353  -0.29803  -0.89684 
 C                     5.68876   1.3733   -1.40082 
 C                     6.43118   2.39095  -0.83058 
 H                     6.54406   3.83806   0.74307 
 H                     4.38187   3.17762   1.73362 
 H                     3.05939   1.35897   0.70932 
 H                     3.59761   0.04187  -2.53946 
 H                     4.6397   -2.06173  -2.10346 
 H                     5.25976  -1.43125  -0.55123 
 H                     1.97805  -3.89862   0.6606 
 H                    -0.02567  -4.77088   1.81842 
 H                    -2.01201  -3.32471   2.1004 
 H                    -3.57759   1.77528   1.83751 
 H                    -6.01264   2.25398   1.09656 
 H                    -7.34706   2.88365  -0.87414 
 H                    -6.55347   2.31011  -3.13886 
 H                    -4.41605   1.1086   -3.42143 
 H                    -3.08174   0.48131  -1.43922 
 H                    -4.61474  -0.06094   2.95775 
 H                    -5.25918  -0.64288   1.39655 
 H                     0.00785  -0.1529    0.07056 
 H                     6.05263   0.86656  -2.28384 
 H                     7.37542   2.67839  -1.26974 
 
 ITRead=  0  0  0  0  0  0  0  0  0  0  0  0  0  0  0  0  0  0  0  0
 ITRead=  0  0  0  0  0  0  0  0  0  0  0  0  0  0  0  0  0  0  0  0
 ITRead=  0  0  0  0  0  0  0  0
 MicOpt= -1 -1 -1 -1 -1 -1 -1 -1 -1 -1 -1 -1 -1 -1 -1 -1 -1 -1 -1 -1
 MicOpt= -1 -1 -1 -1 -1 -1 -1 -1 -1 -1 -1 -1 -1 -1 -1 -1 -1 -1 -1 -1
 MicOpt= -1 -1 -1 -1 -1 -1 -1 -1
 NAtoms=     48 NQM=       48 NQMF=       0 NMMI=      0 NMMIF=      0
                NMic=       0 NMicF=      0.
                    Isotopes and Nuclear Properties:
 (Nuclear quadrupole moments (NQMom) in fm**2, nuclear magnetic moments (NMagM)
  in nuclear magnetons)

  Atom         1           2           3           4           5           6           7           8           9          10
 IAtWgt=          12          12          12          12          12          12          16          12          12          12
 AtmWgt=  12.0000000  12.0000000  12.0000000  12.0000000  12.0000000  12.0000000  15.9949146  12.0000000  12.0000000  12.0000000
 NucSpn=           0           0           0           0           0           0           0           0           0           0
 AtZEff=  -0.0000000  -0.0000000  -0.0000000  -0.0000000  -0.0000000  -0.0000000  -0.0000000  -0.0000000  -0.0000000  -0.0000000
 NQMom=    0.0000000   0.0000000   0.0000000   0.0000000   0.0000000   0.0000000   0.0000000   0.0000000   0.0000000   0.0000000
 NMagM=    0.0000000   0.0000000   0.0000000   0.0000000   0.0000000   0.0000000   0.0000000   0.0000000   0.0000000   0.0000000
 AtZNuc=   6.0000000   6.0000000   6.0000000   6.0000000   6.0000000   6.0000000   8.0000000   6.0000000   6.0000000   6.0000000

  Atom        11          12          13          14          15          16          17          18          19          20
 IAtWgt=          12          12          12          12          14          12          12          12          12          12
 AtmWgt=  12.0000000  12.0000000  12.0000000  12.0000000  14.0030740  12.0000000  12.0000000  12.0000000  12.0000000  12.0000000
 NucSpn=           0           0           0           0           2           0           0           0           0           0
 AtZEff=  -0.0000000  -0.0000000  -0.0000000  -0.0000000  -0.0000000  -0.0000000  -0.0000000  -0.0000000  -0.0000000  -0.0000000
 NQMom=    0.0000000   0.0000000   0.0000000   0.0000000   2.0440000   0.0000000   0.0000000   0.0000000   0.0000000   0.0000000
 NMagM=    0.0000000   0.0000000   0.0000000   0.0000000   0.4037610   0.0000000   0.0000000   0.0000000   0.0000000   0.0000000
 AtZNuc=   6.0000000   6.0000000   6.0000000   6.0000000   7.0000000   6.0000000   6.0000000   6.0000000   6.0000000   6.0000000

  Atom        21          22          23          24          25          26          27          28          29          30
 IAtWgt=          12          12          12          16          12          14          12          12           1           1
 AtmWgt=  12.0000000  12.0000000  12.0000000  15.9949146  12.0000000  14.0030740  12.0000000  12.0000000   1.0078250   1.0078250
 NucSpn=           0           0           0           0           0           2           0           0           1           1
 AtZEff=  -0.0000000  -0.0000000  -0.0000000  -0.0000000  -0.0000000  -0.0000000  -0.0000000  -0.0000000  -0.0000000  -0.0000000
 NQMom=    0.0000000   0.0000000   0.0000000   0.0000000   0.0000000   2.0440000   0.0000000   0.0000000   0.0000000   0.0000000
 NMagM=    0.0000000   0.0000000   0.0000000   0.0000000   0.0000000   0.4037610   0.0000000   0.0000000   2.7928460   2.7928460
 AtZNuc=   6.0000000   6.0000000   6.0000000   8.0000000   6.0000000   7.0000000   6.0000000   6.0000000   1.0000000   1.0000000

  Atom        31          32          33          34          35          36          37          38          39          40
 IAtWgt=           1           1           1           1           1           1           1           1           1           1
 AtmWgt=   1.0078250   1.0078250   1.0078250   1.0078250   1.0078250   1.0078250   1.0078250   1.0078250   1.0078250   1.0078250
 NucSpn=           1           1           1           1           1           1           1           1           1           1
 AtZEff=  -0.0000000  -0.0000000  -0.0000000  -0.0000000  -0.0000000  -0.0000000  -0.0000000  -0.0000000  -0.0000000  -0.0000000
 NQMom=    0.0000000   0.0000000   0.0000000   0.0000000   0.0000000   0.0000000   0.0000000   0.0000000   0.0000000   0.0000000
 NMagM=    2.7928460   2.7928460   2.7928460   2.7928460   2.7928460   2.7928460   2.7928460   2.7928460   2.7928460   2.7928460
 AtZNuc=   1.0000000   1.0000000   1.0000000   1.0000000   1.0000000   1.0000000   1.0000000   1.0000000   1.0000000   1.0000000

  Atom        41          42          43          44          45          46          47          48
 IAtWgt=           1           1           1           1           1           1           1           1
 AtmWgt=   1.0078250   1.0078250   1.0078250   1.0078250   1.0078250   1.0078250   1.0078250   1.0078250
 NucSpn=           1           1           1           1           1           1           1           1
 AtZEff=  -0.0000000  -0.0000000  -0.0000000  -0.0000000  -0.0000000  -0.0000000  -0.0000000  -0.0000000
 NQMom=    0.0000000   0.0000000   0.0000000   0.0000000   0.0000000   0.0000000   0.0000000   0.0000000
 NMagM=    2.7928460   2.7928460   2.7928460   2.7928460   2.7928460   2.7928460   2.7928460   2.7928460
 AtZNuc=   1.0000000   1.0000000   1.0000000   1.0000000   1.0000000   1.0000000   1.0000000   1.0000000
 Leave Link  101 at Mon Feb 26 00:22:36 2024, MaxMem=  7516192768 cpu:               5.6 elap:               0.2
 (Enter /public/apps/g16-C01//g16/l103.exe)

 GradGradGradGradGradGradGradGradGradGradGradGradGradGradGradGradGradGrad
 Berny optimization.
 Initialization pass.
                           ----------------------------
                           !    Initial Parameters    !
                           ! (Angstroms and Degrees)  !
 --------------------------                            --------------------------
 ! Name  Definition              Value          Derivative Info.                !
 --------------------------------------------------------------------------------
 ! R1    R(1,2)                  1.3837         estimate D2E/DX2                !
 ! R2    R(1,28)                 1.3852         estimate D2E/DX2                !
 ! R3    R(1,29)                 1.0801         estimate D2E/DX2                !
 ! R4    R(2,3)                  1.3843         estimate D2E/DX2                !
 ! R5    R(2,30)                 1.0801         estimate D2E/DX2                !
 ! R6    R(3,4)                  1.3868         estimate D2E/DX2                !
 ! R7    R(3,31)                 1.0795         estimate D2E/DX2                !
 ! R8    R(4,5)                  1.5097         estimate D2E/DX2                !
 ! R9    R(4,27)                 1.3897         estimate D2E/DX2                !
 ! R10   R(5,6)                  1.5619         estimate D2E/DX2                !
 ! R11   R(5,26)                 1.4418         estimate D2E/DX2                !
 ! R12   R(5,32)                 1.0969         estimate D2E/DX2                !
 ! R13   R(6,7)                  1.4193         estimate D2E/DX2                !
 ! R14   R(6,33)                 1.0931         estimate D2E/DX2                !
 ! R15   R(6,34)                 1.0942         estimate D2E/DX2                !
 ! R16   R(7,8)                  1.361          estimate D2E/DX2                !
 ! R17   R(8,9)                  1.4573         estimate D2E/DX2                !
 ! R18   R(8,26)                 1.2671         estimate D2E/DX2                !
 ! R19   R(9,10)                 1.3945         estimate D2E/DX2                !
 ! R20   R(9,25)                 1.3903         estimate D2E/DX2                !
 ! R21   R(10,11)                1.3833         estimate D2E/DX2                !
 ! R22   R(10,35)                1.0791         estimate D2E/DX2                !
 ! R23   R(11,12)                1.3832         estimate D2E/DX2                !
 ! R24   R(11,36)                1.0799         estimate D2E/DX2                !
 ! R25   R(12,13)                1.3945         estimate D2E/DX2                !
 ! R26   R(12,37)                1.0791         estimate D2E/DX2                !
 ! R27   R(13,14)                1.4573         estimate D2E/DX2                !
 ! R28   R(13,25)                1.3903         estimate D2E/DX2                !
 ! R29   R(14,15)                1.2672         estimate D2E/DX2                !
 ! R30   R(14,24)                1.3612         estimate D2E/DX2                !
 ! R31   R(15,16)                1.4417         estimate D2E/DX2                !
 ! R32   R(16,17)                1.5098         estimate D2E/DX2                !
 ! R33   R(16,23)                1.562          estimate D2E/DX2                !
 ! R34   R(16,38)                1.0966         estimate D2E/DX2                !
 ! R35   R(17,18)                1.3897         estimate D2E/DX2                !
 ! R36   R(17,22)                1.3868         estimate D2E/DX2                !
 ! R37   R(18,19)                1.3828         estimate D2E/DX2                !
 ! R38   R(18,39)                1.0812         estimate D2E/DX2                !
 ! R39   R(19,20)                1.3853         estimate D2E/DX2                !
 ! R40   R(19,40)                1.0802         estimate D2E/DX2                !
 ! R41   R(20,21)                1.3837         estimate D2E/DX2                !
 ! R42   R(20,41)                1.0801         estimate D2E/DX2                !
 ! R43   R(21,22)                1.3843         estimate D2E/DX2                !
 ! R44   R(21,42)                1.0801         estimate D2E/DX2                !
 ! R45   R(22,43)                1.0795         estimate D2E/DX2                !
 ! R46   R(23,24)                1.4191         estimate D2E/DX2                !
 ! R47   R(23,44)                1.0932         estimate D2E/DX2                !
 ! R48   R(23,45)                1.0941         estimate D2E/DX2                !
 ! R49   R(25,46)                1.0775         estimate D2E/DX2                !
 ! R50   R(27,28)                1.3827         estimate D2E/DX2                !
 ! R51   R(27,47)                1.0812         estimate D2E/DX2                !
 ! R52   R(28,48)                1.0803         estimate D2E/DX2                !
 ! A1    A(2,1,28)             119.765          estimate D2E/DX2                !
 ! A2    A(2,1,29)             120.2015         estimate D2E/DX2                !
 ! A3    A(28,1,29)            120.0334         estimate D2E/DX2                !
 ! A4    A(1,2,3)              120.2255         estimate D2E/DX2                !
 ! A5    A(1,2,30)             120.072          estimate D2E/DX2                !
 ! A6    A(3,2,30)             119.7025         estimate D2E/DX2                !
 ! A7    A(2,3,4)              120.2132         estimate D2E/DX2                !
 ! A8    A(2,3,31)             120.7177         estimate D2E/DX2                !
 ! A9    A(4,3,31)             119.0655         estimate D2E/DX2                !
 ! A10   A(3,4,5)              121.3365         estimate D2E/DX2                !
 ! A11   A(3,4,27)             119.3909         estimate D2E/DX2                !
 ! A12   A(5,4,27)             119.2515         estimate D2E/DX2                !
 ! A13   A(4,5,6)              112.0132         estimate D2E/DX2                !
 ! A14   A(4,5,26)             112.7365         estimate D2E/DX2                !
 ! A15   A(4,5,32)             108.7769         estimate D2E/DX2                !
 ! A16   A(6,5,26)             103.3581         estimate D2E/DX2                !
 ! A17   A(6,5,32)             111.3182         estimate D2E/DX2                !
 ! A18   A(26,5,32)            108.5427         estimate D2E/DX2                !
 ! A19   A(5,6,7)              104.2245         estimate D2E/DX2                !
 ! A20   A(5,6,33)             112.9912         estimate D2E/DX2                !
 ! A21   A(5,6,34)             112.046          estimate D2E/DX2                !
 ! A22   A(7,6,33)             108.8472         estimate D2E/DX2                !
 ! A23   A(7,6,34)             108.9916         estimate D2E/DX2                !
 ! A24   A(33,6,34)            109.5192         estimate D2E/DX2                !
 ! A25   A(6,7,8)              106.6036         estimate D2E/DX2                !
 ! A26   A(7,8,9)              118.0681         estimate D2E/DX2                !
 ! A27   A(7,8,26)             117.2177         estimate D2E/DX2                !
 ! A28   A(9,8,26)             124.7137         estimate D2E/DX2                !
 ! A29   A(8,9,10)             120.3998         estimate D2E/DX2                !
 ! A30   A(8,9,25)             119.6072         estimate D2E/DX2                !
 ! A31   A(10,9,25)            119.9929         estimate D2E/DX2                !
 ! A32   A(9,10,11)            119.9647         estimate D2E/DX2                !
 ! A33   A(9,10,35)            119.2492         estimate D2E/DX2                !
 ! A34   A(11,10,35)           120.786          estimate D2E/DX2                !
 ! A35   A(10,11,12)           120.3076         estimate D2E/DX2                !
 ! A36   A(10,11,36)           119.8476         estimate D2E/DX2                !
 ! A37   A(12,11,36)           119.8448         estimate D2E/DX2                !
 ! A38   A(11,12,13)           119.9656         estimate D2E/DX2                !
 ! A39   A(11,12,37)           120.7958         estimate D2E/DX2                !
 ! A40   A(13,12,37)           119.2386         estimate D2E/DX2                !
 ! A41   A(12,13,14)           120.3799         estimate D2E/DX2                !
 ! A42   A(12,13,25)           119.9921         estimate D2E/DX2                !
 ! A43   A(14,13,25)           119.6275         estimate D2E/DX2                !
 ! A44   A(13,14,15)           124.7407         estimate D2E/DX2                !
 ! A45   A(13,14,24)           118.0472         estimate D2E/DX2                !
 ! A46   A(15,14,24)           117.2119         estimate D2E/DX2                !
 ! A47   A(14,15,16)           108.5827         estimate D2E/DX2                !
 ! A48   A(15,16,17)           112.6741         estimate D2E/DX2                !
 ! A49   A(15,16,23)           103.3521         estimate D2E/DX2                !
 ! A50   A(15,16,38)           108.6259         estimate D2E/DX2                !
 ! A51   A(17,16,23)           111.8755         estimate D2E/DX2                !
 ! A52   A(17,16,38)           108.8596         estimate D2E/DX2                !
 ! A53   A(23,16,38)           111.3593         estimate D2E/DX2                !
 ! A54   A(16,17,18)           119.2727         estimate D2E/DX2                !
 ! A55   A(16,17,22)           121.3142         estimate D2E/DX2                !
 ! A56   A(18,17,22)           119.3855         estimate D2E/DX2                !
 ! A57   A(17,18,19)           120.3142         estimate D2E/DX2                !
 ! A58   A(17,18,39)           119.6138         estimate D2E/DX2                !
 ! A59   A(19,18,39)           120.072          estimate D2E/DX2                !
 ! A60   A(18,19,20)           120.0934         estimate D2E/DX2                !
 ! A61   A(18,19,40)           119.8308         estimate D2E/DX2                !
 ! A62   A(20,19,40)           120.0757         estimate D2E/DX2                !
 ! A63   A(19,20,21)           119.7645         estimate D2E/DX2                !
 ! A64   A(19,20,41)           120.0409         estimate D2E/DX2                !
 ! A65   A(21,20,41)           120.1945         estimate D2E/DX2                !
 ! A66   A(20,21,22)           120.221          estimate D2E/DX2                !
 ! A67   A(20,21,42)           120.0767         estimate D2E/DX2                !
 ! A68   A(22,21,42)           119.7022         estimate D2E/DX2                !
 ! A69   A(17,22,21)           120.2207         estimate D2E/DX2                !
 ! A70   A(17,22,43)           119.0887         estimate D2E/DX2                !
 ! A71   A(21,22,43)           120.6869         estimate D2E/DX2                !
 ! A72   A(16,23,24)           104.2238         estimate D2E/DX2                !
 ! A73   A(16,23,44)           112.9606         estimate D2E/DX2                !
 ! A74   A(16,23,45)           112.0623         estimate D2E/DX2                !
 ! A75   A(24,23,44)           108.852          estimate D2E/DX2                !
 ! A76   A(24,23,45)           109.0041         estimate D2E/DX2                !
 ! A77   A(44,23,45)           109.5184         estimate D2E/DX2                !
 ! A78   A(14,24,23)           106.6042         estimate D2E/DX2                !
 ! A79   A(9,25,13)            119.7771         estimate D2E/DX2                !
 ! A80   A(9,25,46)            120.1048         estimate D2E/DX2                !
 ! A81   A(13,25,46)           120.1181         estimate D2E/DX2                !
 ! A82   A(5,26,8)             108.583          estimate D2E/DX2                !
 ! A83   A(4,27,28)            120.3151         estimate D2E/DX2                !
 ! A84   A(4,27,47)            119.6148         estimate D2E/DX2                !
 ! A85   A(28,27,47)           120.0702         estimate D2E/DX2                !
 ! A86   A(1,28,27)            120.0897         estimate D2E/DX2                !
 ! A87   A(1,28,48)            120.0776         estimate D2E/DX2                !
 ! A88   A(27,28,48)           119.8325         estimate D2E/DX2                !
 ! D1    D(28,1,2,3)             0.2257         estimate D2E/DX2                !
 ! D2    D(28,1,2,30)         -179.839          estimate D2E/DX2                !
 ! D3    D(29,1,2,3)          -179.9015         estimate D2E/DX2                !
 ! D4    D(29,1,2,30)            0.0339         estimate D2E/DX2                !
 ! D5    D(2,1,28,27)           -0.0364         estimate D2E/DX2                !
 ! D6    D(2,1,28,48)          179.8213         estimate D2E/DX2                !
 ! D7    D(29,1,28,27)        -179.9095         estimate D2E/DX2                !
 ! D8    D(29,1,28,48)          -0.0518         estimate D2E/DX2                !
 ! D9    D(1,2,3,4)             -0.2637         estimate D2E/DX2                !
 ! D10   D(1,2,3,31)          -179.567          estimate D2E/DX2                !
 ! D11   D(30,2,3,4)           179.8007         estimate D2E/DX2                !
 ! D12   D(30,2,3,31)            0.4974         estimate D2E/DX2                !
 ! D13   D(2,3,4,5)            178.429          estimate D2E/DX2                !
 ! D14   D(2,3,4,27)             0.1111         estimate D2E/DX2                !
 ! D15   D(31,3,4,5)            -2.2562         estimate D2E/DX2                !
 ! D16   D(31,3,4,27)          179.4258         estimate D2E/DX2                !
 ! D17   D(3,4,5,6)           -106.3529         estimate D2E/DX2                !
 ! D18   D(3,4,5,26)             9.7269         estimate D2E/DX2                !
 ! D19   D(3,4,5,32)           130.1682         estimate D2E/DX2                !
 ! D20   D(27,4,5,6)            71.9673         estimate D2E/DX2                !
 ! D21   D(27,4,5,26)         -171.9529         estimate D2E/DX2                !
 ! D22   D(27,4,5,32)          -51.5115         estimate D2E/DX2                !
 ! D23   D(3,4,27,28)            0.078          estimate D2E/DX2                !
 ! D24   D(3,4,27,47)         -179.9085         estimate D2E/DX2                !
 ! D25   D(5,4,27,28)         -178.2753         estimate D2E/DX2                !
 ! D26   D(5,4,27,47)            1.7382         estimate D2E/DX2                !
 ! D27   D(4,5,6,7)            120.6989         estimate D2E/DX2                !
 ! D28   D(4,5,6,33)          -121.2942         estimate D2E/DX2                !
 ! D29   D(4,5,6,34)             2.9976         estimate D2E/DX2                !
 ! D30   D(26,5,6,7)            -0.9344         estimate D2E/DX2                !
 ! D31   D(26,5,6,33)          117.0724         estimate D2E/DX2                !
 ! D32   D(26,5,6,34)         -118.6357         estimate D2E/DX2                !
 ! D33   D(32,5,6,7)          -117.2637         estimate D2E/DX2                !
 ! D34   D(32,5,6,33)            0.7431         estimate D2E/DX2                !
 ! D35   D(32,5,6,34)          125.035          estimate D2E/DX2                !
 ! D36   D(4,5,26,8)          -119.9994         estimate D2E/DX2                !
 ! D37   D(6,5,26,8)             1.146          estimate D2E/DX2                !
 ! D38   D(32,5,26,8)          119.425          estimate D2E/DX2                !
 ! D39   D(5,6,7,8)              0.43           estimate D2E/DX2                !
 ! D40   D(33,6,7,8)          -120.3873         estimate D2E/DX2                !
 ! D41   D(34,6,7,8)           120.2158         estimate D2E/DX2                !
 ! D42   D(6,7,8,9)           -179.9063         estimate D2E/DX2                !
 ! D43   D(6,7,8,26)             0.3306         estimate D2E/DX2                !
 ! D44   D(7,8,9,10)            -1.5595         estimate D2E/DX2                !
 ! D45   D(7,8,9,25)           178.2979         estimate D2E/DX2                !
 ! D46   D(26,8,9,10)          178.1842         estimate D2E/DX2                !
 ! D47   D(26,8,9,25)           -1.9584         estimate D2E/DX2                !
 ! D48   D(7,8,26,5)            -0.9991         estimate D2E/DX2                !
 ! D49   D(9,8,26,5)           179.2552         estimate D2E/DX2                !
 ! D50   D(8,9,10,11)          179.9236         estimate D2E/DX2                !
 ! D51   D(8,9,10,35)           -0.1166         estimate D2E/DX2                !
 ! D52   D(25,9,10,11)           0.0668         estimate D2E/DX2                !
 ! D53   D(25,9,10,35)        -179.9735         estimate D2E/DX2                !
 ! D54   D(8,9,25,13)         -179.86           estimate D2E/DX2                !
 ! D55   D(8,9,25,46)            0.1438         estimate D2E/DX2                !
 ! D56   D(10,9,25,13)          -0.002          estimate D2E/DX2                !
 ! D57   D(10,9,25,46)        -179.9982         estimate D2E/DX2                !
 ! D58   D(9,10,11,12)          -0.0627         estimate D2E/DX2                !
 ! D59   D(9,10,11,36)         179.9179         estimate D2E/DX2                !
 ! D60   D(35,10,11,12)        179.9782         estimate D2E/DX2                !
 ! D61   D(35,10,11,36)         -0.0412         estimate D2E/DX2                !
 ! D62   D(10,11,12,13)         -0.0061         estimate D2E/DX2                !
 ! D63   D(10,11,12,37)        179.9801         estimate D2E/DX2                !
 ! D64   D(36,11,12,13)       -179.9867         estimate D2E/DX2                !
 ! D65   D(36,11,12,37)         -0.0005         estimate D2E/DX2                !
 ! D66   D(11,12,13,14)        179.8144         estimate D2E/DX2                !
 ! D67   D(11,12,13,25)          0.0709         estimate D2E/DX2                !
 ! D68   D(37,12,13,14)         -0.172          estimate D2E/DX2                !
 ! D69   D(37,12,13,25)       -179.9154         estimate D2E/DX2                !
 ! D70   D(12,13,14,15)        179.4882         estimate D2E/DX2                !
 ! D71   D(12,13,14,24)         -0.3764         estimate D2E/DX2                !
 ! D72   D(25,13,14,15)         -0.7674         estimate D2E/DX2                !
 ! D73   D(25,13,14,24)        179.368          estimate D2E/DX2                !
 ! D74   D(12,13,25,9)          -0.0666         estimate D2E/DX2                !
 ! D75   D(12,13,25,46)        179.9296         estimate D2E/DX2                !
 ! D76   D(14,13,25,9)        -179.812          estimate D2E/DX2                !
 ! D77   D(14,13,25,46)          0.1842         estimate D2E/DX2                !
 ! D78   D(13,14,15,16)        178.9557         estimate D2E/DX2                !
 ! D79   D(24,14,15,16)         -1.1788         estimate D2E/DX2                !
 ! D80   D(13,14,24,23)       -179.9691         estimate D2E/DX2                !
 ! D81   D(15,14,24,23)          0.156          estimate D2E/DX2                !
 ! D82   D(14,15,16,17)       -119.3811         estimate D2E/DX2                !
 ! D83   D(14,15,16,23)          1.5614         estimate D2E/DX2                !
 ! D84   D(14,15,16,38)        119.922          estimate D2E/DX2                !
 ! D85   D(15,16,17,18)       -170.9323         estimate D2E/DX2                !
 ! D86   D(15,16,17,22)         10.9899         estimate D2E/DX2                !
 ! D87   D(23,16,17,18)         73.1273         estimate D2E/DX2                !
 ! D88   D(23,16,17,22)       -104.9504         estimate D2E/DX2                !
 ! D89   D(38,16,17,18)        -50.3693         estimate D2E/DX2                !
 ! D90   D(38,16,17,22)        131.5529         estimate D2E/DX2                !
 ! D91   D(15,16,23,24)         -1.4338         estimate D2E/DX2                !
 ! D92   D(15,16,23,44)        116.5627         estimate D2E/DX2                !
 ! D93   D(15,16,23,45)       -119.1576         estimate D2E/DX2                !
 ! D94   D(17,16,23,24)        120.0486         estimate D2E/DX2                !
 ! D95   D(17,16,23,44)       -121.9549         estimate D2E/DX2                !
 ! D96   D(17,16,23,45)          2.3248         estimate D2E/DX2                !
 ! D97   D(38,16,23,24)       -117.8758         estimate D2E/DX2                !
 ! D98   D(38,16,23,44)          0.1207         estimate D2E/DX2                !
 ! D99   D(38,16,23,45)        124.4004         estimate D2E/DX2                !
 ! D100  D(16,17,18,19)       -177.9944         estimate D2E/DX2                !
 ! D101  D(16,17,18,39)          1.9928         estimate D2E/DX2                !
 ! D102  D(22,17,18,19)          0.1209         estimate D2E/DX2                !
 ! D103  D(22,17,18,39)       -179.8919         estimate D2E/DX2                !
 ! D104  D(16,17,22,21)        178.1481         estimate D2E/DX2                !
 ! D105  D(16,17,22,43)         -2.5388         estimate D2E/DX2                !
 ! D106  D(18,17,22,21)          0.0724         estimate D2E/DX2                !
 ! D107  D(18,17,22,43)        179.3855         estimate D2E/DX2                !
 ! D108  D(17,18,19,20)         -0.1154         estimate D2E/DX2                !
 ! D109  D(17,18,19,40)       -179.9924         estimate D2E/DX2                !
 ! D110  D(39,18,19,20)        179.8974         estimate D2E/DX2                !
 ! D111  D(39,18,19,40)          0.0205         estimate D2E/DX2                !
 ! D112  D(18,19,20,21)         -0.0837         estimate D2E/DX2                !
 ! D113  D(18,19,20,41)       -179.9472         estimate D2E/DX2                !
 ! D114  D(40,19,20,21)        179.7929         estimate D2E/DX2                !
 ! D115  D(40,19,20,41)         -0.0705         estimate D2E/DX2                !
 ! D116  D(19,20,21,22)          0.2772         estimate D2E/DX2                !
 ! D117  D(19,20,21,42)       -179.8106         estimate D2E/DX2                !
 ! D118  D(41,20,21,22)       -179.8596         estimate D2E/DX2                !
 ! D119  D(41,20,21,42)          0.0527         estimate D2E/DX2                !
 ! D120  D(20,21,22,17)         -0.2722         estimate D2E/DX2                !
 ! D121  D(20,21,22,43)       -179.5741         estimate D2E/DX2                !
 ! D122  D(42,21,22,17)        179.8153         estimate D2E/DX2                !
 ! D123  D(42,21,22,43)          0.5133         estimate D2E/DX2                !
 ! D124  D(16,23,24,14)          0.8412         estimate D2E/DX2                !
 ! D125  D(44,23,24,14)       -119.9423         estimate D2E/DX2                !
 ! D126  D(45,23,24,14)        120.6516         estimate D2E/DX2                !
 ! D127  D(4,27,28,1)           -0.1154         estimate D2E/DX2                !
 ! D128  D(4,27,28,48)        -179.9735         estimate D2E/DX2                !
 ! D129  D(47,27,28,1)         179.871          estimate D2E/DX2                !
 ! D130  D(47,27,28,48)          0.0129         estimate D2E/DX2                !
 --------------------------------------------------------------------------------
 Trust Radius=3.00D-01 FncErr=1.00D-07 GrdErr=1.00D-06 EigMax=2.50D+02 EigMin=1.00D-04
 Number of steps in this run=    280 maximum allowed number of steps=    288.
 GradGradGradGradGradGradGradGradGradGradGradGradGradGradGradGradGradGrad

 Leave Link  103 at Mon Feb 26 00:22:36 2024, MaxMem=  7516192768 cpu:               0.9 elap:               0.0
 (Enter /public/apps/g16-C01//g16/l202.exe)
                          Input orientation:                          
 ---------------------------------------------------------------------
 Center     Atomic      Atomic             Coordinates (Angstroms)
 Number     Number       Type             X           Y           Z
 ---------------------------------------------------------------------
      1          6           0        5.964085    3.042289    0.299242
      2          6           0        4.752026    2.671352    0.854234
      3          6           0        4.009269    1.650163    0.287013
      4          6           0        4.472483    0.995769   -0.844504
      5          6           0        3.700402   -0.144374   -1.463426
      6          6           0        4.375117   -1.525870   -1.188175
      7          8           0        3.383142   -2.266297   -0.493876
      8          6           0        2.295549   -1.454959   -0.387515
      9          6           0        1.116848   -1.974099    0.294383
     10          6           0        1.105008   -3.277618    0.789617
     11          6           0       -0.018073   -3.760653    1.436802
     12          6           0       -1.131590   -2.955871    1.597100
     13          6           0       -1.124622   -1.651043    1.105058
     14          6           0       -2.294245   -0.796682    1.265383
     15          7           0       -2.374534    0.401168    0.859947
     16          6           0       -3.686974    0.906591    1.177175
     17          6           0       -4.463317    1.320823   -0.049646
     18          6           0       -5.665071    2.001428    0.104424
     19          6           0       -6.414098    2.354583   -1.002936
     20          6           0       -5.968140    2.033090   -2.274441
     21          6           0       -4.770055    1.359097   -2.432182
     22          6           0       -4.020859    1.001239   -1.324559
     23          6           0       -4.364778   -0.289713    1.918396
     24          8           0       -3.382956   -1.314094    1.897705
     25          6           0        0.000674   -1.160369    0.452527
     26          7           0        2.383530   -0.298034   -0.896842
     27          6           0        5.688761    1.373301   -1.400818
     28          6           0        6.431183    2.390951   -0.830579
     29          1           0        6.544057    3.838057    0.743066
     30          1           0        4.381866    3.177616    1.733623
     31          1           0        3.059393    1.358968    0.709323
     32          1           0        3.597610    0.041866   -2.539462
     33          1           0        4.639698   -2.061728   -2.103462
     34          1           0        5.259762   -1.431247   -0.551225
     35          1           0        1.978052   -3.898623    0.660600
     36          1           0       -0.025670   -4.770884    1.818418
     37          1           0       -2.012011   -3.324708    2.100395
     38          1           0       -3.577589    1.775282    1.837513
     39          1           0       -6.012642    2.253979    1.096557
     40          1           0       -7.347065    2.883648   -0.874137
     41          1           0       -6.553468    2.310105   -3.138857
     42          1           0       -4.416049    1.108601   -3.421432
     43          1           0       -3.081740    0.481306   -1.439215
     44          1           0       -4.614738   -0.060943    2.957747
     45          1           0       -5.259180   -0.642876    1.396554
     46          1           0        0.007850   -0.152903    0.070558
     47          1           0        6.052632    0.866563   -2.283838
     48          1           0        7.375416    2.678392   -1.269741
 ---------------------------------------------------------------------
                    Distance matrix (angstroms):
                    1          2          3          4          5
     1  C    0.000000
     2  C    1.383726   0.000000
     3  C    2.399890   1.384288   0.000000
     4  C    2.778718   2.402381   1.386769   0.000000
     5  C    4.287899   3.795494   2.525826   1.509669   0.000000
     6  C    5.060169   4.682966   3.520967   2.546812   1.561901
     7  O    5.955786   5.298266   4.042336   3.456975   2.354408
     8  C    5.844231   4.960107   3.610209   3.309675   2.202006
     9  C    6.975663   5.925215   4.636963   4.623577   3.621124
    10  C    7.987010   6.978192   5.741983   5.680852   4.650752
    11  C    9.130185   8.028943   6.842399   6.927698   5.942714
    12  C    9.381416   8.175232   7.025689   7.278909   6.373341
    13  C    8.539700   7.299384   6.158246   6.491070   5.669922
    14  C    9.158119   7.864238   6.832170   7.311163   6.618738
    15  N    8.764843   7.479413   6.530022   7.080985   6.526908
    16  C    9.923453   8.627595   7.783151   8.406657   7.915215
    17  C   10.574303   9.357536   8.485665   8.976969   8.413791
    18  C   11.677269  10.465511   9.682437  10.231413   9.735230
    19  C   12.465473  11.323946  10.526479  10.972198  10.428804
    20  C   12.248278  11.185613  10.308073  10.589021   9.943832
    21  C   11.203373  10.158374   9.195394   9.384947   8.657226
    22  C   10.319967   9.192384   8.215913   8.506900   7.807021
    23  C   10.973118   9.644504   8.749240   9.347901   8.746712
    24  O   10.435532   9.118692   8.125647   8.634993   7.927131
    25  C    7.297130   6.117091   4.898502   5.131111   4.288486
    26  N    5.040709   4.182498   2.800002   2.457721   1.441798
    27  C    2.398234   2.765442   2.397106   1.389729   2.502165
    28  C    1.385250   2.395159   2.768293   2.404835   3.779621
    29  H    1.080090   2.141246   3.379351   3.858808   5.367936
    30  H    2.139902   1.080114   2.136498   3.378669   4.660594
    31  H    3.382155   2.146709   1.079539   2.131458   2.718781
    32  H    4.760355   4.445677   3.277963   2.132655   1.096861
    33  H    5.794651   5.582350   4.459815   3.310774   2.228939
    34  H    4.607807   4.366283   3.429499   2.568312   2.218052
    35  H    8.012197   7.134213   5.920679   5.695840   4.644606
    36  H    9.961462   8.896230   7.736652   7.783240   6.786657
    37  H   10.363441   9.124574   8.018323   8.329923   7.446275
    38  H    9.747570   8.435180   7.744683   8.520828   8.218907
    39  H   12.029095  10.775481  10.072669  10.737256  10.327092
    40  H   13.363708  12.223761  11.481989  11.969406  11.470079
    41  H   13.001760  11.995394  11.124007  11.338568  10.675832
    42  H   11.195077  10.236069   9.221271   9.255230   8.442779
    43  H    9.560744   8.451278   7.391109   7.595040   6.810985
    44  H   11.340599   9.981306   9.188808   9.907136   9.417817
    45  H   11.863651  10.559473   9.612141  10.119919   9.418179
    46  H    6.763008   5.576537   4.394230   4.699972   3.998515
    47  H    3.378450   3.846600   3.376187   2.141319   2.688504
    48  H    2.141491   3.375425   3.848595   3.382169   4.638022
                    6          7          8          9         10
     6  C    0.000000
     7  O    1.419260   0.000000
     8  C    2.229504   1.361044   0.000000
     9  C    3.607659   2.417193   1.457336   0.000000
    10  C    4.204033   2.803573   2.474897   1.394474   0.000000
    11  C    5.584342   4.186751   3.741284   2.405191   1.383287
    12  C    6.334547   5.022997   4.235176   2.777845   2.399567
    13  C    5.960010   4.822350   3.736816   2.405358   2.777859
    14  C    7.143672   6.122702   4.922561   3.736938   4.235129
    15  N    7.312049   6.488377   5.177938   4.260458   5.064151
    16  C    8.746946   7.927558   6.619347   5.670485   6.373453
    17  C    9.355096   8.638963   7.314464   6.489461   7.270231
    18  C   10.719982  10.022056   8.692530   7.863544   8.612304
    19  C   11.467318  10.844242   9.526243   8.782692   9.564094
    20  C   10.992231  10.445172   9.165999   8.535425   9.360635
    21  C    9.669786   9.130998   7.875426   7.293832   8.148342
    22  C    8.769110   8.135481   6.841635   6.153832   7.003775
    23  C    9.357598   8.352018   7.143877   5.960101   6.334057
    24  O    8.351958   7.239229   6.122703   4.822290   5.022460
    25  C    4.686283   3.682370   2.461484   1.390327   2.411623
    26  N    2.357727   2.244029   1.267135   2.415097   3.654680
    27  C    3.189995   4.402851   4.532077   5.914489   6.887659
    28  C    4.438104   5.576189   5.664874   6.968598   7.945178
    29  H    6.099648   6.984594   6.880701   7.964739   8.956464
    30  H    5.537123   5.966187   5.505697   6.266731   7.300616
    31  H    3.695121   3.833412   3.115236   3.880076   5.032295
    32  H    2.210948   3.091607   2.926897   4.271882   5.321166
    33  H    1.093114   2.052206   2.967773   4.262372   4.726767
    34  H    1.094192   2.054824   2.968825   4.263036   4.740140
    35  H    3.846277   2.443682   2.677843   2.139995   1.079119
    36  H    6.239923   4.820753   4.609724   3.383790   2.136986
    37  H    7.405803   6.079322   5.314201   3.856888   3.381740
    38  H    9.126770   8.379828   7.062504   6.202971   6.968257
    39  H   11.287728  10.547186   9.218716   8.327650   9.019630
    40  H   12.528049  11.908143  10.584910   9.828579  10.590884
    41  H   11.745375  11.255025  10.002534   9.432671  10.261959
    42  H    9.445236   8.988209   7.798849   7.343247   8.213034
    43  H    7.726351   7.087855   5.811233   5.163576   6.051947
    44  H   10.007606   8.985732   7.802956   6.603389   6.911098
    45  H   10.013999   8.994384   7.804890   6.606108   6.914704
    46  H    4.747891   4.022141   2.671843   2.143998   3.388900
    47  H    3.120620   4.488313   4.806368   6.251284   7.148381
    48  H    5.165682   6.402356   6.608174   7.953731   8.890052
                   11         12         13         14         15
    11  C    0.000000
    12  C    1.383217   0.000000
    13  C    2.405194   1.394536   0.000000
    14  C    3.741052   2.474651   1.457276   0.000000
    15  N    4.817305   3.654862   2.415353   1.267150   0.000000
    16  C    5.942340   4.650262   3.621097   2.201957   1.441730
    17  C    6.913112   5.665888   4.616515   3.304240   2.456856
    18  C    8.177126   6.881522   5.912486   4.532076   3.736212
    19  C    9.179192   7.928808   6.961841   5.661178   4.858420
    20  C    9.096377   7.954293   6.960856   5.833992   5.039996
    21  C    7.985124   6.934875   5.904421   4.944594   4.182614
    22  C    6.806102   5.704620   4.617990   3.594651   2.800453
    23  C    5.583297   4.202991   3.607402   2.229473   2.357690
    24  O    4.185752   2.802578   2.417002   1.361190   2.244099
    25  C    2.780400   2.411617   1.390269   2.461637   2.871585
    26  N    4.816983   5.063587   4.259738   5.177398   5.119996
    27  C    8.183980   8.616637   7.864366   8.691711   8.430470
    28  C    9.196529   9.574845   8.784907   9.522980   9.184648
    29  H   10.063956  10.286029   9.437685   9.993458   9.558616
    30  H    8.221140   8.248424   7.350677   7.783621   7.356692
    31  H    6.017520   6.080323   5.169406   5.798057   5.519749
    32  H    6.583539   6.961530   6.200640   7.063566   6.881249
    33  H    6.092179   6.913857   6.609890   7.812107   8.002943
    34  H    6.101961   6.912970   6.599390   7.795240   7.976943
    35  H    2.146169   3.381669   3.856909   5.314162   6.121515
    36  H    1.079933   2.136893   3.383783   4.609399   5.760725
    37  H    2.146204   1.079114   2.139932   2.677278   3.943639
    38  H    6.593732   5.331465   4.277060   2.930751   2.071513
    39  H    8.498613   7.156658   6.256357   4.812641   4.089587
    40  H   10.158804   8.879140   7.949807   6.607069   5.822012
    41  H   10.025076   8.919448   7.948200   6.869530   6.090810
    42  H    8.164206   7.245224   6.240051   5.486200   4.795670
    43  H    5.970908   4.983621   3.853641   3.093259   2.406805
    44  H    6.093477   4.729090   4.259317   2.964810   3.103679
    45  H    6.098472   4.735733   4.265670   2.971818   3.114347
    46  H    3.857869   3.388994   2.144086   2.672396   2.570191
    47  H    8.491628   9.015860   8.326820   9.221372   9.006503
    48  H   10.171055  10.598719   9.830276  10.583257  10.236349
                   16         17         18         19         20
    16  C    0.000000
    17  C    1.509764   0.000000
    18  C    2.502465   1.389667   0.000000
    19  C    3.779784   2.404780   1.382753   0.000000
    20  C    4.287933   2.778764   2.398302   1.385266   0.000000
    21  C    3.795429   2.402505   2.765504   2.395123   1.383675
    22  C    2.525690   1.386833   2.397041   2.768136   2.399770
    23  C    1.562040   2.544941   3.198528   4.441418   5.054312
    24  O    2.354365   3.449948   4.406426   5.573215   5.940843
    25  C    4.289078   5.131833   6.497600   7.458053   7.298032
    26  N    6.527150   7.086449   8.430305   9.189445   8.779653
    27  C    9.734900  10.241734  11.470388  12.149091  11.708197
    28  C   10.421684  10.974751  12.138588  12.846489  12.488235
    29  H   10.651570  11.319326  12.363004  13.159141  12.996858
    30  H    8.400796   9.212220  10.245909  11.167765  11.157829
    31  H    6.777684   7.560996   8.768975   9.678332   9.531718
    32  H    8.223521   8.533080   9.829917  10.389604   9.774394
    33  H    9.429049   9.925961  11.294789  11.954136  11.372027
    34  H    9.407281  10.117497  11.470183  12.280699  11.875895
    35  H    7.446439   8.320956   9.671466  10.597081  10.341260
    36  H    6.786020   7.764745   8.978019   9.977191   9.917586
    37  H    4.643461   5.675609   6.759917   7.827093   7.968447
    38  H    1.096647   2.133639   2.722558   4.055801   4.763335
    39  H    2.688993   2.141254   1.081164   2.139897   3.378520
    40  H    4.638200   3.382042   2.136585   1.080244   2.141433
    41  H    5.367939   3.858839   3.376892   2.140925   1.080075
    42  H    4.660423   3.378789   3.845628   3.375469   2.139919
    43  H    2.718947   2.131771   3.371527   3.847612   3.381855
    44  H    2.228745   3.313098   3.673966   4.975889   5.795900
    45  H    2.218289   2.565347   2.970975   4.009507   4.597785
    46  H    3.999857   4.709315   6.068305   6.977198   6.781596
    47  H   10.336350  10.760258  12.012339  12.620391  12.077244
    48  H   11.467482  11.978615  13.130153  13.795896  13.396877
                   21         22         23         24         25
    21  C    0.000000
    22  C    1.384264   0.000000
    23  C    4.670156   3.507363   0.000000
    24  O    5.274269   4.018790   1.419070   0.000000
    25  C    6.117933   4.899317   4.686575   3.682543   0.000000
    26  N    7.501808   6.548836   7.311997   6.488007   2.870962
    27  C   10.509555   9.717045  10.717110  10.019900   6.496823
    28  C   11.362112  10.555591  11.458429  10.839198   7.457190
    29  H   12.009853  11.132837  11.722737  11.243818   8.239207
    30  H   10.218542   9.202982   9.410648   8.971892   6.297155
    31  H    8.436190   7.375270   7.700540   7.075406   3.970990
    32  H    8.471389   7.774153   9.131378   8.381848   4.830664
    33  H   10.017662   9.219203  10.019779   8.996181   5.372715
    34  H   10.579284   9.625225  10.001695   8.983738   5.360867
    35  H    9.096476   7.996026   7.405253   6.078703   3.383985
    36  H    8.840444   7.691375   6.238489   4.819445   3.860333
    37  H    7.077365   5.871933   3.844455   2.441955   3.383893
    38  H    4.452581   3.285473   2.211428   3.096086   4.831170
    39  H    3.846665   3.376146   3.140262   4.504246   6.944963
    40  H    3.375313   3.848375   5.173248   6.404554   8.491371
    41  H    2.141114   3.379189   6.093047   6.968064   8.240085
    42  H    1.080131   2.136487   5.520115   5.935482   6.297875
    43  H    2.146371   1.079547   3.676168   3.801214   3.971783
    44  H    5.576018   4.451861   1.093191   2.052161   5.365342
    45  H    4.348144   3.411892   1.094074   2.054727   5.368897
    46  H    5.601627   4.416887   4.749010   4.022983   1.077469
    47  H   10.834904  10.119959  11.292395  10.548502   6.944231
    48  H   12.272093  11.519155  12.522221  11.904420   8.490531
                   26         27         28         29         30
    26  N    0.000000
    27  C    3.737901   0.000000
    28  C    4.859889   1.382742   0.000000
    29  H    6.091513   3.376802   2.140844   0.000000
    30  H    4.795085   3.845549   3.375452   2.468290   0.000000
    31  H    2.404623   3.371421   3.847760   4.276670   2.470952
    32  H    2.070682   2.728029   4.058031   5.819588   5.357914
    33  H    3.107546   3.659736   4.965481   6.821786   6.499263
    34  H    3.110681   2.961644   4.007426   5.575856   5.218510
    35  H    3.943891   6.768455   7.849378   8.983953   7.550024
    36  H    5.760492   8.987169  10.000001  10.882627   9.089126
    37  H    6.120863   9.676346  10.608812  11.240723   9.126686
    38  H    6.878247   9.824135  10.376574  10.387520   8.082714
    39  H    8.999006  11.997304  12.592911  12.661159  10.454891
    40  H   10.237582  13.133594  13.787123  14.017472  12.018929
    41  H    9.575957  12.400425  13.188474  13.745877  12.003132
    42  H    7.388264  10.308256  11.225836  12.038143  10.404745
    43  H    5.547136   8.815828   9.721774  10.425262   8.546485
    44  H    7.993111  11.279018  11.932123  12.026043   9.639794
    45  H    7.986839  11.478139  12.281238  12.642081  10.375912
    46  H    2.569199   6.063579   6.967241   7.687785   5.743706
    47  H    4.091742   1.081161   2.139865   4.270061   4.926705
    48  H    5.823838   2.136644   1.080306   2.467260   4.269750
                   31         32         33         34         35
    31  H    0.000000
    32  H    3.546694   0.000000
    33  H    4.702157   2.387708   0.000000
    34  H    3.770398   2.980922   1.786456   0.000000
    35  H    5.367861   5.328304   4.254243   4.280898   0.000000
    36  H    6.951460   7.435176   6.669807   6.686118   2.473112
    37  H    7.042091   8.020595   7.969490   7.968373   4.280536
    38  H    6.745047   8.581732   9.888263   9.699828   8.027669
    39  H    9.124298  10.510520  11.930540  11.973436  10.094343
    40  H   10.636088  11.429564  13.024994  13.328716  11.632387
    41  H   10.398089  10.418664  12.061175  12.658829  11.214768
    42  H    8.544475   8.132314   9.684760  10.407220   9.089544
    43  H    6.565061   6.783610   8.156522   8.603897   7.013879
    44  H    8.121813   9.882942  10.736087  10.568650   7.966778
    45  H    8.583608   9.716163  10.594859  10.726766   7.969884
    46  H    3.464923   4.442580   5.461135   5.440897   4.273203
    47  H    4.261567   2.602422   3.256349   2.985050   6.926681
    48  H    4.928045   4.778627   5.536062   4.677755   8.724384
                   36         37         38         39         40
    36  H    0.000000
    37  H    2.473153   0.000000
    38  H    7.447737   5.341352   0.000000
    39  H    9.258165   6.937902   2.589913   0.000000
    40  H   10.929068   8.709439   4.773937   2.461870   0.000000
    41  H   10.831765   8.934524   5.822899   4.270173   2.467327
    42  H    9.016640   7.478249   5.366934   4.926786   4.269702
    43  H    6.894725   5.306496   3.557694   4.261771   4.927835
    44  H    6.673916   4.261620   2.387954   3.282838   5.551537
    45  H    6.678926   4.269862   2.978201   3.008234   4.685261
    46  H    4.937802   4.273222   4.437950   6.564456   8.012981
    47  H    9.249598  10.090923  10.514393  12.606460  13.623794
    48  H   10.945525  11.641255  11.420987  13.602191  14.729225
                   41         42         43         44         45
    41  H    0.000000
    42  H    2.468202   0.000000
    43  H    4.276235   2.470438   0.000000
    44  H    6.822692   6.488546   4.688005   0.000000
    45  H    5.564641   5.195337   3.747882   1.786414   0.000000
    46  H    7.708284   5.775489   3.496742   5.450930   5.453434
    47  H   12.717257  10.533090   9.181425  11.921714  11.990862
    48  H   14.058558  12.088534  10.686815  13.005361  13.333153
                   46         47         48
    46  H    0.000000
    47  H    6.566725   0.000000
    48  H    8.005852   2.461884   0.000000
 Symmetry turned off by external request.
 Stoichiometry    C24H20N2O2
 Framework group  C1[X(C24H20N2O2)]
 Deg. of freedom   138
 Full point group                 C1      NOp   1
 Rotational constants (GHZ):           0.2638506           0.0786058           0.0675688
 Leave Link  202 at Mon Feb 26 00:22:36 2024, MaxMem=  7516192768 cpu:               1.7 elap:               0.1
 (Enter /public/apps/g16-C01//g16/l301.exe)
 Standard basis: def2SVPP (5D, 7F)
 Ernie: Thresh=  0.10000D-02 Tol=  0.10000D-05 Strict=F.
   432 basis functions,   780 primitive gaussians,   460 cartesian basis functions
    97 alpha electrons       97 beta electrons
       nuclear repulsion energy      2309.8326052981 Hartrees.
 IExCor=  402 DFT=T Ex+Corr=B3LYP ExCW=0 ScaHFX=  0.200000
 ScaDFX=  0.800000  0.720000  1.000000  0.810000 ScalE2=  1.000000  1.000000
 IRadAn=      5 IRanWt=     -1 IRanGd=            0 ICorTp=0 IEmpDi=141
 NAtoms=   48 NActive=   48 NUniq=   48 SFac= 1.00D+00 NAtFMM=   60 NAOKFM=F Big=F
 Integral buffers will be    131072 words long.
 Raffenetti 2 integral format.
 Two-electron integral symmetry is turned off.
 R6Disp:  Grimme-D3(BJ) Dispersion energy=       -0.1072003550 Hartrees.
 Nuclear repulsion after empirical dispersion term =     2309.7254049431 Hartrees.
 Leave Link  301 at Mon Feb 26 00:22:37 2024, MaxMem=  7516192768 cpu:               2.4 elap:               0.1
 (Enter /public/apps/g16-C01//g16/l302.exe)
 NPDir=0 NMtPBC=     1 NCelOv=     1 NCel=       1 NClECP=     1 NCelD=      1
         NCelK=      1 NCelE2=     1 NClLst=     1 CellRange=     0.0.
 One-electron integrals computed using PRISM.
   1 Symmetry operations used in ECPInt.
 ECPInt:  NShTT=   21736 NPrTT=   87160 LenC2=   17768 LenP2D=   45574.
 LDataN:  DoStor=T MaxTD1= 4 Len=   56
 NBasis=   432 RedAO= T EigKep=  2.65D-04  NBF=   432
 NBsUse=   432 1.00D-06 EigRej= -1.00D+00 NBFU=   432
 Precomputing XC quadrature grid using
 IXCGrd= 4 IRadAn=           5 IRanWt=          -1 IRanGd=           0 AccXCQ= 0.00D+00.
 Generated NRdTot=       0 NPtTot=           0 NUsed=           0 NTot=          32
 NSgBfM=   453   453   453   453   453 MxSgAt=    48 MxSgA2=    48.
 Leave Link  302 at Mon Feb 26 00:22:37 2024, MaxMem=  7516192768 cpu:              15.6 elap:               0.4
 (Enter /public/apps/g16-C01//g16/l303.exe)
 DipDrv:  MaxL=1.
 Leave Link  303 at Mon Feb 26 00:22:37 2024, MaxMem=  7516192768 cpu:               1.7 elap:               0.1
 (Enter /public/apps/g16-C01//g16/l401.exe)
 ExpMin= 1.22D-01 ExpMax= 2.27D+03 ExpMxC= 3.41D+02 IAcc=3 IRadAn=         5 AccDes= 0.00D+00
 Harris functional with IExCor=  402 and IRadAn=       5 diagonalized for initial guess.
 HarFok:  IExCor=  402 AccDes= 0.00D+00 IRadAn=         5 IDoV= 1 UseB2=F ITyADJ=14
 ICtDFT=  3500011 ScaDFX=  1.000000  1.000000  1.000000  1.000000
 FoFCou: FMM=F IPFlag=           0 FMFlag=      100000 FMFlg1=           0
         NFxFlg=           0 DoJE=T BraDBF=F KetDBF=T FulRan=T
         wScrn=  0.000000 ICntrl=       500 IOpCl=  0 I1Cent=   200000004 NGrid=           0
         NMat0=    1 NMatS0=      1 NMatT0=    0 NMatD0=    1 NMtDS0=    0 NMtDT0=    0
 Symmetry not used in FoFCou.
 Harris En= -1185.67934926770    
 JPrj=0 DoOrth=F DoCkMO=F.
 Leave Link  401 at Mon Feb 26 00:22:38 2024, MaxMem=  7516192768 cpu:              26.4 elap:               0.7
 (Enter /public/apps/g16-C01//g16/l502.exe)
 Two-electron integral symmetry not used.
 Closed shell SCF:
 Using DIIS extrapolation, IDIIS=  1040.
 NGot=  7516192768 LenX=  7515746110 LenY=  7515534050
 Requested convergence on RMS density matrix=1.00D-08 within 128 cycles.
 Requested convergence on MAX density matrix=1.00D-06.
 Requested convergence on             energy=1.00D-06.
 No special actions if energy rises.
 Fock matrices will be formed incrementally for  20 cycles.
 Integral accuracy reduced to 1.0D-05 until final iterations.

 Cycle   1  Pass 0  IDiag  1:
 FoFJK:  IHMeth= 1 ICntrl=       0 DoSepK=F KAlg= 0 I1Cent=           0 FoldK=F
 IRaf= 710000000 NMat=       1 IRICut=       1 DoRegI=T DoRafI=F ISym2E= 0 IDoP0=0 IntGTp=1.
 FoFCou: FMM=F IPFlag=           0 FMFlag=      100000 FMFlg1=           0
         NFxFlg=           0 DoJE=F BraDBF=F KetDBF=F FulRan=T
         wScrn=  0.000000 ICntrl=         0 IOpCl=  0 I1Cent=           0 NGrid=           0
         NMat0=    1 NMatS0=      1 NMatT0=    0 NMatD0=    1 NMtDS0=    0 NMtDT0=    0
 Symmetry not used in FoFCou.
 E= -1185.22184436916    
 DIIS: error= 3.96D-02 at cycle   1 NSaved=   1.
 NSaved= 1 IEnMin= 1 EnMin= -1185.22184436916     IErMin= 1 ErrMin= 3.96D-02
 ErrMax= 3.96D-02  0.00D+00 EMaxC= 1.00D-01 BMatC= 4.57D-01 BMatP= 4.57D-01
 IDIUse=3 WtCom= 6.04D-01 WtEn= 3.96D-01
 Coeff-Com:  0.100D+01
 Coeff-En:   0.100D+01
 Coeff:      0.100D+01
 Gap=     0.193 Goal=   None    Shift=    0.000
 GapD=    0.193 DampG=1.000 DampE=0.500 DampFc=0.5000 IDamp=-1.
 Damping current iteration by 5.00D-01
 RMSDP=5.34D-03 MaxDP=1.36D-01              OVMax= 1.69D-01

 Cycle   2  Pass 0  IDiag  1:
 RMSU=  2.48D-03    CP:  9.49D-01
 E= -1185.44788019380     Delta-E=       -0.226035824639 Rises=F Damp=T
 DIIS: error= 5.63D-03 at cycle   2 NSaved=   2.
 NSaved= 2 IEnMin= 2 EnMin= -1185.44788019380     IErMin= 2 ErrMin= 5.63D-03
 ErrMax= 5.63D-03  0.00D+00 EMaxC= 1.00D-01 BMatC= 3.46D-02 BMatP= 4.57D-01
 IDIUse=3 WtCom= 9.44D-01 WtEn= 5.63D-02
 Coeff-Com:  0.718D-01 0.928D+00
 Coeff-En:   0.951D-01 0.905D+00
 Coeff:      0.731D-01 0.927D+00
 Gap=     0.207 Goal=   None    Shift=    0.000
 RMSDP=1.69D-03 MaxDP=6.11D-02 DE=-2.26D-01 OVMax= 1.48D-01

 Cycle   3  Pass 0  IDiag  1:
 RMSU=  1.59D-03    CP:  9.20D-01  1.00D+00
 E= -1185.69332509373     Delta-E=       -0.245444899935 Rises=F Damp=F
 DIIS: error= 9.99D-03 at cycle   3 NSaved=   3.
 NSaved= 3 IEnMin= 3 EnMin= -1185.69332509373     IErMin= 2 ErrMin= 5.63D-03
 ErrMax= 9.99D-03  0.00D+00 EMaxC= 1.00D-01 BMatC= 5.03D-02 BMatP= 3.46D-02
 IDIUse=3 WtCom= 9.09D-02 WtEn= 9.09D-01
 Coeff-Com: -0.151D-01 0.559D+00 0.456D+00
 Coeff-En:   0.000D+00 0.000D+00 0.100D+01
 Coeff:     -0.138D-02 0.509D-01 0.950D+00
 Gap=     0.172 Goal=   None    Shift=    0.000
 RMSDP=1.92D-03 MaxDP=9.94D-02 DE=-2.45D-01 OVMax= 1.88D-01

 Cycle   4  Pass 0  IDiag  1:
 RMSU=  1.29D-03    CP:  9.25D-01  1.29D+00  2.33D-01
 E= -1185.52860969758     Delta-E=        0.164715396153 Rises=F Damp=F
 DIIS: error= 2.43D-02 at cycle   4 NSaved=   4.
 NSaved= 4 IEnMin= 3 EnMin= -1185.69332509373     IErMin= 2 ErrMin= 5.63D-03
 ErrMax= 2.43D-02  0.00D+00 EMaxC= 1.00D-01 BMatC= 2.31D-01 BMatP= 3.46D-02
 IDIUse=2 WtCom= 0.00D+00 WtEn= 1.00D+00
 Coeff-En:   0.000D+00 0.000D+00 0.764D+00 0.236D+00
 Coeff:      0.000D+00 0.000D+00 0.764D+00 0.236D+00
 Gap=     0.206 Goal=   None    Shift=    0.000
 RMSDP=1.04D-03 MaxDP=5.06D-02 DE= 1.65D-01 OVMax= 8.98D-02

 Cycle   5  Pass 0  IDiag  1:
 RMSU=  2.22D-04    CP:  9.21D-01  1.14D+00  6.37D-01  4.70D-01
 E= -1185.72591311961     Delta-E=       -0.197303422031 Rises=F Damp=F
 DIIS: error= 5.60D-03 at cycle   5 NSaved=   5.
 NSaved= 5 IEnMin= 5 EnMin= -1185.72591311961     IErMin= 5 ErrMin= 5.60D-03
 ErrMax= 5.60D-03  0.00D+00 EMaxC= 1.00D-01 BMatC= 1.48D-02 BMatP= 3.46D-02
 IDIUse=3 WtCom= 9.44D-01 WtEn= 5.60D-02
 Coeff-Com:  0.697D-02 0.341D-02 0.328D+00-0.176D-01 0.679D+00
 Coeff-En:   0.000D+00 0.000D+00 0.277D+00 0.000D+00 0.723D+00
 Coeff:      0.658D-02 0.322D-02 0.326D+00-0.166D-01 0.681D+00
 Gap=     0.190 Goal=   None    Shift=    0.000
 RMSDP=3.33D-04 MaxDP=1.72D-02 DE=-1.97D-01 OVMax= 3.19D-02

 Cycle   6  Pass 0  IDiag  1:
 RMSU=  9.29D-05    CP:  9.20D-01  1.09D+00  7.65D-01  3.06D-01  7.97D-01
 E= -1185.73910598063     Delta-E=       -0.013192861014 Rises=F Damp=F
 DIIS: error= 6.13D-04 at cycle   6 NSaved=   6.
 NSaved= 6 IEnMin= 6 EnMin= -1185.73910598063     IErMin= 6 ErrMin= 6.13D-04
 ErrMax= 6.13D-04  0.00D+00 EMaxC= 1.00D-01 BMatC= 1.63D-04 BMatP= 1.48D-02
 IDIUse=3 WtCom= 9.94D-01 WtEn= 6.13D-03
 Coeff-Com:  0.276D-02-0.682D-02 0.136D+00-0.421D-01 0.433D+00 0.477D+00
 Coeff-En:   0.000D+00 0.000D+00 0.000D+00 0.000D+00 0.000D+00 0.100D+01
 Coeff:      0.274D-02-0.677D-02 0.135D+00-0.418D-01 0.431D+00 0.480D+00
 Gap=     0.190 Goal=   None    Shift=    0.000
 RMSDP=4.40D-05 MaxDP=1.34D-03 DE=-1.32D-02 OVMax= 4.11D-03

 Cycle   7  Pass 0  IDiag  1:
 RMSU=  1.91D-05    CP:  9.20D-01  1.09D+00  7.66D-01  3.11D-01  8.23D-01
                    CP:  5.85D-01
 E= -1185.73928911440     Delta-E=       -0.000183133778 Rises=F Damp=F
 DIIS: error= 1.04D-04 at cycle   7 NSaved=   7.
 NSaved= 7 IEnMin= 7 EnMin= -1185.73928911440     IErMin= 7 ErrMin= 1.04D-04
 ErrMax= 1.04D-04  0.00D+00 EMaxC= 1.00D-01 BMatC= 7.86D-06 BMatP= 1.63D-04
 IDIUse=3 WtCom= 9.99D-01 WtEn= 1.04D-03
 Coeff-Com:  0.122D-02-0.380D-02 0.591D-01-0.243D-01 0.211D+00 0.270D+00
 Coeff-Com:  0.487D+00
 Coeff-En:   0.000D+00 0.000D+00 0.000D+00 0.000D+00 0.000D+00 0.000D+00
 Coeff-En:   0.100D+01
 Coeff:      0.122D-02-0.380D-02 0.591D-01-0.242D-01 0.211D+00 0.269D+00
 Coeff:      0.488D+00
 Gap=     0.190 Goal=   None    Shift=    0.000
 RMSDP=8.63D-06 MaxDP=4.86D-04 DE=-1.83D-04 OVMax= 8.65D-04

 Initial convergence to 1.0D-05 achieved.  Increase integral accuracy.
 Cycle   8  Pass 1  IDiag  1:
 E= -1185.73927173773     Delta-E=        0.000017376675 Rises=F Damp=F
 DIIS: error= 1.30D-04 at cycle   1 NSaved=   1.
 NSaved= 1 IEnMin= 1 EnMin= -1185.73927173773     IErMin= 1 ErrMin= 1.30D-04
 ErrMax= 1.30D-04  0.00D+00 EMaxC= 1.00D-01 BMatC= 4.94D-06 BMatP= 4.94D-06
 IDIUse=3 WtCom= 9.99D-01 WtEn= 1.30D-03
 Coeff-Com:  0.100D+01
 Coeff-En:   0.100D+01
 Coeff:      0.100D+01
 Gap=     0.190 Goal=   None    Shift=    0.000
 RMSDP=8.63D-06 MaxDP=4.86D-04 DE= 1.74D-05 OVMax= 5.59D-04

 Cycle   9  Pass 1  IDiag  1:
 RMSU=  1.45D-04    CP:  1.00D+00
 E= -1185.73927613480     Delta-E=       -0.000004397070 Rises=F Damp=F
 DIIS: error= 5.04D-05 at cycle   2 NSaved=   2.
 NSaved= 2 IEnMin= 2 EnMin= -1185.73927613480     IErMin= 2 ErrMin= 5.04D-05
 ErrMax= 5.04D-05  0.00D+00 EMaxC= 1.00D-01 BMatC= 1.48D-06 BMatP= 4.94D-06
 IDIUse=1 WtCom= 1.00D+00 WtEn= 0.00D+00
 Coeff-Com:  0.278D+00 0.722D+00
 Coeff:      0.278D+00 0.722D+00
 Gap=     0.190 Goal=   None    Shift=    0.000
 RMSDP=8.15D-06 MaxDP=3.37D-04 DE=-4.40D-06 OVMax= 7.32D-04

 Cycle  10  Pass 1  IDiag  1:
 RMSU=  8.04D-06    CP:  1.00D+00  1.01D+00
 E= -1185.73927512228     Delta-E=        0.000001012516 Rises=F Damp=F
 DIIS: error= 6.43D-05 at cycle   3 NSaved=   3.
 NSaved= 3 IEnMin= 2 EnMin= -1185.73927613480     IErMin= 2 ErrMin= 5.04D-05
 ErrMax= 6.43D-05  0.00D+00 EMaxC= 1.00D-01 BMatC= 2.50D-06 BMatP= 1.48D-06
 IDIUse=1 WtCom= 1.00D+00 WtEn= 0.00D+00
 Coeff-Com:  0.833D-02 0.563D+00 0.429D+00
 Coeff:      0.833D-02 0.563D+00 0.429D+00
 Gap=     0.190 Goal=   None    Shift=    0.000
 RMSDP=4.83D-06 MaxDP=2.10D-04 DE= 1.01D-06 OVMax= 5.06D-04

 Cycle  11  Pass 1  IDiag  1:
 RMSU=  1.25D-06    CP:  1.00D+00  1.01D+00  4.29D-01
 E= -1185.73927758028     Delta-E=       -0.000002457999 Rises=F Damp=F
 DIIS: error= 1.68D-05 at cycle   4 NSaved=   4.
 NSaved= 4 IEnMin= 4 EnMin= -1185.73927758028     IErMin= 4 ErrMin= 1.68D-05
 ErrMax= 1.68D-05  0.00D+00 EMaxC= 1.00D-01 BMatC= 8.22D-08 BMatP= 1.48D-06
 IDIUse=1 WtCom= 1.00D+00 WtEn= 0.00D+00
 Coeff-Com: -0.421D-02 0.344D+00 0.279D+00 0.382D+00
 Coeff:     -0.421D-02 0.344D+00 0.279D+00 0.382D+00
 Gap=     0.190 Goal=   None    Shift=    0.000
 RMSDP=7.24D-07 MaxDP=3.75D-05 DE=-2.46D-06 OVMax= 8.02D-05

 Cycle  12  Pass 1  IDiag  1:
 RMSU=  2.83D-07    CP:  1.00D+00  1.01D+00  4.51D-01  4.87D-01
 E= -1185.73927765298     Delta-E=       -0.000000072701 Rises=F Damp=F
 DIIS: error= 1.27D-06 at cycle   5 NSaved=   5.
 NSaved= 5 IEnMin= 5 EnMin= -1185.73927765298     IErMin= 5 ErrMin= 1.27D-06
 ErrMax= 1.27D-06  0.00D+00 EMaxC= 1.00D-01 BMatC= 6.32D-10 BMatP= 8.22D-08
 IDIUse=1 WtCom= 1.00D+00 WtEn= 0.00D+00
 Coeff-Com: -0.237D-02 0.172D+00 0.140D+00 0.202D+00 0.489D+00
 Coeff:     -0.237D-02 0.172D+00 0.140D+00 0.202D+00 0.489D+00
 Gap=     0.190 Goal=   None    Shift=    0.000
 RMSDP=1.03D-07 MaxDP=2.58D-06 DE=-7.27D-08 OVMax= 7.77D-06

 Cycle  13  Pass 1  IDiag  1:
 RMSU=  8.86D-08    CP:  1.00D+00  1.01D+00  4.50D-01  4.80D-01  8.23D-01
 E= -1185.73927765356     Delta-E=       -0.000000000573 Rises=F Damp=F
 DIIS: error= 3.93D-07 at cycle   6 NSaved=   6.
 NSaved= 6 IEnMin= 6 EnMin= -1185.73927765356     IErMin= 6 ErrMin= 3.93D-07
 ErrMax= 3.93D-07  0.00D+00 EMaxC= 1.00D-01 BMatC= 7.11D-11 BMatP= 6.32D-10
 IDIUse=1 WtCom= 1.00D+00 WtEn= 0.00D+00
 Coeff-Com: -0.904D-03 0.611D-01 0.494D-01 0.741D-01 0.283D+00 0.533D+00
 Coeff:     -0.904D-03 0.611D-01 0.494D-01 0.741D-01 0.283D+00 0.533D+00
 Gap=     0.190 Goal=   None    Shift=    0.000
 RMSDP=3.08D-08 MaxDP=8.83D-07 DE=-5.73D-10 OVMax= 2.94D-06

 Cycle  14  Pass 1  IDiag  1:
 RMSU=  2.37D-08    CP:  1.00D+00  1.01D+00  4.49D-01  4.82D-01  8.42D-01
                    CP:  8.25D-01
 E= -1185.73927765359     Delta-E=       -0.000000000036 Rises=F Damp=F
 DIIS: error= 7.80D-08 at cycle   7 NSaved=   7.
 NSaved= 7 IEnMin= 7 EnMin= -1185.73927765359     IErMin= 7 ErrMin= 7.80D-08
 ErrMax= 7.80D-08  0.00D+00 EMaxC= 1.00D-01 BMatC= 3.79D-12 BMatP= 7.11D-11
 IDIUse=1 WtCom= 1.00D+00 WtEn= 0.00D+00
 Coeff-Com: -0.173D-03 0.108D-01 0.874D-02 0.131D-01 0.792D-01 0.245D+00
 Coeff-Com:  0.644D+00
 Coeff:     -0.173D-03 0.108D-01 0.874D-02 0.131D-01 0.792D-01 0.245D+00
 Coeff:      0.644D+00
 Gap=     0.190 Goal=   None    Shift=    0.000
 RMSDP=7.47D-09 MaxDP=2.45D-07 DE=-3.59D-11 OVMax= 3.99D-07

 SCF Done:  E(RB3LYP) =  -1185.73927765     A.U. after   14 cycles
            NFock= 14  Conv=0.75D-08     -V/T= 2.0091
 KE= 1.175027775700D+03 PE=-7.372604333044D+03 EE= 2.702111874747D+03
 Leave Link  502 at Mon Feb 26 00:22:54 2024, MaxMem=  7516192768 cpu:             617.0 elap:              15.5
 (Enter /public/apps/g16-C01//g16/l601.exe)
 Copying SCF densities to generalized density rwf, IOpCl= 0 IROHF=0.

 **********************************************************************

            Population analysis using the SCF Density.

 **********************************************************************

 Alpha  occ. eigenvalues --  -19.17187 -19.17185 -14.30403 -14.30402 -10.27733
 Alpha  occ. eigenvalues --  -10.27732 -10.23946 -10.23941 -10.22129 -10.22129
 Alpha  occ. eigenvalues --  -10.20632 -10.20628 -10.19831 -10.19827 -10.19524
 Alpha  occ. eigenvalues --  -10.19499 -10.18984 -10.18979 -10.18350 -10.18347
 Alpha  occ. eigenvalues --  -10.18290 -10.18287 -10.18112 -10.18104 -10.18062
 Alpha  occ. eigenvalues --  -10.18056 -10.17662 -10.17648  -1.09091  -1.09084
 Alpha  occ. eigenvalues --   -0.91039  -0.90886  -0.87375  -0.85395  -0.85219
 Alpha  occ. eigenvalues --   -0.80618  -0.78821  -0.75902  -0.75425  -0.74024
 Alpha  occ. eigenvalues --   -0.74014  -0.72746  -0.71755  -0.65398  -0.65320
 Alpha  occ. eigenvalues --   -0.63632  -0.62714  -0.60531  -0.60435  -0.59139
 Alpha  occ. eigenvalues --   -0.58073  -0.57171  -0.55234  -0.53573  -0.52708
 Alpha  occ. eigenvalues --   -0.52567  -0.50789  -0.50274  -0.49029  -0.48627
 Alpha  occ. eigenvalues --   -0.48073  -0.46815  -0.45762  -0.45727  -0.45068
 Alpha  occ. eigenvalues --   -0.45009  -0.43895  -0.43157  -0.42483  -0.42430
 Alpha  occ. eigenvalues --   -0.41868  -0.41568  -0.41486  -0.41045  -0.40599
 Alpha  occ. eigenvalues --   -0.39299  -0.38446  -0.38139  -0.37195  -0.36168
 Alpha  occ. eigenvalues --   -0.35928  -0.35605  -0.35561  -0.34561  -0.34516
 Alpha  occ. eigenvalues --   -0.34383  -0.34287  -0.28031  -0.27949  -0.27790
 Alpha  occ. eigenvalues --   -0.27611  -0.25587  -0.25582  -0.25014  -0.24961
 Alpha  occ. eigenvalues --   -0.24426  -0.24381
 Alpha virt. eigenvalues --   -0.05352  -0.04166  -0.00867  -0.00865  -0.00252
 Alpha virt. eigenvalues --   -0.00233   0.03345   0.05924   0.06496   0.06895
 Alpha virt. eigenvalues --    0.07202   0.07567   0.08661   0.09260   0.09303
 Alpha virt. eigenvalues --    0.10804   0.10862   0.11308   0.11336   0.11981
 Alpha virt. eigenvalues --    0.12547   0.13235   0.13932   0.14031   0.14678
 Alpha virt. eigenvalues --    0.14927   0.15016   0.15321   0.16090   0.16964
 Alpha virt. eigenvalues --    0.17075   0.17883   0.18263   0.18683   0.19139
 Alpha virt. eigenvalues --    0.22961   0.22993   0.25538   0.25832   0.26142
 Alpha virt. eigenvalues --    0.26428   0.27464   0.28633   0.28941   0.29540
 Alpha virt. eigenvalues --    0.29850   0.30180   0.30433   0.31315   0.31407
 Alpha virt. eigenvalues --    0.32107   0.32459   0.33084   0.34564   0.34849
 Alpha virt. eigenvalues --    0.35381   0.36194   0.36216   0.37728   0.38245
 Alpha virt. eigenvalues --    0.40190   0.40924   0.41354   0.42017   0.42141
 Alpha virt. eigenvalues --    0.42424   0.43204   0.43600   0.43786   0.44073
 Alpha virt. eigenvalues --    0.45684   0.45964   0.46155   0.46692   0.47115
 Alpha virt. eigenvalues --    0.47140   0.47538   0.47937   0.48422   0.48869
 Alpha virt. eigenvalues --    0.49348   0.49771   0.49839   0.50360   0.50909
 Alpha virt. eigenvalues --    0.51393   0.51993   0.52407   0.53387   0.53980
 Alpha virt. eigenvalues --    0.54025   0.55995   0.56214   0.56696   0.57569
 Alpha virt. eigenvalues --    0.58435   0.58488   0.59400   0.59448   0.59660
 Alpha virt. eigenvalues --    0.60811   0.61643   0.61696   0.62723   0.63028
 Alpha virt. eigenvalues --    0.64265   0.64538   0.65226   0.65422   0.66708
 Alpha virt. eigenvalues --    0.66740   0.67084   0.67118   0.67497   0.67922
 Alpha virt. eigenvalues --    0.68376   0.68430   0.68753   0.69207   0.69560
 Alpha virt. eigenvalues --    0.69752   0.69882   0.70143   0.70419   0.70900
 Alpha virt. eigenvalues --    0.71320   0.71498   0.72211   0.72482   0.72806
 Alpha virt. eigenvalues --    0.73407   0.74146   0.74302   0.74500   0.74786
 Alpha virt. eigenvalues --    0.75321   0.75391   0.76765   0.76838   0.77124
 Alpha virt. eigenvalues --    0.77699   0.78090   0.78760   0.80275   0.80514
 Alpha virt. eigenvalues --    0.81673   0.82371   0.83033   0.83952   0.85200
 Alpha virt. eigenvalues --    0.86207   0.86341   0.86771   0.86970   0.88822
 Alpha virt. eigenvalues --    0.89782   0.91057   0.91802   0.92800   0.95113
 Alpha virt. eigenvalues --    0.96107   0.96152   1.00773   1.01734   1.04822
 Alpha virt. eigenvalues --    1.05213   1.05641   1.07174   1.09754   1.10701
 Alpha virt. eigenvalues --    1.11554   1.11976   1.12829   1.14856   1.15410
 Alpha virt. eigenvalues --    1.17250   1.19102   1.19972   1.20097   1.24052
 Alpha virt. eigenvalues --    1.25388   1.25757   1.27245   1.27886   1.28288
 Alpha virt. eigenvalues --    1.28495   1.30801   1.31253   1.37658   1.37735
 Alpha virt. eigenvalues --    1.37753   1.39265   1.40715   1.43090   1.43117
 Alpha virt. eigenvalues --    1.44548   1.46212   1.46930   1.46962   1.48264
 Alpha virt. eigenvalues --    1.48516   1.48565   1.49173   1.49228   1.50746
 Alpha virt. eigenvalues --    1.50855   1.52032   1.52461   1.52707   1.56083
 Alpha virt. eigenvalues --    1.58877   1.62109   1.62233   1.64117   1.66977
 Alpha virt. eigenvalues --    1.67408   1.68371   1.70735   1.73028   1.73952
 Alpha virt. eigenvalues --    1.75110   1.75321   1.77079   1.77438   1.78296
 Alpha virt. eigenvalues --    1.78475   1.79780   1.82592   1.82802   1.83257
 Alpha virt. eigenvalues --    1.83900   1.86035   1.86350   1.86597   1.86836
 Alpha virt. eigenvalues --    1.87417   1.88669   1.88697   1.91938   1.92415
 Alpha virt. eigenvalues --    1.93641   1.94495   1.97808   1.98531   1.99440
 Alpha virt. eigenvalues --    1.99544   1.99769   2.01301   2.03241   2.04144
 Alpha virt. eigenvalues --    2.06786   2.07276   2.08442   2.08798   2.09181
 Alpha virt. eigenvalues --    2.09227   2.11928   2.12647   2.13550   2.14503
 Alpha virt. eigenvalues --    2.14555   2.14653   2.15728   2.18082   2.18994
 Alpha virt. eigenvalues --    2.21183   2.21329   2.22546   2.22645   2.23196
 Alpha virt. eigenvalues --    2.27153   2.27307   2.28298   2.29226   2.29845
 Alpha virt. eigenvalues --    2.30770   2.31371   2.31898   2.32019   2.35435
 Alpha virt. eigenvalues --    2.36844   2.36967   2.40282   2.43841   2.43947
 Alpha virt. eigenvalues --    2.47898   2.48144   2.50352   2.51791   2.53215
 Alpha virt. eigenvalues --    2.53406   2.53614   2.53892   2.59725   2.62151
 Alpha virt. eigenvalues --    2.62448   2.63305   2.66798   2.66972   2.70010
 Alpha virt. eigenvalues --    2.70096   2.70258   2.70527   2.72330   2.72343
 Alpha virt. eigenvalues --    2.73919   2.74007   2.74836   2.75685   2.77377
 Alpha virt. eigenvalues --    2.78045   2.79579   2.82233   2.86853   2.87238
 Alpha virt. eigenvalues --    2.87644   2.91844   2.92443   2.96356   2.96890
 Alpha virt. eigenvalues --    3.00416   3.04175   3.08153   3.10573   3.11406
 Alpha virt. eigenvalues --    3.14210   3.24647   3.26919   3.28941   3.41417
 Alpha virt. eigenvalues --    3.41448   3.41645   3.48573   3.60634   3.61517
          Condensed to atoms (all electrons):
               1          2          3          4          5          6
     1  C    5.289776   0.160502   0.167975  -0.206865  -0.001114   0.000042
     2  C    0.160502   5.272519   0.152272   0.167007   0.020315   0.000164
     3  C    0.167975   0.152272   5.334004   0.245848  -0.111529   0.003444
     4  C   -0.206865   0.167007   0.245848   5.359277   0.274416  -0.049180
     5  C   -0.001114   0.020315  -0.111529   0.274416   5.078169   0.332642
     6  C    0.000042   0.000164   0.003444  -0.049180   0.332642   4.783816
     7  O   -0.000000   0.000006   0.000462   0.000978  -0.063194   0.330801
     8  C   -0.000000  -0.000081   0.002637  -0.000333  -0.063743  -0.114582
     9  C    0.000000  -0.000035  -0.000783   0.000236   0.020667   0.003672
    10  C    0.000000  -0.000000  -0.000017   0.000008  -0.000111  -0.000355
    11  C   -0.000000  -0.000000   0.000000   0.000000   0.000018   0.000003
    12  C   -0.000000   0.000000  -0.000000  -0.000000   0.000001   0.000002
    13  C   -0.000000   0.000000  -0.000003  -0.000002  -0.000027   0.000029
    14  C   -0.000000  -0.000000   0.000000   0.000000  -0.000000  -0.000000
    15  N   -0.000000   0.000000   0.000000   0.000000  -0.000000   0.000000
    16  C    0.000000  -0.000000  -0.000000  -0.000000   0.000000  -0.000000
    17  C   -0.000000  -0.000000   0.000000   0.000000  -0.000000   0.000000
    18  C    0.000000  -0.000000  -0.000000  -0.000000   0.000000  -0.000000
    19  C   -0.000000   0.000000   0.000000   0.000000  -0.000000   0.000000
    20  C    0.000000  -0.000000  -0.000000  -0.000000   0.000000  -0.000000
    21  C   -0.000000   0.000000   0.000000  -0.000000  -0.000000   0.000000
    22  C   -0.000000   0.000000   0.000000   0.000000  -0.000000   0.000000
    23  C   -0.000000   0.000000   0.000000   0.000000  -0.000000   0.000000
    24  O   -0.000000   0.000000   0.000000   0.000000   0.000000   0.000000
    25  C    0.000000   0.000000  -0.000057  -0.000057  -0.000945   0.000359
    26  N    0.000004   0.000774   0.005859  -0.079029   0.390337  -0.055416
    27  C    0.166429  -0.198396   0.109259   0.170026  -0.115809  -0.010752
    28  C    0.168926   0.170282  -0.184315   0.175913   0.013439  -0.000378
    29  H    0.441654  -0.084787   0.016154  -0.001880   0.000043   0.000001
    30  H   -0.088923   0.445029  -0.086623   0.017664  -0.000429   0.000004
    31  H    0.015097  -0.089234   0.435897  -0.063826  -0.038170   0.002569
    32  H    0.000014  -0.000467   0.007283  -0.021118   0.321846  -0.022896
    33  H    0.000003   0.000008  -0.000492   0.002455   0.002466   0.338684
[...]
 .00013889,-0.00004546,0.00002807,0.00003000,0.00006574,-0.00005090,-0.
 00005245,0.00001610,0.00001655,0.00003722,0.00007498,-0.00003323,0.000
 43285,0.00006324,-0.00084887,-0.00171815,-0.00439126,0.00557649,-0.002
 35349,0.00124004,-0.00064961,-0.01242502,-0.01079717,-0.01456218,-0.00
 146392,0.00108150,-0.00180465,0.00046886,0.00013681,-0.00011910,0.0001
 7568,-0.00000155,0.00009948,-0.00002609,-0.00007071,-0.00005251,-0.000
 07965,0.00003540,0.00010545,0.00016615,0.00010999,0.00051228,-0.076899
 24,-0.09228458,-0.07178876,0.02998389,0.00835716,0.01449887,-0.0001735
 0,-0.00016425,-0.00000091,0.00001608,0.00002109,-0.00000349,0.00000061
 ,0.00000252,0.00000256,-0.00000030,-0.00000008,0.00000035,0.00000040,0
 .00000041,-0.00000013,0.00000106,0.00000167,0.00000137,0.00000006,-0.0
 0000374,-0.00000287,0.00000275,0.00000059,-0.00000061,0.00000178,0.000
 00114,-0.00000123,0.00000237,0.00000049,0.00000061,0.00000191,0.000001
 23,0.00000045,0.00000430,-0.00000710,0.00000033,-0.00000601,0.00004364
 ,0.00002728,-0.00286072,-0.00289699,0.00219835,-0.00008219,-0.00010277
 ,-0.00002114,-0.00001505,-0.00002073,0.00001416,-0.00000911,0.00000095
 ,-0.00001085,0.00002675,0.00000326,0.00000331,-0.00003414,-0.00004939,
 0.00003222,-0.00339872,0.00035915,-0.00195581,0.07010838,0.09925420,-0
 .00000065,-0.00000022,0.00000031,-0.00000100,0.00000023,0.00000105,0.0
 0000216,-0.00000074,-0.00000197,-0.00000181,0.00000453,0.00000287,0.00
 001449,0.00000233,-0.00000500,0.00001173,0.00000610,-0.00000747,-0.000
 03502,-0.00000259,0.00001433,0.00005130,0.00001444,-0.00002458,-0.0000
 2757,0.00003107,0.00002542,-0.00001364,-0.00000509,0.00000992,0.000004
 76,-0.00001584,0.00001208,-0.00001004,-0.00002565,0.00001601,-0.000154
 52,-0.00005656,-0.00005370,0.00193713,0.00068219,-0.00222926,0.0003708
 1,-0.00030269,-0.00047582,0.00799311,0.00527683,0.00855197,0.00054237,
 0.00135823,0.00152134,0.00010552,0.00006464,0.00016746,0.00002678,-0.0
 0005229,0.00007518,0.00011149,-0.00001349,-0.00000174,-0.00018740,-0.0
 0001477,-0.00005818,0.00029010,-0.00031035,0.00023934,-0.10871819,-0.0
 7004043,-0.16054866,-0.00380617,0.00478484,0.00716627,0.00007732,0.000
 02529,-0.00001613,-0.00002590,-0.00001548,0.00001242,-0.00000080,-0.00
 000315,-0.00000268,-0.00000024,-0.00000022,0.00000025,-0.00000073,-0.0
 0000106,-0.00000032,0.00000075,0.00000047,-0.00000030,0.00000064,0.000
 00146,0.00000165,-0.00000461,-0.00000051,0.00000324,-0.00000247,0.0000
 0041,0.00000232,-0.00000253,-0.00000130,-0.00000027,-0.00000307,-0.000
 00092,-0.00000350,-0.00000644,0.00000581,-0.00000423,-0.00000049,-0.00
 005174,0.00000849,0.00112067,0.00196974,0.00003956,0.00000828,-0.00007
 228,-0.00010716,0.00000486,-0.00002886,0.00000539,0.00000476,-0.000013
 79,0.00000062,0.00002521,0.00000677,0.00002731,0.00000038,0.00004355,-
 0.00004976,-0.01846031,-0.01203221,-0.01513160,0.11875785,0.06879455,0
 .16083380,0.00002041,0.00003061,-0.00000179,0.00002709,-0.00003375,-0.
 00005334,-0.00002328,0.00002994,0.00011386,-0.00001554,-0.00007718,-0.
 00006350,-0.00017886,-0.00075684,0.00041769,0.00013166,-0.00012425,0.0
 0002085,0.00112516,-0.00098708,-0.00007393,-0.00052727,0.00136995,-0.0
 0179603,0.00512712,0.02368651,-0.00908919,-0.00365291,0.00251654,0.002
 63075,-0.00077269,0.00000963,0.00001899,-0.00366338,-0.00005491,0.0036
 3635,0.00504721,-0.02362713,0.00938362,-0.00053405,-0.00222281,-0.0003
 8506,-0.00018423,-0.00033753,0.00025607,-0.00017660,0.00084044,-0.0002
 0605,-0.00001485,0.00001328,-0.00009952,0.00000116,-0.00001169,0.00006
 995,0.00001196,-0.00001061,0.00000634,0.00002055,-0.00002384,0.0000194
 2,0.00002783,-0.00001129,-0.00006234,-0.00002393,0.00005440,0.00010573
 ,0.00013253,0.00010489,-0.00006928,0.00112733,0.00067138,-0.00072211,-
 0.05565780,0.00105193,0.00397888,-0.00017193,0.00042631,-0.00003806,0.
 00000125,0.00005580,0.00004404,0.00001185,0.00001206,-0.00000264,0.000
 01642,0.00001392,0.00000145,-0.00000023,0.00000908,0.00001796,-0.00011
 258,-0.00005864,-0.00013924,-0.00000072,0.00000346,-0.00005442,0.00003
 468,-0.00005891,0.00000155,0.00005315,-0.00000876,0.00001090,0.0001732
 9,0.00123984,-0.00049299,-0.00004966,-0.00010593,-0.00027144,0.0001692
 0,-0.00124770,0.00047677,-0.00000081,-0.00003949,-0.00003785,-0.000003
 78,0.00000721,-0.00000987,0.00001866,-0.00000993,0.00000484,0.00001648
 ,-0.00000928,0.00001053,-0.00000025,0.00000536,0.00001954,-0.00010893,
 -0.00005162,-0.00014418,0.00003490,0.00004432,-0.00003882,0.00005331,0
 .00001368,0.00000205,0.05247624,-0.00000646,-0.00001359,-0.00000702,0.
 00000896,-0.00001104,0.00000352,-0.00000448,-0.00003476,0.00002339,0.0
 0001856,0.00008209,0.00002884,0.00004669,0.00028815,-0.00022916,-0.000
 11925,0.00005038,0.00009899,-0.00000209,0.00002319,0.00000304,-0.00103
 767,-0.00146747,-0.00064969,-0.00040357,-0.01021255,0.00625210,0.00298
 307,0.00097268,0.00112001,0.00003151,0.00041428,-0.00044954,-0.0005343
 9,0.00174754,0.00206348,0.00044814,-0.00458703,0.00371388,0.00014103,-
 0.00109196,-0.00120992,0.00134857,-0.00024615,-0.00032775,-0.00005118,
 0.00009923,-0.00014255,0.00000818,0.00000316,-0.00001598,0.00000283,-0
 .00000705,0.00000430,0.00000278,-0.00000518,-0.00000240,0.00000212,-0.
 00000257,0.00000463,0.00000043,-0.00001503,0.00000318,-0.00004176,-0.0
 0000105,0.00000137,0.00010666,-0.00000405,0.00003318,-0.00023609,-0.00
 014145,0.00017993,0.00107582,-0.30727581,0.10245443,-0.00129444,0.0000
 2285,0.00050739,-0.00001331,-0.00003057,-0.00001689,0.00000489,0.00000
 098,0.00000393,-0.00000187,-0.00000019,-0.00000263,-0.00000910,-0.0000
 0636,-0.00001045,-0.00002769,0.00004264,-0.00003249,-0.00001877,0.0000
 0480,0.00002267,-0.00003215,0.00002790,-0.00000515,-0.00001174,0.00001
 279,-0.00001635,-0.00016868,-0.00041094,0.00026569,-0.00010606,-0.0001
 6024,-0.00026331,0.00016529,-0.00013648,0.00007308,0.00004710,-0.00000
 095,-0.00003124,0.00000320,0.00000225,-0.00000232,0.00000179,0.0000001
 5,0.00000092,0.00000222,0.00000143,0.00000002,0.00000251,0.00000572,0.
 00000097,-0.00001301,0.00004952,-0.00000014,0.00000795,0.00001768,-0.0
 0000948,0.00001014,0.00000106,-0.00001146,-0.00233997,0.32198987,-0.00
 000377,-0.00000715,-0.00000521,0.00001078,0.00000731,-0.00000802,-0.00
 006704,-0.00003547,0.00002784,0.00003202,0.00006970,0.00001666,-0.0000
 2639,0.00006067,-0.00030327,0.00002825,0.00009167,0.00013982,-0.000346
 54,0.00035593,0.00005629,-0.00091156,-0.00161247,-0.00311374,0.0002688
 1,-0.00229318,0.00619352,0.00242879,0.00123421,0.00521435,0.00007497,-
 0.00045009,-0.00056162,0.00380447,0.00194764,0.00444973,-0.00002272,0.
 01225105,0.00065705,-0.00138354,-0.00024163,-0.00348779,-0.00044136,0.
 00022081,0.00021266,0.00001154,-0.00043235,-0.00011631,0.00003643,-0.0
 0005707,0.00009582,-0.00001634,0.00000866,-0.00004432,0.00001031,-0.00
 000291,0.00000265,-0.00000712,0.00000482,-0.00001596,0.00001443,-0.000
 00111,-0.00000393,-0.00005312,0.00006061,-0.00000673,-0.00005960,0.000
 04099,0.00019343,-0.00025466,-0.00017331,0.00021896,0.00404789,0.10245
 813,-0.08478460,0.00058975,-0.00003918,-0.00004476,-0.00001034,-0.0000
 2115,-0.00002068,0.00000956,0.00000451,-0.00000360,0.00000137,-0.00000
 165,-0.00000147,-0.00000632,-0.00001226,-0.00000460,-0.00005446,-0.000
 00739,0.00001241,0.00004910,-0.00002509,-0.00001034,-0.00002314,0.0000
 0141,0.00000183,0.00000234,0.00000121,-0.00002903,0.00006247,-0.000219
 97,0.00022947,-0.00027162,-0.00026313,-0.00073334,-0.00006642,0.000558
 98,-0.00004083,0.00002362,0.00001638,-0.00000472,0.00001374,-0.0000093
 8,-0.00000554,-0.00000310,0.00000071,-0.00000375,-0.00000017,-0.000000
 94,-0.00000300,-0.00001066,0.00000283,-0.00001667,-0.00005612,-0.00002
 667,0.00000609,-0.00003868,-0.00001593,0.00001186,-0.00000616,-0.00002
 897,-0.00001740,-0.00739087,-0.11341804,0.07565984,0.00081885,-0.00485
 976,0.00118440,-0.00083368,-0.00044469,-0.00031748,-0.00176448,-0.0043
 6273,0.00379968,-0.00259617,0.01324976,0.02096648,-0.00004628,0.002274
 31,0.00018889,-0.00013995,-0.00002143,0.00040098,0.00007972,0.00004458
 ,-0.00009554,0.00000770,-0.00007768,0.00002273,0.00002713,0.00003128,0
 .00003156,0.00001195,-0.00001091,-0.00000078,0.00001350,-0.00000806,-0
 .00000991,0.00000683,0.00001312,-0.00000657,0.00000370,-0.00000302,-0.
 00000636,-0.00002952,0.00002062,0.00000646,0.00001265,-0.00001698,-0.0
 0000587,-0.00000601,0.00000427,0.00000411,0.00000252,-0.00000080,-0.00
 000138,0.00000028,-0.00000050,0.00000167,0.00000039,-0.00000046,-0.000
 00024,0.00000004,0.00000036,-0.00000109,0.00000087,-0.00000003,0.00000
 141,-0.00000280,0.00000197,-0.00000032,-0.00000705,0.00000571,0.000001
 46,0.00002023,-0.00000858,-0.00000491,0.00000454,0.00001947,-0.0000137
 6,0.00011510,0.00003683,-0.00060848,-0.07279915,0.02907154,0.06852797,
 0.00849366,-0.00891979,-0.01482772,0.00031210,-0.00051408,-0.00061389,
 -0.00029557,0.00044138,-0.00035977,-0.00011722,0.00067782,0.00111740,-
 0.00031589,-0.00034674,-0.00095887,0.00005121,-0.00000609,-0.00006148,
 -0.00004859,0.00006674,-0.00005118,-0.00000151,-0.00000628,0.00000924,
 0.00000286,0.00000361,-0.00000134,0.00000103,0.00000154,0.00000087,0.0
 0000385,-0.00000249,-0.00000249,0.00000032,0.00000010,-0.00000123,0.00
 000107,-0.00000067,-0.00000012,0.00000011,-0.00000030,0.00000058,-0.00
 000131,0.00000007,-0.00000135,-0.00000049,-0.00000072,0.00000057,0.000
 00199,-0.00000052,-0.00000146,0.00000101,-0.00000104,0.00000047,-0.000
 00381,0.00000682,0.00001223,0.06966176,-0.00566069,-0.00042470,-0.0025
 7739,-0.00035871,-0.00038581,0.00061325,-0.00358617,0.00235744,-0.0011
 1476,-0.00280182,0.00792056,0.00707894,0.00074395,-0.00114733,0.001540
 82,0.00004480,-0.00036702,-0.00004014,0.00005587,0.00003908,-0.0000317
 6,-0.00004766,-0.00011631,0.00004981,0.00000246,0.00000353,-0.00001891
 ,0.00001148,-0.00001517,0.00000132,0.00001754,-0.00000593,0.00000013,0
 .00000831,0.00001331,-0.00000762,0.00000706,0.00000004,-0.00000192,-0.
 00004573,0.00003305,0.00000186,0.00002743,-0.00002487,0.00000943,-0.00
 001586,0.00000523,-0.00000146,-0.00000023,0.00000314,-0.00000807,0.000
 00096,-0.00000104,0.00000503,0.,-0.00000062,0.00000009,0.00000084,-0.0
 0000134,0.00000178,0.00000077,-0.00000133,-0.00000401,-0.00000051,-0.0
 0000138,0.00000428,-0.00001099,0.00000947,-0.00000172,0.00002945,-0.00
 001776,-0.00000212,0.00000330,0.00001849,-0.00000777,0.00041995,0.0002
 4074,-0.00007068,0.02884487,-0.11617699,-0.11680926,0.00869377,-0.0079
 7137,-0.02109417,0.00030105,-0.00037843,-0.00104590,0.00043842,-0.0004
 0321,0.00033901,-0.00025272,0.00029489,0.00038425,-0.00003434,0.000343
 37,0.00039238,-0.00005511,-0.00016654,0.00012622,0.00000843,-0.0000603
 9,0.00003052,-0.00000515,-0.00000937,0.00000283,0.00000224,0.00000317,
 -0.00000255,0.00000011,0.00000159,-0.00000161,0.00000507,-0.00000206,-
 0.00000149,-0.00000091,0.00000091,0.00000012,0.00000106,-0.00000035,0.
 00000023,0.00000152,-0.00000043,0.00000080,0.00000049,0.00000107,0.000
 00196,-0.00000060,0.00000124,-0.00000499,0.00000175,-0.00000115,-0.000
 00083,0.00000285,0.00000005,0.00000095,-0.00001199,0.00000459,0.000000
 12,-0.02854310,0.11714899,0.00026105,-0.00335990,0.00311296,-0.0002946
 2,0.00067802,0.00033166,0.00448225,-0.00005042,0.00195749,0.00262768,-
 0.00935453,-0.00977035,-0.00225113,0.00043891,-0.00073054,0.00054509,0
 .00041079,0.00002671,-0.00042218,0.00025530,0.00008204,0.00009867,-0.0
 0036907,0.00007217,-0.00002693,0.00000152,-0.00000598,-0.00000281,-0.0
 0000401,-0.00000130,0.00000156,0.00000201,0.00000464,-0.00000128,0.000
 00053,-0.00000013,-0.00001141,0.00000704,0.00000621,0.00000633,-0.0000
 2486,0.00000441,0.00000042,0.00001847,0.00000167,-0.00000095,-0.000002
 92,-0.00000256,-0.00000091,0.00000119,0.00000053,0.00000043,0.00000098
 ,-0.00000018,-0.00000019,0.00000109,0.00000039,0.00000019,0.00000069,-
 0.00000011,0.00000051,0.00000093,-0.00000138,0.00000173,0.00000040,0.0
 0000048,0.00000008,-0.00000180,-0.00000083,0.00000140,0.00001007,-0.00
 000410,0.00000396,-0.00001666,0.00000814,-0.00002490,0.00012481,0.0002
 5276,0.06871156,-0.11750764,-0.23698043,0.00450978,-0.00323171,-0.0045
 1446,0.00027712,-0.00016971,-0.00027469,-0.00033421,0.00031641,-0.0004
 0731,0.00009310,-0.00064315,-0.00050725,0.00051759,0.00036187,0.000133
 27,-0.00002301,0.00033000,0.00007769,0.00001137,-0.00002262,-0.0001510
 0,0.00000339,0.00000546,-0.00000729,-0.00000050,0.00000003,-0.00000050
 ,-0.00000095,-0.00000081,-0.00000130,-0.00000332,0.00000180,0.00000261
 ,-0.00000084,-0.00000054,0.00000044,-0.00000039,-0.00000047,-0.0000001
 1,-0.00000016,-0.00000065,0.00000014,-0.00000040,-0.00000084,0.0000003
 9,-0.00000067,-0.00000158,-0.00000057,-0.00000074,-0.00000011,0.000000
 01,0.00000058,0.00000076,0.00000051,-0.00000242,-0.00000689,-0.0000078
 8,-0.07703168,0.13020091,0.24797381,-0.00312655,-0.00400827,0.00258656
 ,0.00309744,-0.00066757,0.00312087,0.00036441,0.00028974,-0.00075724,0
 .00196882,-0.00489835,0.00014208,-0.00019687,0.00028605,0.00072478,-0.
 00003270,0.00007906,-0.00004327,0.00002286,-0.00014729,0.00002199,-0.0
 0005149,0.00025184,-0.00009844,0.00001474,-0.00001427,0.00003115,-0.00
 001718,0.00002006,-0.00000032,-0.00002376,0.00000519,0.00000210,-0.000
 00817,-0.00001841,0.00001024,-0.00000376,-0.00000102,0.00000015,0.0000
 6003,-0.00003200,-0.00000710,-0.00003691,0.00002595,-0.00000894,0.0000
 2141,-0.00000765,0.00000076,-0.00000034,-0.00000366,0.00000950,-0.0000
 0124,0.00000126,-0.00000626,-0.00000004,0.00000079,-0.00000013,-0.0000
 0097,0.00000138,-0.00000136,-0.00000123,0.00000123,0.00000391,0.000001
 42,0.00000042,-0.00000476,0.00001500,-0.00001253,0.00000166,-0.0000418
 5,0.00001855,0.00000659,-0.00000673,-0.00001529,0.00000568,-0.00020793
 ,-0.00035170,-0.00005346,-0.00938326,-0.00271214,0.01011829,-0.2343032
 2,-0.07059912,0.12155242,-0.00075901,0.00180423,-0.00141744,-0.0001907
 9,-0.00025469,0.00012152,-0.00036125,0.00033966,-0.00030182,-0.0000102
 1,-0.00002861,-0.00004256,0.00001456,-0.00002723,-0.00001121,0.0000108
 8,0.00001369,-0.00000691,0.00000476,0.00000950,-0.00000279,-0.00000319
 ,-0.00000449,0.00000314,-0.00000024,-0.00000240,0.00000174,-0.00000568
 ,0.00000259,0.00000187,0.00000106,-0.00000105,0.00000042,-0.00000182,0
 .00000075,-0.00000013,-0.00000183,0.00000064,-0.00000131,0.00000021,-0
 .00000109,-0.00000157,0.00000113,-0.00000030,0.00000538,-0.00000244,0.
 00000142,0.00000158,-0.00000377,0.00000003,-0.00000141,0.00001864,-0.0
 0000350,-0.00000105,-0.00064747,0.00175647,-0.00171924,0.24381452,0.01
 365494,0.00836093,-0.00872590,-0.00141994,0.00118875,-0.00472891,0.000
 34118,-0.00071866,-0.00040022,-0.00392574,-0.00081980,-0.00464077,-0.0
 0065823,0.00033340,0.00060507,-0.00011925,0.00005161,-0.00003300,0.000
 09397,-0.00013486,0.00000400,-0.00012266,0.00018378,0.00000368,0.00002
 604,-0.00002157,0.00002224,-0.00001799,0.00001152,0.00000316,-0.000014
 28,0.00000210,0.00000057,-0.00000681,-0.00001295,0.00000789,0.00000015
 ,-0.00000077,-0.00000084,0.00003159,-0.00001425,-0.00000619,-0.0000173
 5,0.00001159,-0.00000054,0.00000908,-0.00000334,-0.00000128,-0.0000010
 1,-0.00000097,0.00000338,-0.00000051,0.00000013,-0.00000278,-0.0000001
 9,-0.00000002,-0.00000003,-0.00000055,-0.00000008,-0.00000017,-0.00000
 098,-0.00000007,0.00000137,0.00000072,-0.00000068,-0.00000149,0.000007
 75,-0.00000571,0.00000004,-0.00002281,0.00000709,0.00000557,-0.0000075
 7,-0.00000932,0.00000502,-0.00022423,-0.00049351,0.00001341,-0.0203873
 7,-0.00251675,0.01404018,-0.07054132,-0.07293077,0.03261696,0.00132517
 ,-0.00088775,0.00213091,0.00058393,0.00028230,-0.00047803,0.00031448,-
 0.00035201,0.00042198,-0.00000393,0.00004267,0.00000187,0.00001142,-0.
 00002824,-0.00001067,0.00000052,-0.00000074,0.00003532,0.00000248,0.00
 000540,-0.00000176,-0.00000310,-0.00000380,0.00000223,-0.00000028,-0.0
 0000116,0.00000087,-0.00000286,0.00000159,0.00000104,0.00000041,-0.000
 00012,0.00000048,-0.00000065,0.00000068,-0.00000008,-0.00000032,0.0000
 0063,-0.00000050,0.00000058,0.00000022,-0.00000016,0.00000077,0.000000
 61,0.00000187,-0.00000165,0.00000072,0.00000112,-0.00000184,0.00000040
 ,-0.00000073,0.00001058,-0.00000246,-0.00000188,0.00218552,-0.00076304
 ,0.00160093,0.07890216,0.06923727,0.02148254,0.00917337,-0.00799936,0.
 00239806,-0.00541637,-0.00134372,-0.00073377,-0.00046212,-0.00053009,0
 .00062260,-0.00407961,0.00234460,-0.00034829,-0.00011151,0.00043404,0.
 00006360,0.00002595,-0.00000873,-0.00000477,0.00003606,-0.00002076,-0.
 00004656,0.00000477,0.00000082,0.00000634,-0.00000109,0.00001892,0.000
 00003,-0.00000110,0.00000116,-0.00000059,-0.00000243,-0.00000108,0.000
 00084,-0.00000011,-0.00000003,0.00000042,0.00000247,-0.00000054,-0.000
 01060,-0.00000761,0.00000615,0.00000738,0.00000505,-0.00000029,-0.0000
 0454,0.00000002,-0.00000023,0.00000034,0.00000080,-0.00000077,0.000000
 49,0.00000036,0.00000096,-0.00000013,0.00000056,0.00000021,0.00000022,
 0.00000044,-0.00000059,0.00000059,0.00000055,-0.00000016,0.00000005,0.
 00000088,0.00000035,-0.00000373,0.00000196,0.00000024,0.00001146,0.000
 00265,-0.00000548,-0.00000023,-0.00000412,0.00000071,-0.00006775,-0.00
 004851,-0.00006279,-0.00885187,-0.00362524,0.00850495,0.12186798,0.032
 52232,-0.12525636,-0.00191449,0.00165862,-0.00038079,0.00105507,0.0003
 5132,-0.00043469,-0.00028454,0.00040114,-0.00031421,0.00001304,0.00002
 357,-0.00003659,0.00000460,-0.00000605,0.00000245,0.00001939,-0.000008
 63,-0.00001403,-0.00000015,-0.00000110,0.00000149,0.00000018,0.0000010
 1,-0.00000062,0.00000032,0.00000012,-0.00000024,-0.00000065,0.00000016
 ,0.00000072,-0.00000054,-0.00000021,-0.00000036,0.00000043,-0.00000067
 ,-0.00000013,0.,-0.00000050,0.00000049,-0.00000078,-0.00000041,-0.0000
 0033,-0.00000055,-0.00000129,-0.00000033,0.00000035,-0.00000039,-0.000
 00077,0.00000096,0.00000015,0.00000062,-0.00000321,-0.00000208,-0.0000
 0116,-0.00129390,0.00206209,-0.00068088,-0.13398563,-0.03249524,0.1257
 7724\\0.00000040,-0.00000002,-0.00000040,-0.00000077,0.,0.00000047,0.0
 0000057,-0.00000038,0.00000073,-0.00000010,-0.00000040,-0.00000081,0.0
 0000732,-0.00000177,-0.00000226,-0.00000007,0.00000389,-0.00000137,-0.
 00000037,-0.00000064,0.00000443,0.00000184,0.00000143,0.00000092,-0.00
 000067,0.00000019,-0.00000019,-0.00000028,-0.00000029,-0.00000194,-0.0
 0000007,-0.00000071,0.00000068,-0.00000005,0.,0.00000007,0.00000038,0.
 00000053,-0.00000130,0.00000126,0.00000091,0.00000120,0.00000424,-0.00
 000370,-0.00000187,-0.00001023,-0.00000109,0.00000139,0.00000084,-0.00
 000114,0.00000032,-0.00000107,-0.00000012,-0.00000027,0.00000005,0.000
 00013,0.00000023,0.00000015,-0.00000031,-0.00000055,-0.00000038,0.0000
 0042,-0.00000010,0.00000095,0.00000061,-0.00000084,0.00000029,0.000007
 11,-0.00000021,0.00000132,-0.00000197,0.00000174,0.00000046,0.00000067
 ,0.00000154,-0.00000660,-0.00000203,-0.00000118,-0.00000025,0.00000127
 ,-0.00000013,0.00000006,0.00000031,0.00000020,-0.00000023,-0.00000014,
 -0.00000021,-0.00000004,-0.00000014,-0.00000027,0.00000017,0.00000074,
 0.00000033,0.00000061,-0.00000041,0.00000109,-0.00000052,0.00000021,-0
 .00000079,-0.00000046,-0.00000092,-0.00000043,-0.00000018,0.00000013,0
 .00000055,0.00000006,0.00000027,-0.00000007,0.00000025,-0.00000004,-0.
 00000013,0.00000168,-0.00000042,0.00000042,-0.00000014,-0.00000033,-0.
 00000035,0.00000022,-0.00000031,-0.00000020,0.00000015,-0.00000025,0.0
 0000016,0.,-0.00000025,0.00000026,-0.00000061,-0.00000001,0.00000021,-
 0.00000030,-0.00000074,-0.00000048,0.00000075,0.00000042,-0.00000132,-
 0.00000001,-0.00000055,0.00000006,-0.00000028,-0.00000014,0.00000050,-
 0.00000035,-0.00000003,0.00000018\\\@
 The archive entry for this job was punched.


 NO SCIENCE HAS EVER MADE MORE RAPID PROGRESS IN A
 SHORTER TIME THAN CHEMISTRY.
   -- MARTIN HEINRICH KLOPROTH, 1791
 (FIRST PROFESSOR OF CHEMISTRY AT THE UNIVERSITY OF BERLIN)
 Job cpu time:       0 days  2 hours 14 minutes 32.0 seconds.
 Elapsed time:       0 days  0 hours  3 minutes 23.7 seconds.
 File lengths (MBytes):  RWF=   1071 Int=      0 D2E=      0 Chk=     18 Scr=      1
 Normal termination of Gaussian 16 at Mon Feb 26 00:32:09 2024.
