 Entering Gaussian System, Link 0=g16
 Initial command:
 /public/apps/g16-C01//g16/l1.exe "/public/home/ljq/tmp/Gau-124817.inp" -scrdir="/public/home/ljq/tmp/"
 Entering Link 1 = /public/apps/g16-C01//g16/l1.exe PID=    124819.
  
 Copyright (c) 1988-2019, Gaussian, Inc.  All Rights Reserved.
  
 This is part of the Gaussian(R) 16 program.  It is based on
 the Gaussian(R) 09 system (copyright 2009, Gaussian, Inc.),
 the Gaussian(R) 03 system (copyright 2003, Gaussian, Inc.),
 the Gaussian(R) 98 system (copyright 1998, Gaussian, Inc.),
 the Gaussian(R) 94 system (copyright 1995, Gaussian, Inc.),
 the Gaussian 92(TM) system (copyright 1992, Gaussian, Inc.),
 the Gaussian 90(TM) system (copyright 1990, Gaussian, Inc.),
 the Gaussian 88(TM) system (copyright 1988, Gaussian, Inc.),
 the Gaussian 86(TM) system (copyright 1986, Carnegie Mellon
 University), and the Gaussian 82(TM) system (copyright 1983,
 Carnegie Mellon University). Gaussian is a federally registered
 trademark of Gaussian, Inc.
  
 This software contains proprietary and confidential information,
 including trade secrets, belonging to Gaussian, Inc.
  
 This software is provided under written license and may be
 used, copied, transmitted, or stored only in accord with that
 written license.
  
 The following legend is applicable only to US Government
 contracts under FAR:
  
                    RESTRICTED RIGHTS LEGEND
  
 Use, reproduction and disclosure by the US Government is
 subject to restrictions as set forth in subparagraphs (a)
 and (c) of the Commercial Computer Software - Restricted
 Rights clause in FAR 52.227-19.
  
 Gaussian, Inc.
 340 Quinnipiac St., Bldg. 40, Wallingford CT 06492
  
  
 ---------------------------------------------------------------
 Warning -- This program may not be used in any manner that
 competes with the business of Gaussian, Inc. or will provide
 assistance to any competitor of Gaussian, Inc.  The licensee
 of this program is prohibited from giving any competitor of
 Gaussian, Inc. access to this program.  By using this program,
 the user acknowledges that Gaussian, Inc. is engaged in the
 business of creating and licensing software in the field of
 computational chemistry and represents and warrants to the
 licensee that it is not a competitor of Gaussian, Inc. and that
 it will not use this program in any manner prohibited above.
 ---------------------------------------------------------------
  

 Cite this work as:
 Gaussian 16, Revision C.01,
 M. J. Frisch, G. W. Trucks, H. B. Schlegel, G. E. Scuseria, 
 M. A. Robb, J. R. Cheeseman, G. Scalmani, V. Barone, 
 G. A. Petersson, H. Nakatsuji, X. Li, M. Caricato, A. V. Marenich, 
 J. Bloino, B. G. Janesko, R. Gomperts, B. Mennucci, H. P. Hratchian, 
 J. V. Ortiz, A. F. Izmaylov, J. L. Sonnenberg, D. Williams-Young, 
 F. Ding, F. Lipparini, F. Egidi, J. Goings, B. Peng, A. Petrone, 
 T. Henderson, D. Ranasinghe, V. G. Zakrzewski, J. Gao, N. Rega, 
 G. Zheng, W. Liang, M. Hada, M. Ehara, K. Toyota, R. Fukuda, 
 J. Hasegawa, M. Ishida, T. Nakajima, Y. Honda, O. Kitao, H. Nakai, 
 T. Vreven, K. Throssell, J. A. Montgomery, Jr., J. E. Peralta, 
 F. Ogliaro, M. J. Bearpark, J. J. Heyd, E. N. Brothers, K. N. Kudin, 
 V. N. Staroverov, T. A. Keith, R. Kobayashi, J. Normand, 
 K. Raghavachari, A. P. Rendell, J. C. Burant, S. S. Iyengar, 
 J. Tomasi, M. Cossi, J. M. Millam, M. Klene, C. Adamo, R. Cammi, 
 J. W. Ochterski, R. L. Martin, K. Morokuma, O. Farkas, 
 J. B. Foresman, and D. J. Fox, Gaussian, Inc., Wallingford CT, 2019.
 
 ******************************************
 Gaussian 16:  ES64L-G16RevC.01  3-Jul-2019
                26-Feb-2024 
 ******************************************
 %nproc=40
 Will use up to   40 processors via shared memory.
 %mem=56GB
 ------------------------------------------
 #p opt freq b3lyp/def2svpp em=gd3bj nosymm
 ------------------------------------------
 1/18=20,19=15,26=3,38=1/1,3;
 2/9=110,12=2,15=1,17=6,18=5,40=1/2;
 3/5=43,7=202,11=2,25=1,30=1,71=1,74=-5,124=41/1,2,3;
 4//1;
 5/5=2,38=5/2;
 6/7=2,8=2,9=2,10=2,28=1/1;
 7/30=1/1,2,3,16;
 1/18=20,19=15,26=3/3(2);
 2/9=110,15=1/2;
 99//99;
 2/9=110,15=1/2;
 3/5=43,7=202,11=2,25=1,30=1,71=1,74=-5,124=41/1,2,3;
 4/5=5,16=3,69=1/1;
 5/5=2,38=5/2;
 7/30=1/1,2,3,16;
 1/18=20,19=15,26=3/3(-5);
 2/9=110,15=1/2;
 6/7=2,8=2,9=2,10=2,19=2,28=1/1;
 99/9=1/99;
 Leave Link    1 at Mon Feb 26 12:49:38 2024, MaxMem=  7516192768 cpu:               1.1 elap:               0.0
 (Enter /public/apps/g16-C01//g16/l101.exe)
 ----------------------
 $$$$Singlemol####0????
 ----------------------
 Symbolic Z-matrix:
 Charge =  0 Multiplicity = 1
 O                    -0.26159   2.79722  -1.35463 
 C                     0.16533   1.70864  -1.69408 
 N                     1.45245   1.28798  -1.56085 
 C                     2.41893   1.85093  -0.74099 
 C                     2.45145   3.21386  -0.46022 
 C                     3.41849   3.73081   0.37977 
 C                     4.37296   2.90328   0.95301 
 C                     4.34562   1.54832   0.69481 
 C                     3.37638   1.00335  -0.14553 
 C                     3.30886  -0.43884  -0.31285 
 N                     2.59278  -1.04687  -1.17773 
 C                     2.65756  -2.46383  -0.90693 
 C                     1.35881  -2.9235   -0.30041 
 C                     0.10511  -2.8975   -0.87919 
 C                    -0.98858  -3.26627  -0.10982 
 C                    -0.82078  -3.65164   1.2105 
 C                     0.44077  -3.68016   1.78667 
 C                     1.53216  -3.30769   1.0246 
 C                     2.97442  -3.24451   1.43789 
 C                     3.691    -2.57458   0.25224 
 O                     4.02025  -1.2159    0.53684 
 C                    -0.74205   0.66188  -2.23122 
 C                    -0.40577  -0.16173  -3.29501 
 C                    -1.31674  -1.09864  -3.75357 
 C                    -2.55337  -1.2162   -3.13898 
 C                    -2.88599  -0.40288  -2.06953 
 C                    -1.98302   0.54197  -1.59559 
 P                    -2.4007    1.74172  -0.27273 
 C                    -1.02178   1.44266   0.9103 
 C                    -0.21645   0.30961   0.92148 
 C                     0.82762   0.21115   1.82382 
 C                     1.09414   1.24289   2.70664 
 C                     0.29791   2.37536   2.69766 
 C                    -0.75548   2.47033   1.80762 
 C                    -3.69578   0.73614   0.5858 
 C                    -3.44742  -0.46455   1.24188 
 C                    -4.48171  -1.1497    1.85236 
 C                    -5.77219  -0.64574   1.81871 
 C                    -6.02699   0.55172   1.17271 
 C                    -4.99192   1.2384    0.56292 
 H                     1.63946   0.29413  -1.74667 
 H                     1.70305   3.854    -0.89646 
 H                     3.42967   4.79032   0.58698 
 H                     5.12928   3.31416   1.60428 
 H                     5.0704    0.88673   1.14421 
 H                     2.92099  -3.01164  -1.81566 
 H                    -0.02039  -2.58039  -1.9031 
 H                    -1.97776  -3.23717  -0.54235 
 H                    -1.68187  -3.92843   1.80048 
 H                     0.56715  -3.97663   2.81748 
 H                     3.11854  -2.65729   2.34681 
 H                     3.3733   -4.24497   1.61667 
 H                     4.61543  -3.09129  -0.02077 
 H                     0.55516  -0.05401  -3.77754 
 H                    -1.06433  -1.73394  -4.59003 
 H                    -3.26541  -1.94545  -3.49805 
 H                    -3.85446  -0.50162  -1.60046 
 H                    -0.38749  -0.49891   0.22319 
 H                     1.43668  -0.68031   1.83302 
 H                     1.92327   1.16568   3.39491 
 H                     0.50386   3.18674   3.38069 
 H                    -1.37415   3.35631   1.78503 
 H                    -2.44525  -0.867     1.2774 
 H                    -4.28092  -2.08316   2.3594 
 H                    -6.57634  -1.1853    2.29796 
 H                    -7.03113   0.95032   1.14626 
 H                    -5.18171   2.17559   0.05709 
 
 ITRead=  0  0  0  0  0  0  0  0  0  0  0  0  0  0  0  0  0  0  0  0
 ITRead=  0  0  0  0  0  0  0  0  0  0  0  0  0  0  0  0  0  0  0  0
 ITRead=  0  0  0  0  0  0  0  0  0  0  0  0  0  0  0  0  0  0  0  0
 ITRead=  0  0  0  0  0  0  0
 MicOpt= -1 -1 -1 -1 -1 -1 -1 -1 -1 -1 -1 -1 -1 -1 -1 -1 -1 -1 -1 -1
 MicOpt= -1 -1 -1 -1 -1 -1 -1 -1 -1 -1 -1 -1 -1 -1 -1 -1 -1 -1 -1 -1
 MicOpt= -1 -1 -1 -1 -1 -1 -1 -1 -1 -1 -1 -1 -1 -1 -1 -1 -1 -1 -1 -1
 MicOpt= -1 -1 -1 -1 -1 -1 -1
 NAtoms=     67 NQM=       67 NQMF=       0 NMMI=      0 NMMIF=      0
                NMic=       0 NMicF=      0.
                    Isotopes and Nuclear Properties:
 (Nuclear quadrupole moments (NQMom) in fm**2, nuclear magnetic moments (NMagM)
  in nuclear magnetons)

  Atom         1           2           3           4           5           6           7           8           9          10
 IAtWgt=          16          12          14          12          12          12          12          12          12          12
 AtmWgt=  15.9949146  12.0000000  14.0030740  12.0000000  12.0000000  12.0000000  12.0000000  12.0000000  12.0000000  12.0000000
 NucSpn=           0           0           2           0           0           0           0           0           0           0
 AtZEff=  -0.0000000  -0.0000000  -0.0000000  -0.0000000  -0.0000000  -0.0000000  -0.0000000  -0.0000000  -0.0000000  -0.0000000
 NQMom=    0.0000000   0.0000000   2.0440000   0.0000000   0.0000000   0.0000000   0.0000000   0.0000000   0.0000000   0.0000000
 NMagM=    0.0000000   0.0000000   0.4037610   0.0000000   0.0000000   0.0000000   0.0000000   0.0000000   0.0000000   0.0000000
 AtZNuc=   8.0000000   6.0000000   7.0000000   6.0000000   6.0000000   6.0000000   6.0000000   6.0000000   6.0000000   6.0000000

  Atom        11          12          13          14          15          16          17          18          19          20
 IAtWgt=          14          12          12          12          12          12          12          12          12          12
 AtmWgt=  14.0030740  12.0000000  12.0000000  12.0000000  12.0000000  12.0000000  12.0000000  12.0000000  12.0000000  12.0000000
 NucSpn=           2           0           0           0           0           0           0           0           0           0
 AtZEff=  -0.0000000  -0.0000000  -0.0000000  -0.0000000  -0.0000000  -0.0000000  -0.0000000  -0.0000000  -0.0000000  -0.0000000
 NQMom=    2.0440000   0.0000000   0.0000000   0.0000000   0.0000000   0.0000000   0.0000000   0.0000000   0.0000000   0.0000000
 NMagM=    0.4037610   0.0000000   0.0000000   0.0000000   0.0000000   0.0000000   0.0000000   0.0000000   0.0000000   0.0000000
 AtZNuc=   7.0000000   6.0000000   6.0000000   6.0000000   6.0000000   6.0000000   6.0000000   6.0000000   6.0000000   6.0000000

  Atom        21          22          23          24          25          26          27          28          29          30
 IAtWgt=          16          12          12          12          12          12          12          31          12          12
 AtmWgt=  15.9949146  12.0000000  12.0000000  12.0000000  12.0000000  12.0000000  12.0000000  30.9737634  12.0000000  12.0000000
 NucSpn=           0           0           0           0           0           0           0           1           0           0
 AtZEff=  -0.0000000  -0.0000000  -0.0000000  -0.0000000  -0.0000000  -0.0000000  -0.0000000  -0.0000000  -0.0000000  -0.0000000
 NQMom=    0.0000000   0.0000000   0.0000000   0.0000000   0.0000000   0.0000000   0.0000000   0.0000000   0.0000000   0.0000000
 NMagM=    0.0000000   0.0000000   0.0000000   0.0000000   0.0000000   0.0000000   0.0000000   1.1316000   0.0000000   0.0000000
 AtZNuc=   8.0000000   6.0000000   6.0000000   6.0000000   6.0000000   6.0000000   6.0000000  15.0000000   6.0000000   6.0000000

  Atom        31          32          33          34          35          36          37          38          39          40
 IAtWgt=          12          12          12          12          12          12          12          12          12          12
 AtmWgt=  12.0000000  12.0000000  12.0000000  12.0000000  12.0000000  12.0000000  12.0000000  12.0000000  12.0000000  12.0000000
 NucSpn=           0           0           0           0           0           0           0           0           0           0
 AtZEff=  -0.0000000  -0.0000000  -0.0000000  -0.0000000  -0.0000000  -0.0000000  -0.0000000  -0.0000000  -0.0000000  -0.0000000
 NQMom=    0.0000000   0.0000000   0.0000000   0.0000000   0.0000000   0.0000000   0.0000000   0.0000000   0.0000000   0.0000000
 NMagM=    0.0000000   0.0000000   0.0000000   0.0000000   0.0000000   0.0000000   0.0000000   0.0000000   0.0000000   0.0000000
 AtZNuc=   6.0000000   6.0000000   6.0000000   6.0000000   6.0000000   6.0000000   6.0000000   6.0000000   6.0000000   6.0000000

  Atom        41          42          43          44          45          46          47          48          49          50
 IAtWgt=           1           1           1           1           1           1           1           1           1           1
 AtmWgt=   1.0078250   1.0078250   1.0078250   1.0078250   1.0078250   1.0078250   1.0078250   1.0078250   1.0078250   1.0078250
 NucSpn=           1           1           1           1           1           1           1           1           1           1
 AtZEff=  -0.0000000  -0.0000000  -0.0000000  -0.0000000  -0.0000000  -0.0000000  -0.0000000  -0.0000000  -0.0000000  -0.0000000
 NQMom=    0.0000000   0.0000000   0.0000000   0.0000000   0.0000000   0.0000000   0.0000000   0.0000000   0.0000000   0.0000000
 NMagM=    2.7928460   2.7928460   2.7928460   2.7928460   2.7928460   2.7928460   2.7928460   2.7928460   2.7928460   2.7928460
 AtZNuc=   1.0000000   1.0000000   1.0000000   1.0000000   1.0000000   1.0000000   1.0000000   1.0000000   1.0000000   1.0000000

  Atom        51          52          53          54          55          56          57          58          59          60
 IAtWgt=           1           1           1           1           1           1           1           1           1           1
 AtmWgt=   1.0078250   1.0078250   1.0078250   1.0078250   1.0078250   1.0078250   1.0078250   1.0078250   1.0078250   1.0078250
 NucSpn=           1           1           1           1           1           1           1           1           1           1
 AtZEff=  -0.0000000  -0.0000000  -0.0000000  -0.0000000  -0.0000000  -0.0000000  -0.0000000  -0.0000000  -0.0000000  -0.0000000
 NQMom=    0.0000000   0.0000000   0.0000000   0.0000000   0.0000000   0.0000000   0.0000000   0.0000000   0.0000000   0.0000000
 NMagM=    2.7928460   2.7928460   2.7928460   2.7928460   2.7928460   2.7928460   2.7928460   2.7928460   2.7928460   2.7928460
 AtZNuc=   1.0000000   1.0000000   1.0000000   1.0000000   1.0000000   1.0000000   1.0000000   1.0000000   1.0000000   1.0000000

  Atom        61          62          63          64          65          66          67
 IAtWgt=           1           1           1           1           1           1           1
 AtmWgt=   1.0078250   1.0078250   1.0078250   1.0078250   1.0078250   1.0078250   1.0078250
 NucSpn=           1           1           1           1           1           1           1
 AtZEff=  -0.0000000  -0.0000000  -0.0000000  -0.0000000  -0.0000000  -0.0000000  -0.0000000
 NQMom=    0.0000000   0.0000000   0.0000000   0.0000000   0.0000000   0.0000000   0.0000000
 NMagM=    2.7928460   2.7928460   2.7928460   2.7928460   2.7928460   2.7928460   2.7928460
 AtZNuc=   1.0000000   1.0000000   1.0000000   1.0000000   1.0000000   1.0000000   1.0000000
 Leave Link  101 at Mon Feb 26 12:49:38 2024, MaxMem=  7516192768 cpu:              18.5 elap:               0.5
 (Enter /public/apps/g16-C01//g16/l103.exe)

 GradGradGradGradGradGradGradGradGradGradGradGradGradGradGradGradGradGrad
 Berny optimization.
 Initialization pass.
                           ----------------------------
                           !    Initial Parameters    !
                           ! (Angstroms and Degrees)  !
 --------------------------                            --------------------------
 ! Name  Definition              Value          Derivative Info.                !
 --------------------------------------------------------------------------------
 ! R1    R(1,2)                  1.2176         estimate D2E/DX2                !
 ! R2    R(2,3)                  1.3607         estimate D2E/DX2                !
 ! R3    R(2,22)                 1.4858         estimate D2E/DX2                !
 ! R4    R(3,4)                  1.3868         estimate D2E/DX2                !
 ! R5    R(3,41)                 1.0282         estimate D2E/DX2                !
 ! R6    R(4,5)                  1.3919         estimate D2E/DX2                !
 ! R7    R(4,9)                  1.4105         estimate D2E/DX2                !
 ! R8    R(5,6)                  1.3813         estimate D2E/DX2                !
 ! R9    R(5,42)                 1.0771         estimate D2E/DX2                !
 ! R10   R(6,7)                  1.3872         estimate D2E/DX2                !
 ! R11   R(6,43)                 1.0796         estimate D2E/DX2                !
 ! R12   R(7,8)                  1.3796         estimate D2E/DX2                !
 ! R13   R(7,44)                 1.0793         estimate D2E/DX2                !
 ! R14   R(8,9)                  1.3938         estimate D2E/DX2                !
 ! R15   R(8,45)                 1.0793         estimate D2E/DX2                !
 ! R16   R(9,10)                 1.4534         estimate D2E/DX2                !
 ! R17   R(10,11)                1.2769         estimate D2E/DX2                !
 ! R18   R(10,21)                1.3535         estimate D2E/DX2                !
 ! R19   R(11,12)                1.4441         estimate D2E/DX2                !
 ! R20   R(12,13)                1.5053         estimate D2E/DX2                !
 ! R21   R(12,20)                1.5569         estimate D2E/DX2                !
 ! R22   R(12,46)                1.0933         estimate D2E/DX2                !
 ! R23   R(13,14)                1.3811         estimate D2E/DX2                !
 ! R24   R(13,18)                1.3904         estimate D2E/DX2                !
 ! R25   R(14,15)                1.3871         estimate D2E/DX2                !
 ! R26   R(14,47)                1.0792         estimate D2E/DX2                !
 ! R27   R(15,16)                1.3856         estimate D2E/DX2                !
 ! R28   R(15,48)                1.08           estimate D2E/DX2                !
 ! R29   R(16,17)                1.3872         estimate D2E/DX2                !
 ! R30   R(16,49)                1.0799         estimate D2E/DX2                !
 ! R31   R(17,18)                1.3823         estimate D2E/DX2                !
 ! R32   R(17,50)                1.08           estimate D2E/DX2                !
 ! R33   R(18,19)                1.5016         estimate D2E/DX2                !
 ! R34   R(19,20)                1.5389         estimate D2E/DX2                !
 ! R35   R(19,51)                1.0917         estimate D2E/DX2                !
 ! R36   R(19,52)                1.0918         estimate D2E/DX2                !
 ! R37   R(20,21)                1.4267         estimate D2E/DX2                !
 ! R38   R(20,53)                1.0937         estimate D2E/DX2                !
 ! R39   R(22,23)                1.3868         estimate D2E/DX2                !
 ! R40   R(22,27)                1.3994         estimate D2E/DX2                !
 ! R41   R(23,24)                1.3849         estimate D2E/DX2                !
 ! R42   R(23,54)                1.0807         estimate D2E/DX2                !
 ! R43   R(24,25)                1.3859         estimate D2E/DX2                !
 ! R44   R(24,55)                1.0803         estimate D2E/DX2                !
 ! R45   R(25,26)                1.3841         estimate D2E/DX2                !
 ! R46   R(25,56)                1.0806         estimate D2E/DX2                !
 ! R47   R(26,27)                1.3902         estimate D2E/DX2                !
 ! R48   R(26,57)                1.0806         estimate D2E/DX2                !
 ! R49   R(27,28)                1.8341         estimate D2E/DX2                !
 ! R50   R(28,29)                1.8413         estimate D2E/DX2                !
 ! R51   R(28,35)                1.8508         estimate D2E/DX2                !
 ! R52   R(29,30)                1.3901         estimate D2E/DX2                !
 ! R53   R(29,34)                1.39           estimate D2E/DX2                !
 ! R54   R(30,31)                1.3835         estimate D2E/DX2                !
 ! R55   R(30,58)                1.0819         estimate D2E/DX2                !
 ! R56   R(31,32)                1.3838         estimate D2E/DX2                !
 ! R57   R(31,59)                1.0797         estimate D2E/DX2                !
 ! R58   R(32,33)                1.3844         estimate D2E/DX2                !
 ! R59   R(32,60)                1.0803         estimate D2E/DX2                !
 ! R60   R(33,34)                1.3823         estimate D2E/DX2                !
 ! R61   R(33,61)                1.0804         estimate D2E/DX2                !
 ! R62   R(34,62)                1.0808         estimate D2E/DX2                !
 ! R63   R(35,36)                1.3906         estimate D2E/DX2                !
 ! R64   R(35,40)                1.3902         estimate D2E/DX2                !
 ! R65   R(36,37)                1.3827         estimate D2E/DX2                !
 ! R66   R(36,63)                1.0805         estimate D2E/DX2                !
 ! R67   R(37,38)                1.3858         estimate D2E/DX2                !
 ! R68   R(37,64)                1.0811         estimate D2E/DX2                !
 ! R69   R(38,39)                1.3843         estimate D2E/DX2                !
 ! R70   R(38,65)                1.0805         estimate D2E/DX2                !
 ! R71   R(39,40)                1.3837         estimate D2E/DX2                !
 ! R72   R(39,66)                1.0807         estimate D2E/DX2                !
 ! R73   R(40,67)                1.0818         estimate D2E/DX2                !
 ! A1    A(1,2,3)              125.5059         estimate D2E/DX2                !
 ! A2    A(1,2,22)             121.0997         estimate D2E/DX2                !
 ! A3    A(3,2,22)             113.2844         estimate D2E/DX2                !
 ! A4    A(2,3,4)              126.274          estimate D2E/DX2                !
 ! A5    A(2,3,41)             116.9475         estimate D2E/DX2                !
 ! A6    A(4,3,41)             111.8674         estimate D2E/DX2                !
 ! A7    A(3,4,5)              122.2092         estimate D2E/DX2                !
 ! A8    A(3,4,9)              118.6007         estimate D2E/DX2                !
 ! A9    A(5,4,9)              119.167          estimate D2E/DX2                !
 ! A10   A(4,5,6)              120.3623         estimate D2E/DX2                !
 ! A11   A(4,5,42)             118.9471         estimate D2E/DX2                !
 ! A12   A(6,5,42)             120.6845         estimate D2E/DX2                !
 ! A13   A(5,6,7)              120.6463         estimate D2E/DX2                !
 ! A14   A(5,6,43)             119.422          estimate D2E/DX2                !
 ! A15   A(7,6,43)             119.9314         estimate D2E/DX2                !
 ! A16   A(6,7,8)              119.6626         estimate D2E/DX2                !
 ! A17   A(6,7,44)             120.29           estimate D2E/DX2                !
 ! A18   A(8,7,44)             120.0456         estimate D2E/DX2                !
 ! A19   A(7,8,9)              120.7065         estimate D2E/DX2                !
 ! A20   A(7,8,45)             120.7153         estimate D2E/DX2                !
 ! A21   A(9,8,45)             118.5771         estimate D2E/DX2                !
 ! A22   A(4,9,8)              119.4461         estimate D2E/DX2                !
 ! A23   A(4,9,10)             121.0714         estimate D2E/DX2                !
 ! A24   A(8,9,10)             119.3202         estimate D2E/DX2                !
 ! A25   A(9,10,11)            125.2053         estimate D2E/DX2                !
 ! A26   A(9,10,21)            118.229          estimate D2E/DX2                !
 ! A27   A(11,10,21)           116.5257         estimate D2E/DX2                !
 ! A28   A(10,11,12)           108.3642         estimate D2E/DX2                !
 ! A29   A(11,12,13)           109.6631         estimate D2E/DX2                !
 ! A30   A(11,12,20)           103.8391         estimate D2E/DX2                !
 ! A31   A(11,12,46)           110.2798         estimate D2E/DX2                !
 ! A32   A(13,12,20)           104.536          estimate D2E/DX2                !
 ! A33   A(13,12,46)           112.9414         estimate D2E/DX2                !
 ! A34   A(20,12,46)           115.0411         estimate D2E/DX2                !
 ! A35   A(12,13,14)           127.4881         estimate D2E/DX2                !
 ! A36   A(12,13,18)           111.1476         estimate D2E/DX2                !
 ! A37   A(14,13,18)           121.1804         estimate D2E/DX2                !
 ! A38   A(13,14,15)           118.5738         estimate D2E/DX2                !
 ! A39   A(13,14,47)           120.5766         estimate D2E/DX2                !
 ! A40   A(15,14,47)           120.8413         estimate D2E/DX2                !
 ! A41   A(14,15,16)           120.4627         estimate D2E/DX2                !
 ! A42   A(14,15,48)           119.5289         estimate D2E/DX2                !
 ! A43   A(16,15,48)           120.002          estimate D2E/DX2                !
 ! A44   A(15,16,17)           120.7724         estimate D2E/DX2                !
 ! A45   A(15,16,49)           119.6903         estimate D2E/DX2                !
 ! A46   A(17,16,49)           119.5365         estimate D2E/DX2                !
 ! A47   A(16,17,18)           118.9162         estimate D2E/DX2                !
 ! A48   A(16,17,50)           120.5636         estimate D2E/DX2                !
 ! A49   A(18,17,50)           120.5158         estimate D2E/DX2                !
 ! A50   A(13,18,17)           120.0925         estimate D2E/DX2                !
 ! A51   A(13,18,19)           111.7403         estimate D2E/DX2                !
 ! A52   A(17,18,19)           128.1667         estimate D2E/DX2                !
 ! A53   A(18,19,20)           104.6849         estimate D2E/DX2                !
 ! A54   A(18,19,51)           112.246          estimate D2E/DX2                !
 ! A55   A(18,19,52)           110.9413         estimate D2E/DX2                !
 ! A56   A(20,19,51)           110.2339         estimate D2E/DX2                !
 ! A57   A(20,19,52)           110.7917         estimate D2E/DX2                !
 ! A58   A(51,19,52)           107.9596         estimate D2E/DX2                !
 ! A59   A(12,20,19)           107.189          estimate D2E/DX2                !
 ! A60   A(12,20,21)           103.5311         estimate D2E/DX2                !
 ! A61   A(12,20,53)           114.1309         estimate D2E/DX2                !
 ! A62   A(19,20,21)           111.6142         estimate D2E/DX2                !
 ! A63   A(19,20,53)           112.3493         estimate D2E/DX2                !
 ! A64   A(21,20,53)           107.7381         estimate D2E/DX2                !
 ! A65   A(10,21,20)           107.4711         estimate D2E/DX2                !
 ! A66   A(2,22,23)            123.2058         estimate D2E/DX2                !
 ! A67   A(2,22,27)            115.9586         estimate D2E/DX2                !
 ! A68   A(23,22,27)           120.8355         estimate D2E/DX2                !
 ! A69   A(22,23,24)           119.7545         estimate D2E/DX2                !
 ! A70   A(22,23,54)           119.9307         estimate D2E/DX2                !
 ! A71   A(24,23,54)           120.2982         estimate D2E/DX2                !
 ! A72   A(23,24,25)           119.8338         estimate D2E/DX2                !
 ! A73   A(23,24,55)           120.036          estimate D2E/DX2                !
 ! A74   A(25,24,55)           120.13           estimate D2E/DX2                !
 ! A75   A(24,25,26)           120.4776         estimate D2E/DX2                !
 ! A76   A(24,25,56)           119.8572         estimate D2E/DX2                !
 ! A77   A(26,25,56)           119.665          estimate D2E/DX2                !
 ! A78   A(25,26,27)           120.443          estimate D2E/DX2                !
 ! A79   A(25,26,57)           119.806          estimate D2E/DX2                !
 ! A80   A(27,26,57)           119.7509         estimate D2E/DX2                !
 ! A81   A(22,27,26)           118.6433         estimate D2E/DX2                !
 ! A82   A(22,27,28)           118.2619         estimate D2E/DX2                !
 ! A83   A(26,27,28)           122.858          estimate D2E/DX2                !
 ! A84   A(27,28,29)           100.7558         estimate D2E/DX2                !
 ! A85   A(27,28,35)            97.962          estimate D2E/DX2                !
 ! A86   A(29,28,35)            97.9176         estimate D2E/DX2                !
 ! A87   A(28,29,30)           124.8467         estimate D2E/DX2                !
 ! A88   A(28,29,34)           115.9857         estimate D2E/DX2                !
 ! A89   A(30,29,34)           119.105          estimate D2E/DX2                !
 ! A90   A(29,30,31)           120.0292         estimate D2E/DX2                !
 ! A91   A(29,30,58)           120.8185         estimate D2E/DX2                !
 ! A92   A(31,30,58)           119.149          estimate D2E/DX2                !
 ! A93   A(30,31,32)           120.5568         estimate D2E/DX2                !
 ! A94   A(30,31,59)           119.3425         estimate D2E/DX2                !
 ! A95   A(32,31,59)           120.1007         estimate D2E/DX2                !
 ! A96   A(31,32,33)           119.6699         estimate D2E/DX2                !
 ! A97   A(31,32,60)           120.0638         estimate D2E/DX2                !
 ! A98   A(33,32,60)           120.2654         estimate D2E/DX2                !
 ! A99   A(32,33,34)           119.9113         estimate D2E/DX2                !
 ! A100  A(32,33,61)           120.0397         estimate D2E/DX2                !
 ! A101  A(34,33,61)           120.0476         estimate D2E/DX2                !
 ! A102  A(29,34,33)           120.7199         estimate D2E/DX2                !
 ! A103  A(29,34,62)           118.8729         estimate D2E/DX2                !
 ! A104  A(33,34,62)           120.3954         estimate D2E/DX2                !
 ! A105  A(28,35,36)           124.2632         estimate D2E/DX2                !
 ! A106  A(28,35,40)           116.6445         estimate D2E/DX2                !
 ! A107  A(36,35,40)           119.0918         estimate D2E/DX2                !
 ! A108  A(35,36,37)           120.1691         estimate D2E/DX2                !
 ! A109  A(35,36,63)           120.1813         estimate D2E/DX2                !
 ! A110  A(37,36,63)           119.6496         estimate D2E/DX2                !
 ! A111  A(36,37,38)           120.3746         estimate D2E/DX2                !
 ! A112  A(36,37,64)           119.7358         estimate D2E/DX2                !
 ! A113  A(38,37,64)           119.8896         estimate D2E/DX2                !
 ! A114  A(37,38,39)           119.8229         estimate D2E/DX2                !
 ! A115  A(37,38,65)           120.0457         estimate D2E/DX2                !
 ! A116  A(39,38,65)           120.1312         estimate D2E/DX2                !
 ! A117  A(38,39,40)           119.8186         estimate D2E/DX2                !
 ! A118  A(38,39,66)           120.1006         estimate D2E/DX2                !
 ! A119  A(40,39,66)           120.0807         estimate D2E/DX2                !
 ! A120  A(35,40,39)           120.7208         estimate D2E/DX2                !
 ! A121  A(35,40,67)           118.9638         estimate D2E/DX2                !
 ! A122  A(39,40,67)           120.3152         estimate D2E/DX2                !
 ! D1    D(1,2,3,4)             17.1782         estimate D2E/DX2                !
 ! D2    D(1,2,3,41)           170.2218         estimate D2E/DX2                !
 ! D3    D(22,2,3,4)          -159.0233         estimate D2E/DX2                !
 ! D4    D(22,2,3,41)           -5.9797         estimate D2E/DX2                !
 ! D5    D(1,2,22,23)          139.7736         estimate D2E/DX2                !
 ! D6    D(1,2,22,27)          -40.3134         estimate D2E/DX2                !
 ! D7    D(3,2,22,23)          -43.8374         estimate D2E/DX2                !
 ! D8    D(3,2,22,27)          136.0756         estimate D2E/DX2                !
 ! D9    D(2,3,4,5)            -32.3551         estimate D2E/DX2                !
 ! D10   D(2,3,4,9)            145.8787         estimate D2E/DX2                !
 ! D11   D(41,3,4,5)           173.4571         estimate D2E/DX2                !
 ! D12   D(41,3,4,9)            -8.3092         estimate D2E/DX2                !
 ! D13   D(3,4,5,6)            178.915          estimate D2E/DX2                !
 ! D14   D(3,4,5,42)            -0.1978         estimate D2E/DX2                !
 ! D15   D(9,4,5,6)              0.6909         estimate D2E/DX2                !
 ! D16   D(9,4,5,42)          -178.4218         estimate D2E/DX2                !
 ! D17   D(3,4,9,8)           -179.2104         estimate D2E/DX2                !
 ! D18   D(3,4,9,10)            -3.8723         estimate D2E/DX2                !
 ! D19   D(5,4,9,8)             -0.9218         estimate D2E/DX2                !
 ! D20   D(5,4,9,10)           174.4163         estimate D2E/DX2                !
 ! D21   D(4,5,6,7)              0.1793         estimate D2E/DX2                !
 ! D22   D(4,5,6,43)           179.9895         estimate D2E/DX2                !
 ! D23   D(42,5,6,7)           179.2765         estimate D2E/DX2                !
 ! D24   D(42,5,6,43)           -0.9133         estimate D2E/DX2                !
 ! D25   D(5,6,7,8)             -0.82           estimate D2E/DX2                !
 ! D26   D(5,6,7,44)           179.6653         estimate D2E/DX2                !
 ! D27   D(43,6,7,8)           179.3707         estimate D2E/DX2                !
 ! D28   D(43,6,7,44)           -0.144          estimate D2E/DX2                !
 ! D29   D(6,7,8,9)              0.5778         estimate D2E/DX2                !
 ! D30   D(6,7,8,45)          -179.0259         estimate D2E/DX2                !
 ! D31   D(44,7,8,9)          -179.9064         estimate D2E/DX2                !
 ! D32   D(44,7,8,45)            0.4899         estimate D2E/DX2                !
 ! D33   D(7,8,9,4)              0.2918         estimate D2E/DX2                !
 ! D34   D(7,8,9,10)          -175.1287         estimate D2E/DX2                !
 ! D35   D(45,8,9,4)           179.9038         estimate D2E/DX2                !
 ! D36   D(45,8,9,10)            4.4833         estimate D2E/DX2                !
 ! D37   D(4,9,10,11)           14.3559         estimate D2E/DX2                !
 ! D38   D(4,9,10,21)         -163.2543         estimate D2E/DX2                !
 ! D39   D(8,9,10,11)         -170.3002         estimate D2E/DX2                !
 ! D40   D(8,9,10,21)           12.0896         estimate D2E/DX2                !
 ! D41   D(9,10,11,12)        -172.2191         estimate D2E/DX2                !
 ! D42   D(21,10,11,12)          5.4276         estimate D2E/DX2                !
 ! D43   D(9,10,21,20)         174.5714         estimate D2E/DX2                !
 ! D44   D(11,10,21,20)         -3.2463         estimate D2E/DX2                !
 ! D45   D(10,11,12,13)        106.2659         estimate D2E/DX2                !
 ! D46   D(10,11,12,20)         -4.9893         estimate D2E/DX2                !
 ! D47   D(10,11,12,46)       -128.7523         estimate D2E/DX2                !
 ! D48   D(11,12,13,14)         62.7113         estimate D2E/DX2                !
 ! D49   D(11,12,13,18)       -112.3533         estimate D2E/DX2                !
 ! D50   D(20,12,13,14)        173.5082         estimate D2E/DX2                !
 ! D51   D(20,12,13,18)         -1.5564         estimate D2E/DX2                !
 ! D52   D(46,12,13,14)        -60.7192         estimate D2E/DX2                !
 ! D53   D(46,12,13,18)        124.2162         estimate D2E/DX2                !
 ! D54   D(11,12,20,19)        121.1679         estimate D2E/DX2                !
 ! D55   D(11,12,20,21)          3.0669         estimate D2E/DX2                !
 ! D56   D(11,12,20,53)       -113.7522         estimate D2E/DX2                !
 ! D57   D(13,12,20,19)          6.2145         estimate D2E/DX2                !
 ! D58   D(13,12,20,21)       -111.8866         estimate D2E/DX2                !
 ! D59   D(13,12,20,53)        131.2943         estimate D2E/DX2                !
 ! D60   D(46,12,20,19)       -118.2288         estimate D2E/DX2                !
 ! D61   D(46,12,20,21)        123.6701         estimate D2E/DX2                !
 ! D62   D(46,12,20,53)          6.8511         estimate D2E/DX2                !
 ! D63   D(12,13,14,15)       -174.7045         estimate D2E/DX2                !
 ! D64   D(12,13,14,47)          4.2561         estimate D2E/DX2                !
 ! D65   D(18,13,14,15)         -0.086          estimate D2E/DX2                !
 ! D66   D(18,13,14,47)        178.8747         estimate D2E/DX2                !
 ! D67   D(12,13,18,17)        175.7934         estimate D2E/DX2                !
 ! D68   D(12,13,18,19)         -3.956          estimate D2E/DX2                !
 ! D69   D(14,13,18,17)          0.37           estimate D2E/DX2                !
 ! D70   D(14,13,18,19)       -179.3794         estimate D2E/DX2                !
 ! D71   D(13,14,15,16)         -0.0032         estimate D2E/DX2                !
 ! D72   D(13,14,15,48)        179.0741         estimate D2E/DX2                !
 ! D73   D(47,14,15,16)       -178.961          estimate D2E/DX2                !
 ! D74   D(47,14,15,48)          0.1163         estimate D2E/DX2                !
 ! D75   D(14,15,16,17)         -0.1916         estimate D2E/DX2                !
 ! D76   D(14,15,16,49)        179.4951         estimate D2E/DX2                !
 ! D77   D(48,15,16,17)       -179.2645         estimate D2E/DX2                !
 ! D78   D(48,15,16,49)          0.4223         estimate D2E/DX2                !
 ! D79   D(15,16,17,18)          0.4686         estimate D2E/DX2                !
 ! D80   D(15,16,17,50)        179.7108         estimate D2E/DX2                !
 ! D81   D(49,16,17,18)       -179.2187         estimate D2E/DX2                !
 ! D82   D(49,16,17,50)          0.0235         estimate D2E/DX2                !
 ! D83   D(16,17,18,13)         -0.5533         estimate D2E/DX2                !
 ! D84   D(16,17,18,19)        179.1507         estimate D2E/DX2                !
 ! D85   D(50,17,18,13)       -179.7958         estimate D2E/DX2                !
 ! D86   D(50,17,18,19)         -0.0919         estimate D2E/DX2                !
 ! D87   D(13,18,19,20)          7.7343         estimate D2E/DX2                !
 ! D88   D(13,18,19,51)        127.3036         estimate D2E/DX2                !
 ! D89   D(13,18,19,52)       -111.8169         estimate D2E/DX2                !
 ! D90   D(17,18,19,20)       -171.99           estimate D2E/DX2                !
 ! D91   D(17,18,19,51)        -52.4207         estimate D2E/DX2                !
 ! D92   D(17,18,19,52)         68.4589         estimate D2E/DX2                !
 ! D93   D(18,19,20,12)         -8.3323         estimate D2E/DX2                !
 ! D94   D(18,19,20,21)        104.3735         estimate D2E/DX2                !
 ! D95   D(18,19,20,53)       -134.4803         estimate D2E/DX2                !
 ! D96   D(51,19,20,12)       -129.2432         estimate D2E/DX2                !
 ! D97   D(51,19,20,21)        -16.5374         estimate D2E/DX2                !
 ! D98   D(51,19,20,53)        104.6088         estimate D2E/DX2                !
 ! D99   D(52,19,20,12)        111.3192         estimate D2E/DX2                !
 ! D100  D(52,19,20,21)       -135.975          estimate D2E/DX2                !
 ! D101  D(52,19,20,53)        -14.8288         estimate D2E/DX2                !
 ! D102  D(12,20,21,10)         -0.2716         estimate D2E/DX2                !
 ! D103  D(19,20,21,10)       -115.2515         estimate D2E/DX2                !
 ! D104  D(53,20,21,10)        120.9575         estimate D2E/DX2                !
 ! D105  D(2,22,23,24)        -178.8415         estimate D2E/DX2                !
 ! D106  D(2,22,23,54)          -0.3182         estimate D2E/DX2                !
 ! D107  D(27,22,23,24)          1.2496         estimate D2E/DX2                !
 ! D108  D(27,22,23,54)        179.7729         estimate D2E/DX2                !
 ! D109  D(2,22,27,26)         178.787          estimate D2E/DX2                !
 ! D110  D(2,22,27,28)           4.2158         estimate D2E/DX2                !
 ! D111  D(23,22,27,26)         -1.2977         estimate D2E/DX2                !
 ! D112  D(23,22,27,28)       -175.869          estimate D2E/DX2                !
 ! D113  D(22,23,24,25)         -0.6095         estimate D2E/DX2                !
 ! D114  D(22,23,24,55)        179.2189         estimate D2E/DX2                !
 ! D115  D(54,23,24,25)       -179.1273         estimate D2E/DX2                !
 ! D116  D(54,23,24,55)          0.7011         estimate D2E/DX2                !
 ! D117  D(23,24,25,26)          0.0426         estimate D2E/DX2                !
 ! D118  D(23,24,25,56)        179.8481         estimate D2E/DX2                !
 ! D119  D(55,24,25,26)       -179.7857         estimate D2E/DX2                !
 ! D120  D(55,24,25,56)          0.0198         estimate D2E/DX2                !
 ! D121  D(24,25,26,27)         -0.1062         estimate D2E/DX2                !
 ! D122  D(24,25,26,57)        179.8032         estimate D2E/DX2                !
 ! D123  D(56,25,26,27)       -179.912          estimate D2E/DX2                !
 ! D124  D(56,25,26,57)         -0.0026         estimate D2E/DX2                !
 ! D125  D(25,26,27,22)          0.7217         estimate D2E/DX2                !
 ! D126  D(25,26,27,28)        175.0285         estimate D2E/DX2                !
 ! D127  D(57,26,27,22)       -179.1878         estimate D2E/DX2                !
 ! D128  D(57,26,27,28)         -4.8809         estimate D2E/DX2                !
 ! D129  D(22,27,28,29)        -58.9197         estimate D2E/DX2                !
 ! D130  D(22,27,28,35)       -158.5998         estimate D2E/DX2                !
 ! D131  D(26,27,28,29)        126.7529         estimate D2E/DX2                !
 ! D132  D(26,27,28,35)         27.0728         estimate D2E/DX2                !
 ! D133  D(27,28,29,30)        -18.1991         estimate D2E/DX2                !
 ! D134  D(27,28,29,34)        158.8865         estimate D2E/DX2                !
 ! D135  D(35,28,29,30)         81.5172         estimate D2E/DX2                !
 ! D136  D(35,28,29,34)       -101.3973         estimate D2E/DX2                !
 ! D137  D(27,28,35,36)         65.2114         estimate D2E/DX2                !
 ! D138  D(27,28,35,40)       -115.0403         estimate D2E/DX2                !
 ! D139  D(29,28,35,36)        -36.8937         estimate D2E/DX2                !
 ! D140  D(29,28,35,40)        142.8546         estimate D2E/DX2                !
 ! D141  D(28,29,30,31)        177.466          estimate D2E/DX2                !
 ! D142  D(28,29,30,58)         -1.8706         estimate D2E/DX2                !
 ! D143  D(34,29,30,31)          0.4645         estimate D2E/DX2                !
 ! D144  D(34,29,30,58)       -178.8721         estimate D2E/DX2                !
 ! D145  D(28,29,34,33)       -176.9887         estimate D2E/DX2                !
 ! D146  D(28,29,34,62)          1.7689         estimate D2E/DX2                !
 ! D147  D(30,29,34,33)          0.2739         estimate D2E/DX2                !
 ! D148  D(30,29,34,62)        179.0315         estimate D2E/DX2                !
 ! D149  D(29,30,31,32)         -1.0261         estimate D2E/DX2                !
 ! D150  D(29,30,31,59)        179.0665         estimate D2E/DX2                !
 ! D151  D(58,30,31,32)        178.3216         estimate D2E/DX2                !
 ! D152  D(58,30,31,59)         -1.5858         estimate D2E/DX2                !
 ! D153  D(30,31,32,33)          0.8404         estimate D2E/DX2                !
 ! D154  D(30,31,32,60)       -178.8142         estimate D2E/DX2                !
 ! D155  D(59,31,32,33)       -179.2529         estimate D2E/DX2                !
 ! D156  D(59,31,32,60)          1.0925         estimate D2E/DX2                !
 ! D157  D(31,32,33,34)         -0.0982         estimate D2E/DX2                !
 ! D158  D(31,32,33,61)       -179.6708         estimate D2E/DX2                !
 ! D159  D(60,32,33,34)        179.5557         estimate D2E/DX2                !
 ! D160  D(60,32,33,61)         -0.017          estimate D2E/DX2                !
 ! D161  D(32,33,34,29)         -0.4581         estimate D2E/DX2                !
 ! D162  D(32,33,34,62)       -179.1967         estimate D2E/DX2                !
 ! D163  D(61,33,34,29)        179.1145         estimate D2E/DX2                !
 ! D164  D(61,33,34,62)          0.3758         estimate D2E/DX2                !
 ! D165  D(28,35,36,37)       -179.7681         estimate D2E/DX2                !
 ! D166  D(28,35,36,63)          0.237          estimate D2E/DX2                !
 ! D167  D(40,35,36,37)          0.4893         estimate D2E/DX2                !
 ! D168  D(40,35,36,63)       -179.5055         estimate D2E/DX2                !
 ! D169  D(28,35,40,39)        179.6746         estimate D2E/DX2                !
 ! D170  D(28,35,40,67)         -0.1277         estimate D2E/DX2                !
 ! D171  D(36,35,40,39)         -0.5634         estimate D2E/DX2                !
 ! D172  D(36,35,40,67)        179.6342         estimate D2E/DX2                !
 ! D173  D(35,36,37,38)         -0.1457         estimate D2E/DX2                !
 ! D174  D(35,36,37,64)        179.9238         estimate D2E/DX2                !
 ! D175  D(63,36,37,38)        179.8492         estimate D2E/DX2                !
 ! D176  D(63,36,37,64)         -0.0813         estimate D2E/DX2                !
 ! D177  D(36,37,38,39)         -0.1334         estimate D2E/DX2                !
 ! D178  D(36,37,38,65)       -179.9695         estimate D2E/DX2                !
 ! D179  D(64,37,38,39)        179.797          estimate D2E/DX2                !
 ! D180  D(64,37,38,65)         -0.0391         estimate D2E/DX2                !
 ! D181  D(37,38,39,40)          0.062          estimate D2E/DX2                !
 ! D182  D(37,38,39,66)       -179.8177         estimate D2E/DX2                !
 ! D183  D(65,38,39,40)        179.898          estimate D2E/DX2                !
 ! D184  D(65,38,39,66)          0.0182         estimate D2E/DX2                !
 ! D185  D(38,39,40,35)          0.2899         estimate D2E/DX2                !
 ! D186  D(38,39,40,67)       -179.9104         estimate D2E/DX2                !
 ! D187  D(66,39,40,35)       -179.8304         estimate D2E/DX2                !
 ! D188  D(66,39,40,67)         -0.0307         estimate D2E/DX2                !
 --------------------------------------------------------------------------------
 Trust Radius=3.00D-01 FncErr=1.00D-07 GrdErr=1.00D-06 EigMax=2.50D+02 EigMin=1.00D-04
 Number of steps in this run=    393 maximum allowed number of steps=    402.
 GradGradGradGradGradGradGradGradGradGradGradGradGradGradGradGradGradGrad

 Leave Link  103 at Mon Feb 26 12:49:38 2024, MaxMem=  7516192768 cpu:               0.9 elap:               0.0
 (Enter /public/apps/g16-C01//g16/l202.exe)
 Symmetry turned off by external request.
 Stoichiometry    C35H27N2O2P
 Framework group  C1[X(C35H27N2O2P)]
 Deg. of freedom   195
 Full point group                 C1      NOp   1
                          Input orientation:                          
 ---------------------------------------------------------------------
 Center     Atomic      Atomic             Coordinates (Angstroms)
 Number     Number       Type             X           Y           Z
 ---------------------------------------------------------------------
      1          8           0       -0.261586    2.797219   -1.354632
      2          6           0        0.165334    1.708639   -1.694084
      3          7           0        1.452453    1.287978   -1.560846
      4          6           0        2.418932    1.850927   -0.740987
      5          6           0        2.451445    3.213863   -0.460219
      6          6           0        3.418487    3.730809    0.379766
      7          6           0        4.372962    2.903284    0.953012
      8          6           0        4.345619    1.548321    0.694807
      9          6           0        3.376375    1.003354   -0.145526
     10          6           0        3.308864   -0.438843   -0.312849
     11          7           0        2.592776   -1.046866   -1.177735
     12          6           0        2.657562   -2.463835   -0.906934
     13          6           0        1.358809   -2.923504   -0.300412
     14          6           0        0.105112   -2.897496   -0.879189
     15          6           0       -0.988580   -3.266273   -0.109822
     16          6           0       -0.820783   -3.651638    1.210503
     17          6           0        0.440767   -3.680162    1.786671
     18          6           0        1.532164   -3.307686    1.024598
     19          6           0        2.974424   -3.244505    1.437891
     20          6           0        3.691001   -2.574578    0.252237
     21          8           0        4.020249   -1.215897    0.536842
     22          6           0       -0.742052    0.661877   -2.231215
     23          6           0       -0.405771   -0.161734   -3.295009
     24          6           0       -1.316740   -1.098641   -3.753566
     25          6           0       -2.553372   -1.216203   -3.138982
     26          6           0       -2.885988   -0.402879   -2.069534
     27          6           0       -1.983021    0.541970   -1.595587
     28         15           0       -2.400701    1.741717   -0.272726
     29          6           0       -1.021781    1.442663    0.910302
     30          6           0       -0.216449    0.309608    0.921479
     31          6           0        0.827622    0.211154    1.823821
     32          6           0        1.094136    1.242892    2.706640
     33          6           0        0.297910    2.375364    2.697662
     34          6           0       -0.755483    2.470330    1.807621
     35          6           0       -3.695783    0.736137    0.585795
     36          6           0       -3.447425   -0.464548    1.241877
     37          6           0       -4.481706   -1.149698    1.852355
     38          6           0       -5.772189   -0.645743    1.818714
     39          6           0       -6.026987    0.551719    1.172709
     40          6           0       -4.991921    1.238399    0.562919
     41          1           0        1.639461    0.294128   -1.746671
     42          1           0        1.703054    3.853996   -0.896455
     43          1           0        3.429673    4.790322    0.586984
     44          1           0        5.129276    3.314162    1.604276
     45          1           0        5.070395    0.886730    1.144210
     46          1           0        2.920994   -3.011644   -1.815657
     47          1           0       -0.020385   -2.580390   -1.903100
     48          1           0       -1.977756   -3.237173   -0.542352
     49          1           0       -1.681867   -3.928434    1.800475
     50          1           0        0.567154   -3.976627    2.817481
     51          1           0        3.118541   -2.657288    2.346811
     52          1           0        3.373300   -4.244968    1.616673
     53          1           0        4.615434   -3.091286   -0.020766
     54          1           0        0.555160   -0.054014   -3.777536
     55          1           0       -1.064329   -1.733941   -4.590028
     56          1           0       -3.265415   -1.945447   -3.498046
     57          1           0       -3.854457   -0.501624   -1.600461
     58          1           0       -0.387491   -0.498911    0.223192
     59          1           0        1.436681   -0.680308    1.833022
     60          1           0        1.923274    1.165675    3.394914
     61          1           0        0.503856    3.186744    3.380691
     62          1           0       -1.374154    3.356311    1.785025
     63          1           0       -2.445251   -0.866998    1.277398
     64          1           0       -4.280922   -2.083155    2.359401
     65          1           0       -6.576342   -1.185304    2.297959
     66          1           0       -7.031126    0.950316    1.146262
     67          1           0       -5.181708    2.175587    0.057090
 ---------------------------------------------------------------------
 Rotational constants (GHZ):           0.1373972           0.0896134           0.0764666
 Leave Link  202 at Mon Feb 26 12:49:38 2024, MaxMem=  7516192768 cpu:               0.3 elap:               0.0
 (Enter /public/apps/g16-C01//g16/l301.exe)
 Standard basis: def2SVPP (5D, 7F)
 Ernie: Thresh=  0.10000D-02 Tol=  0.10000D-05 Strict=F.
   618 basis functions,  1120 primitive gaussians,   658 cartesian basis functions
   141 alpha electrons      141 beta electrons
       nuclear repulsion energy      4916.9366816517 Hartrees.
 IExCor=  402 DFT=T Ex+Corr=B3LYP ExCW=0 ScaHFX=  0.200000
 ScaDFX=  0.800000  0.720000  1.000000  0.810000 ScalE2=  1.000000  1.000000
 IRadAn=      5 IRanWt=     -1 IRanGd=            0 ICorTp=0 IEmpDi=141
 NAtoms=   67 NActive=   67 NUniq=   67 SFac= 1.00D+00 NAtFMM=   60 NAOKFM=T Big=T
 Integral buffers will be    131072 words long.
 Raffenetti 2 integral format.
 Two-electron integral symmetry is turned off.
 R6Disp:  Grimme-D3(BJ) Dispersion energy=       -0.2087428258 Hartrees.
 Nuclear repulsion after empirical dispersion term =     4916.7279388259 Hartrees.
 Leave Link  301 at Mon Feb 26 12:49:38 2024, MaxMem=  7516192768 cpu:               1.5 elap:               0.0
 (Enter /public/apps/g16-C01//g16/l302.exe)
 NPDir=0 NMtPBC=     1 NCelOv=     1 NCel=       1 NClECP=     1 NCelD=      1
         NCelK=      1 NCelE2=     1 NClLst=     1 CellRange=     0.0.
 One-electron integrals computed using PRISM.
   1 Symmetry operations used in ECPInt.
 ECPInt:  NShTT=   43956 NPrTT=  177326 LenC2=   39446 LenP2D=  101132.
 LDataN:  DoStor=T MaxTD1= 4 Len=   56
 NBasis=   618 RedAO= T EigKep=  2.09D-04  NBF=   618
 NBsUse=   618 1.00D-06 EigRej= -1.00D+00 NBFU=   618
 Precomputing XC quadrature grid using
 IXCGrd= 4 IRadAn=           5 IRanWt=          -1 IRanGd=           0 AccXCQ= 0.00D+00.
 Generated NRdTot=       0 NPtTot=           0 NUsed=           0 NTot=          32
 NSgBfM=   649   648   648   649   649 MxSgAt=    67 MxSgA2=    67.
 Leave Link  302 at Mon Feb 26 12:49:39 2024, MaxMem=  7516192768 cpu:              33.9 elap:               0.9
 (Enter /public/apps/g16-C01//g16/l303.exe)
 DipDrv:  MaxL=1.
 Leave Link  303 at Mon Feb 26 12:49:39 2024, MaxMem=  7516192768 cpu:               3.6 elap:               0.1
 (Enter /public/apps/g16-C01//g16/l401.exe)
 ExpMin= 1.05D-01 ExpMax= 8.00D+03 ExpMxC= 1.20D+03 IAcc=3 IRadAn=         5 AccDes= 0.00D+00
 Harris functional with IExCor=  402 and IRadAn=       5 diagonalized for initial guess.
 HarFok:  IExCor=  402 AccDes= 0.00D+00 IRadAn=         5 IDoV= 1 UseB2=F ITyADJ=14
 ICtDFT=  3500011 ScaDFX=  1.000000  1.000000  1.000000  1.000000
 FoFCou: FMM=F IPFlag=           0 FMFlag=      100000 FMFlg1=        2001
         NFxFlg=           0 DoJE=T BraDBF=F KetDBF=T FulRan=T
         wScrn=  0.000000 ICntrl=       500 IOpCl=  0 I1Cent=   200000004 NGrid=           0
         NMat0=    1 NMatS0=      1 NMatT0=    0 NMatD0=    1 NMtDS0=    0 NMtDT0=    0
 Symmetry not used in FoFCou.
 Harris En= -1950.11321182614    
 JPrj=0 DoOrth=F DoCkMO=F.
 Leave Link  401 at Mon Feb 26 12:49:41 2024, MaxMem=  7516192768 cpu:              76.0 elap:               1.9
 (Enter /public/apps/g16-C01//g16/l502.exe)
 Two-electron integral symmetry not used.
 Closed shell SCF:
 Using DIIS extrapolation, IDIIS=  1040.
 NGot=  7516192768 LenX=  7515293446 LenY=  7514859824
 Requested convergence on RMS density matrix=1.00D-08 within 128 cycles.
 Requested convergence on MAX density matrix=1.00D-06.
 Requested convergence on             energy=1.00D-06.
 No special actions if energy rises.
 Fock matrices will be formed incrementally for  20 cycles.
 Integral accuracy reduced to 1.0D-05 until final iterations.

 Cycle   1  Pass 0  IDiag  1:
 FoFJK:  IHMeth= 1 ICntrl=       0 DoSepK=F KAlg= 0 I1Cent=           0 FoldK=F
 IRaf= 990000000 NMat=       1 IRICut=       1 DoRegI=T DoRafI=F ISym2E= 0 IDoP0=0 IntGTp=1.
 FoFCou: FMM=T IPFlag=           0 FMFlag=      100000 FMFlg1=        2001
         NFxFlg=           0 DoJE=F BraDBF=F KetDBF=F FulRan=T
         wScrn=  0.000000 ICntrl=         0 IOpCl=  0 I1Cent=           0 NGrid=           0
         NMat0=    1 NMatS0=      1 NMatT0=    0 NMatD0=    1 NMtDS0=    0 NMtDT0=    0
 Symmetry not used in FoFCou.
 FMM levels:  10  Number of levels for PrismC:   9
 E= -1949.35327172823    
 DIIS: error= 2.79D-02 at cycle   1 NSaved=   1.
 NSaved= 1 IEnMin= 1 EnMin= -1949.35327172823     IErMin= 1 ErrMin= 2.79D-02
 ErrMax= 2.79D-02  0.00D+00 EMaxC= 1.00D-01 BMatC= 7.46D-01 BMatP= 7.46D-01
 IDIUse=3 WtCom= 7.21D-01 WtEn= 2.79D-01
 Coeff-Com:  0.100D+01
 Coeff-En:   0.100D+01
 Coeff:      0.100D+01
 Gap=     0.217 Goal=   None    Shift=    0.000
 GapD=    0.217 DampG=1.000 DampE=0.500 DampFc=0.5000 IDamp=-1.
 Damping current iteration by 5.00D-01
 RMSDP=5.07D-03 MaxDP=2.05D-01              OVMax= 2.06D-01

 Cycle   2  Pass 0  IDiag  1:
 RMSU=  2.31D-03    CP:  9.40D-01
 E= -1949.69055785102     Delta-E=       -0.337286122789 Rises=F Damp=T
 DIIS: error= 8.48D-03 at cycle   2 NSaved=   2.
 NSaved= 2 IEnMin= 2 EnMin= -1949.69055785102     IErMin= 2 ErrMin= 8.48D-03
 ErrMax= 8.48D-03  0.00D+00 EMaxC= 1.00D-01 BMatC= 6.67D-02 BMatP= 7.46D-01
 IDIUse=3 WtCom= 9.15D-01 WtEn= 8.48D-02
 Coeff-Com:  0.115D+00 0.885D+00
 Coeff-En:   0.170D+00 0.830D+00
 Coeff:      0.120D+00 0.880D+00
 Gap=     0.206 Goal=   None    Shift=    0.000
 RMSDP=1.72D-03 MaxDP=8.60D-02 DE=-3.37D-01 OVMax= 1.77D-01

 Cycle   3  Pass 0  IDiag  1:
 RMSU=  1.62D-03    CP:  9.07D-01  9.96D-01
 E= -1950.10291242171     Delta-E=       -0.412354570691 Rises=F Damp=F
 DIIS: error= 1.43D-02 at cycle   3 NSaved=   3.
 NSaved= 3 IEnMin= 3 EnMin= -1950.10291242171     IErMin= 2 ErrMin= 8.48D-03
 ErrMax= 1.43D-02  0.00D+00 EMaxC= 1.00D-01 BMatC= 9.51D-02 BMatP= 6.67D-02
 IDIUse=2 WtCom= 0.00D+00 WtEn= 1.00D+00
 Coeff-En:   0.000D+00 0.000D+00 0.100D+01
 Coeff:      0.000D+00 0.000D+00 0.100D+01
 Gap=     0.131 Goal=   None    Shift=    0.000
 RMSDP=2.01D-03 MaxDP=1.83D-01 DE=-4.12D-01 OVMax= 1.93D-01

 Cycle   4  Pass 0  IDiag  1:
 RMSU=  1.53D-03    CP:  9.11D-01  1.26D+00  2.91D-01
 E= -1949.65036795741     Delta-E=        0.452544464302 Rises=F Damp=F
 DIIS: error= 3.54D-02 at cycle   4 NSaved=   4.
 NSaved= 4 IEnMin= 3 EnMin= -1950.10291242171     IErMin= 2 ErrMin= 8.48D-03
 ErrMax= 3.54D-02  0.00D+00 EMaxC= 1.00D-01 BMatC= 6.18D-01 BMatP= 6.67D-02
 IDIUse=2 WtCom= 0.00D+00 WtEn= 1.00D+00
 Coeff-En:   0.000D+00 0.000D+00 0.806D+00 0.194D+00
 Coeff:      0.000D+00 0.000D+00 0.806D+00 0.194D+00
 Gap=     0.163 Goal=   None    Shift=    0.000
 RMSDP=1.10D-03 MaxDP=9.64D-02 DE= 4.53D-01 OVMax= 1.15D-01

 Cycle   5  Pass 0  IDiag  1:
 RMSU=  2.88D-04    CP:  9.09D-01  1.12D+00  6.40D-01  4.50D-01
 E= -1950.14604849300     Delta-E=       -0.495680535599 Rises=F Damp=F
 DIIS: error= 9.50D-03 at cycle   5 NSaved=   5.
 NSaved= 5 IEnMin= 5 EnMin= -1950.14604849300     IErMin= 2 ErrMin= 8.48D-03
 ErrMax= 9.50D-03  0.00D+00 EMaxC= 1.00D-01 BMatC= 4.78D-02 BMatP= 6.67D-02
 IDIUse=3 WtCom= 9.05D-01 WtEn= 9.50D-02
 Coeff-Com:  0.598D-02 0.294D-01 0.367D+00-0.397D-01 0.637D+00
 Coeff-En:   0.000D+00 0.000D+00 0.373D+00 0.000D+00 0.627D+00
 Coeff:      0.541D-02 0.266D-01 0.368D+00-0.360D-01 0.636D+00
 Gap=     0.154 Goal=   None    Shift=    0.000
 RMSDP=4.31D-04 MaxDP=3.16D-02 DE=-4.96D-01 OVMax= 5.61D-02

 Cycle   6  Pass 0  IDiag  1:
 RMSU=  1.34D-04    CP:  9.07D-01  1.07D+00  7.94D-01  2.61D-01  7.06D-01
 E= -1950.18792888070     Delta-E=       -0.041880387694 Rises=F Damp=F
 DIIS: error= 1.24D-03 at cycle   6 NSaved=   6.
 NSaved= 6 IEnMin= 6 EnMin= -1950.18792888070     IErMin= 6 ErrMin= 1.24D-03
 ErrMax= 1.24D-03  0.00D+00 EMaxC= 1.00D-01 BMatC= 9.26D-04 BMatP= 4.78D-02
 IDIUse=3 WtCom= 9.88D-01 WtEn= 1.24D-02
 Coeff-Com:  0.943D-03 0.579D-02 0.174D+00-0.570D-01 0.447D+00 0.430D+00
 Coeff-En:   0.000D+00 0.000D+00 0.000D+00 0.000D+00 0.000D+00 0.100D+01
 Coeff:      0.931D-03 0.572D-02 0.172D+00-0.563D-01 0.441D+00 0.437D+00
 Gap=     0.153 Goal=   None    Shift=    0.000
 RMSDP=6.88D-05 MaxDP=4.16D-03 DE=-4.19D-02 OVMax= 7.39D-03

 Cycle   7  Pass 0  IDiag  1:
 RMSU=  3.97D-05    CP:  9.07D-01  1.08D+00  7.88D-01  2.66D-01  7.79D-01
                    CP:  6.26D-01
 E= -1950.18885890748     Delta-E=       -0.000930026786 Rises=F Damp=F
 DIIS: error= 3.11D-04 at cycle   7 NSaved=   7.
 NSaved= 7 IEnMin= 7 EnMin= -1950.18885890748     IErMin= 7 ErrMin= 3.11D-04
 ErrMax= 3.11D-04  0.00D+00 EMaxC= 1.00D-01 BMatC= 4.01D-05 BMatP= 9.26D-04
 IDIUse=3 WtCom= 9.97D-01 WtEn= 3.11D-03
 Coeff-Com:  0.279D-03 0.170D-02 0.702D-01-0.284D-01 0.192D+00 0.225D+00
 Coeff-Com:  0.539D+00
 Coeff-En:   0.000D+00 0.000D+00 0.000D+00 0.000D+00 0.000D+00 0.000D+00
 Coeff-En:   0.100D+01
 Coeff:      0.278D-03 0.169D-02 0.700D-01-0.283D-01 0.192D+00 0.224D+00
 Coeff:      0.540D+00
 Gap=     0.153 Goal=   None    Shift=    0.000
 RMSDP=2.15D-05 MaxDP=1.16D-03 DE=-9.30D-04 OVMax= 1.64D-03

 Cycle   8  Pass 0  IDiag  1:
 RMSU=  1.80D-05    CP:  9.07D-01  1.08D+00  7.87D-01  2.63D-01  7.86D-01
                    CP:  6.32D-01  7.60D-01
 E= -1950.18893020241     Delta-E=       -0.000071294931 Rises=F Damp=F
 DIIS: error= 1.44D-04 at cycle   8 NSaved=   8.
 NSaved= 8 IEnMin= 8 EnMin= -1950.18893020241     IErMin= 8 ErrMin= 1.44D-04
 ErrMax= 1.44D-04  0.00D+00 EMaxC= 1.00D-01 BMatC= 8.57D-06 BMatP= 4.01D-05
 IDIUse=3 WtCom= 9.99D-01 WtEn= 1.44D-03
 Coeff-Com:  0.170D-03-0.696D-04 0.203D-01-0.938D-02 0.548D-01 0.711D-01
 Coeff-Com:  0.348D+00 0.516D+00
 Coeff-En:   0.000D+00 0.000D+00 0.000D+00 0.000D+00 0.000D+00 0.000D+00
 Coeff-En:   0.000D+00 0.100D+01
 Coeff:      0.170D-03-0.695D-04 0.202D-01-0.937D-02 0.547D-01 0.710D-01
 Coeff:      0.347D+00 0.516D+00
 Gap=     0.153 Goal=   None    Shift=    0.000
 RMSDP=1.05D-05 MaxDP=4.07D-04 DE=-7.13D-05 OVMax= 6.70D-04

 Cycle   9  Pass 0  IDiag  1:
 RMSU=  9.10D-06    CP:  9.07D-01  1.07D+00  7.87D-01  2.62D-01  7.83D-01
                    CP:  6.30D-01  8.53D-01  1.02D+00
 E= -1950.18894017935     Delta-E=       -0.000009976938 Rises=F Damp=F
 DIIS: error= 4.32D-05 at cycle   9 NSaved=   9.
 NSaved= 9 IEnMin= 9 EnMin= -1950.18894017935     IErMin= 9 ErrMin= 4.32D-05
 ErrMax= 4.32D-05  0.00D+00 EMaxC= 1.00D-01 BMatC= 1.13D-06 BMatP= 8.57D-06
 IDIUse=1 WtCom= 1.00D+00 WtEn= 0.00D+00
 Coeff-Com:  0.122D-03-0.498D-03 0.263D-02-0.124D-02 0.426D-02 0.952D-02
 Coeff-Com:  0.146D+00 0.332D+00 0.507D+00
 Coeff:      0.122D-03-0.498D-03 0.263D-02-0.124D-02 0.426D-02 0.952D-02
 Coeff:      0.146D+00 0.332D+00 0.507D+00
 Gap=     0.153 Goal=   None    Shift=    0.000
 RMSDP=7.61D-06 MaxDP=2.43D-04 DE=-9.98D-06 OVMax= 3.14D-04

 Initial convergence to 1.0D-05 achieved.  Increase integral accuracy.
 Cycle  10  Pass 1  IDiag  1:
 E= -1950.18854324020     Delta-E=        0.000396939149 Rises=F Damp=F
 DIIS: error= 5.17D-04 at cycle   1 NSaved=   1.
 NSaved= 1 IEnMin= 1 EnMin= -1950.18854324020     IErMin= 1 ErrMin= 5.17D-04
 ErrMax= 5.17D-04  0.00D+00 EMaxC= 1.00D-01 BMatC= 1.05D-04 BMatP= 1.05D-04
 IDIUse=3 WtCom= 9.95D-01 WtEn= 5.17D-03
 Coeff-Com:  0.100D+01
 Coeff-En:   0.100D+01
 Coeff:      0.100D+01
 Gap=     0.153 Goal=   None    Shift=    0.000
 RMSDP=7.61D-06 MaxDP=2.43D-04 DE= 3.97D-04 OVMax= 1.29D-03

 Cycle  11  Pass 1  IDiag  1:
 RMSU=  6.51D-04    CP:  9.97D-01
 E= -1950.18866310990     Delta-E=       -0.000119869701 Rises=F Damp=F
 DIIS: error= 1.42D-05 at cycle   2 NSaved=   2.
 NSaved= 2 IEnMin= 2 EnMin= -1950.18866310990     IErMin= 2 ErrMin= 1.42D-05
 ErrMax= 1.42D-05  0.00D+00 EMaxC= 1.00D-01 BMatC= 3.37D-07 BMatP= 1.05D-04
 IDIUse=1 WtCom= 1.00D+00 WtEn= 0.00D+00
 Coeff-Com: -0.570D-02 0.101D+01
 Coeff:     -0.570D-02 0.101D+01
 Gap=     0.153 Goal=   None    Shift=    0.000
 RMSDP=9.11D-06 MaxDP=2.87D-04 DE=-1.20D-04 OVMax= 5.08D-04

 Cycle  12  Pass 1  IDiag  1:
 RMSU=  5.01D-06    CP:  9.97D-01  1.01D+00
 E= -1950.18866168098     Delta-E=        0.000001428927 Rises=F Damp=F
 DIIS: error= 3.43D-05 at cycle   3 NSaved=   3.
 NSaved= 3 IEnMin= 2 EnMin= -1950.18866310990     IErMin= 2 ErrMin= 1.42D-05
 ErrMax= 3.43D-05  0.00D+00 EMaxC= 1.00D-01 BMatC= 1.61D-06 BMatP= 3.37D-07
 IDIUse=1 WtCom= 1.00D+00 WtEn= 0.00D+00
 Coeff-Com: -0.703D-02 0.695D+00 0.312D+00
 Coeff:     -0.703D-02 0.695D+00 0.312D+00
 Gap=     0.153 Goal=   None    Shift=    0.000
 RMSDP=3.06D-06 MaxDP=1.26D-04 DE= 1.43D-06 OVMax= 3.42D-04

 Cycle  13  Pass 1  IDiag  1:
 RMSU=  1.54D-06    CP:  9.97D-01  1.01D+00  4.73D-01
 E= -1950.18866349449     Delta-E=       -0.000001813509 Rises=F Damp=F
 DIIS: error= 4.94D-06 at cycle   4 NSaved=   4.
 NSaved= 4 IEnMin= 4 EnMin= -1950.18866349449     IErMin= 4 ErrMin= 4.94D-06
 ErrMax= 4.94D-06  0.00D+00 EMaxC= 1.00D-01 BMatC= 1.38D-08 BMatP= 3.37D-07
 IDIUse=1 WtCom= 1.00D+00 WtEn= 0.00D+00
 Coeff-Com: -0.412D-02 0.399D+00 0.186D+00 0.419D+00
 Coeff:     -0.412D-02 0.399D+00 0.186D+00 0.419D+00
 Gap=     0.153 Goal=   None    Shift=    0.000
 RMSDP=2.94D-07 MaxDP=1.67D-05 DE=-1.81D-06 OVMax= 2.45D-05

 Cycle  14  Pass 1  IDiag  1:
 RMSU=  2.73D-07    CP:  9.97D-01  1.01D+00  4.87D-01  9.47D-01
 E= -1950.18866350674     Delta-E=       -0.000000012250 Rises=F Damp=F
 DIIS: error= 1.60D-06 at cycle   5 NSaved=   5.
 NSaved= 5 IEnMin= 5 EnMin= -1950.18866350674     IErMin= 5 ErrMin= 1.60D-06
 ErrMax= 1.60D-06  0.00D+00 EMaxC= 1.00D-01 BMatC= 1.11D-09 BMatP= 1.38D-08
 IDIUse=1 WtCom= 1.00D+00 WtEn= 0.00D+00
 Coeff-Com: -0.118D-02 0.112D+00 0.543D-01 0.235D+00 0.600D+00
 Coeff:     -0.118D-02 0.112D+00 0.543D-01 0.235D+00 0.600D+00
 Gap=     0.153 Goal=   None    Shift=    0.000
 RMSDP=1.06D-07 MaxDP=5.76D-06 DE=-1.22D-08 OVMax= 8.54D-06

 Cycle  15  Pass 1  IDiag  1:
 RMSU=  8.73D-08    CP:  9.97D-01  1.01D+00  4.87D-01  9.66D-01  8.16D-01
 E= -1950.18866350750     Delta-E=       -0.000000000767 Rises=F Damp=F
 DIIS: error= 7.23D-07 at cycle   6 NSaved=   6.
 NSaved= 6 IEnMin= 6 EnMin= -1950.18866350750     IErMin= 6 ErrMin= 7.23D-07
 ErrMax= 7.23D-07  0.00D+00 EMaxC= 1.00D-01 BMatC= 3.23D-10 BMatP= 1.11D-09
 IDIUse=1 WtCom= 1.00D+00 WtEn= 0.00D+00
 Coeff-Com: -0.793D-04 0.610D-02 0.428D-02 0.855D-01 0.405D+00 0.499D+00
 Coeff:     -0.793D-04 0.610D-02 0.428D-02 0.855D-01 0.405D+00 0.499D+00
 Gap=     0.153 Goal=   None    Shift=    0.000
 RMSDP=4.17D-08 MaxDP=2.95D-06 DE=-7.67D-10 OVMax= 2.65D-06

 Cycle  16  Pass 1  IDiag  1:
 RMSU=  2.38D-08    CP:  9.97D-01  1.01D+00  4.87D-01  9.72D-01  8.65D-01
                    CP:  6.55D-01
 E= -1950.18866350780     Delta-E=       -0.000000000296 Rises=F Damp=F
 DIIS: error= 1.21D-07 at cycle   7 NSaved=   7.
 NSaved= 7 IEnMin= 7 EnMin= -1950.18866350780     IErMin= 7 ErrMin= 1.21D-07
 ErrMax= 1.21D-07  0.00D+00 EMaxC= 1.00D-01 BMatC= 1.28D-11 BMatP= 3.23D-10
 IDIUse=1 WtCom= 1.00D+00 WtEn= 0.00D+00
 Coeff-Com:  0.183D-04-0.251D-02-0.396D-03 0.336D-01 0.188D+00 0.275D+00
 Coeff-Com:  0.506D+00
 Coeff:      0.183D-04-0.251D-02-0.396D-03 0.336D-01 0.188D+00 0.275D+00
 Coeff:      0.506D+00
 Gap=     0.153 Goal=   None    Shift=    0.000
 RMSDP=1.28D-08 MaxDP=6.50D-07 DE=-2.96D-10 OVMax= 8.44D-07

 Cycle  17  Pass 1  IDiag  1:
 RMSU=  9.23D-09    CP:  9.97D-01  1.01D+00  4.88D-01  9.73D-01  8.58D-01
                    CP:  6.31D-01  6.81D-01
 E= -1950.18866350782     Delta-E=       -0.000000000018 Rises=F Damp=F
 DIIS: error= 4.55D-08 at cycle   8 NSaved=   8.
 NSaved= 8 IEnMin= 8 EnMin= -1950.18866350782     IErMin= 8 ErrMin= 4.55D-08
 ErrMax= 4.55D-08  0.00D+00 EMaxC= 1.00D-01 BMatC= 2.32D-12 BMatP= 1.28D-11
 IDIUse=1 WtCom= 1.00D+00 WtEn= 0.00D+00
 Coeff-Com:  0.195D-04-0.224D-02-0.647D-03 0.148D-01 0.893D-01 0.139D+00
 Coeff-Com:  0.340D+00 0.420D+00
 Coeff:      0.195D-04-0.224D-02-0.647D-03 0.148D-01 0.893D-01 0.139D+00
 Coeff:      0.340D+00 0.420D+00
 Gap=     0.153 Goal=   None    Shift=    0.000
 RMSDP=3.86D-09 MaxDP=1.93D-07 DE=-1.82D-11 OVMax= 4.03D-07

 SCF Done:  E(RB3LYP) =  -1950.18866351     A.U. after   17 cycles
            NFock= 17  Conv=0.39D-08     -V/T= 2.0082
 KE= 1.934413916830D+03 PE=-1.437822308716D+04 EE= 5.576892567996D+03
 Leave Link  502 at Mon Feb 26 12:50:45 2024, MaxMem=  7516192768 cpu:            2490.4 elap:              63.1
 (Enter /public/apps/g16-C01//g16/l601.exe)
 Copying SCF densities to generalized density rwf, IOpCl= 0 IROHF=0.

 **********************************************************************

            Population analysis using the SCF Density.

 **********************************************************************

 Alpha  occ. eigenvalues --  -77.04034 -19.18555 -19.10644 -14.34774 -14.32273
 Alpha  occ. eigenvalues --  -10.29277 -10.28776 -10.25804 -10.23913 -10.23189
 Alpha  occ. eigenvalues --  -10.20517 -10.19974 -10.19927 -10.19634 -10.19536
 Alpha  occ. eigenvalues --  -10.19436 -10.19353 -10.19298 -10.19286 -10.19223
 Alpha  occ. eigenvalues --  -10.19135 -10.19084 -10.19058 -10.19012 -10.18962
 Alpha  occ. eigenvalues --  -10.18754 -10.18472 -10.18087 -10.17999 -10.17941
 Alpha  occ. eigenvalues --  -10.17900 -10.17776 -10.17772 -10.17678 -10.17559
 Alpha  occ. eigenvalues --  -10.17540 -10.17492 -10.17424 -10.17350 -10.17300
 Alpha  occ. eigenvalues --   -6.53569  -4.70194  -4.70160  -4.69664  -1.10662
 Alpha  occ. eigenvalues --   -1.03843  -0.94550  -0.91936  -0.87939  -0.86530
 Alpha  occ. eigenvalues --   -0.85459  -0.84832  -0.84336  -0.82244  -0.77720
 Alpha  occ. eigenvalues --   -0.77161  -0.76546  -0.75866  -0.73954  -0.73762
 Alpha  occ. eigenvalues --   -0.73716  -0.73307  -0.72940  -0.72745  -0.70481
 Alpha  occ. eigenvalues --   -0.66345  -0.64525  -0.63804  -0.63568  -0.61692
 Alpha  occ. eigenvalues --   -0.60665  -0.60114  -0.59725  -0.59175  -0.58761
 Alpha  occ. eigenvalues --   -0.58562  -0.57970  -0.57070  -0.55650  -0.53830
 Alpha  occ. eigenvalues --   -0.53625  -0.52741  -0.51829  -0.51432  -0.50059
 Alpha  occ. eigenvalues --   -0.49771  -0.47933  -0.47783  -0.47265  -0.46690
 Alpha  occ. eigenvalues --   -0.46522  -0.45922  -0.45323  -0.45251  -0.44798
 Alpha  occ. eigenvalues --   -0.44590  -0.44278  -0.44133  -0.44058  -0.43626
 Alpha  occ. eigenvalues --   -0.42935  -0.42667  -0.42449  -0.42078  -0.41940
 Alpha  occ. eigenvalues --   -0.41689  -0.41348  -0.41144  -0.40169  -0.39375
 Alpha  occ. eigenvalues --   -0.38251  -0.37398  -0.37195  -0.37109  -0.36938
 Alpha  occ. eigenvalues --   -0.36852  -0.36479  -0.36093  -0.35864  -0.35715
 Alpha  occ. eigenvalues --   -0.35180  -0.34915  -0.34291  -0.33917  -0.32485
 Alpha  occ. eigenvalues --   -0.32218  -0.30565  -0.29687  -0.28665  -0.28055
 Alpha  occ. eigenvalues --   -0.26916  -0.26550  -0.26134  -0.25624  -0.25392
 Alpha  occ. eigenvalues --   -0.25360  -0.24924  -0.24500  -0.24024  -0.22819
 Alpha  occ. eigenvalues --   -0.20983
 Alpha virt. eigenvalues --   -0.05649  -0.03789  -0.02462  -0.01851  -0.01752
 Alpha virt. eigenvalues --   -0.01222  -0.00642   0.00079   0.00601   0.00661
 Alpha virt. eigenvalues --    0.04580   0.05004   0.05309   0.05585   0.06279
 Alpha virt. eigenvalues --    0.06843   0.07363   0.07910   0.08285   0.09266
 Alpha virt. eigenvalues --    0.09887   0.10168   0.10372   0.10576   0.10947
 Alpha virt. eigenvalues --    0.11626   0.11861   0.12742   0.12984   0.13302
 Alpha virt. eigenvalues --    0.13699   0.14010   0.14126   0.14277   0.14621
 Alpha virt. eigenvalues --    0.15195   0.15518   0.15682   0.16225   0.16372
 Alpha virt. eigenvalues --    0.16609   0.16974   0.17469   0.17729   0.18174
 Alpha virt. eigenvalues --    0.18300   0.19034   0.20174   0.20262   0.21674
 Alpha virt. eigenvalues --    0.22300   0.23220   0.24438   0.24986   0.25584
 Alpha virt. eigenvalues --    0.25980   0.26380   0.27261   0.27488   0.27984
 Alpha virt. eigenvalues --    0.28882   0.29227   0.29770   0.30006   0.30234
 Alpha virt. eigenvalues --    0.30449   0.30591   0.31109   0.31499   0.31736
 Alpha virt. eigenvalues --    0.32177   0.32373   0.32608   0.32777   0.33574
 Alpha virt. eigenvalues --    0.33663   0.34693   0.35355   0.36046   0.36710
 Alpha virt. eigenvalues --    0.37213   0.37760   0.38630   0.38727   0.39433
 Alpha virt. eigenvalues --    0.39887   0.39986   0.40907   0.41326   0.41496
 Alpha virt. eigenvalues --    0.41870   0.42145   0.42359   0.42868   0.43523
 Alpha virt. eigenvalues --    0.43989   0.44063   0.44630   0.44734   0.45344
 Alpha virt. eigenvalues --    0.45615   0.45952   0.46253   0.46651   0.46784
 Alpha virt. eigenvalues --    0.47054   0.47503   0.47901   0.48360   0.48736
 Alpha virt. eigenvalues --    0.48802   0.49000   0.49234   0.49647   0.50014
 Alpha virt. eigenvalues --    0.50129   0.50560   0.50780   0.51200   0.51584
 Alpha virt. eigenvalues --    0.51736   0.52827   0.53162   0.53500   0.53844
 Alpha virt. eigenvalues --    0.54549   0.54724   0.55534   0.56192   0.56730
 Alpha virt. eigenvalues --    0.56945   0.57324   0.57862   0.58468   0.58825
 Alpha virt. eigenvalues --    0.59249   0.59981   0.60134   0.60364   0.60869
 Alpha virt. eigenvalues --    0.61415   0.61781   0.62514   0.62988   0.63317
 Alpha virt. eigenvalues --    0.63660   0.64074   0.64396   0.64902   0.65044
 Alpha virt. eigenvalues --    0.65610   0.65843   0.65898   0.66031   0.66701
 Alpha virt. eigenvalues --    0.66795   0.67236   0.67551   0.67730   0.68023
 Alpha virt. eigenvalues --    0.68224   0.68604   0.68773   0.69008   0.69254
 Alpha virt. eigenvalues --    0.69456   0.69503   0.69839   0.70038   0.70303
 Alpha virt. eigenvalues --    0.70483   0.70655   0.71423   0.71499   0.71768
 Alpha virt. eigenvalues --    0.72449   0.72594   0.72789   0.73353   0.73605
 Alpha virt. eigenvalues --    0.73654   0.74036   0.74388   0.74852   0.75077
 Alpha virt. eigenvalues --    0.75704   0.76029   0.76214   0.76622   0.76976
 Alpha virt. eigenvalues --    0.77401   0.77902   0.78319   0.78545   0.78810
 Alpha virt. eigenvalues --    0.79190   0.79289   0.79559   0.80128   0.80710
 Alpha virt. eigenvalues --    0.81153   0.81645   0.81839   0.82305   0.82967
 Alpha virt. eigenvalues --    0.83958   0.84302   0.85082   0.85768   0.86044
 Alpha virt. eigenvalues --    0.86518   0.87194   0.87617   0.88467   0.88948
 Alpha virt. eigenvalues --    0.89893   0.90433   0.90702   0.91959   0.92228
 Alpha virt. eigenvalues --    0.92927   0.93488   0.94259   0.94794   0.95905
 Alpha virt. eigenvalues --    0.96680   0.96879   0.97728   0.97942   0.98757
 Alpha virt. eigenvalues --    0.99880   1.00634   1.01591   1.02481   1.02847
 Alpha virt. eigenvalues --    1.04008   1.04692   1.05673   1.06175   1.07918
 Alpha virt. eigenvalues --    1.09014   1.09726   1.10191   1.11775   1.12170
 Alpha virt. eigenvalues --    1.13570   1.14576   1.15521   1.16558   1.17515
 Alpha virt. eigenvalues --    1.17909   1.18432   1.18962   1.20567   1.21344
 Alpha virt. eigenvalues --    1.22429   1.23486   1.23942   1.25015   1.25689
 Alpha virt. eigenvalues --    1.26268   1.26806   1.27836   1.28572   1.29253
 Alpha virt. eigenvalues --    1.30284   1.30627   1.31043   1.31646   1.32588
 Alpha virt. eigenvalues --    1.33337   1.34396   1.36393   1.37799   1.38843
 Alpha virt. eigenvalues --    1.39592   1.40863   1.42312   1.42986   1.43456
 Alpha virt. eigenvalues --    1.44061   1.44507   1.45183   1.45730   1.46679
 Alpha virt. eigenvalues --    1.47492   1.47770   1.48721   1.49069   1.49430
 Alpha virt. eigenvalues --    1.49685   1.49955   1.50179   1.50259   1.51096
 Alpha virt. eigenvalues --    1.51517   1.51674   1.52610   1.53150   1.53802
 Alpha virt. eigenvalues --    1.54501   1.55680   1.56905   1.57066   1.57957
 Alpha virt. eigenvalues --    1.58933   1.61047   1.62153   1.63437   1.65286
 Alpha virt. eigenvalues --    1.65914   1.67767   1.69222   1.71217   1.73308
 Alpha virt. eigenvalues --    1.74562   1.75375   1.76190   1.76620   1.76758
 Alpha virt. eigenvalues --    1.77718   1.78529   1.79857   1.80149   1.80344
 Alpha virt. eigenvalues --    1.80838   1.81268   1.81768   1.82214   1.83219
 Alpha virt. eigenvalues --    1.83778   1.84640   1.84858   1.85606   1.86034
 Alpha virt. eigenvalues --    1.86879   1.87236   1.88568   1.88965   1.89721
 Alpha virt. eigenvalues --    1.90090   1.90319   1.91911   1.92675   1.93967
 Alpha virt. eigenvalues --    1.94511   1.95083   1.95436   1.97696   1.98831
 Alpha virt. eigenvalues --    2.00483   2.00868   2.01550   2.03027   2.03224
 Alpha virt. eigenvalues --    2.04142   2.05225   2.05596   2.06504   2.07105
 Alpha virt. eigenvalues --    2.07526   2.08775   2.09397   2.09657   2.09697
 Alpha virt. eigenvalues --    2.10187   2.11847   2.11945   2.12337   2.13002
 Alpha virt. eigenvalues --    2.13671   2.14179   2.14895   2.15175   2.15948
 Alpha virt. eigenvalues --    2.16597   2.16911   2.18101   2.18387   2.19073
 Alpha virt. eigenvalues --    2.19272   2.19670   2.20124   2.21865   2.23623
 Alpha virt. eigenvalues --    2.23923   2.26684   2.27444   2.27948   2.29536
 Alpha virt. eigenvalues --    2.30538   2.31000   2.31254   2.31775   2.32267
 Alpha virt. eigenvalues --    2.32676   2.33066   2.33448   2.33807   2.34098
 Alpha virt. eigenvalues --    2.36376   2.36766   2.38874   2.39602   2.41729
 Alpha virt. eigenvalues --    2.43725   2.46079   2.46631   2.47276   2.47738
 Alpha virt. eigenvalues --    2.48210   2.49101   2.49512   2.50704   2.50901
 Alpha virt. eigenvalues --    2.52035   2.53274   2.53495   2.55518   2.56228
 Alpha virt. eigenvalues --    2.58247   2.58524   2.60755   2.61130   2.63096
 Alpha virt. eigenvalues --    2.64502   2.65234   2.66199   2.66911   2.67362
 Alpha virt. eigenvalues --    2.67762   2.68489   2.68601   2.69555   2.70563
 Alpha virt. eigenvalues --    2.70749   2.71572   2.71854   2.72318   2.72763
 Alpha virt. eigenvalues --    2.73065   2.74013   2.74594   2.74781   2.75576
 Alpha virt. eigenvalues --    2.76540   2.77606   2.78217   2.79024   2.80162
 Alpha virt. eigenvalues --    2.82262   2.83165   2.84154   2.86059   2.87878
 Alpha virt. eigenvalues --    2.90315   2.92348   2.98805   2.99109   3.00551
 Alpha virt. eigenvalues --    3.01722   3.03586   3.10363   3.13102   3.13739
 Alpha virt. eigenvalues --    3.17141   3.22033   3.25828   3.33613   3.35904
 Alpha virt. eigenvalues --    3.38301   3.39686   3.41903   3.48599   3.54381
[...]
 0.00000045,-0.00000161,0.00000065,0.00000099,-0.00000057,-0.00000156,-
 0.00000074,0.00000215,0.00000124,-0.00000245,0.00000058,0.00000014,-0.
 00000176,-0.00001335,0.00000612,-0.00000542,0.00000683,-0.00000028,0.0
 0000053,-0.00000213,-0.00000123,-0.00000220,-0.00000017,-0.00000326,0.
 00000219,0.00000021,-0.00000310,0.00000107,0.00000077,-0.00000181,-0.0
 0000213,0.00000085,-0.00000300,0.00000100,0.00000312,0.00000086,0.0000
 0285,-0.00000152,0.00001007,-0.00002501,0.00000183,-0.00000156,-0.0000
 0769,0.00000659,-0.00000260,0.00000223,-0.00000346,-0.00000507,-0.0000
 0026,-0.00000003,-0.00000678,-0.00000551,-0.00000119,0.00000394,-0.000
 00009,0.00000748,0.00021215,0.00014970,-0.00003137,-0.00010413,-0.0011
 5494,-0.00237552,0.12620217,0.14837746,0.00001668,-0.00000732,-0.00000
 568,-0.00003759,0.00000934,-0.00000212,0.00003168,-0.00000365,0.000005
 51,-0.00001364,-0.00000860,-0.00000860,0.00000313,0.00000449,0.0000021
 1,-0.00000274,-0.00000168,-0.00000341,0.00000260,-0.00000350,0.0000002
 8,0.00000182,0.00000260,0.00000138,0.00000199,-0.00000477,0.00000004,-
 0.00000187,0.00001590,0.00000227,0.00000117,-0.00001297,-0.00000371,0.
 00000071,0.00000977,-0.00000020,-0.00000341,-0.00000274,0.00000001,-0.
 00000336,0.00000124,-0.00001162,0.00001899,-0.00001492,0.00001389,-0.0
 0001004,-0.00001912,-0.00000190,0.00000257,-0.00000337,-0.00000054,-0.
 00000317,-0.00000074,0.00000094,0.00000103,0.00000270,0.00000094,0.000
 00042,0.00000728,0.00000216,0.00000154,-0.00001280,0.00000034,-0.00000
 753,-0.00003742,-0.00004796,0.00001515,0.00000212,-0.00000588,0.000008
 89,-0.00000908,-0.00001474,0.00001548,0.00002144,0.00001645,0.00000482
 ,-0.00001630,-0.00002615,0.00013970,0.00007505,-0.00004803,0.00003406,
 -0.00035561,-0.00036209,0.00007172,-0.00005975,0.00002266,0.00003602,0
 .00004632,0.00002305,-0.00001421,-0.00001605,-0.00001895,0.00000113,0.
 00002608,0.00001185,0.00002557,-0.00001869,0.00000623,-0.00000448,-0.0
 0001615,-0.00004126,-0.00066824,-0.00044678,-0.00078562,-0.00190527,0.
 00338086,0.00410586,-0.00653158,-0.00444186,0.00660722,0.07535536,0.07
 442152,-0.08938658,0.01538348,0.01071818,-0.00303745,-0.00233084,0.005
 67534,0.00235226,-0.00000608,0.00000977,0.00000122,-0.00000181,-0.0000
 0132,0.00000074,-0.00000051,0.00000010,0.00000053,-0.00000015,-0.00000
 013,0.00000074,0.00000023,0.00000027,0.00000080,-0.00000012,-0.0000012
 0,-0.00000071,-0.00000080,0.00000444,-0.00000039,0.00000497,0.00001257
 ,-0.00000828,0.00000662,0.00001883,0.00000853,-0.00000352,0.00000179,-
 0.00000092,-0.00000207,-0.00000018,-0.00000099,-0.00000087,-0.00000082
 ,0.00000028,0.00000037,-0.00000108,-0.00000015,0.00000282,-0.00000459,
 -0.00000579,0.00000327,-0.00000043,-0.00000369,-0.00000137,-0.00000658
 ,-0.00001184,-0.00000080,0.00004128,0.00004880,-0.00000756,-0.00000766
 ,0.00000423,0.00000438,-0.00000106,0.00000306,-0.00000075,-0.00000078,
 0.00000216,-0.00000127,-0.00000141,0.00000426,-0.00000433,-0.00000378,
 -0.00000197,-0.00034570,-0.00017611,0.00021321,0.00076973,-0.00230469,
 -0.00209740,-0.08087252,-0.08428109,0.08458811,-0.00007668,0.00000660,
 0.00005836,0.00009754,-0.00005149,-0.00002398,-0.00008243,0.00000617,-
 0.00000679,0.00003725,0.00002725,0.00001871,-0.00001166,-0.00001386,-0
 .00000674,0.00000481,0.00000806,0.00000908,-0.00000389,0.00000323,0.00
 000187,0.00000077,-0.00000410,0.00000476,-0.00000959,0.00000102,-0.000
 00280,0.00001819,-0.00001592,0.00000371,-0.00002024,0.00001097,0.00000
 570,0.00000968,-0.00001027,-0.00000754,-0.00000150,0.00000636,-0.00000
 484,0.00000309,0.00000731,-0.00000006,-0.00001021,0.00001025,0.0000026
 4,0.00000732,0.00001408,-0.00000526,0.00000047,0.00000286,0.00001425,0
 .00000363,-0.00000169,0.00000356,0.00000302,-0.00000125,-0.00000075,0.
 00000574,-0.00001444,-0.00000560,-0.00001339,0.00002000,-0.00000274,0.
 00001432,0.00006835,0.00007041,-0.00001596,-0.00000925,-0.00000259,-0.
 00001174,0.00001745,0.00003130,0.00000028,-0.00003042,-0.00001689,-0.0
 0002606,0.00002472,0.00008668,-0.00008236,-0.00013533,-0.00004909,-0.0
 0003565,0.00059905,-0.00052898,-0.00017361,-0.00017934,0.00019929,0.00
 000823,-0.00003774,-0.00002897,-0.00000174,-0.00000795,-0.00002826,-0.
 00002219,0.00001161,-0.00001080,0.00002285,0.00000703,-0.00002358,-0.0
 0007754,0.00006597,-0.00002663,-0.00115858,-0.00367640,0.00183311,0.00
 079124,-0.00034357,0.00047488,0.00156987,0.00093904,-0.00136490,-0.003
 63780,-0.00104191,0.00010645,-0.31356489,0.04045045,-0.06361929,-0.016
 83358,0.00593216,-0.00676775,0.00001244,-0.00001340,-0.00001093,0.0000
 0595,0.00000639,-0.00000294,0.00000096,-0.00000214,-0.00000221,-0.0000
 0085,-0.00000031,-0.00000328,0.00000143,0.00000085,-0.00000199,-0.0000
 0241,0.00000094,0.00000374,0.00000097,-0.00000658,-0.00000014,-0.00000
 234,-0.00001197,-0.00001150,0.00000115,-0.00001877,0.00000341,0.000001
 36,-0.00000359,-0.00000197,0.00000151,-0.00000343,0.00000167,-0.000003
 67,0.00000399,0.00000051,-0.00000454,0.00000267,0.00000117,-0.00000636
 ,0.00000684,0.00000967,-0.00000481,0.00000503,0.00000434,-0.00000312,0
 .00002205,0.00001612,-0.00001654,-0.00003396,-0.00007225,0.00000095,-0
 .00001513,0.00000451,-0.00000737,0.00000565,-0.00000821,-0.00000898,-0
 .00000116,-0.00000111,-0.00001100,-0.00000707,-0.00001076,-0.00000117,
 -0.00000516,0.00001623,-0.00007449,0.00008228,0.00004031,-0.00025842,-
 0.00012134,0.00002980,0.00072699,0.00046926,0.00015686,0.33190197,-0.0
 0003237,-0.00000731,0.00001386,0.00005382,-0.00000936,0.00000849,-0.00
 004050,0.00000211,-0.00001436,0.00001829,0.00001271,0.00001327,-0.0000
 0454,-0.00000698,-0.00000435,0.00000391,0.00000295,0.00000369,-0.00000
 274,0.00000290,-0.00000170,-0.00000119,-0.00000228,-0.00000081,-0.0000
 0367,0.00000293,-0.00000111,0.00000409,-0.00001235,0.00000294,-0.00000
 026,0.00001002,-0.00000241,-0.00000475,-0.00000620,0.00000196,0.000009
 53,0.00000139,0.00000259,-0.00000618,-0.00000045,-0.00000037,0.0000174
 8,-0.00000421,-0.00000747,-0.00002556,-0.00001574,0.00001809,-0.000002
 85,-0.00000101,-0.00001117,0.00000193,0.00000375,-0.00000507,-0.000001
 00,0.00000036,-0.00000280,-0.00000205,-0.00000688,0.00000009,-0.000002
 23,0.00001159,-0.00000496,0.00000504,-0.00000151,0.00001848,-0.0000111
 8,0.00001205,0.00000065,-0.00001044,-0.00000154,0.00000711,0.00000295,
 0.00000950,-0.00000362,0.00002246,0.00000082,-0.00000360,-0.00003682,-
 0.00009302,0.00006431,-0.00036237,0.00035093,-0.00021767,-0.00007744,-
 0.00014199,0.00010481,0.00000900,-0.00002419,-0.00004445,0.00000061,0.
 00000499,-0.00000842,-0.00001188,-0.00000407,-0.00000670,0.00000437,-0
 .00000034,-0.00001957,-0.00004239,0.00004643,-0.00002901,-0.00299509,0
 .00096784,0.00455768,-0.00031180,-0.00102645,0.00022028,0.00005489,-0.
 00042775,0.00602586,0.02336693,0.00102088,0.00474340,0.04056293,-0.057
 86587,0.02046694,-0.01862837,0.00688355,-0.00463752,0.00000691,-0.0000
 0977,0.00000105,0.00000179,0.00000283,0.00000014,-0.00000043,-0.000000
 80,-0.00000028,-0.00000059,0.00000008,-0.00000039,-0.00000056,-0.00000
 020,-0.00000034,0.00000243,0.00000114,-0.00000121,0.00000469,-0.000001
 08,-0.00000096,-0.00000108,0.00000298,0.00001390,0.00000002,0.00002237
 ,0.00000033,-0.00000455,0.00000228,-0.00000090,0.00000058,-0.00000049,
 0.00000070,0.00000140,0.00000037,0.00000074,0.00000099,0.00000121,-0.0
 0000044,-0.00000493,0.00000285,0.00000235,0.00000065,-0.00000084,0.000
 00301,0.00000370,-0.00000111,-0.00000421,0.00000005,0.00001530,0.00001
 272,0.00000689,0.00000141,0.00000896,-0.00000606,0.00000139,-0.0000027
 2,-0.00000280,-0.00000049,0.00000058,-0.00000754,-0.00000219,-0.000005
 40,-0.00000246,-0.00000458,0.00000991,0.00006515,-0.00039178,-0.000590
 13,0.00107957,-0.00001088,0.00036250,-0.00016720,-0.00081900,-0.002672
 89,-0.04325104,0.05238747,0.00000320,-0.00001817,-0.00002491,0.0000205
 5,0.00003500,0.00003218,-0.00001754,-0.00000836,-0.00001686,0.00000648
 ,0.00000667,0.00000876,-0.00000216,-0.00000496,-0.00000282,0.00000125,
 0.,-0.00000014,-0.00000063,-0.00000177,-0.00000171,0.00000108,0.000000
 50,0.00000068,-0.00000150,-0.00000375,-0.00000363,0.00000616,0.0000147
 5,0.00001384,-0.00000987,-0.00001299,-0.00000835,0.00000530,0.00000721
 ,-0.00000134,-0.00000373,-0.00000152,-0.00000074,-0.00000091,-0.000003
 08,0.00000187,-0.00000207,-0.00000245,0.00000280,0.00001428,0.00001753
 ,-0.00002139,-0.00000668,-0.00000065,0.00001383,-0.00000193,-0.0000037
 1,-0.00000128,0.00000164,0.00000012,0.00000247,0.00000252,0.00000593,0
 .00000076,-0.00000470,-0.00000721,-0.00000713,0.00000442,-0.00003571,-
 0.00001961,-0.00000277,0.00001500,0.00000966,-0.00000651,-0.00001124,-
 0.00000616,-0.00001468,0.00000410,-0.00000670,0.00003734,0.00001073,-0
 .00005135,-0.00002159,0.00002182,0.00007632,0.00027890,0.00000213,0.00
 025580,0.00014483,0.00009406,-0.00014364,-0.00001139,-0.00001619,-0.00
 000833,-0.00000360,0.00000298,0.00003403,0.00001904,-0.00001759,0.0000
 0678,-0.00002586,-0.00000502,0.00000211,0.00002311,0.00000620,0.000018
 60,0.00101935,0.00451045,0.00359118,0.00038369,0.00008147,-0.00060596,
 -0.00049435,0.00615716,0.00207102,-0.01971541,0.00223034,-0.00030318,-
 0.06328984,0.02019325,-0.06093718,0.01274603,-0.00184492,0.00647198,0.
 00000213,0.00000302,0.00000469,0.00000044,0.00000072,0.00000134,-0.000
 00057,-0.00000103,0.00000031,-0.00000100,-0.00000034,-0.00000014,0.000
 00015,0.00000083,0.00000044,-0.00000144,-0.00000228,0.00000112,0.00000
 020,-0.00000023,0.00000209,0.00000357,0.00000098,-0.00000539,-0.000002
 34,-0.00002300,0.00000950,0.00000179,0.00000068,-0.00000103,-0.0000022
 9,-0.00000025,-0.00000134,-0.00000226,0.00000047,-0.00000026,-0.000001
 87,-0.00000064,0.00000058,-0.00000253,-0.00000002,-0.00000183,-0.00000
 028,-0.00000307,0.00000295,0.00000461,-0.00001066,-0.00001064,0.000008
 97,-0.00001163,0.00002774,0.00001888,0.00001057,-0.00001438,0.00000428
 ,-0.00000104,0.00000218,0.00000239,0.00000100,-0.00000237,0.00000033,0
 .00000084,0.00000044,0.00000460,0.00000389,-0.00000295,0.00007293,-0.0
 0060815,-0.00064541,-0.00089154,0.00019747,-0.00003812,0.00069467,-0.0
 0260590,-0.00195950,0.06904475,-0.02589663,0.05438504,0.00016386,-0.00
 006428,-0.00006107,-0.00019723,0.00012417,-0.00000049,0.00017995,-0.00
 003527,0.00004777,-0.00007398,-0.00004836,-0.00005285,0.00001564,0.000
 02998,0.00001509,-0.00001522,-0.00000920,-0.00001548,0.00001183,-0.000
 01429,0.00000631,0.00000639,0.00001009,0.00000500,0.00001380,-0.000018
 73,0.00000356,-0.00001553,0.00006013,-0.00000851,0.00000685,-0.0000461
 2,0.00000069,0.00001001,0.00002890,-0.00000219,-0.00001979,-0.00000843
 ,-0.00000562,0.00001530,0.00000273,-0.00001811,-0.00000719,-0.00000104
 ,0.00000833,-0.00000166,0.00001945,-0.00000896,0.00002135,0.00001020,0
 .00001880,-0.00000229,-0.00001089,0.00001265,0.00000300,0.00000153,0.0
 0000508,0.00000509,0.00002911,0.00000374,0.00001112,-0.00005185,0.0000
 1640,0.00005278,0.00003935,-0.00000565,-0.00002488,0.00001556,0.000007
 50,0.00002179,-0.00002415,-0.00005049,0.00000455,0.00002798,0.00004549
 ,-0.00003388,-0.00011689,-0.00007375,-0.00024227,-0.00014876,0.0003940
 6,-0.00050775,0.00227320,-0.00069300,0.00017244,-0.00073425,-0.0000576
 5,0.00020003,0.00009140,0.00024829,0.00007603,-0.00008211,0.00001438,0
 .00002536,-0.00001964,0.00001373,-0.00000901,-0.00000260,-0.00001769,0
 .00001880,-0.00002571,0.00000977,-0.00424621,0.02248954,-0.01846483,-0
 .00554846,-0.00032777,-0.00106296,-0.00093241,-0.00034028,0.00028173,-
 0.00270618,-0.00272388,0.00109663,0.00940288,-0.01751904,0.01458469,-0
 .07561633,0.05134779,-0.04412059,-0.00002508,0.00004178,0.00000107,-0.
 00000943,-0.00000822,0.00000088,-0.00000078,0.00000212,0.00000098,0.00
 000192,-0.00000004,0.00000244,0.00000199,0.00000034,0.00000194,-0.0000
 0489,-0.00000448,0.00000079,-0.00000913,0.00000944,-0.00000087,0.00000
 260,-0.00000219,-0.00002301,-0.00001295,-0.00002772,0.00001176,0.00000
 370,-0.00000269,0.00000211,-0.00000364,0.00000190,-0.00000257,-0.00000
 290,-0.00000310,-0.00000119,-0.00000038,-0.00000493,0.00000038,0.00000
 583,0.00000172,-0.00000284,0.00000602,-0.00000292,-0.00000821,-0.00000
 278,-0.00001680,-0.00001496,0.00001718,0.00011590,-0.00008514,0.000015
 02,-0.00000387,-0.00002814,0.00003464,-0.00000420,0.00002091,0.0000070
 8,-0.00000243,0.00000336,0.00001459,0.00000676,0.00000808,-0.00003320,
 -0.00001227,-0.00003501,-0.00006903,0.00114626,-0.00101524,0.00008400,
 0.00010064,0.00005081,0.00028045,-0.00082809,0.00066324,0.00102337,0.0
 0075390,-0.00004003,0.07843721,0.00007987,-0.00005577,-0.00007490,-0.0
 0003642,0.00011406,0.00005126,0.00001729,-0.00002394,-0.00000647,-0.00
 000163,-0.00000391,0.00000298,-0.00000042,0.00000179,-0.00000152,0.000
 00134,-0.00000152,-0.00000067,-0.00000012,0.00000054,-0.00000166,-0.00
 000005,-0.00000016,-0.00000133,0.00000094,0.00000008,-0.00000013,0.000
 00099,0.00000187,0.00000683,0.00000148,-0.00000098,-0.00000865,-0.0000
 0511,-0.00000155,0.00000465,0.00000730,-0.00000087,-0.00000034,-0.0000
 0313,-0.00000229,0.00000811,0.00000401,0.00000183,-0.00000134,-0.00000
 989,-0.00000585,0.00000757,-0.00000262,0.00000137,-0.00001021,-0.00000
 097,0.00000095,-0.00000474,-0.00000111,0.00000028,-0.00000173,-0.00000
 288,-0.00000123,0.00000208,0.00000018,0.00000267,-0.00000595,-0.000052
 31,-0.00012304,-0.00015171,0.00000376,0.00001667,0.00001930,0.00001830
 ,-0.00002183,-0.00001439,-0.00013201,-0.00002892,-0.00000971,0.0002053
 4,0.00022527,-0.00016820,0.00031748,0.00024905,-0.00003960,0.00018432,
 -0.00065334,-0.00138571,-0.00026841,0.00002998,0.00027725,-0.00006734,
 -0.00004485,-0.00005080,0.00001097,0.00004687,-0.00003933,-0.00000300,
 0.00000954,0.00000728,0.00001482,-0.00002022,-0.00001016,-0.00000579,0
 .00002530,-0.00002073,0.00009221,-0.00061952,0.00165889,0.00048902,0.0
 0349600,0.00275142,-0.00037282,0.00024668,-0.00076807,-0.00370792,0.00
 177660,0.00372687,0.00692090,-0.00896566,0.01130926,0.05133752,-0.2042
 2843,0.13507710,0.00000558,0.00000042,0.00000949,-0.00000202,-0.000001
 11,0.00000132,-0.00000079,-0.00000002,0.00000058,-0.00000019,-0.000000
 05,0.00000077,-0.00000066,-0.00000022,0.00000052,0.00000252,-0.0000003
 5,-0.00000160,0.00000579,-0.00000174,-0.00000107,-0.00000156,0.0000028
 5,0.00001603,-0.00000483,0.00001405,-0.00000197,-0.00000276,0.00000250
 ,-0.00000053,-0.00000024,0.00000056,-0.00000021,0.00000142,-0.00000049
 ,0.00000032,0.00000162,0.00000004,-0.00000057,0.00000503,-0.00001534,-
 0.00000960,-0.00001155,-0.00000596,0.00000965,0.00000576,-0.00001984,-
 0.00001409,-0.00004627,-0.00023294,0.00021538,-0.00001647,0.00000344,0
 .00002327,-0.00000891,-0.00000119,-0.00000430,-0.00000179,-0.00000278,
 0.00000416,-0.00000364,0.00000068,-0.00000261,0.00000263,-0.00001886,-
 0.00000220,-0.00013947,0.00008811,0.00022673,0.00010437,-0.00050165,-0
 .00051545,0.00033267,-0.00050731,0.00047036,0.00022406,-0.00088669,-0.
 00247369,-0.05548440,0.21064037,-0.00005921,0.00000251,0.00003519,0.00
 002569,-0.00006039,-0.00000922,-0.00003446,0.00000422,-0.00000340,0.00
 001765,0.00001286,0.00000822,-0.00000502,-0.00000708,-0.00000371,0.000
 00166,0.00000448,0.00000250,-0.00000088,-0.00000149,0.00000013,0.00000
 220,-0.00000024,0.00000376,-0.00000455,-0.00000421,-0.00000265,0.00000
 966,0.00000744,0.00000856,-0.00001274,-0.00000672,-0.00000234,0.000007
 00,0.00000239,-0.00000414,-0.00000621,0.00000189,-0.00000657,0.0000055
 5,0.00000369,-0.00000439,0.00000102,0.00000061,0.00000658,-0.00000324,
 0.00001517,-0.00000329,0.00000670,0.00000491,0.00000849,-0.00000098,-0
 .00000614,0.00000633,0.00000261,0.00000070,0.00000075,0.00000423,0.000
 00032,-0.00000111,-0.00000653,-0.00000102,-0.00000397,-0.00007518,-0.0
 0002103,-0.00019252,0.00002500,0.00001138,-0.00001966,0.00001147,0.000
 01100,-0.00000685,-0.00006519,-0.00000263,-0.00000311,-0.00000538,0.00
 001943,0.00001558,0.00051048,0.00002506,-0.00004456,0.00096379,-0.0006
 3670,-0.00139406,-0.00004440,-0.00038844,0.00005184,0.00007854,-0.0000
 3959,0.00010421,0.00001565,-0.00004800,-0.00001528,-0.00001820,0.00000
 490,-0.00001499,0.00002352,0.00001192,-0.00003625,-0.00007096,0.000068
 22,-0.00002191,-0.00153520,0.00447850,-0.00157144,-0.00180699,0.002960
 20,0.00451186,0.00021263,-0.00072199,-0.00006115,0.00178774,0.00394254
 ,0.00436311,-0.00465389,0.00845456,-0.00334833,-0.04405062,0.13453322,
 -0.14835716,0.00000277,0.00000050,-0.00000332,0.00000207,0.00000381,0.
 00000007,-0.00000070,-0.00000175,-0.00000068,-0.00000091,-0.00000018,-
 0.00000123,0.00000093,0.00000072,-0.00000044,-0.00000181,-0.00000113,0
 .00000191,0.00000072,-0.00000075,0.00000013,-0.00000206,-0.00000492,-0
 .00000784,-0.00000941,-0.00001050,0.00000692,0.00000038,-0.00000017,-0
 .00000131,-0.00000121,-0.00000145,-0.00000040,-0.00000288,0.00000141,-
 0.00000003,-0.00000256,0.00000032,0.00000064,0.00000947,-0.00002129,-0
 .00000150,-0.00000306,-0.00000430,0.00000656,0.00000197,-0.00000238,-0
 .00000524,0.00004786,-0.00012985,0.00009269,0.00000473,-0.00000742,-0.
 00000535,0.00000948,0.00000351,-0.00000239,-0.00000394,-0.00000258,0.0
 0000358,-0.00000884,-0.00000516,-0.00000344,-0.00002090,-0.00001529,0.
 00001199,0.00011397,0.00026525,-0.00000091,0.00007928,-0.00054642,-0.0
 0073956,-0.00024114,0.00041481,-0.00014802,0.00040423,-0.00248777,-0.0
 0219735,0.04836863,-0.15008349,0.14899948\\0.00000367,-0.00001098,0.00
 000354,0.00000477,0.00001176,-0.00000356,-0.00000597,0.00001254,0.0000
 1003,0.00000415,-0.00000647,-0.00000498,-0.00000344,-0.00000373,-0.000
 00042,-0.00000108,0.00000120,0.00000256,-0.00000055,0.00000170,-0.0000
 0173,-0.00000278,0.00000043,-0.00000132,-0.00000375,0.00000370,0.00000
 459,0.00001061,-0.00000052,-0.00000723,0.00000293,0.00000088,0.0000093
 3,-0.00000932,-0.00001263,0.00000105,0.00000482,0.00000526,-0.00000729
 ,0.00000323,-0.00000055,0.00000156,-0.00000049,0.00000032,0.00000203,-
 0.00000165,0.00000219,-0.00000361,0.00000474,-0.00000124,-0.00000246,-
 0.00000064,0.,0.00000804,-0.00000450,0.00000638,-0.00000741,0.00000197
 ,0.00000127,0.00000182,-0.00000664,-0.00000153,-0.00000087,0.00000102,
 -0.00000681,-0.00000197,-0.00000015,0.00000492,0.00000194,-0.00000670,
 -0.00000056,0.00000336,0.00000367,-0.00000088,-0.00000424,-0.00000770,
 0.00000215,0.00000151,0.00000760,0.00000536,0.00000425,0.00000223,-0.0
 0000978,-0.00000861,-0.00000050,-0.00000271,0.00000298,-0.00000629,0.0
 0000639,-0.00000127,0.00000379,0.00000162,0.00000898,0.00000114,-0.000
 00603,-0.00000653,-0.00000202,0.00000143,-0.00000219,-0.00000050,0.000
 00073,0.00000229,-0.00001438,0.00000412,-0.00000101,-0.00000017,-0.000
 01092,0.00000600,0.00001266,0.00000266,-0.00000078,-0.00000720,0.00000
 762,-0.00000839,-0.00000492,-0.00001322,0.00000911,0.00001678,0.000004
 61,-0.00000339,0.00000050,0.00000448,-0.00000256,-0.00000332,0.0000001
 0,0.00000145,-0.00000034,-0.00000275,-0.00000047,-0.00000358,-0.000000
 51,-0.00000152,-0.00000274,0.00000138,0.,0.00000128,0.00000255,0.00000
 112,0.00000057,0.,0.00000272,0.00000354,-0.00000112,0.00000110,0.00000
 376,-0.00000116,-0.00000216,-0.00000090,0.00000210,-0.00000344,0.00000
 093,-0.00000431,-0.00000068,0.00000046,0.00000087,-0.00000045,-0.00000
 070,0.00000221,0.00000021,-0.00000218,-0.00000182,0.00000085,0.0000013
 9,0.00000394,0.00000206,0.00000222,0.00000329,0.00000096,0.00000328,0.
 00000041,-0.00000030,0.00000257,0.00000078,-0.00000140,-0.00000282,0.0
 0000088,-0.00000059,-0.00000379,-0.00000025,0.00000066,-0.00000168,-0.
 00000330,-0.00000042,0.00000338,-0.00000306,-0.00000107,-0.00000502,-0
 .00000099,-0.00000067,-0.00000193,0.00000049,-0.00000307,0.00000237,0.
 00000090,-0.00000093,0.00000333,-0.00000179,0.00000057,0.00000097,-0.0
 0000400,0.00000231\\\@
 The archive entry for this job was punched.


 The most important thing in communication is to hear what isn't being said.
 -- Peter F. Drucker
 Job cpu time:       0 days 11 hours  5 minutes 11.2 seconds.
 Elapsed time:       0 days  0 hours 16 minutes 42.6 seconds.
 File lengths (MBytes):  RWF=   2834 Int=      0 D2E=      0 Chk=     34 Scr=      1
 Normal termination of Gaussian 16 at Mon Feb 26 13:29:21 2024.
