 Entering Gaussian System, Link 0=g16
 Initial command:
 /public/apps/g16-C01//g16/l1.exe "/public/home/ljq/tmp/Gau-90274.inp" -scrdir="/public/home/ljq/tmp/"
 Entering Link 1 = /public/apps/g16-C01//g16/l1.exe PID=     90275.
  
 Copyright (c) 1988-2019, Gaussian, Inc.  All Rights Reserved.
  
 This is part of the Gaussian(R) 16 program.  It is based on
 the Gaussian(R) 09 system (copyright 2009, Gaussian, Inc.),
 the Gaussian(R) 03 system (copyright 2003, Gaussian, Inc.),
 the Gaussian(R) 98 system (copyright 1998, Gaussian, Inc.),
 the Gaussian(R) 94 system (copyright 1995, Gaussian, Inc.),
 the Gaussian 92(TM) system (copyright 1992, Gaussian, Inc.),
 the Gaussian 90(TM) system (copyright 1990, Gaussian, Inc.),
 the Gaussian 88(TM) system (copyright 1988, Gaussian, Inc.),
 the Gaussian 86(TM) system (copyright 1986, Carnegie Mellon
 University), and the Gaussian 82(TM) system (copyright 1983,
 Carnegie Mellon University). Gaussian is a federally registered
 trademark of Gaussian, Inc.
  
 This software contains proprietary and confidential information,
 including trade secrets, belonging to Gaussian, Inc.
  
 This software is provided under written license and may be
 used, copied, transmitted, or stored only in accord with that
 written license.
  
 The following legend is applicable only to US Government
 contracts under FAR:
  
                    RESTRICTED RIGHTS LEGEND
  
 Use, reproduction and disclosure by the US Government is
 subject to restrictions as set forth in subparagraphs (a)
 and (c) of the Commercial Computer Software - Restricted
 Rights clause in FAR 52.227-19.
  
 Gaussian, Inc.
 340 Quinnipiac St., Bldg. 40, Wallingford CT 06492
  
  
 ---------------------------------------------------------------
 Warning -- This program may not be used in any manner that
 competes with the business of Gaussian, Inc. or will provide
 assistance to any competitor of Gaussian, Inc.  The licensee
 of this program is prohibited from giving any competitor of
 Gaussian, Inc. access to this program.  By using this program,
 the user acknowledges that Gaussian, Inc. is engaged in the
 business of creating and licensing software in the field of
 computational chemistry and represents and warrants to the
 licensee that it is not a competitor of Gaussian, Inc. and that
 it will not use this program in any manner prohibited above.
 ---------------------------------------------------------------
  

 Cite this work as:
 Gaussian 16, Revision C.01,
 M. J. Frisch, G. W. Trucks, H. B. Schlegel, G. E. Scuseria, 
 M. A. Robb, J. R. Cheeseman, G. Scalmani, V. Barone, 
 G. A. Petersson, H. Nakatsuji, X. Li, M. Caricato, A. V. Marenich, 
 J. Bloino, B. G. Janesko, R. Gomperts, B. Mennucci, H. P. Hratchian, 
 J. V. Ortiz, A. F. Izmaylov, J. L. Sonnenberg, D. Williams-Young, 
 F. Ding, F. Lipparini, F. Egidi, J. Goings, B. Peng, A. Petrone, 
 T. Henderson, D. Ranasinghe, V. G. Zakrzewski, J. Gao, N. Rega, 
 G. Zheng, W. Liang, M. Hada, M. Ehara, K. Toyota, R. Fukuda, 
 J. Hasegawa, M. Ishida, T. Nakajima, Y. Honda, O. Kitao, H. Nakai, 
 T. Vreven, K. Throssell, J. A. Montgomery, Jr., J. E. Peralta, 
 F. Ogliaro, M. J. Bearpark, J. J. Heyd, E. N. Brothers, K. N. Kudin, 
 V. N. Staroverov, T. A. Keith, R. Kobayashi, J. Normand, 
 K. Raghavachari, A. P. Rendell, J. C. Burant, S. S. Iyengar, 
 J. Tomasi, M. Cossi, J. M. Millam, M. Klene, C. Adamo, R. Cammi, 
 J. W. Ochterski, R. L. Martin, K. Morokuma, O. Farkas, 
 J. B. Foresman, and D. J. Fox, Gaussian, Inc., Wallingford CT, 2019.
 
 ******************************************
 Gaussian 16:  ES64L-G16RevC.01  3-Jul-2019
                26-Feb-2024 
 ******************************************
 %nproc=40
 Will use up to   40 processors via shared memory.
 %mem=56GB
 ------------------------------------------
 #p opt freq b3lyp/def2svpp em=gd3bj nosymm
 ------------------------------------------
 1/18=20,19=15,26=3,38=1/1,3;
 2/9=110,12=2,15=1,17=6,18=5,40=1/2;
 3/5=43,7=202,11=2,25=1,30=1,71=1,74=-5,124=41/1,2,3;
 4//1;
 5/5=2,38=5/2;
 6/7=2,8=2,9=2,10=2,28=1/1;
 7/30=1/1,2,3,16;
 1/18=20,19=15,26=3/3(2);
 2/9=110,15=1/2;
 99//99;
 2/9=110,15=1/2;
 3/5=43,7=202,11=2,25=1,30=1,71=1,74=-5,124=41/1,2,3;
 4/5=5,16=3,69=1/1;
 5/5=2,38=5/2;
 7/30=1/1,2,3,16;
 1/18=20,19=15,26=3/3(-5);
 2/9=110,15=1/2;
 6/7=2,8=2,9=2,10=2,19=2,28=1/1;
 99/9=1/99;
 Leave Link    1 at Mon Feb 26 09:45:01 2024, MaxMem=  7516192768 cpu:               0.8 elap:               0.0
 (Enter /public/apps/g16-C01//g16/l101.exe)
 ----------------------
 $$$$Singlemol####0????
 ----------------------
 Symbolic Z-matrix:
 Charge =  0 Multiplicity = 1
 C                    -1.33213   2.02014  -2.33247 
 C                    -1.41781   1.60516  -0.86754 
 C                    -0.62532   2.54666   0.06265 
 C                     0.82851   2.23562   0.03737 
 N                     1.49761   1.88511   1.06147 
 C                     2.87707   1.90143   0.59871 
 C                     4.09653   1.08407   0.86799 
 C                     4.59911   0.4949    2.00421 
 C                     5.85767  -0.09288   1.94242 
 C                     6.58982  -0.07328   0.76994 
 C                     6.08503   0.53097  -0.37656 
 C                     4.8389    1.11478  -0.32777 
 C                     4.09005   1.82829  -1.4447 
 C                     2.69078   1.63201  -0.89394 
 O                     1.4914    2.35675  -1.15929 
 C                    -0.87311   0.21625  -0.68133 
 N                    -0.26404  -0.45999  -1.55381 
 C                     0.07895  -1.73435  -0.95877 
 C                     1.55854  -1.95291  -0.8344 
 C                     2.47273  -2.1555   -1.84983 
 C                     3.80188  -2.36355  -1.51321 
 C                     4.19704  -2.38149  -0.18583 
 C                     3.27886  -2.15992   0.82908 
 C                     1.95744  -1.93026   0.49773 
 C                     0.81279  -1.63231   1.41973 
 C                    -0.43048  -1.61202   0.5105 
 O                    -1.08498  -0.3479    0.53017 
 C                    -2.85183   1.49332  -0.43323 
 N                    -3.76781   1.02206  -1.16446 
 C                    -4.96154   0.90451  -0.355 
 C                    -5.28305  -0.53944  -0.08874 
 C                    -5.67192  -1.49866  -1.00258 
 C                    -5.87386  -2.79619  -0.55688 
 C                    -5.68362  -3.12059   0.77678 
 C                    -5.28589  -2.15542   1.68979 
 C                    -5.08334  -0.86135   1.24869 
 C                    -4.65219   0.32817   2.05422 
 C                    -4.53286   1.47313   1.03315 
 O                    -3.17293   1.8487    0.83025 
 H                    -1.89598   1.31683  -2.9366 
 H                    -0.29498   2.01576  -2.65156 
 H                    -1.7517    3.015    -2.46085 
 H                    -0.96758   2.43177   1.0906 
 H                    -0.77718   3.5786   -0.26011 
 H                     3.20243   2.95237   0.74432 
 H                     4.0261    0.49048   2.91863 
 H                     6.26873  -0.56604   2.82217 
 H                     7.5673   -0.53222   0.74157 
 H                     6.66321   0.54116  -1.28866 
 H                     4.36669   2.88516  -1.48287 
 H                     4.25235   1.37722  -2.42171 
 H                     2.43619   0.56614  -1.02853 
 H                    -0.39941  -2.52937  -1.54031 
 H                     2.15152  -2.14875  -2.88005 
 H                     4.53291  -2.52408  -2.29161 
 H                     5.23154  -2.56309   0.06294 
 H                     3.59148  -2.1686    1.86186 
 H                     0.72293  -2.3692    2.21824 
 H                     0.94258  -0.6449    1.8732 
 H                    -1.16416  -2.37308   0.78859 
 H                    -5.78778   1.43547  -0.83632 
 H                    -5.80591  -1.2386   -2.04103 
 H                    -6.17916  -3.56102  -1.25557 
 H                    -5.84329  -4.136     1.10913 
 H                    -5.13319  -2.41085   2.72829 
 H                    -3.68266   0.15836   2.52693 
 H                    -5.3767    0.5649    2.83543 
 H                    -5.08397   2.36609   1.34004 
 
 ITRead=  0  0  0  0  0  0  0  0  0  0  0  0  0  0  0  0  0  0  0  0
 ITRead=  0  0  0  0  0  0  0  0  0  0  0  0  0  0  0  0  0  0  0  0
 ITRead=  0  0  0  0  0  0  0  0  0  0  0  0  0  0  0  0  0  0  0  0
 ITRead=  0  0  0  0  0  0  0  0
 MicOpt= -1 -1 -1 -1 -1 -1 -1 -1 -1 -1 -1 -1 -1 -1 -1 -1 -1 -1 -1 -1
 MicOpt= -1 -1 -1 -1 -1 -1 -1 -1 -1 -1 -1 -1 -1 -1 -1 -1 -1 -1 -1 -1
 MicOpt= -1 -1 -1 -1 -1 -1 -1 -1 -1 -1 -1 -1 -1 -1 -1 -1 -1 -1 -1 -1
 MicOpt= -1 -1 -1 -1 -1 -1 -1 -1
 NAtoms=     68 NQM=       68 NQMF=       0 NMMI=      0 NMMIF=      0
                NMic=       0 NMicF=      0.
                    Isotopes and Nuclear Properties:
 (Nuclear quadrupole moments (NQMom) in fm**2, nuclear magnetic moments (NMagM)
  in nuclear magnetons)

  Atom         1           2           3           4           5           6           7           8           9          10
 IAtWgt=          12          12          12          12          14          12          12          12          12          12
 AtmWgt=  12.0000000  12.0000000  12.0000000  12.0000000  14.0030740  12.0000000  12.0000000  12.0000000  12.0000000  12.0000000
 NucSpn=           0           0           0           0           2           0           0           0           0           0
 AtZEff=  -0.0000000  -0.0000000  -0.0000000  -0.0000000  -0.0000000  -0.0000000  -0.0000000  -0.0000000  -0.0000000  -0.0000000
 NQMom=    0.0000000   0.0000000   0.0000000   0.0000000   2.0440000   0.0000000   0.0000000   0.0000000   0.0000000   0.0000000
 NMagM=    0.0000000   0.0000000   0.0000000   0.0000000   0.4037610   0.0000000   0.0000000   0.0000000   0.0000000   0.0000000
 AtZNuc=   6.0000000   6.0000000   6.0000000   6.0000000   7.0000000   6.0000000   6.0000000   6.0000000   6.0000000   6.0000000

  Atom        11          12          13          14          15          16          17          18          19          20
 IAtWgt=          12          12          12          12          16          12          14          12          12          12
 AtmWgt=  12.0000000  12.0000000  12.0000000  12.0000000  15.9949146  12.0000000  14.0030740  12.0000000  12.0000000  12.0000000
 NucSpn=           0           0           0           0           0           0           2           0           0           0
 AtZEff=  -0.0000000  -0.0000000  -0.0000000  -0.0000000  -0.0000000  -0.0000000  -0.0000000  -0.0000000  -0.0000000  -0.0000000
 NQMom=    0.0000000   0.0000000   0.0000000   0.0000000   0.0000000   0.0000000   2.0440000   0.0000000   0.0000000   0.0000000
 NMagM=    0.0000000   0.0000000   0.0000000   0.0000000   0.0000000   0.0000000   0.4037610   0.0000000   0.0000000   0.0000000
 AtZNuc=   6.0000000   6.0000000   6.0000000   6.0000000   8.0000000   6.0000000   7.0000000   6.0000000   6.0000000   6.0000000

  Atom        21          22          23          24          25          26          27          28          29          30
 IAtWgt=          12          12          12          12          12          12          16          12          14          12
 AtmWgt=  12.0000000  12.0000000  12.0000000  12.0000000  12.0000000  12.0000000  15.9949146  12.0000000  14.0030740  12.0000000
 NucSpn=           0           0           0           0           0           0           0           0           2           0
 AtZEff=  -0.0000000  -0.0000000  -0.0000000  -0.0000000  -0.0000000  -0.0000000  -0.0000000  -0.0000000  -0.0000000  -0.0000000
 NQMom=    0.0000000   0.0000000   0.0000000   0.0000000   0.0000000   0.0000000   0.0000000   0.0000000   2.0440000   0.0000000
 NMagM=    0.0000000   0.0000000   0.0000000   0.0000000   0.0000000   0.0000000   0.0000000   0.0000000   0.4037610   0.0000000
 AtZNuc=   6.0000000   6.0000000   6.0000000   6.0000000   6.0000000   6.0000000   8.0000000   6.0000000   7.0000000   6.0000000

  Atom        31          32          33          34          35          36          37          38          39          40
 IAtWgt=          12          12          12          12          12          12          12          12          16           1
 AtmWgt=  12.0000000  12.0000000  12.0000000  12.0000000  12.0000000  12.0000000  12.0000000  12.0000000  15.9949146   1.0078250
 NucSpn=           0           0           0           0           0           0           0           0           0           1
 AtZEff=  -0.0000000  -0.0000000  -0.0000000  -0.0000000  -0.0000000  -0.0000000  -0.0000000  -0.0000000  -0.0000000  -0.0000000
 NQMom=    0.0000000   0.0000000   0.0000000   0.0000000   0.0000000   0.0000000   0.0000000   0.0000000   0.0000000   0.0000000
 NMagM=    0.0000000   0.0000000   0.0000000   0.0000000   0.0000000   0.0000000   0.0000000   0.0000000   0.0000000   2.7928460
 AtZNuc=   6.0000000   6.0000000   6.0000000   6.0000000   6.0000000   6.0000000   6.0000000   6.0000000   8.0000000   1.0000000

  Atom        41          42          43          44          45          46          47          48          49          50
 IAtWgt=           1           1           1           1           1           1           1           1           1           1
 AtmWgt=   1.0078250   1.0078250   1.0078250   1.0078250   1.0078250   1.0078250   1.0078250   1.0078250   1.0078250   1.0078250
 NucSpn=           1           1           1           1           1           1           1           1           1           1
 AtZEff=  -0.0000000  -0.0000000  -0.0000000  -0.0000000  -0.0000000  -0.0000000  -0.0000000  -0.0000000  -0.0000000  -0.0000000
 NQMom=    0.0000000   0.0000000   0.0000000   0.0000000   0.0000000   0.0000000   0.0000000   0.0000000   0.0000000   0.0000000
 NMagM=    2.7928460   2.7928460   2.7928460   2.7928460   2.7928460   2.7928460   2.7928460   2.7928460   2.7928460   2.7928460
 AtZNuc=   1.0000000   1.0000000   1.0000000   1.0000000   1.0000000   1.0000000   1.0000000   1.0000000   1.0000000   1.0000000

  Atom        51          52          53          54          55          56          57          58          59          60
 IAtWgt=           1           1           1           1           1           1           1           1           1           1
 AtmWgt=   1.0078250   1.0078250   1.0078250   1.0078250   1.0078250   1.0078250   1.0078250   1.0078250   1.0078250   1.0078250
 NucSpn=           1           1           1           1           1           1           1           1           1           1
 AtZEff=  -0.0000000  -0.0000000  -0.0000000  -0.0000000  -0.0000000  -0.0000000  -0.0000000  -0.0000000  -0.0000000  -0.0000000
 NQMom=    0.0000000   0.0000000   0.0000000   0.0000000   0.0000000   0.0000000   0.0000000   0.0000000   0.0000000   0.0000000
 NMagM=    2.7928460   2.7928460   2.7928460   2.7928460   2.7928460   2.7928460   2.7928460   2.7928460   2.7928460   2.7928460
 AtZNuc=   1.0000000   1.0000000   1.0000000   1.0000000   1.0000000   1.0000000   1.0000000   1.0000000   1.0000000   1.0000000

  Atom        61          62          63          64          65          66          67          68
 IAtWgt=           1           1           1           1           1           1           1           1
 AtmWgt=   1.0078250   1.0078250   1.0078250   1.0078250   1.0078250   1.0078250   1.0078250   1.0078250
 NucSpn=           1           1           1           1           1           1           1           1
 AtZEff=  -0.0000000  -0.0000000  -0.0000000  -0.0000000  -0.0000000  -0.0000000  -0.0000000  -0.0000000
 NQMom=    0.0000000   0.0000000   0.0000000   0.0000000   0.0000000   0.0000000   0.0000000   0.0000000
 NMagM=    2.7928460   2.7928460   2.7928460   2.7928460   2.7928460   2.7928460   2.7928460   2.7928460
 AtZNuc=   1.0000000   1.0000000   1.0000000   1.0000000   1.0000000   1.0000000   1.0000000   1.0000000
 Leave Link  101 at Mon Feb 26 09:45:01 2024, MaxMem=  7516192768 cpu:               5.3 elap:               0.1
 (Enter /public/apps/g16-C01//g16/l103.exe)

 GradGradGradGradGradGradGradGradGradGradGradGradGradGradGradGradGradGrad
 Berny optimization.
 Initialization pass.
                           ----------------------------
                           !    Initial Parameters    !
                           ! (Angstroms and Degrees)  !
 --------------------------                            --------------------------
 ! Name  Definition              Value          Derivative Info.                !
 --------------------------------------------------------------------------------
 ! R1    R(1,2)                  1.525          estimate D2E/DX2                !
 ! R2    R(1,40)                 1.0851         estimate D2E/DX2                !
 ! R3    R(1,41)                 1.0851         estimate D2E/DX2                !
 ! R4    R(1,42)                 1.0873         estimate D2E/DX2                !
 ! R5    R(2,3)                  1.5426         estimate D2E/DX2                !
 ! R6    R(2,16)                 1.5035         estimate D2E/DX2                !
 ! R7    R(2,28)                 1.5025         estimate D2E/DX2                !
 ! R8    R(3,4)                  1.4869         estimate D2E/DX2                !
 ! R9    R(3,43)                 1.0895         estimate D2E/DX2                !
 ! R10   R(3,44)                 1.0919         estimate D2E/DX2                !
 ! R11   R(4,5)                  1.2725         estimate D2E/DX2                !
 ! R12   R(4,15)                 1.3733         estimate D2E/DX2                !
 ! R13   R(5,6)                  1.4551         estimate D2E/DX2                !
 ! R14   R(6,7)                  1.4925         estimate D2E/DX2                !
 ! R15   R(6,14)                 1.5282         estimate D2E/DX2                !
 ! R16   R(6,45)                 1.1097         estimate D2E/DX2                !
 ! R17   R(7,8)                  1.375          estimate D2E/DX2                !
 ! R18   R(7,12)                 1.4078         estimate D2E/DX2                !
 ! R19   R(8,9)                  1.3904         estimate D2E/DX2                !
 ! R20   R(8,46)                 1.0791         estimate D2E/DX2                !
 ! R21   R(9,10)                 1.3824         estimate D2E/DX2                !
 ! R22   R(9,47)                 1.0802         estimate D2E/DX2                !
 ! R23   R(10,11)                1.3908         estimate D2E/DX2                !
 ! R24   R(10,48)                1.0802         estimate D2E/DX2                !
 ! R25   R(11,12)                1.377          estimate D2E/DX2                !
 ! R26   R(11,49)                1.08           estimate D2E/DX2                !
 ! R27   R(12,13)                1.5223         estimate D2E/DX2                !
 ! R28   R(13,14)                1.5165         estimate D2E/DX2                !
 ! R29   R(13,50)                1.0931         estimate D2E/DX2                !
 ! R30   R(13,51)                1.0883         estimate D2E/DX2                !
 ! R31   R(14,15)                1.4262         estimate D2E/DX2                !
 ! R32   R(14,52)                1.1041         estimate D2E/DX2                !
 ! R33   R(16,17)                1.2607         estimate D2E/DX2                !
 ! R34   R(16,27)                1.3531         estimate D2E/DX2                !
 ! R35   R(17,18)                1.4477         estimate D2E/DX2                !
 ! R36   R(18,19)                1.5008         estimate D2E/DX2                !
 ! R37   R(18,26)                1.5599         estimate D2E/DX2                !
 ! R38   R(18,53)                1.095          estimate D2E/DX2                !
 ! R39   R(19,20)                1.3813         estimate D2E/DX2                !
 ! R40   R(19,24)                1.3908         estimate D2E/DX2                !
 ! R41   R(20,21)                1.3868         estimate D2E/DX2                !
 ! R42   R(20,54)                1.0791         estimate D2E/DX2                !
 ! R43   R(21,22)                1.3851         estimate D2E/DX2                !
 ! R44   R(21,55)                1.0799         estimate D2E/DX2                !
 ! R45   R(22,23)                1.3864         estimate D2E/DX2                !
 ! R46   R(22,56)                1.0794         estimate D2E/DX2                !
 ! R47   R(23,24)                1.3816         estimate D2E/DX2                !
 ! R48   R(23,57)                1.0791         estimate D2E/DX2                !
 ! R49   R(24,25)                1.4997         estimate D2E/DX2                !
 ! R50   R(25,26)                1.5404         estimate D2E/DX2                !
 ! R51   R(25,58)                1.0903         estimate D2E/DX2                !
 ! R52   R(25,59)                1.0943         estimate D2E/DX2                !
 ! R53   R(26,27)                1.4236         estimate D2E/DX2                !
 ! R54   R(26,60)                1.0931         estimate D2E/DX2                !
 ! R55   R(28,29)                1.2633         estimate D2E/DX2                !
 ! R56   R(28,39)                1.3512         estimate D2E/DX2                !
 ! R57   R(29,30)                1.4471         estimate D2E/DX2                !
 ! R58   R(30,31)                1.5031         estimate D2E/DX2                !
 ! R59   R(30,38)                1.5601         estimate D2E/DX2                !
 ! R60   R(30,61)                1.0937         estimate D2E/DX2                !
 ! R61   R(31,32)                1.3807         estimate D2E/DX2                !
 ! R62   R(31,36)                1.39           estimate D2E/DX2                !
 ! R63   R(32,33)                1.3867         estimate D2E/DX2                !
 ! R64   R(32,62)                1.0789         estimate D2E/DX2                !
 ! R65   R(33,34)                1.3857         estimate D2E/DX2                !
 ! R66   R(33,63)                1.08           estimate D2E/DX2                !
 ! R67   R(34,35)                1.3868         estimate D2E/DX2                !
 ! R68   R(34,64)                1.0803         estimate D2E/DX2                !
 ! R69   R(35,36)                1.3821         estimate D2E/DX2                !
 ! R70   R(35,65)                1.0803         estimate D2E/DX2                !
 ! R71   R(36,37)                1.4999         estimate D2E/DX2                !
 ! R72   R(37,38)                1.5388         estimate D2E/DX2                !
 ! R73   R(37,66)                1.0919         estimate D2E/DX2                !
 ! R74   R(37,67)                1.0914         estimate D2E/DX2                !
 ! R75   R(38,39)                1.4253         estimate D2E/DX2                !
 ! R76   R(38,68)                1.0933         estimate D2E/DX2                !
 ! A1    A(2,1,40)             109.2226         estimate D2E/DX2                !
 ! A2    A(2,1,41)             109.5772         estimate D2E/DX2                !
 ! A3    A(2,1,42)             109.9215         estimate D2E/DX2                !
 ! A4    A(40,1,41)            109.2872         estimate D2E/DX2                !
 ! A5    A(40,1,42)            109.073          estimate D2E/DX2                !
 ! A6    A(41,1,42)            109.7418         estimate D2E/DX2                !
 ! A7    A(1,2,3)              112.5999         estimate D2E/DX2                !
 ! A8    A(1,2,16)             110.4882         estimate D2E/DX2                !
 ! A9    A(1,2,28)             110.5819         estimate D2E/DX2                !
 ! A10   A(3,2,16)             107.6389         estimate D2E/DX2                !
 ! A11   A(3,2,28)             111.1884         estimate D2E/DX2                !
 ! A12   A(16,2,28)            103.9583         estimate D2E/DX2                !
 ! A13   A(2,3,4)              111.3682         estimate D2E/DX2                !
 ! A14   A(2,3,43)             110.0705         estimate D2E/DX2                !
 ! A15   A(2,3,44)             109.095          estimate D2E/DX2                !
 ! A16   A(4,3,43)             107.5252         estimate D2E/DX2                !
 ! A17   A(4,3,44)             109.1881         estimate D2E/DX2                !
 ! A18   A(43,3,44)            109.5653         estimate D2E/DX2                !
 ! A19   A(3,4,5)              123.9192         estimate D2E/DX2                !
 ! A20   A(3,4,15)             117.9236         estimate D2E/DX2                !
 ! A21   A(5,4,15)             118.1474         estimate D2E/DX2                !
 ! A22   A(4,5,6)              103.8529         estimate D2E/DX2                !
 ! A23   A(5,6,7)              135.3197         estimate D2E/DX2                !
 ! A24   A(5,6,14)             101.1332         estimate D2E/DX2                !
 ! A25   A(5,6,45)             104.29           estimate D2E/DX2                !
 ! A26   A(7,6,14)             100.328          estimate D2E/DX2                !
 ! A27   A(7,6,45)             104.7972         estimate D2E/DX2                !
 ! A28   A(14,6,45)            109.3213         estimate D2E/DX2                !
 ! A29   A(6,7,8)              133.0289         estimate D2E/DX2                !
 ! A30   A(6,7,12)             105.4059         estimate D2E/DX2                !
 ! A31   A(8,7,12)             121.2296         estimate D2E/DX2                !
 ! A32   A(7,8,9)              118.3761         estimate D2E/DX2                !
 ! A33   A(7,8,46)             120.5222         estimate D2E/DX2                !
 ! A34   A(9,8,46)             121.1017         estimate D2E/DX2                !
 ! A35   A(8,9,10)             120.7356         estimate D2E/DX2                !
 ! A36   A(8,9,47)             119.5665         estimate D2E/DX2                !
 ! A37   A(10,9,47)            119.6973         estimate D2E/DX2                !
 ! A38   A(9,10,11)            120.8689         estimate D2E/DX2                !
 ! A39   A(9,10,48)            119.7017         estimate D2E/DX2                !
 ! A40   A(11,10,48)           119.4294         estimate D2E/DX2                !
 ! A41   A(10,11,12)           118.9113         estimate D2E/DX2                !
 ! A42   A(10,11,49)           120.3975         estimate D2E/DX2                !
 ! A43   A(12,11,49)           120.6912         estimate D2E/DX2                !
 ! A44   A(7,12,11)            119.8718         estimate D2E/DX2                !
 ! A45   A(7,12,13)            111.9641         estimate D2E/DX2                !
 ! A46   A(11,12,13)           128.1632         estimate D2E/DX2                !
 ! A47   A(12,13,14)            97.2822         estimate D2E/DX2                !
 ! A48   A(12,13,50)           110.7496         estimate D2E/DX2                !
 ! A49   A(12,13,51)           113.0208         estimate D2E/DX2                !
 ! A50   A(14,13,50)           111.7965         estimate D2E/DX2                !
 ! A51   A(14,13,51)           114.2045         estimate D2E/DX2                !
 ! A52   A(50,13,51)           109.3687         estimate D2E/DX2                !
 ! A53   A(6,14,13)            102.6757         estimate D2E/DX2                !
 ! A54   A(6,14,15)            101.2247         estimate D2E/DX2                !
 ! A55   A(6,14,52)            108.5043         estimate D2E/DX2                !
 ! A56   A(13,14,15)           129.9848         estimate D2E/DX2                !
 ! A57   A(13,14,52)           107.0634         estimate D2E/DX2                !
 ! A58   A(15,14,52)           105.9008         estimate D2E/DX2                !
 ! A59   A(4,15,14)            101.4766         estimate D2E/DX2                !
 ! A60   A(2,16,17)            125.79           estimate D2E/DX2                !
 ! A61   A(2,16,27)            116.0607         estimate D2E/DX2                !
 ! A62   A(17,16,27)           118.1401         estimate D2E/DX2                !
 ! A63   A(16,17,18)           107.5881         estimate D2E/DX2                !
 ! A64   A(17,18,19)           113.3176         estimate D2E/DX2                !
 ! A65   A(17,18,26)           103.9311         estimate D2E/DX2                !
 ! A66   A(17,18,53)           108.5014         estimate D2E/DX2                !
 ! A67   A(19,18,26)           104.7934         estimate D2E/DX2                !
 ! A68   A(19,18,53)           111.6507         estimate D2E/DX2                !
 ! A69   A(26,18,53)           114.4877         estimate D2E/DX2                !
 ! A70   A(18,19,20)           127.802          estimate D2E/DX2                !
 ! A71   A(18,19,24)           111.0854         estimate D2E/DX2                !
 ! A72   A(20,19,24)           121.1125         estimate D2E/DX2                !
 ! A73   A(19,20,21)           118.5478         estimate D2E/DX2                !
 ! A74   A(19,20,54)           120.2584         estimate D2E/DX2                !
 ! A75   A(21,20,54)           121.1937         estimate D2E/DX2                !
 ! A76   A(20,21,22)           120.531          estimate D2E/DX2                !
 ! A77   A(20,21,55)           119.7462         estimate D2E/DX2                !
 ! A78   A(22,21,55)           119.7191         estimate D2E/DX2                !
 ! A79   A(21,22,23)           120.6989         estimate D2E/DX2                !
 ! A80   A(21,22,56)           119.7679         estimate D2E/DX2                !
 ! A81   A(23,22,56)           119.5319         estimate D2E/DX2                !
 ! A82   A(22,23,24)           118.9757         estimate D2E/DX2                !
 ! A83   A(22,23,57)           120.4956         estimate D2E/DX2                !
 ! A84   A(24,23,57)           120.5287         estimate D2E/DX2                !
 ! A85   A(19,24,23)           120.0894         estimate D2E/DX2                !
 ! A86   A(19,24,25)           111.913          estimate D2E/DX2                !
 ! A87   A(23,24,25)           127.9965         estimate D2E/DX2                !
 ! A88   A(24,25,26)           104.8189         estimate D2E/DX2                !
 ! A89   A(24,25,58)           112.2656         estimate D2E/DX2                !
 ! A90   A(24,25,59)           110.0911         estimate D2E/DX2                !
 ! A91   A(26,25,58)           112.0046         estimate D2E/DX2                !
 ! A92   A(26,25,59)           109.1745         estimate D2E/DX2                !
 ! A93   A(58,25,59)           108.429          estimate D2E/DX2                !
 ! A94   A(18,26,25)           106.9387         estimate D2E/DX2                !
 ! A95   A(18,26,27)           103.4612         estimate D2E/DX2                !
 ! A96   A(18,26,60)           113.8431         estimate D2E/DX2                !
 ! A97   A(25,26,27)           111.9993         estimate D2E/DX2                !
 ! A98   A(25,26,60)           112.4824         estimate D2E/DX2                !
 ! A99   A(27,26,60)           107.8268         estimate D2E/DX2                !
 ! A100  A(16,27,26)           106.61           estimate D2E/DX2                !
 ! A101  A(2,28,29)            123.5385         estimate D2E/DX2                !
 ! A102  A(2,28,39)            118.5236         estimate D2E/DX2                !
 ! A103  A(29,28,39)           117.8435         estimate D2E/DX2                !
 ! A104  A(28,29,30)           107.738          estimate D2E/DX2                !
 ! A105  A(29,30,31)           110.7062         estimate D2E/DX2                !
 ! A106  A(29,30,38)           103.9716         estimate D2E/DX2                !
 ! A107  A(29,30,61)           109.729          estimate D2E/DX2                !
 ! A108  A(31,30,38)           104.5535         estimate D2E/DX2                !
 ! A109  A(31,30,61)           112.5026         estimate D2E/DX2                !
 ! A110  A(38,30,61)           114.9733         estimate D2E/DX2                !
 ! A111  A(30,31,32)           127.6172         estimate D2E/DX2                !
 ! A112  A(30,31,36)           111.2344         estimate D2E/DX2                !
 ! A113  A(32,31,36)           121.0895         estimate D2E/DX2                !
 ! A114  A(31,32,33)           118.5758         estimate D2E/DX2                !
 ! A115  A(31,32,62)           120.3033         estimate D2E/DX2                !
 ! A116  A(33,32,62)           121.119          estimate D2E/DX2                !
 ! A117  A(32,33,34)           120.5573         estimate D2E/DX2                !
 ! A118  A(32,33,63)           119.7278         estimate D2E/DX2                !
 ! A119  A(34,33,63)           119.7147         estimate D2E/DX2                !
 ! A120  A(33,34,35)           120.6687         estimate D2E/DX2                !
 ! A121  A(33,34,64)           119.7268         estimate D2E/DX2                !
 ! A122  A(35,34,64)           119.6043         estimate D2E/DX2                !
 ! A123  A(34,35,36)           118.9167         estimate D2E/DX2                !
 ! A124  A(34,35,65)           120.5872         estimate D2E/DX2                !
 ! A125  A(36,35,65)           120.4958         estimate D2E/DX2                !
 ! A126  A(31,36,35)           120.189          estimate D2E/DX2                !
 ! A127  A(31,36,37)           111.9848         estimate D2E/DX2                !
 ! A128  A(35,36,37)           127.8262         estimate D2E/DX2                !
 ! A129  A(36,37,38)           104.8341         estimate D2E/DX2                !
 ! A130  A(36,37,66)           111.3706         estimate D2E/DX2                !
 ! A131  A(36,37,67)           111.4452         estimate D2E/DX2                !
 ! A132  A(38,37,66)           109.5194         estimate D2E/DX2                !
 ! A133  A(38,37,67)           111.4103         estimate D2E/DX2                !
 ! A134  A(66,37,67)           108.2564         estimate D2E/DX2                !
 ! A135  A(30,38,37)           107.3324         estimate D2E/DX2                !
 ! A136  A(30,38,39)           103.3876         estimate D2E/DX2                !
 ! A137  A(30,38,68)           114.1385         estimate D2E/DX2                !
 ! A138  A(37,38,39)           111.3772         estimate D2E/DX2                !
 ! A139  A(37,38,68)           112.4811         estimate D2E/DX2                !
 ! A140  A(39,38,68)           107.7997         estimate D2E/DX2                !
 ! A141  A(28,39,38)           106.8903         estimate D2E/DX2                !
 ! D1    D(40,1,2,3)           179.3008         estimate D2E/DX2                !
 ! D2    D(40,1,2,16)           58.9084         estimate D2E/DX2                !
 ! D3    D(40,1,2,28)          -55.6344         estimate D2E/DX2                !
 ! D4    D(41,1,2,3)            59.6131         estimate D2E/DX2                !
 ! D5    D(41,1,2,16)          -60.7792         estimate D2E/DX2                !
 ! D6    D(41,1,2,28)         -175.322          estimate D2E/DX2                !
 ! D7    D(42,1,2,3)           -61.0649         estimate D2E/DX2                !
 ! D8    D(42,1,2,16)          178.5427         estimate D2E/DX2                !
 ! D9    D(42,1,2,28)           63.9999         estimate D2E/DX2                !
 ! D10   D(1,2,3,4)            -79.6571         estimate D2E/DX2                !
 ! D11   D(1,2,3,43)           161.1855         estimate D2E/DX2                !
 ! D12   D(1,2,3,44)            40.9354         estimate D2E/DX2                !
 ! D13   D(16,2,3,4)            42.361          estimate D2E/DX2                !
 ! D14   D(16,2,3,43)          -76.7964         estimate D2E/DX2                !
 ! D15   D(16,2,3,44)          162.9534         estimate D2E/DX2                !
 ! D16   D(28,2,3,4)           155.6098         estimate D2E/DX2                !
 ! D17   D(28,2,3,43)           36.4524         estimate D2E/DX2                !
 ! D18   D(28,2,3,44)          -83.7977         estimate D2E/DX2                !
 ! D19   D(1,2,16,17)            8.925          estimate D2E/DX2                !
 ! D20   D(1,2,16,27)         -169.9438         estimate D2E/DX2                !
 ! D21   D(3,2,16,17)         -114.3934         estimate D2E/DX2                !
 ! D22   D(3,2,16,27)           66.7378         estimate D2E/DX2                !
 ! D23   D(28,2,16,17)         127.5827         estimate D2E/DX2                !
 ! D24   D(28,2,16,27)         -51.286          estimate D2E/DX2                !
 ! D25   D(1,2,28,29)           38.812          estimate D2E/DX2                !
 ! D26   D(1,2,28,39)         -144.8027         estimate D2E/DX2                !
 ! D27   D(3,2,28,29)          164.6732         estimate D2E/DX2                !
 ! D28   D(3,2,28,39)          -18.9415         estimate D2E/DX2                !
 ! D29   D(16,2,28,29)         -79.7814         estimate D2E/DX2                !
 ! D30   D(16,2,28,39)          96.6039         estimate D2E/DX2                !
 ! D31   D(2,3,4,5)           -119.7914         estimate D2E/DX2                !
 ! D32   D(2,3,4,15)            61.3718         estimate D2E/DX2                !
 ! D33   D(43,3,4,5)             0.8723         estimate D2E/DX2                !
 ! D34   D(43,3,4,15)         -177.9646         estimate D2E/DX2                !
 ! D35   D(44,3,4,5)           119.6709         estimate D2E/DX2                !
 ! D36   D(44,3,4,15)          -59.1659         estimate D2E/DX2                !
 ! D37   D(3,4,5,6)           -171.2697         estimate D2E/DX2                !
 ! D38   D(15,4,5,6)             7.5647         estimate D2E/DX2                !
 ! D39   D(3,4,15,14)         -163.9521         estimate D2E/DX2                !
 ! D40   D(5,4,15,14)           17.1425         estimate D2E/DX2                !
 ! D41   D(4,5,6,7)           -144.4417         estimate D2E/DX2                !
 ! D42   D(4,5,6,14)           -27.1278         estimate D2E/DX2                !
 ! D43   D(4,5,6,45)            86.3319         estimate D2E/DX2                !
 ! D44   D(5,6,7,8)            -37.7744         estimate D2E/DX2                !
 ! D45   D(5,6,7,12)           149.055          estimate D2E/DX2                !
 ! D46   D(14,6,7,8)          -155.3819         estimate D2E/DX2                !
 ! D47   D(14,6,7,12)           31.4475         estimate D2E/DX2                !
 ! D48   D(45,6,7,8)            91.2904         estimate D2E/DX2                !
 ! D49   D(45,6,7,12)          -81.8802         estimate D2E/DX2                !
 ! D50   D(5,6,14,13)          172.6042         estimate D2E/DX2                !
 ! D51   D(5,6,14,15)           36.8693         estimate D2E/DX2                !
 ! D52   D(5,6,14,52)          -74.2899         estimate D2E/DX2                !
 ! D53   D(7,6,14,13)          -46.819          estimate D2E/DX2                !
 ! D54   D(7,6,14,15)          177.4462         estimate D2E/DX2                !
 ! D55   D(7,6,14,52)           66.2869         estimate D2E/DX2                !
 ! D56   D(45,6,14,13)          62.9965         estimate D2E/DX2                !
 ! D57   D(45,6,14,15)         -72.7383         estimate D2E/DX2                !
 ! D58   D(45,6,14,52)         176.1024         estimate D2E/DX2                !
 ! D59   D(6,7,8,9)           -173.264          estimate D2E/DX2                !
 ! D60   D(6,7,8,46)             6.8116         estimate D2E/DX2                !
 ! D61   D(12,7,8,9)            -0.9687         estimate D2E/DX2                !
 ! D62   D(12,7,8,46)          179.1069         estimate D2E/DX2                !
 ! D63   D(6,7,12,11)          175.0625         estimate D2E/DX2                !
 ! D64   D(6,7,12,13)           -5.2604         estimate D2E/DX2                !
 ! D65   D(8,7,12,11)            0.8971         estimate D2E/DX2                !
 ! D66   D(8,7,12,13)         -179.4257         estimate D2E/DX2                !
 ! D67   D(7,8,9,10)             0.6076         estimate D2E/DX2                !
 ! D68   D(7,8,9,47)          -179.6607         estimate D2E/DX2                !
 ! D69   D(46,8,9,10)         -179.4685         estimate D2E/DX2                !
 ! D70   D(46,8,9,47)            0.2633         estimate D2E/DX2                !
 ! D71   D(8,9,10,11)           -0.1697         estimate D2E/DX2                !
 ! D72   D(8,9,10,48)          179.7989         estimate D2E/DX2                !
 ! D73   D(47,9,10,11)        -179.9011         estimate D2E/DX2                !
 ! D74   D(47,9,10,48)           0.0675         estimate D2E/DX2                !
 ! D75   D(9,10,11,12)           0.081          estimate D2E/DX2                !
 ! D76   D(9,10,11,49)        -179.9507         estimate D2E/DX2                !
 ! D77   D(48,10,11,12)       -179.8877         estimate D2E/DX2                !
 ! D78   D(48,10,11,49)          0.0806         estimate D2E/DX2                !
 ! D79   D(10,11,12,7)          -0.4319         estimate D2E/DX2                !
 ! D80   D(10,11,12,13)        179.9489         estimate D2E/DX2                !
 ! D81   D(49,11,12,7)         179.5999         estimate D2E/DX2                !
 ! D82   D(49,11,12,13)         -0.0194         estimate D2E/DX2                !
 ! D83   D(7,12,13,14)         -23.2444         estimate D2E/DX2                !
 ! D84   D(7,12,13,50)          93.4164         estimate D2E/DX2                !
 ! D85   D(7,12,13,51)        -143.469          estimate D2E/DX2                !
 ! D86   D(11,12,13,14)        156.3995         estimate D2E/DX2                !
 ! D87   D(11,12,13,50)        -86.9396         estimate D2E/DX2                !
 ! D88   D(11,12,13,51)         36.175          estimate D2E/DX2                !
 ! D89   D(12,13,14,6)          41.7671         estimate D2E/DX2                !
 ! D90   D(12,13,14,15)        158.448          estimate D2E/DX2                !
 ! D91   D(12,13,14,52)        -72.3949         estimate D2E/DX2                !
 ! D92   D(50,13,14,6)         -74.0671         estimate D2E/DX2                !
 ! D93   D(50,13,14,15)         42.6138         estimate D2E/DX2                !
 ! D94   D(50,13,14,52)        171.7709         estimate D2E/DX2                !
 ! D95   D(51,13,14,6)         161.0871         estimate D2E/DX2                !
 ! D96   D(51,13,14,15)        -82.232          estimate D2E/DX2                !
 ! D97   D(51,13,14,52)         46.9251         estimate D2E/DX2                !
 ! D98   D(6,14,15,4)          -31.9734         estimate D2E/DX2                !
 ! D99   D(13,14,15,4)        -149.2576         estimate D2E/DX2                !
 ! D100  D(52,14,15,4)          81.1661         estimate D2E/DX2                !
 ! D101  D(2,16,17,18)        -179.8069         estimate D2E/DX2                !
 ! D102  D(27,16,17,18)         -0.9594         estimate D2E/DX2                !
 ! D103  D(2,16,27,26)        -176.8582         estimate D2E/DX2                !
 ! D104  D(17,16,27,26)          4.1824         estimate D2E/DX2                !
 ! D105  D(16,17,18,19)       -115.5409         estimate D2E/DX2                !
 ! D106  D(16,17,18,26)         -2.3755         estimate D2E/DX2                !
 ! D107  D(16,17,18,53)        119.8558         estimate D2E/DX2                !
 ! D108  D(17,18,19,20)        -69.0983         estimate D2E/DX2                !
 ! D109  D(17,18,19,24)        110.8471         estimate D2E/DX2                !
 ! D110  D(26,18,19,20)        178.2589         estimate D2E/DX2                !
 ! D111  D(26,18,19,24)         -1.7957         estimate D2E/DX2                !
 ! D112  D(53,18,19,20)         53.7815         estimate D2E/DX2                !
 ! D113  D(53,18,19,24)       -126.273          estimate D2E/DX2                !
 ! D114  D(17,18,26,25)       -113.8409         estimate D2E/DX2                !
 ! D115  D(17,18,26,27)          4.554          estimate D2E/DX2                !
 ! D116  D(17,18,26,60)        121.2943         estimate D2E/DX2                !
 ! D117  D(19,18,26,25)          5.3231         estimate D2E/DX2                !
 ! D118  D(19,18,26,27)        123.718          estimate D2E/DX2                !
 ! D119  D(19,18,26,60)       -119.5417         estimate D2E/DX2                !
 ! D120  D(53,18,26,25)        127.9793         estimate D2E/DX2                !
 ! D121  D(53,18,26,27)       -113.6258         estimate D2E/DX2                !
 ! D122  D(53,18,26,60)          3.1145         estimate D2E/DX2                !
 ! D123  D(18,19,20,21)       -178.8106         estimate D2E/DX2                !
 ! D124  D(18,19,20,54)          1.2952         estimate D2E/DX2                !
 ! D125  D(24,19,20,21)          1.2488         estimate D2E/DX2                !
 ! D126  D(24,19,20,54)       -178.6453         estimate D2E/DX2                !
 ! D127  D(18,19,24,23)        177.7151         estimate D2E/DX2                !
 ! D128  D(18,19,24,25)         -2.6383         estimate D2E/DX2                !
 ! D129  D(20,19,24,23)         -2.3353         estimate D2E/DX2                !
 ! D130  D(20,19,24,25)        177.3114         estimate D2E/DX2                !
 ! D131  D(19,20,21,22)          0.6924         estimate D2E/DX2                !
 ! D132  D(19,20,21,55)        179.9926         estimate D2E/DX2                !
 ! D133  D(54,20,21,22)       -179.4144         estimate D2E/DX2                !
 ! D134  D(54,20,21,55)         -0.1143         estimate D2E/DX2                !
 ! D135  D(20,21,22,23)         -1.5734         estimate D2E/DX2                !
 ! D136  D(20,21,22,56)        178.8427         estimate D2E/DX2                !
 ! D137  D(55,21,22,23)        179.1262         estimate D2E/DX2                !
 ! D138  D(55,21,22,56)         -0.4576         estimate D2E/DX2                !
 ! D139  D(21,22,23,24)          0.4914         estimate D2E/DX2                !
 ! D140  D(21,22,23,57)       -179.6209         estimate D2E/DX2                !
 ! D141  D(56,22,23,24)       -179.9238         estimate D2E/DX2                !
 ! D142  D(56,22,23,57)         -0.0361         estimate D2E/DX2                !
 ! D143  D(22,23,24,19)          1.4325         estimate D2E/DX2                !
 ! D144  D(22,23,24,25)       -178.1515         estimate D2E/DX2                !
 ! D145  D(57,23,24,19)       -178.4551         estimate D2E/DX2                !
 ! D146  D(57,23,24,25)          1.9609         estimate D2E/DX2                !
 ! D147  D(19,24,25,26)          5.9255         estimate D2E/DX2                !
 ! D148  D(19,24,25,58)        127.7365         estimate D2E/DX2                !
 ! D149  D(19,24,25,59)       -111.3668         estimate D2E/DX2                !
 ! D150  D(23,24,25,26)       -174.4624         estimate D2E/DX2                !
 ! D151  D(23,24,25,58)        -52.6514         estimate D2E/DX2                !
 ! D152  D(23,24,25,59)         68.2453         estimate D2E/DX2                !
 ! D153  D(24,25,26,18)         -6.7232         estimate D2E/DX2                !
 ! D154  D(24,25,26,27)       -119.398          estimate D2E/DX2                !
 ! D155  D(24,25,26,60)        118.9645         estimate D2E/DX2                !
 ! D156  D(58,25,26,18)       -128.7048         estimate D2E/DX2                !
 ! D157  D(58,25,26,27)        118.6204         estimate D2E/DX2                !
 ! D158  D(58,25,26,60)         -3.0171         estimate D2E/DX2                !
 ! D159  D(59,25,26,18)        111.1944         estimate D2E/DX2                !
 ! D160  D(59,25,26,27)         -1.4803         estimate D2E/DX2                !
 ! D161  D(59,25,26,60)       -123.1179         estimate D2E/DX2                !
 ! D162  D(18,26,27,16)         -5.0535         estimate D2E/DX2                !
 ! D163  D(25,26,27,16)        109.769          estimate D2E/DX2                !
 ! D164  D(60,26,27,16)       -125.9568         estimate D2E/DX2                !
 ! D165  D(2,28,29,30)         172.2992         estimate D2E/DX2                !
 ! D166  D(39,28,29,30)         -4.109          estimate D2E/DX2                !
 ! D167  D(2,28,39,38)        -172.0444         estimate D2E/DX2                !
 ! D168  D(29,28,39,38)          4.5485         estimate D2E/DX2                !
 ! D169  D(28,29,30,31)       -109.8968         estimate D2E/DX2                !
 ! D170  D(28,29,30,38)          1.8725         estimate D2E/DX2                !
 ! D171  D(28,29,30,61)        125.3372         estimate D2E/DX2                !
 ! D172  D(29,30,31,32)        -66.346          estimate D2E/DX2                !
 ! D173  D(29,30,31,36)        110.858          estimate D2E/DX2                !
 ! D174  D(38,30,31,32)       -177.7413         estimate D2E/DX2                !
 ! D175  D(38,30,31,36)         -0.5373         estimate D2E/DX2                !
 ! D176  D(61,30,31,32)         56.83           estimate D2E/DX2                !
 ! D177  D(61,30,31,36)       -125.966          estimate D2E/DX2                !
 ! D178  D(29,30,38,37)       -117.2167         estimate D2E/DX2                !
 ! D179  D(29,30,38,39)          0.6093         estimate D2E/DX2                !
 ! D180  D(29,30,38,68)        117.4169         estimate D2E/DX2                !
 ! D181  D(31,30,38,37)         -1.0474         estimate D2E/DX2                !
 ! D182  D(31,30,38,39)        116.7786         estimate D2E/DX2                !
 ! D183  D(31,30,38,68)       -126.4138         estimate D2E/DX2                !
 ! D184  D(61,30,38,37)        122.8086         estimate D2E/DX2                !
 ! D185  D(61,30,38,39)       -119.3654         estimate D2E/DX2                !
 ! D186  D(61,30,38,68)         -2.5578         estimate D2E/DX2                !
 ! D187  D(30,31,32,33)        177.575          estimate D2E/DX2                !
 ! D188  D(30,31,32,62)         -1.9277         estimate D2E/DX2                !
 ! D189  D(36,31,32,33)          0.6185         estimate D2E/DX2                !
 ! D190  D(36,31,32,62)       -178.8842         estimate D2E/DX2                !
 ! D191  D(30,31,36,35)       -178.0638         estimate D2E/DX2                !
 ! D192  D(30,31,36,37)          2.0039         estimate D2E/DX2                !
 ! D193  D(32,31,36,35)         -0.6498         estimate D2E/DX2                !
 ! D194  D(32,31,36,37)        179.4178         estimate D2E/DX2                !
 ! D195  D(31,32,33,34)         -0.2398         estimate D2E/DX2                !
 ! D196  D(31,32,33,63)        179.9412         estimate D2E/DX2                !
 ! D197  D(62,32,33,34)        179.2586         estimate D2E/DX2                !
 ! D198  D(62,32,33,63)         -0.5603         estimate D2E/DX2                !
 ! D199  D(32,33,34,35)         -0.1106         estimate D2E/DX2                !
 ! D200  D(32,33,34,64)       -179.906          estimate D2E/DX2                !
 ! D201  D(63,33,34,35)        179.7084         estimate D2E/DX2                !
 ! D202  D(63,33,34,64)         -0.087          estimate D2E/DX2                !
 ! D203  D(33,34,35,36)          0.0876         estimate D2E/DX2                !
 ! D204  D(33,34,35,65)       -179.6932         estimate D2E/DX2                !
 ! D205  D(64,34,35,36)        179.8832         estimate D2E/DX2                !
 ! D206  D(64,34,35,65)          0.1025         estimate D2E/DX2                !
 ! D207  D(34,35,36,31)          0.2859         estimate D2E/DX2                !
 ! D208  D(34,35,36,37)       -179.7936         estimate D2E/DX2                !
 ! D209  D(65,35,36,31)       -179.9332         estimate D2E/DX2                !
 ! D210  D(65,35,36,37)         -0.0127         estimate D2E/DX2                !
 ! D211  D(31,36,37,38)         -2.5716         estimate D2E/DX2                !
 ! D212  D(31,36,37,66)       -120.9181         estimate D2E/DX2                !
 ! D213  D(31,36,37,67)        118.0758         estimate D2E/DX2                !
 ! D214  D(35,36,37,38)        177.5025         estimate D2E/DX2                !
 ! D215  D(35,36,37,66)         59.156          estimate D2E/DX2                !
 ! D216  D(35,36,37,67)        -61.8501         estimate D2E/DX2                !
 ! D217  D(36,37,38,30)          2.1187         estimate D2E/DX2                !
 ! D218  D(36,37,38,39)       -110.3782         estimate D2E/DX2                !
 ! D219  D(36,37,38,68)        128.4731         estimate D2E/DX2                !
 ! D220  D(66,37,38,30)        121.7118         estimate D2E/DX2                !
 ! D221  D(66,37,38,39)          9.2149         estimate D2E/DX2                !
 ! D222  D(66,37,38,68)       -111.9338         estimate D2E/DX2                !
 ! D223  D(67,37,38,30)       -118.5518         estimate D2E/DX2                !
 ! D224  D(67,37,38,39)        128.9513         estimate D2E/DX2                !
 ! D225  D(67,37,38,68)          7.8026         estimate D2E/DX2                !
 ! D226  D(30,38,39,28)         -2.7178         estimate D2E/DX2                !
 ! D227  D(37,38,39,28)        112.2448         estimate D2E/DX2                !
 ! D228  D(68,38,39,28)       -123.9102         estimate D2E/DX2                !
 --------------------------------------------------------------------------------
 Trust Radius=3.00D-01 FncErr=1.00D-07 GrdErr=1.00D-06 EigMax=2.50D+02 EigMin=1.00D-04
 Number of steps in this run=    408 maximum allowed number of steps=    408.
 GradGradGradGradGradGradGradGradGradGradGradGradGradGradGradGradGradGrad

 Leave Link  103 at Mon Feb 26 09:45:01 2024, MaxMem=  7516192768 cpu:               0.3 elap:               0.0
 (Enter /public/apps/g16-C01//g16/l202.exe)
 Symmetry turned off by external request.
 Stoichiometry    C33H29N3O3
 Framework group  C1[X(C33H29N3O3)]
 Deg. of freedom   198
 Full point group                 C1      NOp   1
                          Input orientation:                          
 ---------------------------------------------------------------------
 Center     Atomic      Atomic             Coordinates (Angstroms)
 Number     Number       Type             X           Y           Z
 ---------------------------------------------------------------------
      1          6           0       -1.332131    2.020143   -2.332466
      2          6           0       -1.417805    1.605155   -0.867541
      3          6           0       -0.625319    2.546663    0.062646
      4          6           0        0.828512    2.235620    0.037365
      5          7           0        1.497610    1.885106    1.061475
      6          6           0        2.877073    1.901428    0.598706
      7          6           0        4.096526    1.084074    0.867988
      8          6           0        4.599108    0.494896    2.004207
      9          6           0        5.857669   -0.092880    1.942420
     10          6           0        6.589821   -0.073279    0.769938
     11          6           0        6.085031    0.530968   -0.376555
     12          6           0        4.838897    1.114782   -0.327774
     13          6           0        4.090054    1.828290   -1.444703
     14          6           0        2.690778    1.632013   -0.893941
     15          8           0        1.491399    2.356754   -1.159294
     16          6           0       -0.873108    0.216247   -0.681329
     17          7           0       -0.264038   -0.459986   -1.553809
     18          6           0        0.078946   -1.734350   -0.958765
     19          6           0        1.558543   -1.952908   -0.834404
     20          6           0        2.472725   -2.155501   -1.849834
     21          6           0        3.801875   -2.363554   -1.513213
     22          6           0        4.197041   -2.381489   -0.185825
     23          6           0        3.278864   -2.159925    0.829078
     24          6           0        1.957435   -1.930261    0.497731
     25          6           0        0.812790   -1.632311    1.419726
     26          6           0       -0.430479   -1.612024    0.510500
     27          8           0       -1.084979   -0.347899    0.530169
     28          6           0       -2.851825    1.493319   -0.433232
     29          7           0       -3.767813    1.022062   -1.164460
     30          6           0       -4.961540    0.904513   -0.354998
     31          6           0       -5.283045   -0.539441   -0.088735
     32          6           0       -5.671920   -1.498659   -1.002580
     33          6           0       -5.873860   -2.796186   -0.556882
     34          6           0       -5.683621   -3.120586    0.776783
     35          6           0       -5.285886   -2.155419    1.689789
     36          6           0       -5.083343   -0.861354    1.248687
     37          6           0       -4.652194    0.328167    2.054220
     38          6           0       -4.532863    1.473130    1.033146
     39          8           0       -3.172934    1.848696    0.830254
     40          1           0       -1.895980    1.316833   -2.936596
     41          1           0       -0.294976    2.015764   -2.651561
     42          1           0       -1.751698    3.014999   -2.460850
     43          1           0       -0.967576    2.431770    1.090596
     44          1           0       -0.777184    3.578604   -0.260114
     45          1           0        3.202428    2.952368    0.744323
     46          1           0        4.026097    0.490477    2.918628
     47          1           0        6.268726   -0.566038    2.822165
     48          1           0        7.567301   -0.532220    0.741565
     49          1           0        6.663206    0.541162   -1.288658
     50          1           0        4.366688    2.885156   -1.482871
     51          1           0        4.252345    1.377217   -2.421708
     52          1           0        2.436194    0.566139   -1.028531
     53          1           0       -0.399408   -2.529370   -1.540306
     54          1           0        2.151522   -2.148748   -2.880048
     55          1           0        4.532905   -2.524079   -2.291611
     56          1           0        5.231540   -2.563087    0.062935
     57          1           0        3.591477   -2.168602    1.861863
     58          1           0        0.722930   -2.369196    2.218242
     59          1           0        0.942579   -0.644900    1.873199
     60          1           0       -1.164156   -2.373075    0.788589
     61          1           0       -5.787780    1.435467   -0.836320
     62          1           0       -5.805913   -1.238601   -2.041034
     63          1           0       -6.179159   -3.561023   -1.255571
     64          1           0       -5.843287   -4.136002    1.109134
     65          1           0       -5.133188   -2.410851    2.728292
     66          1           0       -3.682663    0.158360    2.526925
     67          1           0       -5.376696    0.564904    2.835434
     68          1           0       -5.083965    2.366088    1.340044
 ---------------------------------------------------------------------
 Rotational constants (GHZ):           0.2271773           0.0630628           0.0573179
 Leave Link  202 at Mon Feb 26 09:45:01 2024, MaxMem=  7516192768 cpu:               0.2 elap:               0.0
 (Enter /public/apps/g16-C01//g16/l301.exe)
 Standard basis: def2SVPP (5D, 7F)
 Ernie: Thresh=  0.10000D-02 Tol=  0.10000D-05 Strict=F.
   604 basis functions,  1091 primitive gaussians,   643 cartesian basis functions
   136 alpha electrons      136 beta electrons
       nuclear repulsion energy      4513.2413906712 Hartrees.
 IExCor=  402 DFT=T Ex+Corr=B3LYP ExCW=0 ScaHFX=  0.200000
 ScaDFX=  0.800000  0.720000  1.000000  0.810000 ScalE2=  1.000000  1.000000
 IRadAn=      5 IRanWt=     -1 IRanGd=            0 ICorTp=0 IEmpDi=141
 NAtoms=   68 NActive=   68 NUniq=   68 SFac= 1.00D+00 NAtFMM=   60 NAOKFM=T Big=T
 Integral buffers will be    131072 words long.
 Raffenetti 2 integral format.
 Two-electron integral symmetry is turned off.
 R6Disp:  Grimme-D3(BJ) Dispersion energy=       -0.1816735421 Hartrees.
 Nuclear repulsion after empirical dispersion term =     4513.0597171291 Hartrees.
 Leave Link  301 at Mon Feb 26 09:45:01 2024, MaxMem=  7516192768 cpu:               0.9 elap:               0.0
 (Enter /public/apps/g16-C01//g16/l302.exe)
 NPDir=0 NMtPBC=     1 NCelOv=     1 NCel=       1 NClECP=     1 NCelD=      1
         NCelK=      1 NCelE2=     1 NClLst=     1 CellRange=     0.0.
 One-electron integrals computed using PRISM.
   1 Symmetry operations used in ECPInt.
 ECPInt:  NShTT=   42778 NPrTT=  171414 LenC2=   36671 LenP2D=   93499.
 LDataN:  DoStor=T MaxTD1= 4 Len=   56
 NBasis=   604 RedAO= T EigKep=  2.17D-04  NBF=   604
 NBsUse=   604 1.00D-06 EigRej= -1.00D+00 NBFU=   604
 Precomputing XC quadrature grid using
 IXCGrd= 4 IRadAn=           5 IRanWt=          -1 IRanGd=           0 AccXCQ= 0.00D+00.
 Generated NRdTot=       0 NPtTot=           0 NUsed=           0 NTot=          32
 NSgBfM=   634   633   633   633   634 MxSgAt=    68 MxSgA2=    68.
 Leave Link  302 at Mon Feb 26 09:45:02 2024, MaxMem=  7516192768 cpu:              25.1 elap:               0.6
 (Enter /public/apps/g16-C01//g16/l303.exe)
 DipDrv:  MaxL=1.
 Leave Link  303 at Mon Feb 26 09:45:03 2024, MaxMem=  7516192768 cpu:               2.7 elap:               0.1
 (Enter /public/apps/g16-C01//g16/l401.exe)
 ExpMin= 1.22D-01 ExpMax= 2.27D+03 ExpMxC= 3.41D+02 IAcc=3 IRadAn=         5 AccDes= 0.00D+00
 Harris functional with IExCor=  402 and IRadAn=       5 diagonalized for initial guess.
 HarFok:  IExCor=  402 AccDes= 0.00D+00 IRadAn=         5 IDoV= 1 UseB2=F ITyADJ=14
 ICtDFT=  3500011 ScaDFX=  1.000000  1.000000  1.000000  1.000000
 FoFCou: FMM=F IPFlag=           0 FMFlag=      100000 FMFlg1=        2001
         NFxFlg=           0 DoJE=T BraDBF=F KetDBF=T FulRan=T
         wScrn=  0.000000 ICntrl=       500 IOpCl=  0 I1Cent=   200000004 NGrid=           0
         NMat0=    1 NMatS0=      1 NMatT0=    0 NMatD0=    1 NMtDS0=    0 NMtDT0=    0
 Symmetry not used in FoFCou.
 Harris En= -1663.64698853454    
 JPrj=0 DoOrth=F DoCkMO=F.
 Leave Link  401 at Mon Feb 26 09:45:04 2024, MaxMem=  7516192768 cpu:              53.0 elap:               1.4
 (Enter /public/apps/g16-C01//g16/l502.exe)
 Two-electron integral symmetry not used.
 Closed shell SCF:
 Using DIIS extrapolation, IDIIS=  1040.
 NGot=  7516192768 LenX=  7515333097 LenY=  7514919005
 Requested convergence on RMS density matrix=1.00D-08 within 128 cycles.
 Requested convergence on MAX density matrix=1.00D-06.
 Requested convergence on             energy=1.00D-06.
 No special actions if energy rises.
 Fock matrices will be formed incrementally for  20 cycles.
 Integral accuracy reduced to 1.0D-05 until final iterations.

 Cycle   1  Pass 0  IDiag  1:
 FoFJK:  IHMeth= 1 ICntrl=       0 DoSepK=F KAlg= 0 I1Cent=           0 FoldK=F
 IRaf= 990000000 NMat=       1 IRICut=       1 DoRegI=T DoRafI=F ISym2E= 0 IDoP0=0 IntGTp=1.
 FoFCou: FMM=T IPFlag=           0 FMFlag=      100000 FMFlg1=        2001
         NFxFlg=           0 DoJE=F BraDBF=F KetDBF=F FulRan=T
         wScrn=  0.000000 ICntrl=         0 IOpCl=  0 I1Cent=           0 NGrid=           0
         NMat0=    1 NMatS0=      1 NMatT0=    0 NMatD0=    1 NMtDS0=    0 NMtDT0=    0
 Symmetry not used in FoFCou.
 FMM levels:  10  Number of levels for PrismC:   9
 E= -1663.01575334486    
 DIIS: error= 1.73D-02 at cycle   1 NSaved=   1.
 NSaved= 1 IEnMin= 1 EnMin= -1663.01575334486     IErMin= 1 ErrMin= 1.73D-02
 ErrMax= 1.73D-02  0.00D+00 EMaxC= 1.00D-01 BMatC= 6.78D-01 BMatP= 6.78D-01
 IDIUse=3 WtCom= 8.27D-01 WtEn= 1.73D-01
 Coeff-Com:  0.100D+01
 Coeff-En:   0.100D+01
 Coeff:      0.100D+01
 Gap=     0.279 Goal=   None    Shift=    0.000
 GapD=    0.279 DampG=1.000 DampE=0.500 DampFc=0.5000 IDamp=-1.
 Damping current iteration by 5.00D-01
 RMSDP=4.79D-03 MaxDP=3.73D-01              OVMax= 2.11D-01

 Cycle   2  Pass 0  IDiag  1:
 RMSU=  2.29D-03    CP:  9.57D-01
 E= -1663.32641656455     Delta-E=       -0.310663219682 Rises=F Damp=T
 DIIS: error= 4.02D-03 at cycle   2 NSaved=   2.
 NSaved= 2 IEnMin= 2 EnMin= -1663.32641656455     IErMin= 2 ErrMin= 4.02D-03
 ErrMax= 4.02D-03  0.00D+00 EMaxC= 1.00D-01 BMatC= 5.74D-02 BMatP= 6.78D-01
 IDIUse=3 WtCom= 9.60D-01 WtEn= 4.02D-02
 Coeff-Com:  0.932D-01 0.907D+00
 Coeff-En:   0.140D+00 0.860D+00
 Coeff:      0.951D-01 0.905D+00
 Gap=     0.249 Goal=   None    Shift=    0.000
 RMSDP=1.83D-03 MaxDP=1.25D-01 DE=-3.11D-01 OVMax= 1.94D-01

 Cycle   3  Pass 0  IDiag  1:
 RMSU=  1.74D-03    CP:  9.23D-01  9.25D-01
 E= -1663.67074414192     Delta-E=       -0.344327577374 Rises=F Damp=F
 DIIS: error= 9.05D-03 at cycle   3 NSaved=   3.
 NSaved= 3 IEnMin= 3 EnMin= -1663.67074414192     IErMin= 2 ErrMin= 4.02D-03
 ErrMax= 9.05D-03  0.00D+00 EMaxC= 1.00D-01 BMatC= 9.58D-02 BMatP= 5.74D-02
 IDIUse=3 WtCom= 9.51D-02 WtEn= 9.05D-01
 Coeff-Com: -0.229D-02 0.573D+00 0.429D+00
 Coeff-En:   0.000D+00 0.000D+00 0.100D+01
 Coeff:     -0.218D-03 0.545D-01 0.946D+00
 Gap=     0.242 Goal=   None    Shift=    0.000
 RMSDP=2.09D-03 MaxDP=2.16D-01 DE=-3.44D-01 OVMax= 2.54D-01

 Cycle   4  Pass 0  IDiag  1:
 RMSU=  1.41D-03    CP:  9.30D-01  1.29D+00  2.61D-01
 E= -1663.33689060061     Delta-E=        0.333853541309 Rises=F Damp=F
 DIIS: error= 2.06D-02 at cycle   4 NSaved=   4.
 NSaved= 4 IEnMin= 3 EnMin= -1663.67074414192     IErMin= 2 ErrMin= 4.02D-03
 ErrMax= 2.06D-02  0.00D+00 EMaxC= 1.00D-01 BMatC= 4.71D-01 BMatP= 5.74D-02
 IDIUse=2 WtCom= 0.00D+00 WtEn= 1.00D+00
 Coeff-En:   0.000D+00 0.000D+00 0.768D+00 0.232D+00
 Coeff:      0.000D+00 0.000D+00 0.768D+00 0.232D+00
 Gap=     0.231 Goal=   None    Shift=    0.000
 RMSDP=1.10D-03 MaxDP=1.35D-01 DE= 3.34D-01 OVMax= 9.13D-02

 Cycle   5  Pass 0  IDiag  1:
 RMSU=  2.35D-04    CP:  9.26D-01  1.09D+00  6.20D-01  4.76D-01
 E= -1663.72999252024     Delta-E=       -0.393101919632 Rises=F Damp=F
 DIIS: error= 5.22D-03 at cycle   5 NSaved=   5.
 NSaved= 5 IEnMin= 5 EnMin= -1663.72999252024     IErMin= 2 ErrMin= 4.02D-03
 ErrMax= 5.22D-03  0.00D+00 EMaxC= 1.00D-01 BMatC= 3.16D-02 BMatP= 5.74D-02
 IDIUse=3 WtCom= 9.48D-01 WtEn= 5.22D-02
 Coeff-Com:  0.289D-02 0.100D-01 0.300D+00-0.611D-01 0.748D+00
 Coeff-En:   0.000D+00 0.000D+00 0.299D+00 0.000D+00 0.701D+00
 Coeff:      0.274D-02 0.950D-02 0.300D+00-0.579D-01 0.746D+00
 Gap=     0.224 Goal=   None    Shift=    0.000
 RMSDP=3.81D-04 MaxDP=3.83D-02 DE=-3.93D-01 OVMax= 3.38D-02

 Cycle   6  Pass 0  IDiag  1:
 RMSU=  7.46D-05    CP:  9.24D-01  1.03D+00  7.54D-01  3.00D-01  8.32D-01
 E= -1663.75803096013     Delta-E=       -0.028038439882 Rises=F Damp=F
 DIIS: error= 4.54D-04 at cycle   6 NSaved=   6.
 NSaved= 6 IEnMin= 6 EnMin= -1663.75803096013     IErMin= 6 ErrMin= 4.54D-04
 ErrMax= 4.54D-04  0.00D+00 EMaxC= 1.00D-01 BMatC= 2.44D-04 BMatP= 3.16D-02
 IDIUse=3 WtCom= 9.95D-01 WtEn= 4.54D-03
 Coeff-Com:  0.183D-03 0.188D-02 0.144D+00-0.600D-01 0.483D+00 0.431D+00
 Coeff-En:   0.000D+00 0.000D+00 0.000D+00 0.000D+00 0.000D+00 0.100D+01
 Coeff:      0.182D-03 0.187D-02 0.143D+00-0.597D-01 0.481D+00 0.434D+00
 Gap=     0.221 Goal=   None    Shift=    0.000
 RMSDP=4.09D-05 MaxDP=2.63D-03 DE=-2.80D-02 OVMax= 4.34D-03

 Cycle   7  Pass 0  IDiag  1:
 RMSU=  2.40D-05    CP:  9.24D-01  1.03D+00  7.54D-01  3.02D-01  8.64D-01
                    CP:  5.73D-01
 E= -1663.75829146802     Delta-E=       -0.000260507891 Rises=F Damp=F
 DIIS: error= 1.06D-04 at cycle   7 NSaved=   7.
 NSaved= 7 IEnMin= 7 EnMin= -1663.75829146802     IErMin= 7 ErrMin= 1.06D-04
 ErrMax= 1.06D-04  0.00D+00 EMaxC= 1.00D-01 BMatC= 1.93D-05 BMatP= 2.44D-04
 IDIUse=3 WtCom= 9.99D-01 WtEn= 1.06D-03
 Coeff-Com: -0.990D-04 0.334D-03 0.606D-01-0.320D-01 0.226D+00 0.266D+00
 Coeff-Com:  0.479D+00
 Coeff-En:   0.000D+00 0.000D+00 0.000D+00 0.000D+00 0.000D+00 0.000D+00
 Coeff-En:   0.100D+01
 Coeff:     -0.989D-04 0.334D-03 0.605D-01-0.320D-01 0.226D+00 0.265D+00
 Coeff:      0.480D+00
 Gap=     0.221 Goal=   None    Shift=    0.000
 RMSDP=1.18D-05 MaxDP=8.59D-04 DE=-2.61D-04 OVMax= 9.27D-04

 Cycle   8  Pass 0  IDiag  1:
 RMSU=  8.70D-06    CP:  9.24D-01  1.03D+00  7.54D-01  3.02D-01  8.69D-01
                    CP:  5.82D-01  6.80D-01
 E= -1663.75831823859     Delta-E=       -0.000026770568 Rises=F Damp=F
 DIIS: error= 3.38D-05 at cycle   8 NSaved=   8.
 NSaved= 8 IEnMin= 8 EnMin= -1663.75831823859     IErMin= 8 ErrMin= 3.38D-05
 ErrMax= 3.38D-05  0.00D+00 EMaxC= 1.00D-01 BMatC= 1.63D-06 BMatP= 1.93D-05
 IDIUse=1 WtCom= 1.00D+00 WtEn= 0.00D+00
 Coeff-Com:  0.314D-04-0.205D-03 0.179D-01-0.106D-01 0.691D-01 0.959D-01
 Coeff-Com:  0.263D+00 0.565D+00
 Coeff:      0.314D-04-0.205D-03 0.179D-01-0.106D-01 0.691D-01 0.959D-01
 Coeff:      0.263D+00 0.565D+00
 Gap=     0.221 Goal=   None    Shift=    0.000
 RMSDP=6.79D-06 MaxDP=1.75D-04 DE=-2.68D-05 OVMax= 2.94D-04

 Initial convergence to 1.0D-05 achieved.  Increase integral accuracy.
 Cycle   9  Pass 1  IDiag  1:
 E= -1663.75817280231     Delta-E=        0.000145436280 Rises=F Damp=F
 DIIS: error= 3.95D-04 at cycle   1 NSaved=   1.
 NSaved= 1 IEnMin= 1 EnMin= -1663.75817280231     IErMin= 1 ErrMin= 3.95D-04
 ErrMax= 3.95D-04  0.00D+00 EMaxC= 1.00D-01 BMatC= 7.56D-05 BMatP= 7.56D-05
 IDIUse=3 WtCom= 9.96D-01 WtEn= 3.95D-03
 Coeff-Com:  0.100D+01
 Coeff-En:   0.100D+01
 Coeff:      0.100D+01
 Gap=     0.221 Goal=   None    Shift=    0.000
 RMSDP=6.79D-06 MaxDP=1.75D-04 DE= 1.45D-04 OVMax= 1.18D-03

 Cycle  10  Pass 1  IDiag  1:
 RMSU=  4.94D-04    CP:  9.98D-01
 E= -1663.75825621942     Delta-E=       -0.000083417118 Rises=F Damp=F
 DIIS: error= 2.95D-05 at cycle   2 NSaved=   2.
 NSaved= 2 IEnMin= 2 EnMin= -1663.75825621942     IErMin= 2 ErrMin= 2.95D-05
 ErrMax= 2.95D-05  0.00D+00 EMaxC= 1.00D-01 BMatC= 1.50D-06 BMatP= 7.56D-05
 IDIUse=1 WtCom= 1.00D+00 WtEn= 0.00D+00
 Coeff-Com:  0.188D-01 0.981D+00
 Coeff:      0.188D-01 0.981D+00
 Gap=     0.221 Goal=   None    Shift=    0.000
 RMSDP=1.06D-05 MaxDP=5.22D-04 DE=-8.34D-05 OVMax= 8.11D-04

 Cycle  11  Pass 1  IDiag  1:
 RMSU=  8.68D-06    CP:  9.98D-01  1.01D+00
 E= -1663.75825107977     Delta-E=        0.000005139654 Rises=F Damp=F
 DIIS: error= 6.47D-05 at cycle   3 NSaved=   3.
 NSaved= 3 IEnMin= 2 EnMin= -1663.75825621942     IErMin= 2 ErrMin= 2.95D-05
 ErrMax= 6.47D-05  0.00D+00 EMaxC= 1.00D-01 BMatC= 6.78D-06 BMatP= 1.50D-06
 IDIUse=1 WtCom= 1.00D+00 WtEn= 0.00D+00
 Coeff-Com: -0.657D-02 0.685D+00 0.322D+00
 Coeff:     -0.657D-02 0.685D+00 0.322D+00
 Gap=     0.221 Goal=   None    Shift=    0.000
 RMSDP=5.70D-06 MaxDP=3.94D-04 DE= 5.14D-06 OVMax= 5.70D-04

 Cycle  12  Pass 1  IDiag  1:
 RMSU=  1.50D-06    CP:  9.98D-01  1.01D+00  3.68D-01
 E= -1663.75825767515     Delta-E=       -0.000006595382 Rises=F Damp=F
 DIIS: error= 3.64D-06 at cycle   4 NSaved=   4.
 NSaved= 4 IEnMin= 4 EnMin= -1663.75825767515     IErMin= 4 ErrMin= 3.64D-06
 ErrMax= 3.64D-06  0.00D+00 EMaxC= 1.00D-01 BMatC= 3.37D-08 BMatP= 1.50D-06
 IDIUse=1 WtCom= 1.00D+00 WtEn= 0.00D+00
 Coeff-Com: -0.417D-02 0.407D+00 0.196D+00 0.401D+00
 Coeff:     -0.417D-02 0.407D+00 0.196D+00 0.401D+00
 Gap=     0.221 Goal=   None    Shift=    0.000
 RMSDP=4.98D-07 MaxDP=2.95D-05 DE=-6.60D-06 OVMax= 4.92D-05

 Cycle  13  Pass 1  IDiag  1:
 RMSU=  4.36D-07    CP:  9.98D-01  1.01D+00  3.63D-01  8.43D-01
 E= -1663.75825770761     Delta-E=       -0.000000032458 Rises=F Damp=F
 DIIS: error= 1.28D-06 at cycle   5 NSaved=   5.
 NSaved= 5 IEnMin= 5 EnMin= -1663.75825770761     IErMin= 5 ErrMin= 1.28D-06
 ErrMax= 1.28D-06  0.00D+00 EMaxC= 1.00D-01 BMatC= 1.40D-09 BMatP= 3.37D-08
 IDIUse=1 WtCom= 1.00D+00 WtEn= 0.00D+00
 Coeff-Com: -0.183D-02 0.176D+00 0.851D-01 0.222D+00 0.519D+00
 Coeff:     -0.183D-02 0.176D+00 0.851D-01 0.222D+00 0.519D+00
 Gap=     0.221 Goal=   None    Shift=    0.000
 RMSDP=1.33D-07 MaxDP=5.62D-06 DE=-3.25D-08 OVMax= 1.39D-05

 Cycle  14  Pass 1  IDiag  1:
 RMSU=  1.31D-07    CP:  9.98D-01  1.01D+00  3.62D-01  8.44D-01  9.59D-01
 E= -1663.75825770900     Delta-E=       -0.000000001393 Rises=F Damp=F
 DIIS: error= 3.88D-07 at cycle   6 NSaved=   6.
 NSaved= 6 IEnMin= 6 EnMin= -1663.75825770900     IErMin= 6 ErrMin= 3.88D-07
 ErrMax= 3.88D-07  0.00D+00 EMaxC= 1.00D-01 BMatC= 1.68D-10 BMatP= 1.40D-09
 IDIUse=1 WtCom= 1.00D+00 WtEn= 0.00D+00
 Coeff-Com: -0.124D-03 0.105D-01 0.536D-02 0.356D-01 0.281D+00 0.668D+00
 Coeff:     -0.124D-03 0.105D-01 0.536D-02 0.356D-01 0.281D+00 0.668D+00
 Gap=     0.221 Goal=   None    Shift=    0.000
 RMSDP=4.45D-08 MaxDP=1.67D-06 DE=-1.39D-09 OVMax= 3.50D-06

 Cycle  15  Pass 1  IDiag  1:
 RMSU=  2.31D-08    CP:  9.98D-01  1.01D+00  3.63D-01  8.56D-01  9.74D-01
                    CP:  7.60D-01
 E= -1663.75825770915     Delta-E=       -0.000000000145 Rises=F Damp=F
 DIIS: error= 1.44D-07 at cycle   7 NSaved=   7.
 NSaved= 7 IEnMin= 7 EnMin= -1663.75825770915     IErMin= 7 ErrMin= 1.44D-07
 ErrMax= 1.44D-07  0.00D+00 EMaxC= 1.00D-01 BMatC= 2.21D-11 BMatP= 1.68D-10
 IDIUse=1 WtCom= 1.00D+00 WtEn= 0.00D+00
 Coeff-Com:  0.153D-04-0.237D-02-0.971D-03 0.106D-01 0.148D+00 0.410D+00
 Coeff-Com:  0.435D+00
 Coeff:      0.153D-04-0.237D-02-0.971D-03 0.106D-01 0.148D+00 0.410D+00
 Coeff:      0.435D+00
 Gap=     0.221 Goal=   None    Shift=    0.000
 RMSDP=1.22D-08 MaxDP=5.29D-07 DE=-1.45D-10 OVMax= 9.75D-07

 Cycle  16  Pass 1  IDiag  1:
 RMSU=  8.39D-09    CP:  9.98D-01  1.01D+00  3.63D-01  8.57D-01  9.71D-01
                    CP:  7.55D-01  6.53D-01
 E= -1663.75825770914     Delta-E=        0.000000000007 Rises=F Damp=F
 DIIS: error= 5.46D-08 at cycle   8 NSaved=   8.
 NSaved= 8 IEnMin= 7 EnMin= -1663.75825770915     IErMin= 8 ErrMin= 5.46D-08
 ErrMax= 5.46D-08  0.00D+00 EMaxC= 1.00D-01 BMatC= 2.13D-12 BMatP= 2.21D-11
 IDIUse=1 WtCom= 1.00D+00 WtEn= 0.00D+00
 Coeff-Com:  0.206D-04-0.242D-02-0.108D-02 0.359D-02 0.690D-01 0.201D+00
 Coeff-Com:  0.278D+00 0.452D+00
 Coeff:      0.206D-04-0.242D-02-0.108D-02 0.359D-02 0.690D-01 0.201D+00
 Coeff:      0.278D+00 0.452D+00
 Gap=     0.221 Goal=   None    Shift=    0.000
 RMSDP=4.18D-09 MaxDP=2.92D-07 DE= 7.28D-12 OVMax= 3.69D-07

 SCF Done:  E(RB3LYP) =  -1663.75825771     A.U. after   16 cycles
            NFock= 16  Conv=0.42D-08     -V/T= 2.0091
 KE= 1.648810326016D+03 PE=-1.289051641288D+04 EE= 5.064888112030D+03
 Leave Link  502 at Mon Feb 26 09:45:51 2024, MaxMem=  7516192768 cpu:            1850.6 elap:              46.9
 (Enter /public/apps/g16-C01//g16/l601.exe)
 Copying SCF densities to generalized density rwf, IOpCl= 0 IROHF=0.

 **********************************************************************

            Population analysis using the SCF Density.

 **********************************************************************

 Alpha  occ. eigenvalues --  -19.17049 -19.16864 -19.16685 -14.30695 -14.29964
 Alpha  occ. eigenvalues --  -14.29926 -10.27175 -10.27173 -10.26972 -10.24361
 Alpha  occ. eigenvalues --  -10.23844 -10.23389 -10.22018 -10.21581 -10.21189
 Alpha  occ. eigenvalues --  -10.21134 -10.19463 -10.19410 -10.19323 -10.19225
 Alpha  occ. eigenvalues --  -10.18870 -10.18733 -10.18661 -10.18620 -10.18619
 Alpha  occ. eigenvalues --  -10.18587 -10.18470 -10.18458 -10.18452 -10.18390
 Alpha  occ. eigenvalues --  -10.18299 -10.18257 -10.18156 -10.18052 -10.17988
 Alpha  occ. eigenvalues --  -10.17908 -10.17857 -10.17850 -10.15682  -1.09436
 Alpha  occ. eigenvalues --   -1.08746  -1.08520  -0.90840  -0.90507  -0.90403
 Alpha  occ. eigenvalues --   -0.87803  -0.87104  -0.86401  -0.83939  -0.81742
 Alpha  occ. eigenvalues --   -0.80615  -0.79522  -0.75863  -0.75398  -0.74970
 Alpha  occ. eigenvalues --   -0.73439  -0.72031  -0.71597  -0.70838  -0.69259
 Alpha  occ. eigenvalues --   -0.68641  -0.67597  -0.65251  -0.63055  -0.62199
 Alpha  occ. eigenvalues --   -0.61024  -0.59699  -0.59488  -0.59213  -0.58285
 Alpha  occ. eigenvalues --   -0.57944  -0.57457  -0.56789  -0.55428  -0.53713
 Alpha  occ. eigenvalues --   -0.52658  -0.52366  -0.51575  -0.51448  -0.51242
 Alpha  occ. eigenvalues --   -0.49851  -0.49220  -0.48266  -0.47286  -0.46578
 Alpha  occ. eigenvalues --   -0.46268  -0.45769  -0.45405  -0.45061  -0.44850
 Alpha  occ. eigenvalues --   -0.44681  -0.44517  -0.43628  -0.43101  -0.42944
 Alpha  occ. eigenvalues --   -0.42385  -0.42299  -0.41740  -0.41548  -0.41339
 Alpha  occ. eigenvalues --   -0.41160  -0.40848  -0.40746  -0.40236  -0.39892
 Alpha  occ. eigenvalues --   -0.39469  -0.38384  -0.37283  -0.36992  -0.36543
 Alpha  occ. eigenvalues --   -0.36365  -0.35844  -0.35676  -0.35245  -0.34792
 Alpha  occ. eigenvalues --   -0.34737  -0.34488  -0.34354  -0.34041  -0.33950
 Alpha  occ. eigenvalues --   -0.33420  -0.33344  -0.32817  -0.32600  -0.27297
 Alpha  occ. eigenvalues --   -0.27127  -0.26989  -0.26415  -0.25856  -0.25714
 Alpha  occ. eigenvalues --   -0.25483  -0.25235  -0.24721  -0.24376  -0.24285
 Alpha  occ. eigenvalues --   -0.23801
 Alpha virt. eigenvalues --   -0.01736  -0.01513  -0.01003  -0.00821  -0.00685
 Alpha virt. eigenvalues --   -0.00184   0.00673   0.01494   0.04184   0.05657
 Alpha virt. eigenvalues --    0.06241   0.07011   0.07212   0.07369   0.08522
 Alpha virt. eigenvalues --    0.08610   0.08926   0.09393   0.09637   0.10628
 Alpha virt. eigenvalues --    0.10811   0.10829   0.11483   0.11738   0.11932
 Alpha virt. eigenvalues --    0.12067   0.12594   0.12895   0.13342   0.13644
 Alpha virt. eigenvalues --    0.13749   0.13913   0.14647   0.14966   0.15167
 Alpha virt. eigenvalues --    0.15333   0.15714   0.15969   0.16610   0.16762
 Alpha virt. eigenvalues --    0.16993   0.17760   0.18027   0.18355   0.18579
 Alpha virt. eigenvalues --    0.19424   0.20052   0.20484   0.20644   0.21278
 Alpha virt. eigenvalues --    0.22200   0.22712   0.23320   0.24616   0.25287
 Alpha virt. eigenvalues --    0.25450   0.25878   0.26630   0.26742   0.26867
 Alpha virt. eigenvalues --    0.27272   0.28012   0.28538   0.29067   0.29715
 Alpha virt. eigenvalues --    0.30455   0.30823   0.31216   0.31751   0.31863
 Alpha virt. eigenvalues --    0.32114   0.32444   0.33197   0.33537   0.34427
 Alpha virt. eigenvalues --    0.34795   0.35395   0.35648   0.36266   0.36565
 Alpha virt. eigenvalues --    0.36620   0.37893   0.39167   0.39354   0.39915
 Alpha virt. eigenvalues --    0.39994   0.41231   0.41334   0.42268   0.42467
 Alpha virt. eigenvalues --    0.42927   0.43527   0.43889   0.45168   0.45370
 Alpha virt. eigenvalues --    0.45478   0.45800   0.46496   0.47240   0.47347
 Alpha virt. eigenvalues --    0.47967   0.48140   0.48393   0.48613   0.48791
 Alpha virt. eigenvalues --    0.48977   0.49554   0.49820   0.49989   0.50429
 Alpha virt. eigenvalues --    0.50716   0.51257   0.51799   0.52001   0.52197
 Alpha virt. eigenvalues --    0.52764   0.53285   0.53470   0.53697   0.55007
 Alpha virt. eigenvalues --    0.55330   0.55878   0.56372   0.56842   0.57684
 Alpha virt. eigenvalues --    0.58012   0.58293   0.58599   0.59019   0.59234
 Alpha virt. eigenvalues --    0.59812   0.60259   0.61153   0.61295   0.61899
 Alpha virt. eigenvalues --    0.62120   0.62509   0.62645   0.62798   0.63377
 Alpha virt. eigenvalues --    0.63965   0.64382   0.64730   0.64842   0.65228
 Alpha virt. eigenvalues --    0.65597   0.65836   0.66363   0.67003   0.67146
 Alpha virt. eigenvalues --    0.67332   0.67573   0.67635   0.67748   0.68011
 Alpha virt. eigenvalues --    0.68107   0.68295   0.68439   0.68639   0.68864
 Alpha virt. eigenvalues --    0.69256   0.69546   0.69801   0.69933   0.70019
 Alpha virt. eigenvalues --    0.70322   0.70910   0.71141   0.71148   0.71323
 Alpha virt. eigenvalues --    0.71758   0.71863   0.72224   0.72423   0.72589
 Alpha virt. eigenvalues --    0.73120   0.73504   0.74004   0.74202   0.74569
 Alpha virt. eigenvalues --    0.75496   0.75815   0.75952   0.76115   0.76213
 Alpha virt. eigenvalues --    0.76532   0.76719   0.77114   0.77668   0.78033
 Alpha virt. eigenvalues --    0.78399   0.78752   0.79113   0.79237   0.80475
 Alpha virt. eigenvalues --    0.81042   0.81738   0.81967   0.82422   0.83040
[...]
 ,-0.00000034,0.00000164,-0.00000154,0.00000010,-0.00000817,0.00001553,
 0.00001340,0.00000048,-0.00000140,0.00000181,-0.00000285,0.00000018,0.
 00000152,-0.00000289,0.00000069,0.00000077,0.00000182,0.00000017,-0.00
 000199,0.00000291,-0.00001476,-0.00000361,0.00002183,0.00001480,-0.000
 00151,-0.00001671,-0.00001875,-0.00003610,0.00010575,0.00036445,0.0002
 0873,-0.00002077,-0.00025714,-0.00020100,-0.00003271,-0.00001035,0.000
 03250,0.00003737,-0.00001274,0.00002756,-0.00030191,-0.00024969,0.0006
 3530,0.01391279,0.05030323,0.00002133,0.,-0.00001675,-0.00001345,0.000
 02888,0.00006165,0.00004035,0.00000783,-0.00009381,0.00007202,0.000013
 38,-0.00003452,-0.00004799,-0.00001456,0.00000932,0.00003361,0.0000033
 4,0.00000043,0.00000579,-0.00000920,0.00000194,-0.00000454,0.00000116,
 0.00000137,-0.00000012,-0.00000321,0.00000251,-0.00000152,-0.00000020,
 -0.00000113,0.00000161,-0.00000155,-0.00000354,-0.00000951,0.00000123,
 0.00000269,0.00000239,0.00000399,-0.00000284,0.00002204,-0.00000903,0.
 00001086,-0.00006873,0.00000833,0.00004149,0.00007376,0.00030700,-0.00
 050860,-0.00007795,0.00003406,0.00025636,-0.00001460,-0.00002854,-0.00
 001106,0.00000518,0.00000902,0.00002567,-0.00000602,-0.00000080,-0.000
 01171,-0.00000577,0.00000200,0.00000252,-0.00000523,0.00000185,0.00000
 007,-0.00000352,0.00000208,0.00001523,0.00001301,0.00000364,-0.0000245
 7,-0.00000749,0.00000243,0.00000965,0.00008866,-0.00025509,0.00004830,
 -0.00020308,-0.00007160,0.00042965,-0.00017588,-0.00079601,-0.00194327
 ,0.00099701,0.00001459,-0.00009204,-0.00051560,0.00239832,-0.00127398,
 -0.00041362,-0.00134385,-0.00073388,0.00048132,0.00019914,-0.00048127,
 0.00004590,-0.00002325,0.00046877,0.00046995,-0.00053208,-0.00068659,0
 .00026625,0.00164037,0.00042956,-0.00794536,-0.00241239,-0.00842478,-0
 .12794103,-0.00788774,-0.14363893,-0.01623711,-0.00163469,-0.01550896,
 -0.00158901,-0.00125683,0.00385206,-0.00001248,0.00000732,0.00002830,0
 .00000420,0.00000081,0.00000266,-0.00000348,-0.00001369,0.00001068,0.0
 0012619,0.00009789,-0.00000624,-0.00001665,-0.00000822,0.00001821,-0.0
 0001018,-0.00000365,0.00000281,0.00000329,0.00000053,0.00000273,-0.000
 00087,0.00000195,-0.00000123,-0.00000142,0.00000186,0.00000021,-0.0000
 0036,0.00000101,0.00000148,-0.00000113,-0.00000244,-0.00000115,-0.0000
 0289,0.00000226,0.00000140,0.,-0.00000028,-0.00000224,-0.00000967,0.00
 001367,0.00001560,0.00000156,-0.00000178,0.00000171,-0.00000463,0.0000
 0011,0.00000189,-0.00000414,-0.00000019,0.00000090,0.00000033,-0.00000
 099,-0.00000274,-0.00000499,0.00000250,-0.00000499,0.00002396,0.000004
 59,0.00000520,-0.00000638,-0.00000556,-0.00002524,-0.00001469,-0.00020
 824,-0.00071992,-0.00002168,-0.00011840,-0.00008131,-0.00013090,-0.000
 03799,0.00002896,-0.00001660,-0.00002517,-0.00000522,-0.00041840,-0.00
 018397,0.00018577,0.13955529,0.01053270,0.15670016,-0.00002830,0.00001
 459,-0.00001336,0.00004286,0.00006381,-0.00001810,-0.00000715,0.000022
 08,-0.00001415,0.00009460,-0.00002431,-0.00000188,-0.00006643,0.000001
 73,-0.00001928,0.00003197,0.00001110,-0.00000427,0.00000738,-0.0000113
 8,0.00000178,-0.00000653,0.00000094,0.00000396,-0.00000084,-0.00000337
 ,0.00000192,-0.00000180,-0.00000035,-0.00000203,0.00000194,-0.00000197
 ,-0.00000480,-0.00001204,0.00000012,0.00000540,0.00000229,0.00000639,-
 0.00000391,0.00003468,-0.00001535,0.00001145,-0.00007576,0.00001510,0.
 00000671,0.00007792,-0.00001358,-0.00016954,-0.00007962,0.00006380,0.0
 0008324,0.00001578,-0.00001890,0.00000227,0.00001314,0.00000515,0.0000
 1463,-0.00000452,-0.00000052,-0.00000987,-0.00000392,0.00000137,-0.000
 00114,-0.00000614,0.00000224,0.00000046,-0.00000053,0.00000129,0.00001
 243,0.00000026,0.00000345,-0.00001768,-0.00000167,-0.00000316,0.000007
 98,0.00005664,-0.00011286,0.00001987,-0.00010699,0.00005560,0.00012549
 ,0.00035429,-0.00066275,-0.00091791,0.00015990,0.00017496,0.00038857,-
 0.00054453,-0.00007983,-0.00000004,-0.00026367,-0.00019317,-0.00075976
 ,-0.00022018,0.00022236,0.00006080,-0.00003101,-0.00011011,-0.00016272
 ,-0.00004915,0.00033274,0.00015508,0.00056825,-0.00029216,0.00044445,0
 .00655374,0.00067873,-0.00251758,-0.22382515,0.03989502,0.11119410,-0.
 00169335,0.00154716,-0.00141757,-0.00021781,-0.00102562,0.00202023,0.0
 0001068,-0.00000126,-0.00001210,-0.00000466,-0.00000519,0.00001376,0.0
 0000616,-0.00000496,0.00000073,0.00004524,0.00003530,0.00000851,-0.000
 00813,-0.00000343,0.00001553,-0.00001359,-0.00000491,0.00000493,0.0000
 0377,0.00000118,0.00000222,-0.00000135,0.00000283,-0.00000151,-0.00000
 152,0.00000244,0.00000018,-0.00000001,0.00000128,0.00000161,-0.0000012
 5,-0.00000264,-0.00000117,-0.00000247,0.00000173,0.00000093,-0.0000009
 7,-0.00000043,-0.00000185,-0.00000375,0.00001174,0.00000061,0.00000326
 ,-0.00000232,-0.00000022,-0.00000438,0.00000013,0.00000207,-0.00000423
 ,0.00000004,0.00000038,-0.00000075,-0.00000076,-0.00000345,-0.00000345
 ,0.00000423,-0.00000332,0.00001088,0.00000079,0.00000369,-0.00000099,-
 0.00000217,-0.00000857,0.00001327,-0.00001649,0.00004172,0.00003811,-0
 .00001158,-0.00002154,-0.00003070,0.00001606,0.00000223,-0.00000520,0.
 00002775,0.00002140,-0.00009738,0.00015044,0.00001694,-0.01857029,0.00
 447177,0.01337049,0.23696260,-0.00007867,0.00003109,-0.00000226,0.0000
 4898,0.00017567,0.00018449,0.00000775,0.00003933,-0.00000818,0.0000858
 6,-0.00003639,0.00001325,-0.00004987,0.00002829,-0.00001665,0.00001444
 ,0.00000183,-0.00000604,0.00000647,-0.00000758,0.00000170,-0.00000096,
 0.00000247,0.00000099,-0.00000126,0.00000212,-0.00000022,-0.00000200,0
 .00000293,-0.00000126,0.00000151,0.00000024,-0.00000035,-0.00000748,0.
 00000121,0.00000517,0.00000015,0.00000385,-0.00000408,0.00002300,-0.00
 002616,0.00000912,-0.00006160,0.00002218,0.00000311,0.00000552,-0.0002
 3227,0.00012403,-0.00002524,0.00011190,-0.00002124,-0.00000692,-0.0000
 1881,0.00002600,0.00000615,0.00001606,-0.00000958,0.00000225,0.0000009
 5,0.00000021,0.00000315,0.00000133,-0.00000120,0.00000081,0.00000091,0
 .00000061,0.00000200,-0.00000164,-0.00000516,-0.00000094,0.00000489,0.
 00001029,0.00000274,0.00001727,-0.00001034,-0.00005650,-0.00011103,0.0
 0001648,0.00000827,0.00016384,-0.00005208,-0.00079942,-0.00127449,-0.0
 0190844,0.00057417,0.00076228,0.00073420,0.00051309,-0.00098314,0.0004
 5584,-0.00026253,-0.00211008,0.00045883,-0.00121480,-0.00026370,-0.000
 13230,0.00015492,-0.00032462,-0.00030725,-0.00123417,0.00008440,-0.000
 21295,-0.00064205,0.00095209,-0.00063692,0.02397228,-0.00735765,-0.017
 05050,0.04545808,-0.05575327,-0.02608846,-0.01805496,0.00516730,0.0086
 9776,-0.00265866,-0.00238754,0.00639067,0.00000932,-0.00000535,-0.0000
 0339,-0.00000838,-0.00001977,0.00003163,0.00000538,0.00000029,-0.00000
 145,0.00005149,0.00000361,0.00002533,0.00000351,0.00000748,0.00000375,
 -0.00000733,0.00000031,0.00000378,0.00000067,-0.00000153,-0.00000028,-
 0.00000116,-0.00000004,-0.00000094,-0.00000122,0.00000008,-0.00000043,
 -0.00000100,-0.00000048,0.00000066,0.00000055,0.00000047,-0.00000046,-
 0.00000256,-0.00000024,0.00000189,-0.00000273,0.00000101,-0.00000172,-
 0.00000822,0.00002044,0.00000785,-0.00000054,-0.00000234,-0.00000018,0
 .00000043,-0.00000147,-0.00000051,0.00000113,-0.00000174,-0.00000056,-
 0.00000070,-0.00000170,0.00000119,-0.00000540,0.00000335,-0.00000558,0
 .00000741,-0.00000265,0.00000574,-0.00000511,0.00003864,-0.00001819,0.
 00006437,0.00026959,0.00004829,-0.00001964,-0.00015231,-0.00012751,0.0
 0009489,-0.00000678,-0.00000201,-0.00001806,-0.00007491,0.00001576,0.0
 0071078,-0.00024311,0.00033147,-0.00091178,0.00048156,0.00108277,-0.04
 490711,0.06245798,0.00007479,-0.00002061,0.00000033,-0.00010401,-0.000
 08317,-0.00011552,0.00000315,-0.00002799,-0.00001137,-0.00004692,0.000
 02584,-0.00002887,0.00002655,-0.00001465,0.00002239,-0.00000577,-0.000
 00488,0.00000475,-0.00000299,0.00000439,-0.00000083,0.00000244,-0.0000
 0032,-0.00000252,0.00000078,0.00000056,-0.00000003,0.00000053,0.000000
 14,0.00000095,-0.00000102,0.00000086,0.00000205,0.00000511,0.00000013,
 -0.00000289,-0.00000057,-0.00000280,0.00000239,-0.00001661,0.00000765,
 -0.00000325,0.00002991,-0.00000852,0.00001545,-0.00001782,0.00013936,-
 0.00010456,0.00002804,-0.00004408,0.00004119,-0.00001748,0.00000493,-0
 .00000879,-0.00001119,0.00000032,0.00000099,0.00000174,-0.00000021,0.0
 0000359,-0.00000029,-0.00000008,0.00000237,0.00000258,-0.00000098,-0.0
 0000041,-0.00000156,0.00000002,-0.00000136,0.00001178,0.00000107,0.000
 00182,-0.00000242,0.00000063,-0.00000140,-0.00001512,-0.00002708,-0.00
 000219,-0.00000091,-0.00004233,0.00010670,0.00012202,0.00064101,0.0004
 8878,0.00013596,0.00021396,-0.00059220,0.00017257,-0.00007222,-0.00076
 899,-0.00037434,-0.00132326,-0.00061081,-0.00089089,0.00038211,-0.0001
 0023,0.00010693,-0.00034202,0.00070229,-0.00062671,-0.00068988,-0.0010
 1324,0.00001660,0.00194090,0.00015123,0.00901767,-0.00581131,-0.007499
 38,0.11048434,-0.02296601,-0.11647999,0.01823259,-0.00610216,-0.009063
 93,0.00088843,0.00177641,-0.00318642,-0.00000769,0.00000168,0.00001481
 ,0.00000821,0.00001256,-0.00002648,-0.00000569,0.00000035,0.00000409,-
 0.00002211,0.00001145,-0.00002635,-0.00000613,-0.00000429,0.00000667,0
 .00000547,0.00000143,-0.00000219,-0.00000059,-0.00000039,-0.00000008,0
 .00000041,-0.00000094,0.00000052,0.00000052,-0.00000094,0.00000010,-0.
 00000001,-0.00000047,-0.00000067,0.00000036,0.00000097,0.00000050,0.00
 000064,-0.00000056,-0.00000029,0.00000070,0.00000019,0.00000017,-0.000
 00103,-0.00000303,0.00000874,-0.00000197,0.00000090,0.00000107,0.00000
 148,-0.00000003,-0.00000063,0.00000101,-0.00000001,0.00000032,0.000001
 02,-0.00000008,0.00000107,0.00000194,-0.00000523,0.00000006,0.00001052
 ,0.00000359,-0.00000279,-0.00000429,-0.00000174,-0.00000980,-0.0000986
 1,-0.00007209,-0.00030933,0.00004886,-0.00007039,-0.00006549,0.0001503
 7,-0.00002350,-0.00001517,-0.00001714,-0.00003210,-0.00001079,0.000358
 15,-0.00001952,0.00000595,-0.01559904,0.00411423,0.01235280,-0.1218903
 1,0.02858066,0.12482301,-0.00045858,0.00012333,-0.00008567,0.00025706,
 -0.00042901,0.00114270,0.00008925,0.00007406,0.00006475,0.00016029,-0.
 00009117,0.00003868,-0.00010121,0.00002153,-0.00005663,0.00003393,0.00
 002349,-0.00001000,0.00000991,-0.00001613,0.00000321,-0.00000821,0.000
 00141,0.00000710,-0.00000196,-0.00000230,0.00000059,-0.00000256,0.0000
 0044,-0.00000287,0.00000287,-0.00000242,-0.00000586,-0.00001730,0.,0.0
 0000886,0.00000265,0.00001071,-0.00000711,0.00005389,-0.00002825,0.000
 01604,-0.00011428,0.00002959,-0.00002139,0.00034623,-0.00035000,-0.000
 18553,-0.00011720,0.00016722,0.00007753,0.00000902,-0.00002961,0.00001
 635,0.00002633,0.00001533,0.00000966,-0.00000573,-0.00000012,-0.000012
 62,-0.00000196,0.00000131,-0.00000342,-0.00000807,0.00000301,0.0000006
 9,0.00000217,-0.00000052,0.00000937,-0.00001427,0.00000461,-0.00001190
 ,0.00000304,0.00001049,0.00000347,0.00002908,-0.00016819,0.00006372,-0
 .00015039,0.00028979,-0.00003293,-0.00425645,-0.00070732,-0.00880898,0
 .00236855,0.00006397,0.00064210,0.00571375,-0.00713019,-0.00020978,0.0
 0026816,-0.00118701,-0.00157353,0.00000942,-0.00045069,0.00021709,-0.0
 0001617,-0.00008877,-0.00014834,-0.00001426,-0.00000240,0.00005328,0.0
 0002531,-0.00024303,-0.00007029,0.00028412,-0.00073806,0.00009048,0.00
 321568,-0.00183583,0.00110609,-0.09969967,0.10684986,0.01455028,-0.034
 40759,0.02241921,0.01655406,0.00002335,-0.00000033,0.00000013,0.000013
 07,-0.00006675,0.00016342,0.00001401,-0.00003282,0.00001043,0.00014906
 ,0.00012669,0.00006993,-0.00005072,-0.00002764,0.00005539,-0.00002034,
 -0.00000713,0.00000800,0.00000355,0.00000137,0.00000126,-0.00000190,0.
 00000318,-0.00000180,-0.00000179,0.00000277,-0.00000017,-0.00000026,0.
 00000142,0.00000192,-0.00000170,-0.00000337,-0.00000131,-0.00000321,0.
 00000151,0.00000136,-0.00000186,-0.00000102,-0.00000215,-0.00000614,0.
 00002358,-0.00000108,0.00000451,-0.00000379,-0.00000157,-0.00000495,-0
 .00000020,0.00000195,-0.00000393,-0.00000019,-0.00000017,-0.00000244,-
 0.00000093,-0.00000364,-0.00001042,0.00001303,-0.00000710,0.00000262,-
 0.00000496,0.00001028,-0.00000073,0.00002413,-0.00000717,0.00075366,-0
 .00009043,0.00055166,-0.00000095,-0.00001103,-0.00001586,-0.00000955,-
 0.00004247,0.00001090,-0.00001315,-0.00002148,-0.00000305,0.00000809,0
 .00000524,0.00000009,0.00013901,-0.00047841,0.00024318,0.00089258,-0.0
 0078258,-0.00016290,0.12461569,-0.00012967,-0.00000231,0.00001131,0.00
 004507,-0.00036271,0.00047965,0.00003353,0.00000080,0.00002032,-0.0000
 0480,-0.00000835,0.00000143,0.00000520,0.00002163,-0.00000042,-0.00000
 821,-0.00000855,-0.00000056,0.00000204,0.00000109,-0.00000110,0.000002
 26,0.00000170,-0.00000032,-0.00000013,0.00000388,-0.00000122,-0.000000
 53,0.00000294,-0.00000009,-0.00000001,0.00000161,0.00000243,0.00000213
 ,0.00000044,0.00000155,-0.00000140,-0.00000170,-0.00000030,-0.00000183
 ,-0.00001245,-0.00000053,0.00000956,0.00000906,-0.00000746,0.00005758,
 -0.00011356,0.00006602,0.00003865,0.00002613,-0.00003516,-0.00002378,-
 0.00000231,0.00000811,-0.00000487,0.00000770,-0.00001436,0.00000360,0.
 00000130,0.00000642,0.00000485,0.00000056,-0.00000014,0.00000361,-0.00
 000023,-0.00000048,0.00000245,-0.00000119,-0.00000943,-0.00000168,0.00
 000395,0.00001628,0.00000088,0.00000741,-0.00000931,-0.00006455,-0.000
 02480,0.00000348,0.00005418,0.00010318,-0.00008331,-0.00184989,-0.0003
 2124,-0.00148559,0.00138408,-0.00034641,-0.00016661,0.00411948,-0.0068
 2096,0.00137551,-0.00042017,-0.00111819,-0.00170185,-0.00016064,-0.000
 24698,0.00034292,0.00002111,-0.00017576,-0.00004625,0.00003117,-0.0002
 4249,0.00006372,-0.00033552,-0.00040598,-0.00069942,0.00014170,-0.0016
 4503,0.00245677,0.00656540,-0.01261304,-0.00366843,0.11319738,-0.25703
 645,-0.03517315,-0.00690724,0.01543151,0.00322027,-0.00000437,-0.00000
 794,0.00002810,0.00000601,-0.00000487,0.00004412,0.00000394,0.00001664
 ,-0.00000589,-0.00000673,-0.00000075,-0.00001743,0.00000100,0.00000120
 ,0.00000574,0.00000375,0.00000409,-0.00000025,-0.00000150,-0.00000257,
 -0.00000161,-0.00000081,-0.00000167,-0.00000008,-0.00000014,-0.0000016
 0,-0.00000042,-0.00000060,-0.00000140,-0.00000074,0.00000140,0.0000028
 7,0.00000033,-0.00000025,-0.00000170,0.00000056,-0.00000140,0.00000138
 ,0.,-0.00000255,0.00000380,0.00000773,-0.00000256,-0.00000058,-0.00000
 033,0.00000320,-0.00000144,-0.00000182,0.00000320,-0.00000173,-0.00000
 047,-0.00000099,-0.00000139,0.00000267,-0.00000234,0.00000355,-0.00000
 274,0.00000036,-0.00000393,0.00000285,-0.00000062,0.00002408,-0.000003
 43,-0.00047821,0.00075578,0.00000230,-0.00000149,-0.00001819,-0.000039
 22,0.00002614,-0.00005861,-0.00000188,0.00003587,-0.00008455,-0.000040
 87,-0.00000175,0.00002469,0.00002009,0.00016094,-0.00064900,0.00045854
 ,-0.00031477,0.00052353,-0.00004845,-0.11523574,0.26536613,0.00012719,
 -0.00004415,-0.00000634,-0.00003259,-0.00009664,-0.00006071,0.00001820
 ,-0.00003850,0.00000456,-0.00005926,0.00004309,-0.00000389,0.00003797,
 -0.00001457,0.00001189,-0.00001536,-0.00000704,0.00000399,-0.00000464,
 0.00000650,-0.00000199,0.00000248,-0.00000135,-0.00000156,0.00000057,0
 .00000049,-0.00000083,0.00000124,-0.00000067,0.00000099,-0.00000130,0.
 00000084,0.00000192,0.00000728,-0.00000066,-0.00000312,-0.00000121,-0.
 00000361,0.00000304,-0.00001993,0.00001158,-0.00000686,0.00005220,-0.0
 0001080,-0.00000667,-0.00010666,0.00013438,-0.00002565,0.00004803,-0.0
 0005535,-0.00000236,-0.00000878,0.00001497,-0.00001344,-0.00001193,-0.
 00000532,0.,0.00000198,-0.00000019,0.00000485,-0.00000029,-0.00000053,
 0.00000194,0.00000305,-0.00000145,-0.00000037,-0.00000139,0.00000015,-
 0.00000172,0.00000851,-0.00000317,0.00000165,-0.00000148,-0.00000108,-
 0.00000023,-0.00000765,0.00005311,-0.00002183,0.00002885,-0.00009217,0
 .00004654,-0.00004953,0.00012174,-0.00118702,0.00137304,-0.00016702,-0
 .00162866,0.01060015,-0.02078499,0.00146091,-0.00062442,-0.00119049,-0
 .00421562,-0.00008613,-0.00088788,0.00096221,0.00002645,-0.00015967,-0
 .00024405,-0.00005081,0.00017733,-0.00022681,0.00041626,0.00086965,0.0
 0110100,-0.00044701,0.00164799,-0.00419296,-0.00974525,0.02222365,0.00
 471096,0.01706561,-0.03427382,-0.05842244,0.00614182,-0.00291284,0.002
 31143,-0.00001131,-0.00000813,0.00004850,0.00001336,0.00004344,-0.0000
 2887,0.00000443,0.00002833,-0.00000544,-0.00004971,-0.00001779,-0.0000
 1849,0.00001568,0.00001459,0.00000190,0.00000657,0.00000153,-0.0000018
 8,-0.00000122,0.00000054,-0.00000067,0.00000077,-0.00000081,0.00000084
 ,0.00000096,-0.00000094,0.00000009,0.00000043,-0.00000044,-0.00000091,
 0.00000059,0.00000131,0.00000084,0.00000180,-0.00000103,-0.00000110,0.
 00000063,0.00000028,0.00000077,-0.00000017,-0.00000756,0.00000291,-0.0
 0000201,0.00000146,0.00000078,0.00000187,0.00000023,-0.00000060,0.0000
 0111,0.00000054,0.00000030,0.00000127,0.00000075,0.00000104,0.00000512
 ,-0.00000705,0.00000312,0.00000153,0.00000349,-0.00000383,-0.00000118,
 -0.00001272,-0.00000359,0.00008315,0.00098804,0.00150499,0.00000932,0.
 00006970,0.00001660,0.00003346,-0.00011424,0.00005614,-0.00003876,0.00
 010029,0.00008300,0.00001158,-0.00008761,0.00004610,-0.00035419,0.0004
 6513,-0.00068905,-0.00006913,-0.00063484,0.00130211,-0.02435121,0.0346
 2196,0.05733167\\0.00000022,-0.00000134,-0.00000048,-0.00000021,0.0000
 0014,-0.00000041,-0.00000046,-0.00000018,-0.00000179,-0.00000179,-0.00
 000270,0.00000273,-0.00000018,0.00000206,-0.00000238,-0.00000079,0.000
 00100,0.00000043,-0.00000032,0.00000129,-0.00000115,-0.00000072,-0.000
 00054,-0.00000056,0.00000084,0.00000105,-0.00000067,0.00000040,0.00000
 090,-0.00000057,0.00000047,0.00000024,-0.00000110,0.00000144,0.0000017
 2,-0.00000103,-0.00000012,-0.00000247,-0.00000179,-0.00000284,0.000000
 67,-0.00000248,0.00000278,0.00000035,0.00000033,-0.00000272,-0.0000029
 0,0.00000016,0.00000111,-0.00000072,-0.00000075,-0.00000034,0.00000181
 ,0.00000047,0.00000034,-0.00000005,0.00000003,-0.00000002,-0.00000004,
 -0.00000002,0.00000015,-0.00000017,0.00000007,0.00000043,-0.00000018,-
 0.00000021,0.00000059,0.00000088,0.00000014,-0.00000024,0.00000052,0.0
 0000008,0.00000004,0.00000006,0.00000064,0.00000003,0.00000048,-0.0000
 0118,-0.00000017,0.00000070,0.00000212,0.00000238,-0.00000179,0.000002
 12,0.00000057,0.00000036,0.00000048,-0.00000207,-0.00000049,0.00000073
 ,0.00000018,0.00000019,0.00000099,-0.00000007,-0.00000033,0.00000066,0
 .00000082,-0.00000086,0.00000121,-0.00000018,-0.00000024,0.00000123,0.
 00000057,0.00000018,0.00000104,-0.00000060,0.00000026,0.00000070,0.000
 00102,-0.00000046,0.00000075,0.00000079,0.00000061,0.00000073,-0.00000
 069,-0.00000120,-0.00000160,-0.00000034,-0.00000071,0.00000010,-0.0000
 0021,-0.00000056,-0.00000082,-0.00000041,-0.00000111,-0.00000041,-0.00
 000017,-0.00000012,-0.00000015,-0.00000016,0.00000042,-0.00000054,0.00
 000018,0.00000065,-0.00000047,0.00000049,0.00000106,-0.00000062,0.0000
 0045,0.00000120,-0.00000070,-0.00000002,0.00000060,-0.00000084,-0.0000
 0030,0.00000026,-0.00000068,-0.00000079,-0.00000060,-0.00000062,-0.000
 00007,-0.00000005,-0.00000108,0.00000019,-0.00000013,-0.00000115,-0.00
 000008,-0.00000004,0.00000014,-0.00000023,-0.00000054,0.00000040,-0.00
 000020,-0.00000015,0.00000012,-0.00000018,0.00000030,-0.00000026,0.000
 00032,0.00000038,0.00000022,0.00000017,0.00000098,0.00000032,0.0000004
 7,0.00000048,0.00000013,0.00000011,0.00000069,0.00000099,-0.00000006,-
 0.00000087,0.00000030,-0.00000008,-0.00000088,0.00000138,0.00000004,-0
 .00000059,0.00000157,0.00000038,0.00000002,0.00000142,0.00000077,0.000
 00046,0.00000076,0.00000018,0.00000048,0.00000031,-0.00000007,0.000000
 05,0.00000014,-0.00000101,-0.00000054,0.00000034\\\@
 The archive entry for this job was punched.


 ONLY A FOOL KNOWS EVERYTHING.

               -- THE CHEMIST ANALYST, SEPTEMBER 1946
 Job cpu time:       0 days  9 hours 33 minutes  9.0 seconds.
 Elapsed time:       0 days  0 hours 14 minutes 26.1 seconds.
 File lengths (MBytes):  RWF=   2723 Int=      0 D2E=      0 Chk=     34 Scr=      1
 Normal termination of Gaussian 16 at Mon Feb 26 10:36:19 2024.
