 Entering Gaussian System, Link 0=g16
 Initial command:
 /public/apps/g16-C01//g16/l1.exe "/public/home/ljq/tmp/Gau-5121.inp" -scrdir="/public/home/ljq/tmp/"
 Entering Link 1 = /public/apps/g16-C01//g16/l1.exe PID=      5122.
  
 Copyright (c) 1988-2019, Gaussian, Inc.  All Rights Reserved.
  
 This is part of the Gaussian(R) 16 program.  It is based on
 the Gaussian(R) 09 system (copyright 2009, Gaussian, Inc.),
 the Gaussian(R) 03 system (copyright 2003, Gaussian, Inc.),
 the Gaussian(R) 98 system (copyright 1998, Gaussian, Inc.),
 the Gaussian(R) 94 system (copyright 1995, Gaussian, Inc.),
 the Gaussian 92(TM) system (copyright 1992, Gaussian, Inc.),
 the Gaussian 90(TM) system (copyright 1990, Gaussian, Inc.),
 the Gaussian 88(TM) system (copyright 1988, Gaussian, Inc.),
 the Gaussian 86(TM) system (copyright 1986, Carnegie Mellon
 University), and the Gaussian 82(TM) system (copyright 1983,
 Carnegie Mellon University). Gaussian is a federally registered
 trademark of Gaussian, Inc.
  
 This software contains proprietary and confidential information,
 including trade secrets, belonging to Gaussian, Inc.
  
 This software is provided under written license and may be
 used, copied, transmitted, or stored only in accord with that
 written license.
  
 The following legend is applicable only to US Government
 contracts under FAR:
  
                    RESTRICTED RIGHTS LEGEND
  
 Use, reproduction and disclosure by the US Government is
 subject to restrictions as set forth in subparagraphs (a)
 and (c) of the Commercial Computer Software - Restricted
 Rights clause in FAR 52.227-19.
  
 Gaussian, Inc.
 340 Quinnipiac St., Bldg. 40, Wallingford CT 06492
  
  
 ---------------------------------------------------------------
 Warning -- This program may not be used in any manner that
 competes with the business of Gaussian, Inc. or will provide
 assistance to any competitor of Gaussian, Inc.  The licensee
 of this program is prohibited from giving any competitor of
 Gaussian, Inc. access to this program.  By using this program,
 the user acknowledges that Gaussian, Inc. is engaged in the
 business of creating and licensing software in the field of
 computational chemistry and represents and warrants to the
 licensee that it is not a competitor of Gaussian, Inc. and that
 it will not use this program in any manner prohibited above.
 ---------------------------------------------------------------
  

 Cite this work as:
 Gaussian 16, Revision C.01,
 M. J. Frisch, G. W. Trucks, H. B. Schlegel, G. E. Scuseria, 
 M. A. Robb, J. R. Cheeseman, G. Scalmani, V. Barone, 
 G. A. Petersson, H. Nakatsuji, X. Li, M. Caricato, A. V. Marenich, 
 J. Bloino, B. G. Janesko, R. Gomperts, B. Mennucci, H. P. Hratchian, 
 J. V. Ortiz, A. F. Izmaylov, J. L. Sonnenberg, D. Williams-Young, 
 F. Ding, F. Lipparini, F. Egidi, J. Goings, B. Peng, A. Petrone, 
 T. Henderson, D. Ranasinghe, V. G. Zakrzewski, J. Gao, N. Rega, 
 G. Zheng, W. Liang, M. Hada, M. Ehara, K. Toyota, R. Fukuda, 
 J. Hasegawa, M. Ishida, T. Nakajima, Y. Honda, O. Kitao, H. Nakai, 
 T. Vreven, K. Throssell, J. A. Montgomery, Jr., J. E. Peralta, 
 F. Ogliaro, M. J. Bearpark, J. J. Heyd, E. N. Brothers, K. N. Kudin, 
 V. N. Staroverov, T. A. Keith, R. Kobayashi, J. Normand, 
 K. Raghavachari, A. P. Rendell, J. C. Burant, S. S. Iyengar, 
 J. Tomasi, M. Cossi, J. M. Millam, M. Klene, C. Adamo, R. Cammi, 
 J. W. Ochterski, R. L. Martin, K. Morokuma, O. Farkas, 
 J. B. Foresman, and D. J. Fox, Gaussian, Inc., Wallingford CT, 2019.
 
 ******************************************
 Gaussian 16:  ES64L-G16RevC.01  3-Jul-2019
                26-Feb-2024 
 ******************************************
 %nproc=40
 Will use up to   40 processors via shared memory.
 %mem=56GB
 ------------------------------------------
 #p opt freq b3lyp/def2svpp em=gd3bj nosymm
 ------------------------------------------
 1/18=20,19=15,26=3,38=1/1,3;
 2/9=110,12=2,15=1,17=6,18=5,40=1/2;
 3/5=43,7=202,11=2,25=1,30=1,71=1,74=-5,124=41/1,2,3;
 4//1;
 5/5=2,38=5/2;
 6/7=2,8=2,9=2,10=2,28=1/1;
 7/30=1/1,2,3,16;
 1/18=20,19=15,26=3/3(2);
 2/9=110,15=1/2;
 99//99;
 2/9=110,15=1/2;
 3/5=43,7=202,11=2,25=1,30=1,71=1,74=-5,124=41/1,2,3;
 4/5=5,16=3,69=1/1;
 5/5=2,38=5/2;
 7/30=1/1,2,3,16;
 1/18=20,19=15,26=3/3(-5);
 2/9=110,15=1/2;
 6/7=2,8=2,9=2,10=2,19=2,28=1/1;
 99/9=1/99;
 Leave Link    1 at Mon Feb 26 12:36:23 2024, MaxMem=  7516192768 cpu:               1.3 elap:               0.0
 (Enter /public/apps/g16-C01//g16/l101.exe)
 ----------------------
 $$$$Singlemol####0????
 ----------------------
 Symbolic Z-matrix:
 Charge =  0 Multiplicity = 1
 O                    -0.13333   1.9785    0.43171 
 C                     0.14231   0.8519    0.03063 
 N                     1.37531   0.46014  -0.37625 
 C                     2.56537   1.16513  -0.34297 
 C                     2.66598   2.45214   0.18493 
 C                     3.88115   3.10692   0.21448 
 C                     5.02611   2.49728  -0.27816 
 C                     4.94523   1.22449  -0.80239 
 C                     3.72849   0.54234  -0.84557 
 C                     3.703    -0.79197  -1.42103 
 N                     2.6601   -1.51     -1.59264 
 C                     3.06013  -2.76058  -2.20053 
 C                     2.84275  -3.93508  -1.28949 
 C                     1.6401   -4.4814   -0.88717 
 C                     1.66001  -5.55318  -0.0078 
 C                     2.86325  -6.06311   0.45273 
 C                     4.06896  -5.51572   0.04059 
 C                     4.05275  -4.44576  -0.83423 
 C                     5.22565  -3.71444  -1.41819 
 C                     4.60697  -2.63117  -2.32213 
 O                     4.87694  -1.31999  -1.83845 
 C                    -0.92649  -0.16132  -0.06458 
 C                    -0.69234  -1.53157  -0.14664 
 C                    -1.75635  -2.40905  -0.22366 
 C                    -3.05533  -1.92228  -0.2394 
 C                    -3.29442  -0.564    -0.1526 
 C                    -2.23942   0.33629  -0.03653 
 P                    -2.47869   2.15303   0.06802 
 C                    -2.48463   2.40258   1.88215 
 C                    -2.18274   1.41568   2.81049 
 C                    -2.18861   1.7115    4.16272 
 C                    -2.49325   2.98945   4.59902 
 C                    -2.7885    3.98006   3.67615 
 C                    -2.77901   3.68811   2.32568 
 C                    -4.31299   2.19099  -0.21055 
 C                    -5.28667   2.17097   0.78179 
 C                    -6.62719   2.24574   0.44618 
 C                    -7.01267   2.34323  -0.88048 
 C                    -6.05041   2.36998  -1.87676 
 C                    -4.71184   2.30223  -1.53981 
 H                     1.48394  -0.46309  -0.81133 
 H                     1.77882   2.92951   0.56658 
 H                     3.93486   4.10379   0.62556 
 H                     5.9735    3.01347  -0.25376 
 H                     5.82383   0.73422  -1.19226 
 H                     2.53508  -2.87743  -3.15438 
 H                     0.7085   -4.08225  -1.25811 
 H                     0.73083  -5.99541   0.31959 
 H                     2.86321  -6.89841   1.13716 
 H                     5.00554  -5.91896   0.3963 
 H                     5.83207  -3.24496  -0.64044 
 H                     5.86968  -4.38662  -1.98698 
 H                     4.97627  -2.69031  -3.34908 
 H                     0.31586  -1.91871  -0.12228 
 H                    -1.5787   -3.47368  -0.26692 
 H                    -3.88721  -2.60839  -0.30723 
 H                    -4.31144  -0.20159  -0.15841 
 H                    -1.94278   0.41413   2.4817 
 H                    -1.95527   0.9373    4.88047 
 H                    -2.4981    3.21408   5.65597 
 H                    -3.02212   4.98045   4.01198 
 H                    -3.0046    4.45626   1.59796 
 H                    -4.99783   2.08974   1.82045 
 H                    -7.37635   2.22608   1.22544 
 H                    -8.06069   2.40199  -1.13687 
 H                    -6.34607   2.45051  -2.91331 
 H                    -3.95169   2.33005  -2.31036 
 
 ITRead=  0  0  0  0  0  0  0  0  0  0  0  0  0  0  0  0  0  0  0  0
 ITRead=  0  0  0  0  0  0  0  0  0  0  0  0  0  0  0  0  0  0  0  0
 ITRead=  0  0  0  0  0  0  0  0  0  0  0  0  0  0  0  0  0  0  0  0
 ITRead=  0  0  0  0  0  0  0
 MicOpt= -1 -1 -1 -1 -1 -1 -1 -1 -1 -1 -1 -1 -1 -1 -1 -1 -1 -1 -1 -1
 MicOpt= -1 -1 -1 -1 -1 -1 -1 -1 -1 -1 -1 -1 -1 -1 -1 -1 -1 -1 -1 -1
 MicOpt= -1 -1 -1 -1 -1 -1 -1 -1 -1 -1 -1 -1 -1 -1 -1 -1 -1 -1 -1 -1
 MicOpt= -1 -1 -1 -1 -1 -1 -1
 NAtoms=     67 NQM=       67 NQMF=       0 NMMI=      0 NMMIF=      0
                NMic=       0 NMicF=      0.
                    Isotopes and Nuclear Properties:
 (Nuclear quadrupole moments (NQMom) in fm**2, nuclear magnetic moments (NMagM)
  in nuclear magnetons)

  Atom         1           2           3           4           5           6           7           8           9          10
 IAtWgt=          16          12          14          12          12          12          12          12          12          12
 AtmWgt=  15.9949146  12.0000000  14.0030740  12.0000000  12.0000000  12.0000000  12.0000000  12.0000000  12.0000000  12.0000000
 NucSpn=           0           0           2           0           0           0           0           0           0           0
 AtZEff=  -0.0000000  -0.0000000  -0.0000000  -0.0000000  -0.0000000  -0.0000000  -0.0000000  -0.0000000  -0.0000000  -0.0000000
 NQMom=    0.0000000   0.0000000   2.0440000   0.0000000   0.0000000   0.0000000   0.0000000   0.0000000   0.0000000   0.0000000
 NMagM=    0.0000000   0.0000000   0.4037610   0.0000000   0.0000000   0.0000000   0.0000000   0.0000000   0.0000000   0.0000000
 AtZNuc=   8.0000000   6.0000000   7.0000000   6.0000000   6.0000000   6.0000000   6.0000000   6.0000000   6.0000000   6.0000000

  Atom        11          12          13          14          15          16          17          18          19          20
 IAtWgt=          14          12          12          12          12          12          12          12          12          12
 AtmWgt=  14.0030740  12.0000000  12.0000000  12.0000000  12.0000000  12.0000000  12.0000000  12.0000000  12.0000000  12.0000000
 NucSpn=           2           0           0           0           0           0           0           0           0           0
 AtZEff=  -0.0000000  -0.0000000  -0.0000000  -0.0000000  -0.0000000  -0.0000000  -0.0000000  -0.0000000  -0.0000000  -0.0000000
 NQMom=    2.0440000   0.0000000   0.0000000   0.0000000   0.0000000   0.0000000   0.0000000   0.0000000   0.0000000   0.0000000
 NMagM=    0.4037610   0.0000000   0.0000000   0.0000000   0.0000000   0.0000000   0.0000000   0.0000000   0.0000000   0.0000000
 AtZNuc=   7.0000000   6.0000000   6.0000000   6.0000000   6.0000000   6.0000000   6.0000000   6.0000000   6.0000000   6.0000000

  Atom        21          22          23          24          25          26          27          28          29          30
 IAtWgt=          16          12          12          12          12          12          12          31          12          12
 AtmWgt=  15.9949146  12.0000000  12.0000000  12.0000000  12.0000000  12.0000000  12.0000000  30.9737634  12.0000000  12.0000000
 NucSpn=           0           0           0           0           0           0           0           1           0           0
 AtZEff=  -0.0000000  -0.0000000  -0.0000000  -0.0000000  -0.0000000  -0.0000000  -0.0000000  -0.0000000  -0.0000000  -0.0000000
 NQMom=    0.0000000   0.0000000   0.0000000   0.0000000   0.0000000   0.0000000   0.0000000   0.0000000   0.0000000   0.0000000
 NMagM=    0.0000000   0.0000000   0.0000000   0.0000000   0.0000000   0.0000000   0.0000000   1.1316000   0.0000000   0.0000000
 AtZNuc=   8.0000000   6.0000000   6.0000000   6.0000000   6.0000000   6.0000000   6.0000000  15.0000000   6.0000000   6.0000000

  Atom        31          32          33          34          35          36          37          38          39          40
 IAtWgt=          12          12          12          12          12          12          12          12          12          12
 AtmWgt=  12.0000000  12.0000000  12.0000000  12.0000000  12.0000000  12.0000000  12.0000000  12.0000000  12.0000000  12.0000000
 NucSpn=           0           0           0           0           0           0           0           0           0           0
 AtZEff=  -0.0000000  -0.0000000  -0.0000000  -0.0000000  -0.0000000  -0.0000000  -0.0000000  -0.0000000  -0.0000000  -0.0000000
 NQMom=    0.0000000   0.0000000   0.0000000   0.0000000   0.0000000   0.0000000   0.0000000   0.0000000   0.0000000   0.0000000
 NMagM=    0.0000000   0.0000000   0.0000000   0.0000000   0.0000000   0.0000000   0.0000000   0.0000000   0.0000000   0.0000000
 AtZNuc=   6.0000000   6.0000000   6.0000000   6.0000000   6.0000000   6.0000000   6.0000000   6.0000000   6.0000000   6.0000000

  Atom        41          42          43          44          45          46          47          48          49          50
 IAtWgt=           1           1           1           1           1           1           1           1           1           1
 AtmWgt=   1.0078250   1.0078250   1.0078250   1.0078250   1.0078250   1.0078250   1.0078250   1.0078250   1.0078250   1.0078250
 NucSpn=           1           1           1           1           1           1           1           1           1           1
 AtZEff=  -0.0000000  -0.0000000  -0.0000000  -0.0000000  -0.0000000  -0.0000000  -0.0000000  -0.0000000  -0.0000000  -0.0000000
 NQMom=    0.0000000   0.0000000   0.0000000   0.0000000   0.0000000   0.0000000   0.0000000   0.0000000   0.0000000   0.0000000
 NMagM=    2.7928460   2.7928460   2.7928460   2.7928460   2.7928460   2.7928460   2.7928460   2.7928460   2.7928460   2.7928460
 AtZNuc=   1.0000000   1.0000000   1.0000000   1.0000000   1.0000000   1.0000000   1.0000000   1.0000000   1.0000000   1.0000000

  Atom        51          52          53          54          55          56          57          58          59          60
 IAtWgt=           1           1           1           1           1           1           1           1           1           1
 AtmWgt=   1.0078250   1.0078250   1.0078250   1.0078250   1.0078250   1.0078250   1.0078250   1.0078250   1.0078250   1.0078250
 NucSpn=           1           1           1           1           1           1           1           1           1           1
 AtZEff=  -0.0000000  -0.0000000  -0.0000000  -0.0000000  -0.0000000  -0.0000000  -0.0000000  -0.0000000  -0.0000000  -0.0000000
 NQMom=    0.0000000   0.0000000   0.0000000   0.0000000   0.0000000   0.0000000   0.0000000   0.0000000   0.0000000   0.0000000
 NMagM=    2.7928460   2.7928460   2.7928460   2.7928460   2.7928460   2.7928460   2.7928460   2.7928460   2.7928460   2.7928460
 AtZNuc=   1.0000000   1.0000000   1.0000000   1.0000000   1.0000000   1.0000000   1.0000000   1.0000000   1.0000000   1.0000000

  Atom        61          62          63          64          65          66          67
 IAtWgt=           1           1           1           1           1           1           1
 AtmWgt=   1.0078250   1.0078250   1.0078250   1.0078250   1.0078250   1.0078250   1.0078250
 NucSpn=           1           1           1           1           1           1           1
 AtZEff=  -0.0000000  -0.0000000  -0.0000000  -0.0000000  -0.0000000  -0.0000000  -0.0000000
 NQMom=    0.0000000   0.0000000   0.0000000   0.0000000   0.0000000   0.0000000   0.0000000
 NMagM=    2.7928460   2.7928460   2.7928460   2.7928460   2.7928460   2.7928460   2.7928460
 AtZNuc=   1.0000000   1.0000000   1.0000000   1.0000000   1.0000000   1.0000000   1.0000000
 Leave Link  101 at Mon Feb 26 12:36:23 2024, MaxMem=  7516192768 cpu:               6.5 elap:               0.2
 (Enter /public/apps/g16-C01//g16/l103.exe)

 GradGradGradGradGradGradGradGradGradGradGradGradGradGradGradGradGradGrad
 Berny optimization.
 Initialization pass.
                           ----------------------------
                           !    Initial Parameters    !
                           ! (Angstroms and Degrees)  !
 --------------------------                            --------------------------
 ! Name  Definition              Value          Derivative Info.                !
 --------------------------------------------------------------------------------
 ! R1    R(1,2)                  1.2272         estimate D2E/DX2                !
 ! R2    R(2,3)                  1.3562         estimate D2E/DX2                !
 ! R3    R(2,22)                 1.4758         estimate D2E/DX2                !
 ! R4    R(3,4)                  1.3836         estimate D2E/DX2                !
 ! R5    R(3,41)                 1.0264         estimate D2E/DX2                !
 ! R6    R(4,5)                  1.3947         estimate D2E/DX2                !
 ! R7    R(4,9)                  1.4119         estimate D2E/DX2                !
 ! R8    R(5,6)                  1.3807         estimate D2E/DX2                !
 ! R9    R(5,42)                 1.0773         estimate D2E/DX2                !
 ! R10   R(6,7)                  1.3875         estimate D2E/DX2                !
 ! R11   R(6,43)                 1.0796         estimate D2E/DX2                !
 ! R12   R(7,8)                  1.3789         estimate D2E/DX2                !
 ! R13   R(7,44)                 1.0792         estimate D2E/DX2                !
 ! R14   R(8,9)                  1.3956         estimate D2E/DX2                !
 ! R15   R(8,45)                 1.079          estimate D2E/DX2                !
 ! R16   R(9,10)                 1.4533         estimate D2E/DX2                !
 ! R17   R(10,11)                1.2778         estimate D2E/DX2                !
 ! R18   R(10,21)                1.3532         estimate D2E/DX2                !
 ! R19   R(11,12)                1.4469         estimate D2E/DX2                !
 ! R20   R(12,13)                1.5022         estimate D2E/DX2                !
 ! R21   R(12,20)                1.557          estimate D2E/DX2                !
 ! R22   R(12,46)                1.0951         estimate D2E/DX2                !
 ! R23   R(13,14)                1.3808         estimate D2E/DX2                !
 ! R24   R(13,18)                1.39           estimate D2E/DX2                !
 ! R25   R(14,15)                1.3865         estimate D2E/DX2                !
 ! R26   R(14,47)                1.0793         estimate D2E/DX2                !
 ! R27   R(15,16)                1.3856         estimate D2E/DX2                !
 ! R28   R(15,48)                1.0799         estimate D2E/DX2                !
 ! R29   R(16,17)                1.3868         estimate D2E/DX2                !
 ! R30   R(16,49)                1.0799         estimate D2E/DX2                !
 ! R31   R(17,18)                1.3822         estimate D2E/DX2                !
 ! R32   R(17,50)                1.08           estimate D2E/DX2                !
 ! R33   R(18,19)                1.5005         estimate D2E/DX2                !
 ! R34   R(19,20)                1.5406         estimate D2E/DX2                !
 ! R35   R(19,51)                1.0923         estimate D2E/DX2                !
 ! R36   R(19,52)                1.0909         estimate D2E/DX2                !
 ! R37   R(20,21)                1.4234         estimate D2E/DX2                !
 ! R38   R(20,53)                1.0929         estimate D2E/DX2                !
 ! R39   R(22,23)                1.3925         estimate D2E/DX2                !
 ! R40   R(22,27)                1.4043         estimate D2E/DX2                !
 ! R41   R(23,24)                1.3813         estimate D2E/DX2                !
 ! R42   R(23,54)                1.0802         estimate D2E/DX2                !
 ! R43   R(24,25)                1.3873         estimate D2E/DX2                !
 ! R44   R(24,55)                1.0802         estimate D2E/DX2                !
 ! R45   R(25,26)                1.3819         estimate D2E/DX2                !
 ! R46   R(25,56)                1.0804         estimate D2E/DX2                !
 ! R47   R(26,27)                1.3918         estimate D2E/DX2                !
 ! R48   R(26,57)                1.0797         estimate D2E/DX2                !
 ! R49   R(27,28)                1.8354         estimate D2E/DX2                !
 ! R50   R(28,29)                1.8312         estimate D2E/DX2                !
 ! R51   R(28,35)                1.8557         estimate D2E/DX2                !
 ! R52   R(29,30)                1.3881         estimate D2E/DX2                !
 ! R53   R(29,34)                1.3914         estimate D2E/DX2                !
 ! R54   R(30,31)                1.3842         estimate D2E/DX2                !
 ! R55   R(30,58)                1.0811         estimate D2E/DX2                !
 ! R56   R(31,32)                1.3843         estimate D2E/DX2                !
 ! R57   R(31,59)                1.0812         estimate D2E/DX2                !
 ! R58   R(32,33)                1.3857         estimate D2E/DX2                !
 ! R59   R(32,60)                1.0806         estimate D2E/DX2                !
 ! R60   R(33,34)                1.3817         estimate D2E/DX2                !
 ! R61   R(33,61)                1.0808         estimate D2E/DX2                !
 ! R62   R(34,62)                1.0819         estimate D2E/DX2                !
 ! R63   R(35,36)                1.3904         estimate D2E/DX2                !
 ! R64   R(35,40)                1.3923         estimate D2E/DX2                !
 ! R65   R(36,37)                1.3839         estimate D2E/DX2                !
 ! R66   R(36,63)                1.0811         estimate D2E/DX2                !
 ! R67   R(37,38)                1.385          estimate D2E/DX2                !
 ! R68   R(37,64)                1.0811         estimate D2E/DX2                !
 ! R69   R(38,39)                1.3854         estimate D2E/DX2                !
 ! R70   R(38,65)                1.0805         estimate D2E/DX2                !
 ! R71   R(39,40)                1.382          estimate D2E/DX2                !
 ! R72   R(39,66)                1.0809         estimate D2E/DX2                !
 ! R73   R(40,67)                1.0828         estimate D2E/DX2                !
 ! A1    A(1,2,3)              124.5709         estimate D2E/DX2                !
 ! A2    A(1,2,22)             119.2542         estimate D2E/DX2                !
 ! A3    A(3,2,22)             116.1514         estimate D2E/DX2                !
 ! A4    A(2,3,4)              128.8713         estimate D2E/DX2                !
 ! A5    A(2,3,41)             118.8966         estimate D2E/DX2                !
 ! A6    A(4,3,41)             112.1782         estimate D2E/DX2                !
 ! A7    A(3,4,5)              122.775          estimate D2E/DX2                !
 ! A8    A(3,4,9)              118.3763         estimate D2E/DX2                !
 ! A9    A(5,4,9)              118.8401         estimate D2E/DX2                !
 ! A10   A(4,5,6)              120.6122         estimate D2E/DX2                !
 ! A11   A(4,5,42)             118.9194         estimate D2E/DX2                !
 ! A12   A(6,5,42)             120.4681         estimate D2E/DX2                !
 ! A13   A(5,6,7)              120.6829         estimate D2E/DX2                !
 ! A14   A(5,6,43)             119.3293         estimate D2E/DX2                !
 ! A15   A(7,6,43)             119.9878         estimate D2E/DX2                !
 ! A16   A(6,7,8)              119.4814         estimate D2E/DX2                !
 ! A17   A(6,7,44)             120.4128         estimate D2E/DX2                !
 ! A18   A(8,7,44)             120.1058         estimate D2E/DX2                !
 ! A19   A(7,8,9)              120.9361         estimate D2E/DX2                !
 ! A20   A(7,8,45)             120.5977         estimate D2E/DX2                !
 ! A21   A(9,8,45)             118.4659         estimate D2E/DX2                !
 ! A22   A(4,9,8)              119.4472         estimate D2E/DX2                !
 ! A23   A(4,9,10)             122.1066         estimate D2E/DX2                !
 ! A24   A(8,9,10)             118.4445         estimate D2E/DX2                !
 ! A25   A(9,10,11)            125.6917         estimate D2E/DX2                !
 ! A26   A(9,10,21)            117.721          estimate D2E/DX2                !
 ! A27   A(11,10,21)           116.5746         estimate D2E/DX2                !
 ! A28   A(10,11,12)           108.4499         estimate D2E/DX2                !
 ! A29   A(11,12,13)           112.393          estimate D2E/DX2                !
 ! A30   A(11,12,20)           103.6297         estimate D2E/DX2                !
 ! A31   A(11,12,46)           109.0033         estimate D2E/DX2                !
 ! A32   A(13,12,20)           104.8392         estimate D2E/DX2                !
 ! A33   A(13,12,46)           112.0519         estimate D2E/DX2                !
 ! A34   A(20,12,46)           114.6566         estimate D2E/DX2                !
 ! A35   A(12,13,14)           127.7389         estimate D2E/DX2                !
 ! A36   A(12,13,18)           111.0943         estimate D2E/DX2                !
 ! A37   A(14,13,18)           121.1564         estimate D2E/DX2                !
 ! A38   A(13,14,15)           118.5628         estimate D2E/DX2                !
 ! A39   A(13,14,47)           120.3535         estimate D2E/DX2                !
 ! A40   A(15,14,47)           121.0824         estimate D2E/DX2                !
 ! A41   A(14,15,16)           120.5141         estimate D2E/DX2                !
 ! A42   A(14,15,48)           119.7678         estimate D2E/DX2                !
 ! A43   A(16,15,48)           119.718          estimate D2E/DX2                !
 ! A44   A(15,16,17)           120.7273         estimate D2E/DX2                !
 ! A45   A(15,16,49)           119.6886         estimate D2E/DX2                !
 ! A46   A(17,16,49)           119.5836         estimate D2E/DX2                !
 ! A47   A(16,17,18)           118.9112         estimate D2E/DX2                !
 ! A48   A(16,17,50)           120.579          estimate D2E/DX2                !
 ! A49   A(18,17,50)           120.5098         estimate D2E/DX2                !
 ! A50   A(13,18,17)           120.1268         estimate D2E/DX2                !
 ! A51   A(13,18,19)           111.9568         estimate D2E/DX2                !
 ! A52   A(17,18,19)           127.9116         estimate D2E/DX2                !
 ! A53   A(18,19,20)           104.9007         estimate D2E/DX2                !
 ! A54   A(18,19,51)           111.4901         estimate D2E/DX2                !
 ! A55   A(18,19,52)           111.3499         estimate D2E/DX2                !
 ! A56   A(20,19,51)           109.7875         estimate D2E/DX2                !
 ! A57   A(20,19,52)           111.372          estimate D2E/DX2                !
 ! A58   A(51,19,52)           107.9586         estimate D2E/DX2                !
 ! A59   A(12,20,19)           107.1402         estimate D2E/DX2                !
 ! A60   A(12,20,21)           103.7953         estimate D2E/DX2                !
 ! A61   A(12,20,53)           113.865          estimate D2E/DX2                !
 ! A62   A(19,20,21)           111.85           estimate D2E/DX2                !
 ! A63   A(19,20,53)           112.1841         estimate D2E/DX2                !
 ! A64   A(21,20,53)           107.7609         estimate D2E/DX2                !
 ! A65   A(10,21,20)           107.4408         estimate D2E/DX2                !
 ! A66   A(2,22,23)            123.8895         estimate D2E/DX2                !
 ! A67   A(2,22,27)            115.6269         estimate D2E/DX2                !
 ! A68   A(23,22,27)           120.4674         estimate D2E/DX2                !
 ! A69   A(22,23,24)           119.9237         estimate D2E/DX2                !
 ! A70   A(22,23,54)           120.547          estimate D2E/DX2                !
 ! A71   A(24,23,54)           119.5062         estimate D2E/DX2                !
 ! A72   A(23,24,25)           119.934          estimate D2E/DX2                !
 ! A73   A(23,24,55)           120.1081         estimate D2E/DX2                !
 ! A74   A(25,24,55)           119.9573         estimate D2E/DX2                !
 ! A75   A(24,25,26)           120.4093         estimate D2E/DX2                !
 ! A76   A(24,25,56)           119.9224         estimate D2E/DX2                !
 ! A77   A(26,25,56)           119.6637         estimate D2E/DX2                !
 ! A78   A(25,26,27)           120.6574         estimate D2E/DX2                !
 ! A79   A(25,26,57)           119.509          estimate D2E/DX2                !
 ! A80   A(27,26,57)           119.8256         estimate D2E/DX2                !
 ! A81   A(22,27,26)           118.5424         estimate D2E/DX2                !
 ! A82   A(22,27,28)           118.2779         estimate D2E/DX2                !
 ! A83   A(26,27,28)           123.1081         estimate D2E/DX2                !
 ! A84   A(27,28,29)           101.0546         estimate D2E/DX2                !
 ! A85   A(27,28,35)            98.0798         estimate D2E/DX2                !
 ! A86   A(29,28,35)            98.2051         estimate D2E/DX2                !
 ! A87   A(28,29,30)           124.3977         estimate D2E/DX2                !
 ! A88   A(28,29,34)           116.256          estimate D2E/DX2                !
 ! A89   A(30,29,34)           119.3206         estimate D2E/DX2                !
 ! A90   A(29,30,31)           120.03           estimate D2E/DX2                !
 ! A91   A(29,30,58)           120.2333         estimate D2E/DX2                !
 ! A92   A(31,30,58)           119.7367         estimate D2E/DX2                !
 ! A93   A(30,31,32)           120.4054         estimate D2E/DX2                !
 ! A94   A(30,31,59)           119.6412         estimate D2E/DX2                !
 ! A95   A(32,31,59)           119.9533         estimate D2E/DX2                !
 ! A96   A(31,32,33)           119.7972         estimate D2E/DX2                !
 ! A97   A(31,32,60)           120.0791         estimate D2E/DX2                !
 ! A98   A(33,32,60)           120.1235         estimate D2E/DX2                !
 ! A99   A(32,33,34)           119.896          estimate D2E/DX2                !
 ! A100  A(32,33,61)           120.0532         estimate D2E/DX2                !
 ! A101  A(34,33,61)           120.0504         estimate D2E/DX2                !
 ! A102  A(29,34,33)           120.5463         estimate D2E/DX2                !
 ! A103  A(29,34,62)           119.0573         estimate D2E/DX2                !
 ! A104  A(33,34,62)           120.396          estimate D2E/DX2                !
 ! A105  A(28,35,36)           125.7871         estimate D2E/DX2                !
 ! A106  A(28,35,40)           115.3488         estimate D2E/DX2                !
 ! A107  A(36,35,40)           118.8126         estimate D2E/DX2                !
 ! A108  A(35,36,37)           120.2964         estimate D2E/DX2                !
 ! A109  A(35,36,63)           119.978          estimate D2E/DX2                !
 ! A110  A(37,36,63)           119.7242         estimate D2E/DX2                !
 ! A111  A(36,37,38)           120.378          estimate D2E/DX2                !
 ! A112  A(36,37,64)           119.6975         estimate D2E/DX2                !
 ! A113  A(38,37,64)           119.9244         estimate D2E/DX2                !
 ! A114  A(37,38,39)           119.796          estimate D2E/DX2                !
 ! A115  A(37,38,65)           120.0712         estimate D2E/DX2                !
 ! A116  A(39,38,65)           120.1325         estimate D2E/DX2                !
 ! A117  A(38,39,40)           119.7671         estimate D2E/DX2                !
 ! A118  A(38,39,66)           120.0723         estimate D2E/DX2                !
 ! A119  A(40,39,66)           120.1592         estimate D2E/DX2                !
 ! A120  A(35,40,39)           120.9427         estimate D2E/DX2                !
 ! A121  A(35,40,67)           118.7104         estimate D2E/DX2                !
 ! A122  A(39,40,67)           120.3462         estimate D2E/DX2                !
 ! D1    D(1,2,3,4)              5.1127         estimate D2E/DX2                !
 ! D2    D(1,2,3,41)          -171.9887         estimate D2E/DX2                !
 ! D3    D(22,2,3,4)          -176.6708         estimate D2E/DX2                !
 ! D4    D(22,2,3,41)            6.2278         estimate D2E/DX2                !
 ! D5    D(1,2,22,23)         -161.7619         estimate D2E/DX2                !
 ! D6    D(1,2,22,27)           16.7768         estimate D2E/DX2                !
 ! D7    D(3,2,22,23)           19.9213         estimate D2E/DX2                !
 ! D8    D(3,2,22,27)         -161.54           estimate D2E/DX2                !
 ! D9    D(2,3,4,5)              1.8921         estimate D2E/DX2                !
 ! D10   D(2,3,4,9)           -179.1909         estimate D2E/DX2                !
 ! D11   D(41,3,4,5)           179.1518         estimate D2E/DX2                !
 ! D12   D(41,3,4,9)            -1.9312         estimate D2E/DX2                !
 ! D13   D(3,4,5,6)            178.9837         estimate D2E/DX2                !
 ! D14   D(3,4,5,42)            -1.2364         estimate D2E/DX2                !
 ! D15   D(9,4,5,6)              0.0715         estimate D2E/DX2                !
 ! D16   D(9,4,5,42)           179.8513         estimate D2E/DX2                !
 ! D17   D(3,4,9,8)           -178.9329         estimate D2E/DX2                !
 ! D18   D(3,4,9,10)             1.548          estimate D2E/DX2                !
 ! D19   D(5,4,9,8)              0.0276         estimate D2E/DX2                !
 ! D20   D(5,4,9,10)          -179.4915         estimate D2E/DX2                !
 ! D21   D(4,5,6,7)             -0.1012         estimate D2E/DX2                !
 ! D22   D(4,5,6,43)           179.8467         estimate D2E/DX2                !
 ! D23   D(42,5,6,7)          -179.8777         estimate D2E/DX2                !
 ! D24   D(42,5,6,43)            0.0703         estimate D2E/DX2                !
 ! D25   D(5,6,7,8)              0.0292         estimate D2E/DX2                !
 ! D26   D(5,6,7,44)           179.9414         estimate D2E/DX2                !
 ! D27   D(43,6,7,8)          -179.9184         estimate D2E/DX2                !
 ! D28   D(43,6,7,44)           -0.0063         estimate D2E/DX2                !
 ! D29   D(6,7,8,9)              0.0715         estimate D2E/DX2                !
 ! D30   D(6,7,8,45)           179.8719         estimate D2E/DX2                !
 ! D31   D(44,7,8,9)          -179.8409         estimate D2E/DX2                !
 ! D32   D(44,7,8,45)           -0.0405         estimate D2E/DX2                !
 ! D33   D(7,8,9,4)             -0.0996         estimate D2E/DX2                !
 ! D34   D(7,8,9,10)           179.4371         estimate D2E/DX2                !
 ! D35   D(45,8,9,4)          -179.9041         estimate D2E/DX2                !
 ! D36   D(45,8,9,10)           -0.3674         estimate D2E/DX2                !
 ! D37   D(4,9,10,11)            3.3337         estimate D2E/DX2                !
 ! D38   D(4,9,10,21)         -178.011          estimate D2E/DX2                !
 ! D39   D(8,9,10,11)         -176.19           estimate D2E/DX2                !
 ! D40   D(8,9,10,21)            2.4653         estimate D2E/DX2                !
 ! D41   D(9,10,11,12)         179.5563         estimate D2E/DX2                !
 ! D42   D(21,10,11,12)          0.8873         estimate D2E/DX2                !
 ! D43   D(9,10,21,20)         178.3699         estimate D2E/DX2                !
 ! D44   D(11,10,21,20)         -2.8513         estimate D2E/DX2                !
 ! D45   D(10,11,12,13)        113.9077         estimate D2E/DX2                !
 ! D46   D(10,11,12,20)          1.2685         estimate D2E/DX2                !
 ! D47   D(10,11,12,46)       -121.2463         estimate D2E/DX2                !
 ! D48   D(11,12,13,14)         69.6379         estimate D2E/DX2                !
 ! D49   D(11,12,13,18)       -109.1865         estimate D2E/DX2                !
 ! D50   D(20,12,13,14)       -178.4724         estimate D2E/DX2                !
 ! D51   D(20,12,13,18)          2.7032         estimate D2E/DX2                !
 ! D52   D(46,12,13,14)        -53.5155         estimate D2E/DX2                !
 ! D53   D(46,12,13,18)        127.6601         estimate D2E/DX2                !
 ! D54   D(11,12,20,19)        115.7065         estimate D2E/DX2                !
 ! D55   D(11,12,20,21)         -2.7681         estimate D2E/DX2                !
 ! D56   D(11,12,20,53)       -119.6467         estimate D2E/DX2                !
 ! D57   D(13,12,20,19)         -2.3124         estimate D2E/DX2                !
 ! D58   D(13,12,20,21)       -120.7871         estimate D2E/DX2                !
 ! D59   D(13,12,20,53)        122.3344         estimate D2E/DX2                !
 ! D60   D(46,12,20,19)       -125.6097         estimate D2E/DX2                !
 ! D61   D(46,12,20,21)        115.9157         estimate D2E/DX2                !
 ! D62   D(46,12,20,53)         -0.9628         estimate D2E/DX2                !
 ! D63   D(12,13,14,15)       -178.3761         estimate D2E/DX2                !
 ! D64   D(12,13,14,47)          2.026          estimate D2E/DX2                !
 ! D65   D(18,13,14,15)          0.3422         estimate D2E/DX2                !
 ! D66   D(18,13,14,47)       -179.2557         estimate D2E/DX2                !
 ! D67   D(12,13,18,17)        178.6749         estimate D2E/DX2                !
 ! D68   D(12,13,18,19)         -2.0637         estimate D2E/DX2                !
 ! D69   D(14,13,18,17)         -0.2388         estimate D2E/DX2                !
 ! D70   D(14,13,18,19)        179.0226         estimate D2E/DX2                !
 ! D71   D(13,14,15,16)         -0.1134         estimate D2E/DX2                !
 ! D72   D(13,14,15,48)        179.9979         estimate D2E/DX2                !
 ! D73   D(47,14,15,16)        179.4814         estimate D2E/DX2                !
 ! D74   D(47,14,15,48)         -0.4073         estimate D2E/DX2                !
 ! D75   D(14,15,16,17)         -0.2207         estimate D2E/DX2                !
 ! D76   D(14,15,16,49)       -179.9835         estimate D2E/DX2                !
 ! D77   D(48,15,16,17)        179.6681         estimate D2E/DX2                !
 ! D78   D(48,15,16,49)         -0.0947         estimate D2E/DX2                !
 ! D79   D(15,16,17,18)          0.3248         estimate D2E/DX2                !
 ! D80   D(15,16,17,50)       -179.6217         estimate D2E/DX2                !
 ! D81   D(49,16,17,18)       -179.9122         estimate D2E/DX2                !
 ! D82   D(49,16,17,50)          0.1414         estimate D2E/DX2                !
 ! D83   D(16,17,18,13)         -0.0977         estimate D2E/DX2                !
 ! D84   D(16,17,18,19)       -179.2294         estimate D2E/DX2                !
 ! D85   D(50,17,18,13)        179.8487         estimate D2E/DX2                !
 ! D86   D(50,17,18,19)          0.717          estimate D2E/DX2                !
 ! D87   D(13,18,19,20)          0.4779         estimate D2E/DX2                !
 ! D88   D(13,18,19,51)        119.2449         estimate D2E/DX2                !
 ! D89   D(13,18,19,52)       -120.1127         estimate D2E/DX2                !
 ! D90   D(17,18,19,20)        179.6682         estimate D2E/DX2                !
 ! D91   D(17,18,19,51)        -61.5648         estimate D2E/DX2                !
 ! D92   D(17,18,19,52)         59.0776         estimate D2E/DX2                !
 ! D93   D(18,19,20,12)          1.2003         estimate D2E/DX2                !
 ! D94   D(18,19,20,21)        114.3114         estimate D2E/DX2                !
 ! D95   D(18,19,20,53)       -124.461          estimate D2E/DX2                !
 ! D96   D(51,19,20,12)       -118.7078         estimate D2E/DX2                !
 ! D97   D(51,19,20,21)         -5.5966         estimate D2E/DX2                !
 ! D98   D(51,19,20,53)        115.631          estimate D2E/DX2                !
 ! D99   D(52,19,20,12)        121.7762         estimate D2E/DX2                !
 ! D100  D(52,19,20,21)       -125.1126         estimate D2E/DX2                !
 ! D101  D(52,19,20,53)         -3.885          estimate D2E/DX2                !
 ! D102  D(12,20,21,10)          3.2806         estimate D2E/DX2                !
 ! D103  D(19,20,21,10)       -111.8959         estimate D2E/DX2                !
 ! D104  D(53,20,21,10)        124.3514         estimate D2E/DX2                !
 ! D105  D(2,22,23,24)         179.5573         estimate D2E/DX2                !
 ! D106  D(2,22,23,54)           1.3124         estimate D2E/DX2                !
 ! D107  D(27,22,23,24)          1.0861         estimate D2E/DX2                !
 ! D108  D(27,22,23,54)       -177.1588         estimate D2E/DX2                !
 ! D109  D(2,22,27,26)         178.5803         estimate D2E/DX2                !
 ! D110  D(2,22,27,28)           1.5615         estimate D2E/DX2                !
 ! D111  D(23,22,27,26)         -2.8271         estimate D2E/DX2                !
 ! D112  D(23,22,27,28)       -179.8459         estimate D2E/DX2                !
 ! D113  D(22,23,24,25)          0.969          estimate D2E/DX2                !
 ! D114  D(22,23,24,55)       -178.7402         estimate D2E/DX2                !
 ! D115  D(54,23,24,25)        179.2322         estimate D2E/DX2                !
 ! D116  D(54,23,24,55)         -0.477          estimate D2E/DX2                !
 ! D117  D(23,24,25,26)         -1.2448         estimate D2E/DX2                !
 ! D118  D(23,24,25,56)        179.5353         estimate D2E/DX2                !
 ! D119  D(55,24,25,26)        178.4648         estimate D2E/DX2                !
 ! D120  D(55,24,25,56)         -0.755          estimate D2E/DX2                !
 ! D121  D(24,25,26,27)         -0.5573         estimate D2E/DX2                !
 ! D122  D(24,25,26,57)       -179.5243         estimate D2E/DX2                !
 ! D123  D(56,25,26,27)        178.6645         estimate D2E/DX2                !
 ! D124  D(56,25,26,57)         -0.3025         estimate D2E/DX2                !
 ! D125  D(25,26,27,22)          2.5615         estimate D2E/DX2                !
 ! D126  D(25,26,27,28)        179.4271         estimate D2E/DX2                !
 ! D127  D(57,26,27,22)       -178.4747         estimate D2E/DX2                !
 ! D128  D(57,26,27,28)         -1.6091         estimate D2E/DX2                !
 ! D129  D(22,27,28,29)        -88.6917         estimate D2E/DX2                !
 ! D130  D(22,27,28,35)        171.2525         estimate D2E/DX2                !
 ! D131  D(26,27,28,29)         94.4349         estimate D2E/DX2                !
 ! D132  D(26,27,28,35)         -5.6209         estimate D2E/DX2                !
 ! D133  D(27,28,29,30)          7.8175         estimate D2E/DX2                !
 ! D134  D(27,28,29,34)       -174.0455         estimate D2E/DX2                !
 ! D135  D(35,28,29,30)        107.7717         estimate D2E/DX2                !
 ! D136  D(35,28,29,34)        -74.0913         estimate D2E/DX2                !
 ! D137  D(27,28,35,36)         92.5336         estimate D2E/DX2                !
 ! D138  D(27,28,35,40)        -90.1201         estimate D2E/DX2                !
 ! D139  D(29,28,35,36)         -9.9487         estimate D2E/DX2                !
 ! D140  D(29,28,35,40)        167.3976         estimate D2E/DX2                !
 ! D141  D(28,29,30,31)        178.6817         estimate D2E/DX2                !
 ! D142  D(28,29,30,58)         -1.3453         estimate D2E/DX2                !
 ! D143  D(34,29,30,31)          0.5981         estimate D2E/DX2                !
 ! D144  D(34,29,30,58)       -179.4289         estimate D2E/DX2                !
 ! D145  D(28,29,34,33)       -179.0482         estimate D2E/DX2                !
 ! D146  D(28,29,34,62)          1.195          estimate D2E/DX2                !
 ! D147  D(30,29,34,33)         -0.8113         estimate D2E/DX2                !
 ! D148  D(30,29,34,62)        179.4318         estimate D2E/DX2                !
 ! D149  D(29,30,31,32)         -0.0583         estimate D2E/DX2                !
 ! D150  D(29,30,31,59)        179.8271         estimate D2E/DX2                !
 ! D151  D(58,30,31,32)        179.9685         estimate D2E/DX2                !
 ! D152  D(58,30,31,59)         -0.146          estimate D2E/DX2                !
 ! D153  D(30,31,32,33)         -0.2787         estimate D2E/DX2                !
 ! D154  D(30,31,32,60)        179.8845         estimate D2E/DX2                !
 ! D155  D(59,31,32,33)        179.8363         estimate D2E/DX2                !
 ! D156  D(59,31,32,60)         -0.0006         estimate D2E/DX2                !
 ! D157  D(31,32,33,34)          0.0683         estimate D2E/DX2                !
 ! D158  D(31,32,33,61)       -179.6968         estimate D2E/DX2                !
 ! D159  D(60,32,33,34)        179.9051         estimate D2E/DX2                !
 ! D160  D(60,32,33,61)          0.14           estimate D2E/DX2                !
 ! D161  D(32,33,34,29)          0.4796         estimate D2E/DX2                !
 ! D162  D(32,33,34,62)       -179.7669         estimate D2E/DX2                !
 ! D163  D(61,33,34,29)       -179.7553         estimate D2E/DX2                !
 ! D164  D(61,33,34,62)         -0.0017         estimate D2E/DX2                !
 ! D165  D(28,35,36,37)        177.9687         estimate D2E/DX2                !
 ! D166  D(28,35,36,63)         -2.4585         estimate D2E/DX2                !
 ! D167  D(40,35,36,37)          0.7058         estimate D2E/DX2                !
 ! D168  D(40,35,36,63)       -179.7213         estimate D2E/DX2                !
 ! D169  D(28,35,40,39)       -178.5929         estimate D2E/DX2                !
 ! D170  D(28,35,40,67)          1.707          estimate D2E/DX2                !
 ! D171  D(36,35,40,39)         -1.0496         estimate D2E/DX2                !
 ! D172  D(36,35,40,67)        179.2502         estimate D2E/DX2                !
 ! D173  D(35,36,37,38)         -0.0963         estimate D2E/DX2                !
 ! D174  D(35,36,37,64)        179.7982         estimate D2E/DX2                !
 ! D175  D(63,36,37,38)       -179.6702         estimate D2E/DX2                !
 ! D176  D(63,36,37,64)          0.2243         estimate D2E/DX2                !
 ! D177  D(36,37,38,39)         -0.1904         estimate D2E/DX2                !
 ! D178  D(36,37,38,65)       -179.9594         estimate D2E/DX2                !
 ! D179  D(64,37,38,39)        179.9154         estimate D2E/DX2                !
 ! D180  D(64,37,38,65)          0.1463         estimate D2E/DX2                !
 ! D181  D(37,38,39,40)         -0.1456         estimate D2E/DX2                !
 ! D182  D(37,38,39,66)       -179.7212         estimate D2E/DX2                !
 ! D183  D(65,38,39,40)        179.6233         estimate D2E/DX2                !
 ! D184  D(65,38,39,66)          0.0477         estimate D2E/DX2                !
 ! D185  D(38,39,40,35)          0.7748         estimate D2E/DX2                !
 ! D186  D(38,39,40,67)       -179.5299         estimate D2E/DX2                !
 ! D187  D(66,39,40,35)       -179.65           estimate D2E/DX2                !
 ! D188  D(66,39,40,67)          0.0452         estimate D2E/DX2                !
 --------------------------------------------------------------------------------
 Trust Radius=3.00D-01 FncErr=1.00D-07 GrdErr=1.00D-06 EigMax=2.50D+02 EigMin=1.00D-04
 Number of steps in this run=    393 maximum allowed number of steps=    402.
 GradGradGradGradGradGradGradGradGradGradGradGradGradGradGradGradGradGrad

 Leave Link  103 at Mon Feb 26 12:36:23 2024, MaxMem=  7516192768 cpu:               0.8 elap:               0.0
 (Enter /public/apps/g16-C01//g16/l202.exe)
 Symmetry turned off by external request.
 Stoichiometry    C35H27N2O2P
 Framework group  C1[X(C35H27N2O2P)]
 Deg. of freedom   195
 Full point group                 C1      NOp   1
                          Input orientation:                          
 ---------------------------------------------------------------------
 Center     Atomic      Atomic             Coordinates (Angstroms)
 Number     Number       Type             X           Y           Z
 ---------------------------------------------------------------------
      1          8           0       -0.133329    1.978504    0.431714
      2          6           0        0.142308    0.851902    0.030629
      3          7           0        1.375311    0.460140   -0.376245
      4          6           0        2.565368    1.165130   -0.342968
      5          6           0        2.665983    2.452141    0.184932
      6          6           0        3.881148    3.106923    0.214479
      7          6           0        5.026107    2.497280   -0.278159
      8          6           0        4.945232    1.224494   -0.802389
      9          6           0        3.728490    0.542336   -0.845567
     10          6           0        3.702998   -0.791970   -1.421025
     11          7           0        2.660102   -1.510002   -1.592640
     12          6           0        3.060129   -2.760580   -2.200528
     13          6           0        2.842747   -3.935076   -1.289493
     14          6           0        1.640096   -4.481397   -0.887169
     15          6           0        1.660008   -5.553182   -0.007800
     16          6           0        2.863249   -6.063114    0.452725
     17          6           0        4.068963   -5.515723    0.040587
     18          6           0        4.052750   -4.445761   -0.834228
     19          6           0        5.225652   -3.714437   -1.418194
     20          6           0        4.606966   -2.631174   -2.322129
     21          8           0        4.876937   -1.319992   -1.838454
     22          6           0       -0.926494   -0.161321   -0.064575
     23          6           0       -0.692341   -1.531574   -0.146639
     24          6           0       -1.756349   -2.409046   -0.223663
     25          6           0       -3.055330   -1.922280   -0.239396
     26          6           0       -3.294418   -0.563998   -0.152595
     27          6           0       -2.239418    0.336291   -0.036533
     28         15           0       -2.478686    2.153030    0.068019
     29          6           0       -2.484631    2.402579    1.882152
     30          6           0       -2.182743    1.415682    2.810489
     31          6           0       -2.188615    1.711498    4.162717
     32          6           0       -2.493249    2.989445    4.599024
     33          6           0       -2.788497    3.980058    3.676150
     34          6           0       -2.779005    3.688110    2.325678
     35          6           0       -4.312990    2.190986   -0.210551
     36          6           0       -5.286670    2.170966    0.781789
     37          6           0       -6.627192    2.245742    0.446178
     38          6           0       -7.012665    2.343232   -0.880483
     39          6           0       -6.050414    2.369984   -1.876762
     40          6           0       -4.711844    2.302231   -1.539809
     41          1           0        1.483942   -0.463092   -0.811327
     42          1           0        1.778819    2.929512    0.566577
     43          1           0        3.934860    4.103791    0.625558
     44          1           0        5.973503    3.013466   -0.253761
     45          1           0        5.823832    0.734224   -1.192255
     46          1           0        2.535083   -2.877427   -3.154380
     47          1           0        0.708502   -4.082247   -1.258105
     48          1           0        0.730834   -5.995405    0.319587
     49          1           0        2.863213   -6.898406    1.137160
     50          1           0        5.005537   -5.918956    0.396297
     51          1           0        5.832065   -3.244958   -0.640437
     52          1           0        5.869684   -4.386620   -1.986977
     53          1           0        4.976270   -2.690313   -3.349081
     54          1           0        0.315856   -1.918706   -0.122277
     55          1           0       -1.578696   -3.473678   -0.266919
     56          1           0       -3.887205   -2.608390   -0.307227
     57          1           0       -4.311440   -0.201594   -0.158409
     58          1           0       -1.942784    0.414134    2.481704
     59          1           0       -1.955268    0.937302    4.880473
     60          1           0       -2.498102    3.214084    5.655973
     61          1           0       -3.022121    4.980446    4.011983
     62          1           0       -3.004604    4.456255    1.597960
     63          1           0       -4.997833    2.089743    1.820453
     64          1           0       -7.376345    2.226075    1.225443
     65          1           0       -8.060692    2.401986   -1.136874
     66          1           0       -6.346073    2.450514   -2.913310
     67          1           0       -3.951688    2.330045   -2.310363
 ---------------------------------------------------------------------
 Rotational constants (GHZ):           0.1429891           0.0501959           0.0437326
 Leave Link  202 at Mon Feb 26 12:36:23 2024, MaxMem=  7516192768 cpu:               1.5 elap:               0.1
 (Enter /public/apps/g16-C01//g16/l301.exe)
 Standard basis: def2SVPP (5D, 7F)
 Ernie: Thresh=  0.10000D-02 Tol=  0.10000D-05 Strict=F.
   618 basis functions,  1120 primitive gaussians,   658 cartesian basis functions
   141 alpha electrons      141 beta electrons
       nuclear repulsion energy      4439.0879141433 Hartrees.
 IExCor=  402 DFT=T Ex+Corr=B3LYP ExCW=0 ScaHFX=  0.200000
 ScaDFX=  0.800000  0.720000  1.000000  0.810000 ScalE2=  1.000000  1.000000
 IRadAn=      5 IRanWt=     -1 IRanGd=            0 ICorTp=0 IEmpDi=141
 NAtoms=   67 NActive=   67 NUniq=   67 SFac= 1.00D+00 NAtFMM=   60 NAOKFM=T Big=T
 Integral buffers will be    131072 words long.
 Raffenetti 2 integral format.
 Two-electron integral symmetry is turned off.
 R6Disp:  Grimme-D3(BJ) Dispersion energy=       -0.1819330710 Hartrees.
 Nuclear repulsion after empirical dispersion term =     4438.9059810723 Hartrees.
 Leave Link  301 at Mon Feb 26 12:36:24 2024, MaxMem=  7516192768 cpu:               2.5 elap:               0.1
 (Enter /public/apps/g16-C01//g16/l302.exe)
 NPDir=0 NMtPBC=     1 NCelOv=     1 NCel=       1 NClECP=     1 NCelD=      1
         NCelK=      1 NCelE2=     1 NClLst=     1 CellRange=     0.0.
 One-electron integrals computed using PRISM.
   1 Symmetry operations used in ECPInt.
 ECPInt:  NShTT=   43956 NPrTT=  177326 LenC2=   35168 LenP2D=   87068.
 LDataN:  DoStor=T MaxTD1= 4 Len=   56
 NBasis=   618 RedAO= T EigKep=  2.26D-04  NBF=   618
 NBsUse=   618 1.00D-06 EigRej= -1.00D+00 NBFU=   618
 Precomputing XC quadrature grid using
 IXCGrd= 4 IRadAn=           5 IRanWt=          -1 IRanGd=           0 AccXCQ= 0.00D+00.
 Generated NRdTot=       0 NPtTot=           0 NUsed=           0 NTot=          32
 NSgBfM=   644   644   644   644   644 MxSgAt=    67 MxSgA2=    67.
 Leave Link  302 at Mon Feb 26 12:36:24 2024, MaxMem=  7516192768 cpu:              25.5 elap:               0.7
 (Enter /public/apps/g16-C01//g16/l303.exe)
 DipDrv:  MaxL=1.
 Leave Link  303 at Mon Feb 26 12:36:25 2024, MaxMem=  7516192768 cpu:               3.1 elap:               0.1
 (Enter /public/apps/g16-C01//g16/l401.exe)
 ExpMin= 1.05D-01 ExpMax= 8.00D+03 ExpMxC= 1.20D+03 IAcc=3 IRadAn=         5 AccDes= 0.00D+00
 Harris functional with IExCor=  402 and IRadAn=       5 diagonalized for initial guess.
 HarFok:  IExCor=  402 AccDes= 0.00D+00 IRadAn=         5 IDoV= 1 UseB2=F ITyADJ=14
 ICtDFT=  3500011 ScaDFX=  1.000000  1.000000  1.000000  1.000000
 FoFCou: FMM=F IPFlag=           0 FMFlag=      100000 FMFlg1=        2001
         NFxFlg=           0 DoJE=T BraDBF=F KetDBF=T FulRan=T
         wScrn=  0.000000 ICntrl=       500 IOpCl=  0 I1Cent=   200000004 NGrid=           0
         NMat0=    1 NMatS0=      1 NMatT0=    0 NMatD0=    1 NMtDS0=    0 NMtDT0=    0
 Symmetry not used in FoFCou.
 Harris En= -1950.10643335606    
 JPrj=0 DoOrth=F DoCkMO=F.
 Leave Link  401 at Mon Feb 26 12:36:26 2024, MaxMem=  7516192768 cpu:              55.0 elap:               1.4
 (Enter /public/apps/g16-C01//g16/l502.exe)
 Two-electron integral symmetry not used.
 Closed shell SCF:
 Using DIIS extrapolation, IDIIS=  1040.
 NGot=  7516192768 LenX=  7515293446 LenY=  7514859824
 Requested convergence on RMS density matrix=1.00D-08 within 128 cycles.
 Requested convergence on MAX density matrix=1.00D-06.
 Requested convergence on             energy=1.00D-06.
 No special actions if energy rises.
 Fock matrices will be formed incrementally for  20 cycles.
 Integral accuracy reduced to 1.0D-05 until final iterations.

 Cycle   1  Pass 0  IDiag  1:
 FoFJK:  IHMeth= 1 ICntrl=       0 DoSepK=F KAlg= 0 I1Cent=           0 FoldK=F
 IRaf= 920000000 NMat=       1 IRICut=       1 DoRegI=T DoRafI=F ISym2E= 0 IDoP0=0 IntGTp=1.
 FoFCou: FMM=T IPFlag=           0 FMFlag=      100000 FMFlg1=        2001
         NFxFlg=           0 DoJE=F BraDBF=F KetDBF=F FulRan=T
         wScrn=  0.000000 ICntrl=         0 IOpCl=  0 I1Cent=           0 NGrid=           0
         NMat0=    1 NMatS0=      1 NMatT0=    0 NMatD0=    1 NMtDS0=    0 NMtDT0=    0
 Symmetry not used in FoFCou.
 FMM levels:  10  Number of levels for PrismC:   9
 E= -1949.33354513021    
 DIIS: error= 2.61D-02 at cycle   1 NSaved=   1.
 NSaved= 1 IEnMin= 1 EnMin= -1949.33354513021     IErMin= 1 ErrMin= 2.61D-02
 ErrMax= 2.61D-02  0.00D+00 EMaxC= 1.00D-01 BMatC= 7.47D-01 BMatP= 7.47D-01
 IDIUse=3 WtCom= 7.39D-01 WtEn= 2.61D-01
 Coeff-Com:  0.100D+01
 Coeff-En:   0.100D+01
 Coeff:      0.100D+01
 Gap=     0.185 Goal=   None    Shift=    0.000
 GapD=    0.185 DampG=1.000 DampE=0.500 DampFc=0.5000 IDamp=-1.
 Damping current iteration by 5.00D-01
 RMSDP=4.94D-03 MaxDP=1.83D-01              OVMax= 2.21D-01

 Cycle   2  Pass 0  IDiag  1:
 RMSU=  2.26D-03    CP:  9.43D-01
 E= -1949.67374982952     Delta-E=       -0.340204699307 Rises=F Damp=T
 DIIS: error= 6.96D-03 at cycle   2 NSaved=   2.
 NSaved= 2 IEnMin= 2 EnMin= -1949.67374982952     IErMin= 2 ErrMin= 6.96D-03
 ErrMax= 6.96D-03  0.00D+00 EMaxC= 1.00D-01 BMatC= 6.63D-02 BMatP= 7.47D-01
 IDIUse=3 WtCom= 9.30D-01 WtEn= 6.96D-02
 Coeff-Com:  0.115D+00 0.885D+00
 Coeff-En:   0.170D+00 0.830D+00
 Coeff:      0.119D+00 0.881D+00
 Gap=     0.191 Goal=   None    Shift=    0.000
 RMSDP=1.67D-03 MaxDP=8.50D-02 DE=-3.40D-01 OVMax= 1.72D-01

 Cycle   3  Pass 0  IDiag  1:
 RMSU=  1.58D-03    CP:  9.11D-01  9.80D-01
 E= -1950.08575767849     Delta-E=       -0.412007848977 Rises=F Damp=F
 DIIS: error= 1.18D-02 at cycle   3 NSaved=   3.
 NSaved= 3 IEnMin= 3 EnMin= -1950.08575767849     IErMin= 2 ErrMin= 6.96D-03
 ErrMax= 1.18D-02  0.00D+00 EMaxC= 1.00D-01 BMatC= 9.61D-02 BMatP= 6.63D-02
 IDIUse=2 WtCom= 0.00D+00 WtEn= 1.00D+00
 Coeff-En:   0.000D+00 0.000D+00 0.100D+01
 Coeff:      0.000D+00 0.000D+00 0.100D+01
 Gap=     0.116 Goal=   None    Shift=    0.000
 RMSDP=2.06D-03 MaxDP=1.74D-01 DE=-4.12D-01 OVMax= 2.06D-01

 Cycle   4  Pass 0  IDiag  1:
 RMSU=  1.47D-03    CP:  9.14D-01  1.29D+00  2.02D-01
 E= -1949.63998739923     Delta-E=        0.445770279261 Rises=F Damp=F
 DIIS: error= 3.29D-02 at cycle   4 NSaved=   4.
 NSaved= 4 IEnMin= 3 EnMin= -1950.08575767849     IErMin= 2 ErrMin= 6.96D-03
 ErrMax= 3.29D-02  0.00D+00 EMaxC= 1.00D-01 BMatC= 6.01D-01 BMatP= 6.63D-02
 IDIUse=2 WtCom= 0.00D+00 WtEn= 1.00D+00
 Coeff-En:   0.000D+00 0.000D+00 0.800D+00 0.200D+00
 Coeff:      0.000D+00 0.000D+00 0.800D+00 0.200D+00
 Gap=     0.141 Goal=   None    Shift=    0.000
 RMSDP=1.13D-03 MaxDP=9.47D-02 DE= 4.46D-01 OVMax= 1.34D-01

 Cycle   5  Pass 0  IDiag  1:
 RMSU=  2.90D-04    CP:  9.12D-01  1.12D+00  6.02D-01  4.54D-01
 E= -1950.13420293624     Delta-E=       -0.494215537004 Rises=F Damp=F
 DIIS: error= 9.03D-03 at cycle   5 NSaved=   5.
 NSaved= 5 IEnMin= 5 EnMin= -1950.13420293624     IErMin= 2 ErrMin= 6.96D-03
 ErrMax= 9.03D-03  0.00D+00 EMaxC= 1.00D-01 BMatC= 4.43D-02 BMatP= 6.63D-02
 IDIUse=3 WtCom= 9.10D-01 WtEn= 9.03D-02
 Coeff-Com:  0.616D-02 0.263D-01 0.369D+00-0.286D-01 0.627D+00
 Coeff-En:   0.000D+00 0.000D+00 0.359D+00 0.000D+00 0.641D+00
 Coeff:      0.560D-02 0.239D-01 0.368D+00-0.260D-01 0.629D+00
 Gap=     0.135 Goal=   None    Shift=    0.000
 RMSDP=4.34D-04 MaxDP=2.70D-02 DE=-4.94D-01 OVMax= 5.52D-02

 Cycle   6  Pass 0  IDiag  1:
 RMSU=  1.26D-04    CP:  9.10D-01  1.06D+00  7.70D-01  2.71D-01  6.22D-01
 E= -1950.17475294567     Delta-E=       -0.040550009436 Rises=F Damp=F
 DIIS: error= 9.58D-04 at cycle   6 NSaved=   6.
 NSaved= 6 IEnMin= 6 EnMin= -1950.17475294567     IErMin= 6 ErrMin= 9.58D-04
 ErrMax= 9.58D-04  0.00D+00 EMaxC= 1.00D-01 BMatC= 9.16D-04 BMatP= 4.43D-02
 IDIUse=3 WtCom= 9.90D-01 WtEn= 9.58D-03
 Coeff-Com:  0.478D-03 0.458D-02 0.164D+00-0.545D-01 0.440D+00 0.446D+00
 Coeff-En:   0.000D+00 0.000D+00 0.000D+00 0.000D+00 0.000D+00 0.100D+01
 Coeff:      0.474D-03 0.453D-02 0.163D+00-0.540D-01 0.436D+00 0.451D+00
 Gap=     0.134 Goal=   None    Shift=    0.000
 RMSDP=6.58D-05 MaxDP=3.43D-03 DE=-4.06D-02 OVMax= 8.50D-03

 Cycle   7  Pass 0  IDiag  1:
 RMSU=  3.03D-05    CP:  9.10D-01  1.06D+00  7.64D-01  2.74D-01  7.21D-01
                    CP:  6.10D-01
 E= -1950.17568022741     Delta-E=       -0.000927281734 Rises=F Damp=F
 DIIS: error= 1.65D-04 at cycle   7 NSaved=   7.
 NSaved= 7 IEnMin= 7 EnMin= -1950.17568022741     IErMin= 7 ErrMin= 1.65D-04
 ErrMax= 1.65D-04  0.00D+00 EMaxC= 1.00D-01 BMatC= 3.05D-05 BMatP= 9.16D-04
 IDIUse=3 WtCom= 9.98D-01 WtEn= 1.65D-03
 Coeff-Com:  0.189D-04 0.152D-02 0.637D-01-0.272D-01 0.186D+00 0.215D+00
 Coeff-Com:  0.561D+00
 Coeff-En:   0.000D+00 0.000D+00 0.000D+00 0.000D+00 0.000D+00 0.000D+00
 Coeff-En:   0.100D+01
 Coeff:      0.188D-04 0.152D-02 0.636D-01-0.272D-01 0.185D+00 0.215D+00
 Coeff:      0.562D+00
 Gap=     0.135 Goal=   None    Shift=    0.000
 RMSDP=1.74D-05 MaxDP=1.09D-03 DE=-9.27D-04 OVMax= 1.43D-03

 Cycle   8  Pass 0  IDiag  1:
 RMSU=  1.38D-05    CP:  9.10D-01  1.06D+00  7.64D-01  2.72D-01  7.32D-01
                    CP:  6.07D-01  6.95D-01
 E= -1950.17572788400     Delta-E=       -0.000047656589 Rises=F Damp=F
 DIIS: error= 9.74D-05 at cycle   8 NSaved=   8.
 NSaved= 8 IEnMin= 8 EnMin= -1950.17572788400     IErMin= 8 ErrMin= 9.74D-05
 ErrMax= 9.74D-05  0.00D+00 EMaxC= 1.00D-01 BMatC= 4.88D-06 BMatP= 3.05D-05
 IDIUse=1 WtCom= 1.00D+00 WtEn= 0.00D+00
 Coeff-Com:  0.834D-04-0.237D-05 0.152D-01-0.765D-02 0.436D-01 0.510D-01
 Coeff-Com:  0.314D+00 0.584D+00
 Coeff:      0.834D-04-0.237D-05 0.152D-01-0.765D-02 0.436D-01 0.510D-01
 Coeff:      0.314D+00 0.584D+00
 Gap=     0.135 Goal=   None    Shift=    0.000
 RMSDP=9.41D-06 MaxDP=3.66D-04 DE=-4.77D-05 OVMax= 6.98D-04

 Initial convergence to 1.0D-05 achieved.  Increase integral accuracy.
 Cycle   9  Pass 1  IDiag  1:
 E= -1950.17545843924     Delta-E=        0.000269444754 Rises=F Damp=F
 DIIS: error= 3.16D-04 at cycle   1 NSaved=   1.
 NSaved= 1 IEnMin= 1 EnMin= -1950.17545843924     IErMin= 1 ErrMin= 3.16D-04
 ErrMax= 3.16D-04  0.00D+00 EMaxC= 1.00D-01 BMatC= 5.59D-05 BMatP= 5.59D-05
 IDIUse=3 WtCom= 9.97D-01 WtEn= 3.16D-03
 Coeff-Com:  0.100D+01
 Coeff-En:   0.100D+01
 Coeff:      0.100D+01
 Gap=     0.135 Goal=   None    Shift=    0.000
 RMSDP=9.41D-06 MaxDP=3.66D-04 DE= 2.69D-04 OVMax= 1.01D-03

 Cycle  10  Pass 1  IDiag  1:
 RMSU=  4.16D-04    CP:  9.98D-01
 E= -1950.17551901802     Delta-E=       -0.000060578783 Rises=F Damp=F
 DIIS: error= 1.34D-04 at cycle   2 NSaved=   2.
 NSaved= 2 IEnMin= 2 EnMin= -1950.17551901802     IErMin= 2 ErrMin= 1.34D-04
 ErrMax= 1.34D-04  0.00D+00 EMaxC= 1.00D-01 BMatC= 4.42D-06 BMatP= 5.59D-05
 IDIUse=3 WtCom= 9.99D-01 WtEn= 1.34D-03
 Coeff-Com:  0.930D-01 0.907D+00
 Coeff-En:   0.000D+00 0.100D+01
 Coeff:      0.928D-01 0.907D+00
 Gap=     0.135 Goal=   None    Shift=    0.000
 RMSDP=1.34D-05 MaxDP=9.77D-04 DE=-6.06D-05 OVMax= 1.79D-03

 Cycle  11  Pass 1  IDiag  1:
 RMSU=  1.27D-05    CP:  9.98D-01  1.01D+00
 E= -1950.17550643776     Delta-E=        0.000012580263 Rises=F Damp=F
 DIIS: error= 2.78D-04 at cycle   3 NSaved=   3.
 NSaved= 3 IEnMin= 2 EnMin= -1950.17551901802     IErMin= 2 ErrMin= 1.34D-04
 ErrMax= 2.78D-04  0.00D+00 EMaxC= 1.00D-01 BMatC= 1.74D-05 BMatP= 4.42D-06
 IDIUse=3 WtCom= 3.75D-01 WtEn= 6.25D-01
 Coeff-Com: -0.526D-02 0.668D+00 0.337D+00
 Coeff-En:   0.000D+00 0.737D+00 0.263D+00
 Coeff:     -0.197D-02 0.711D+00 0.291D+00
 Gap=     0.135 Goal=   None    Shift=    0.000
 RMSDP=7.17D-06 MaxDP=5.97D-04 DE= 1.26D-05 OVMax= 1.06D-03

 Cycle  12  Pass 1  IDiag  1:
 RMSU=  1.45D-06    CP:  9.98D-01  1.01D+00  4.48D-01
 E= -1950.17552294480     Delta-E=       -0.000016507038 Rises=F Damp=F
 DIIS: error= 3.36D-05 at cycle   4 NSaved=   4.
 NSaved= 4 IEnMin= 4 EnMin= -1950.17552294480     IErMin= 4 ErrMin= 3.36D-05
 ErrMax= 3.36D-05  0.00D+00 EMaxC= 1.00D-01 BMatC= 4.20D-07 BMatP= 4.42D-06
 IDIUse=1 WtCom= 1.00D+00 WtEn= 0.00D+00
 Coeff-Com: -0.426D-02 0.412D+00 0.144D+00 0.448D+00
 Coeff:     -0.426D-02 0.412D+00 0.144D+00 0.448D+00
 Gap=     0.135 Goal=   None    Shift=    0.000
 RMSDP=1.35D-06 MaxDP=8.90D-05 DE=-1.65D-05 OVMax= 1.47D-04

 Cycle  13  Pass 1  IDiag  1:
 RMSU=  5.25D-07    CP:  9.98D-01  1.01D+00  3.53D-01  8.21D-01
 E= -1950.17552335547     Delta-E=       -0.000000410668 Rises=F Damp=F
 DIIS: error= 1.66D-06 at cycle   5 NSaved=   5.
 NSaved= 5 IEnMin= 5 EnMin= -1950.17552335547     IErMin= 5 ErrMin= 1.66D-06
 ErrMax= 1.66D-06  0.00D+00 EMaxC= 1.00D-01 BMatC= 3.98D-09 BMatP= 4.20D-07
 IDIUse=1 WtCom= 1.00D+00 WtEn= 0.00D+00
 Coeff-Com: -0.241D-02 0.226D+00 0.745D-01 0.279D+00 0.422D+00
 Coeff:     -0.241D-02 0.226D+00 0.745D-01 0.279D+00 0.422D+00
 Gap=     0.135 Goal=   None    Shift=    0.000
 RMSDP=1.76D-07 MaxDP=1.35D-05 DE=-4.11D-07 OVMax= 1.75D-05

 Cycle  14  Pass 1  IDiag  1:
 RMSU=  1.64D-07    CP:  9.98D-01  1.01D+00  3.52D-01  8.01D-01  8.92D-01
 E= -1950.17552335928     Delta-E=       -0.000000003815 Rises=F Damp=F
 DIIS: error= 5.64D-07 at cycle   6 NSaved=   6.
 NSaved= 6 IEnMin= 6 EnMin= -1950.17552335928     IErMin= 6 ErrMin= 5.64D-07
 ErrMax= 5.64D-07  0.00D+00 EMaxC= 1.00D-01 BMatC= 1.53D-10 BMatP= 3.98D-09
 IDIUse=1 WtCom= 1.00D+00 WtEn= 0.00D+00
 Coeff-Com: -0.708D-03 0.652D-01 0.208D-01 0.851D-01 0.203D+00 0.627D+00
 Coeff:     -0.708D-03 0.652D-01 0.208D-01 0.851D-01 0.203D+00 0.627D+00
 Gap=     0.135 Goal=   None    Shift=    0.000
 RMSDP=4.19D-08 MaxDP=2.58D-06 DE=-3.82D-09 OVMax= 4.21D-06

 Cycle  15  Pass 1  IDiag  1:
 RMSU=  3.51D-08    CP:  9.98D-01  1.01D+00  3.53D-01  8.06D-01  9.13D-01
                    CP:  9.08D-01
 E= -1950.17552335939     Delta-E=       -0.000000000108 Rises=F Damp=F
 DIIS: error= 3.63D-07 at cycle   7 NSaved=   7.
 NSaved= 7 IEnMin= 7 EnMin= -1950.17552335939     IErMin= 7 ErrMin= 3.63D-07
 ErrMax= 3.63D-07  0.00D+00 EMaxC= 1.00D-01 BMatC= 6.46D-11 BMatP= 1.53D-10
 IDIUse=1 WtCom= 1.00D+00 WtEn= 0.00D+00
 Coeff-Com: -0.602D-04 0.480D-02 0.113D-02 0.947D-02 0.656D-01 0.433D+00
 Coeff-Com:  0.486D+00
 Coeff:     -0.602D-04 0.480D-02 0.113D-02 0.947D-02 0.656D-01 0.433D+00
 Coeff:      0.486D+00
 Gap=     0.135 Goal=   None    Shift=    0.000
 RMSDP=1.96D-08 MaxDP=1.15D-06 DE=-1.08D-10 OVMax= 2.50D-06

 Cycle  16  Pass 1  IDiag  1:
 RMSU=  1.24D-08    CP:  9.98D-01  1.01D+00  3.53D-01  8.09D-01  9.20D-01
                    CP:  9.13D-01  6.07D-01
 E= -1950.17552335936     Delta-E=        0.000000000031 Rises=F Damp=F
 DIIS: error= 5.07D-08 at cycle   8 NSaved=   8.
 NSaved= 8 IEnMin= 7 EnMin= -1950.17552335939     IErMin= 8 ErrMin= 5.07D-08
 ErrMax= 5.07D-08  0.00D+00 EMaxC= 1.00D-01 BMatC= 5.50D-12 BMatP= 6.46D-11
 IDIUse=1 WtCom= 1.00D+00 WtEn= 0.00D+00
 Coeff-Com:  0.234D-04-0.263D-02-0.109D-02-0.143D-02 0.236D-01 0.219D+00
 Coeff-Com:  0.308D+00 0.454D+00
 Coeff:      0.234D-04-0.263D-02-0.109D-02-0.143D-02 0.236D-01 0.219D+00
 Coeff:      0.308D+00 0.454D+00
 Gap=     0.135 Goal=   None    Shift=    0.000
 RMSDP=6.21D-09 MaxDP=2.54D-07 DE= 3.09D-11 OVMax= 4.66D-07

 SCF Done:  E(RB3LYP) =  -1950.17552336     A.U. after   16 cycles
            NFock= 16  Conv=0.62D-08     -V/T= 2.0082
 KE= 1.934387223672D+03 PE=-1.342244004485D+04 EE= 5.098971316746D+03
 Leave Link  502 at Mon Feb 26 12:37:07 2024, MaxMem=  7516192768 cpu:            1593.8 elap:              40.6
 (Enter /public/apps/g16-C01//g16/l601.exe)
 Copying SCF densities to generalized density rwf, IOpCl= 0 IROHF=0.

 **********************************************************************

            Population analysis using the SCF Density.

 **********************************************************************

 Alpha  occ. eigenvalues --  -77.03999 -19.18598 -19.11404 -14.35406 -14.32500
 Alpha  occ. eigenvalues --  -10.29526 -10.29063 -10.25891 -10.24399 -10.23331
 Alpha  occ. eigenvalues --  -10.20697 -10.20193 -10.20006 -10.19871 -10.19863
 Alpha  occ. eigenvalues --  -10.19682 -10.19611 -10.19569 -10.19528 -10.19525
 Alpha  occ. eigenvalues --  -10.19479 -10.19342 -10.19219 -10.19174 -10.19172
 Alpha  occ. eigenvalues --  -10.18568 -10.18477 -10.17934 -10.17514 -10.17504
 Alpha  occ. eigenvalues --  -10.17451 -10.17387 -10.17319 -10.17298 -10.17252
 Alpha  occ. eigenvalues --  -10.17245 -10.17170 -10.17118 -10.17077 -10.16859
 Alpha  occ. eigenvalues --   -6.53415  -4.70066  -4.69995  -4.69528  -1.10823
 Alpha  occ. eigenvalues --   -1.04308  -0.94868  -0.92087  -0.88236  -0.86516
 Alpha  occ. eigenvalues --   -0.85599  -0.84463  -0.83958  -0.82494  -0.77947
 Alpha  occ. eigenvalues --   -0.77133  -0.76488  -0.76267  -0.73965  -0.73812
 Alpha  occ. eigenvalues --   -0.73155  -0.73033  -0.72972  -0.72481  -0.70743
 Alpha  occ. eigenvalues --   -0.66783  -0.64689  -0.63972  -0.63442  -0.62001
 Alpha  occ. eigenvalues --   -0.60869  -0.59959  -0.59324  -0.59111  -0.59071
 Alpha  occ. eigenvalues --   -0.58229  -0.58089  -0.57244  -0.55596  -0.54072
 Alpha  occ. eigenvalues --   -0.53504  -0.52935  -0.52084  -0.51123  -0.50230
 Alpha  occ. eigenvalues --   -0.49735  -0.48311  -0.47829  -0.47407  -0.46785
 Alpha  occ. eigenvalues --   -0.46615  -0.45672  -0.45492  -0.44909  -0.44717
 Alpha  occ. eigenvalues --   -0.44565  -0.44530  -0.44306  -0.43945  -0.43506
 Alpha  occ. eigenvalues --   -0.43213  -0.42999  -0.42707  -0.42336  -0.41609
 Alpha  occ. eigenvalues --   -0.41551  -0.41508  -0.40988  -0.40394  -0.39455
 Alpha  occ. eigenvalues --   -0.38365  -0.37425  -0.37246  -0.37041  -0.36890
 Alpha  occ. eigenvalues --   -0.36806  -0.36543  -0.36064  -0.35905  -0.35624
 Alpha  occ. eigenvalues --   -0.35447  -0.35024  -0.33820  -0.33632  -0.32263
 Alpha  occ. eigenvalues --   -0.32028  -0.31287  -0.29949  -0.28558  -0.28260
 Alpha  occ. eigenvalues --   -0.26902  -0.26629  -0.26455  -0.26194  -0.25517
 Alpha  occ. eigenvalues --   -0.25153  -0.24996  -0.24405  -0.24252  -0.23013
 Alpha  occ. eigenvalues --   -0.19518
 Alpha virt. eigenvalues --   -0.06054  -0.04194  -0.02735  -0.02040  -0.01478
 Alpha virt. eigenvalues --   -0.00688  -0.00486   0.00167   0.00554   0.01173
 Alpha virt. eigenvalues --    0.04546   0.05186   0.05729   0.06446   0.06991
 Alpha virt. eigenvalues --    0.07102   0.07395   0.07580   0.08420   0.09306
 Alpha virt. eigenvalues --    0.09425   0.10036   0.10886   0.11088   0.11204
 Alpha virt. eigenvalues --    0.11396   0.11785   0.11964   0.12375   0.13022
 Alpha virt. eigenvalues --    0.13383   0.13919   0.14002   0.14492   0.14952
 Alpha virt. eigenvalues --    0.15368   0.15704   0.15980   0.16176   0.16308
 Alpha virt. eigenvalues --    0.16657   0.16925   0.17048   0.17433   0.17885
 Alpha virt. eigenvalues --    0.18356   0.18708   0.19360   0.19579   0.20619
 Alpha virt. eigenvalues --    0.21321   0.22746   0.23674   0.24687   0.25544
 Alpha virt. eigenvalues --    0.26022   0.27337   0.28072   0.28611   0.28881
 Alpha virt. eigenvalues --    0.29216   0.29337   0.29883   0.30133   0.30426
 Alpha virt. eigenvalues --    0.30700   0.30875   0.30993   0.31342   0.31497
 Alpha virt. eigenvalues --    0.31648   0.32186   0.32807   0.33089   0.33907
 Alpha virt. eigenvalues --    0.34194   0.34737   0.35180   0.35906   0.36651
 Alpha virt. eigenvalues --    0.37165   0.37940   0.38051   0.38581   0.39352
 Alpha virt. eigenvalues --    0.39549   0.39789   0.40171   0.40499   0.40574
 Alpha virt. eigenvalues --    0.41368   0.41600   0.41974   0.42310   0.42908
 Alpha virt. eigenvalues --    0.43097   0.43517   0.43998   0.44504   0.44591
 Alpha virt. eigenvalues --    0.44893   0.45303   0.45613   0.46083   0.46247
 Alpha virt. eigenvalues --    0.46836   0.47198   0.47443   0.47773   0.47934
 Alpha virt. eigenvalues --    0.48216   0.48473   0.48856   0.49210   0.49284
 Alpha virt. eigenvalues --    0.49363   0.49580   0.49783   0.50139   0.50412
 Alpha virt. eigenvalues --    0.50479   0.51101   0.51468   0.51751   0.52661
 Alpha virt. eigenvalues --    0.53195   0.53210   0.53525   0.53860   0.53994
 Alpha virt. eigenvalues --    0.54718   0.55336   0.56027   0.56658   0.56899
 Alpha virt. eigenvalues --    0.57235   0.57558   0.57897   0.58357   0.58748
 Alpha virt. eigenvalues --    0.59061   0.59338   0.59943   0.59971   0.60578
 Alpha virt. eigenvalues --    0.61668   0.62014   0.62126   0.62936   0.63093
 Alpha virt. eigenvalues --    0.63658   0.64358   0.65089   0.65487   0.65765
 Alpha virt. eigenvalues --    0.66202   0.66570   0.66874   0.67081   0.67251
 Alpha virt. eigenvalues --    0.67451   0.67737   0.68154   0.68390   0.68503
 Alpha virt. eigenvalues --    0.68762   0.68907   0.69209   0.69631   0.69935
 Alpha virt. eigenvalues --    0.70119   0.70233   0.70347   0.70718   0.70911
 Alpha virt. eigenvalues --    0.71322   0.71566   0.72135   0.72329   0.72686
 Alpha virt. eigenvalues --    0.72746   0.72971   0.73274   0.73420   0.74119
 Alpha virt. eigenvalues --    0.74179   0.74615   0.74635   0.74897   0.75258
 Alpha virt. eigenvalues --    0.76023   0.76073   0.76253   0.76613   0.77043
 Alpha virt. eigenvalues --    0.77218   0.77898   0.78176   0.78431   0.78734
 Alpha virt. eigenvalues --    0.79057   0.79586   0.80120   0.80530   0.80931
 Alpha virt. eigenvalues --    0.81359   0.81854   0.82005   0.82620   0.82883
 Alpha virt. eigenvalues --    0.83452   0.83757   0.84707   0.84799   0.85071
 Alpha virt. eigenvalues --    0.86640   0.87118   0.87493   0.88211   0.88514
 Alpha virt. eigenvalues --    0.89303   0.90176   0.90571   0.92254   0.93079
 Alpha virt. eigenvalues --    0.93858   0.94518   0.96240   0.96552   0.97683
 Alpha virt. eigenvalues --    0.98615   0.98976   0.99642   1.00149   1.01533
 Alpha virt. eigenvalues --    1.02444   1.03185   1.03656   1.05231   1.05530
 Alpha virt. eigenvalues --    1.06540   1.07220   1.08298   1.09901   1.10576
 Alpha virt. eigenvalues --    1.12143   1.12541   1.13481   1.13784   1.15500
 Alpha virt. eigenvalues --    1.16618   1.18540   1.18882   1.19375   1.19917
 Alpha virt. eigenvalues --    1.21754   1.22169   1.23339   1.24017   1.24634
 Alpha virt. eigenvalues --    1.25187   1.25927   1.26583   1.27118   1.27484
 Alpha virt. eigenvalues --    1.28048   1.29445   1.30325   1.30584   1.31429
 Alpha virt. eigenvalues --    1.32329   1.33478   1.34096   1.36351   1.38638
 Alpha virt. eigenvalues --    1.39681   1.40501   1.41068   1.42395   1.43179
 Alpha virt. eigenvalues --    1.43450   1.43947   1.44409   1.44918   1.45345
 Alpha virt. eigenvalues --    1.46550   1.47470   1.47821   1.48048   1.48755
 Alpha virt. eigenvalues --    1.48973   1.49087   1.49233   1.49524   1.49762
 Alpha virt. eigenvalues --    1.50036   1.50139   1.50368   1.51852   1.51958
 Alpha virt. eigenvalues --    1.52023   1.54698   1.55407   1.56153   1.58207
 Alpha virt. eigenvalues --    1.58943   1.61082   1.61111   1.62871   1.63244
 Alpha virt. eigenvalues --    1.63899   1.65666   1.66812   1.69772   1.71069
 Alpha virt. eigenvalues --    1.72389   1.73606   1.75408   1.75718   1.76325
 Alpha virt. eigenvalues --    1.76943   1.77469   1.78057   1.78757   1.79953
 Alpha virt. eigenvalues --    1.80658   1.80996   1.81492   1.82170   1.82514
 Alpha virt. eigenvalues --    1.82966   1.83231   1.83366   1.84187   1.85257
 Alpha virt. eigenvalues --    1.85426   1.85762   1.86382   1.87962   1.88965
 Alpha virt. eigenvalues --    1.89190   1.89275   1.90137   1.92656   1.93856
 Alpha virt. eigenvalues --    1.93947   1.95038   1.95556   1.97068   1.97697
 Alpha virt. eigenvalues --    1.98718   2.00109   2.00832   2.01293   2.02066
 Alpha virt. eigenvalues --    2.03125   2.03906   2.05172   2.05495   2.05904
 Alpha virt. eigenvalues --    2.06669   2.08101   2.08600   2.09124   2.09687
 Alpha virt. eigenvalues --    2.09846   2.10324   2.10733   2.11071   2.11324
 Alpha virt. eigenvalues --    2.12061   2.12311   2.13820   2.15139   2.15709
 Alpha virt. eigenvalues --    2.15869   2.16101   2.16898   2.17049   2.17540
 Alpha virt. eigenvalues --    2.18133   2.18757   2.19173   2.20716   2.23002
 Alpha virt. eigenvalues --    2.23730   2.24857   2.26548   2.27041   2.28756
 Alpha virt. eigenvalues --    2.29044   2.30018   2.30886   2.31328   2.31444
 Alpha virt. eigenvalues --    2.31589   2.32463   2.32633   2.33114   2.34205
 Alpha virt. eigenvalues --    2.34738   2.35155   2.36017   2.38115   2.41568
 Alpha virt. eigenvalues --    2.43451   2.45186   2.45966   2.46460   2.47366
 Alpha virt. eigenvalues --    2.47545   2.47914   2.48153   2.48838   2.49544
 Alpha virt. eigenvalues --    2.50068   2.51328   2.52903   2.53727   2.55374
 Alpha virt. eigenvalues --    2.56132   2.58600   2.58817   2.60348   2.60865
 Alpha virt. eigenvalues --    2.62621   2.63096   2.65389   2.65957   2.67697
 Alpha virt. eigenvalues --    2.67880   2.67980   2.68273   2.68984   2.69710
 Alpha virt. eigenvalues --    2.71015   2.71076   2.71639   2.72026   2.72216
 Alpha virt. eigenvalues --    2.72766   2.73384   2.73822   2.74316   2.74774
 Alpha virt. eigenvalues --    2.75158   2.75829   2.76540   2.77821   2.78613
 Alpha virt. eigenvalues --    2.81185   2.82447   2.83546   2.85934   2.87957
 Alpha virt. eigenvalues --    2.90306   2.92046   2.97417   2.98706   2.99792
 Alpha virt. eigenvalues --    3.00776   3.02213   3.09285   3.12974   3.14130
 Alpha virt. eigenvalues --    3.16302   3.21151   3.25222   3.33121   3.35527
 Alpha virt. eigenvalues --    3.38729   3.39189   3.41547   3.48969   3.55742
 Alpha virt. eigenvalues --    3.62114   3.69592
          Condensed to atoms (all electrons):
 Mulliken charges:
               1
     1  O   -0.273243
     2  C    0.190731
     3  N   -0.206632
     4  C    0.129697
     5  C   -0.171292
     6  C   -0.010951
     7  C   -0.025325
     8  C   -0.123231
     9  C    0.067622
    10  C    0.135756
    11  N   -0.231100
    12  C    0.017206
    13  C    0.066515
    14  C   -0.123267
    15  C   -0.050255
    16  C   -0.028524
    17  C   -0.133803
    18  C   -0.026687
    19  C    0.028907
    20  C    0.056928
    21  O   -0.293546
    22  C    0.060614
    23  C   -0.158581
    24  C   -0.048535
    25  C   -0.023135
    26  C   -0.094517
    27  C   -0.122571
    28  P    0.388947
    29  C   -0.024806
    30  C   -0.093296
    31  C   -0.038237
    32  C   -0.043746
    33  C   -0.045560
    34  C   -0.092343
[...]
 066,-0.00000068,-0.00000007,-0.00000009,0.00000007,0.00000043,-0.00000
 001,0.00000043,-0.00000039,-0.00000067,0.00000036,0.00000078,-0.000000
 54,-0.00000036,-0.00000089,0.00000077,0.00000030,0.00000006,0.00000004
 ,-0.00000048,0.00000020,-0.00000004,-0.00000032,-0.00000040,-0.0000000
 8,-0.00000031,0.,0.00000053,-0.00000013,-0.00000003,0.00000044,0.00000
 016,-0.00000608,-0.00000061,0.00000176,-0.00000044,-0.00000025,0.00000
 128,-0.00001194,0.00000234,-0.00000102,0.00005203,-0.00000913,-0.00000
 274,-0.00000310,0.00000299,0.00000307,-0.00000058,0.00000143,-0.000000
 99,-0.00000024,-0.00000071,-0.00000339,-0.00000369,-0.00000393,-0.0000
 0559,0.00000167,0.00000662,-0.00011789,0.00011950,-0.00003438,0.000257
 95,-0.00411380,0.00018282,0.01485019,0.02657221,-0.00002754,0.00002088
 ,0.00001449,0.00003097,-0.00002331,-0.00002634,-0.00003166,0.00000305,
 0.00001447,0.00001549,0.00001008,0.00000094,-0.00000309,-0.00000558,-0
 .00000223,0.00000353,0.00000163,0.00000025,-0.00000269,0.00000179,0.00
 000152,-0.00000153,-0.00000175,-0.00000062,-0.00000260,0.00000278,0.00
 000221,0.00000482,-0.00000712,-0.00000423,-0.00000193,0.00000417,0.000
 00366,-0.00000009,-0.00000247,-0.00000124,0.00000002,0.00000062,0.0000
 0015,0.00000087,-0.00000003,0.00000107,-0.00000101,0.00000034,0.000000
 44,0.00000030,-0.00000029,0.00000048,0.,-0.00000014,0.00000013,0.00000
 001,0.00000058,-0.00000032,0.00000002,0.,-0.00000009,-0.00000024,-0.00
 000261,-0.00000118,-0.00000462,0.00000563,0.00000290,-0.00000040,0.000
 01190,0.00000150,-0.00000555,-0.00000196,-0.00000121,0.00000201,0.0000
 0658,-0.00000215,-0.00001485,-0.00000589,0.00000117,0.00001162,0.00001
 106,0.00002045,-0.00002119,-0.00000866,0.00001641,0.00001949,0.0000297
 5,-0.00002835,-0.00003049,-0.00004005,-0.00001906,-0.00002232,-0.00003
 091,0.00004186,-0.00000210,-0.00000565,0.00002220,0.00000806,0.0000011
 4,0.00000244,-0.00000391,0.00001452,0.00001080,-0.00003334,0.00003610,
 0.00000841,0.00050932,0.00007587,-0.00091114,-0.00033091,-0.00050175,-
 0.00545689,-0.03064315,-0.00140128,-0.00275847,-0.07173317,-0.00432968
 ,-0.07948908,0.02218250,0.00105686,0.01015244,0.00294165,-0.00018727,-
 0.00265385,0.00000214,-0.00000453,-0.00000464,0.00000232,0.00000117,-0
 .00000034,0.00000028,-0.00000028,-0.00000030,-0.00000062,-0.00000012,0
 .00000008,-0.00000036,0.,0.00000013,0.00000007,0.00000048,0.00000021,-
 0.00000024,-0.00000043,-0.00000136,0.00000013,-0.00000080,-0.00000003,
 -0.00000010,0.00000029,-0.00000038,-0.00000039,0.00000004,-0.00000014,
 0.00000012,-0.00000025,-0.00000012,-0.00000016,0.00000038,0.00000028,-
 0.00000017,0.00000037,0.00000043,-0.00000085,0.00000158,-0.00000146,-0
 .00000181,0.00000201,-0.00000009,0.00000025,0.00000361,0.00000156,0.00
 000507,-0.00003112,-0.00002633,0.00000747,-0.00000086,-0.00000109,0.00
 000024,0.00000304,-0.00000209,-0.00000084,-0.00000159,-0.00000493,0.00
 000037,-0.00000457,-0.00000146,0.00000588,0.00000274,-0.00000174,-0.00
 130360,-0.00004297,-0.00018729,0.00057208,0.00021943,0.00128754,0.0776
 0298,0.00491182,0.07866454,-0.00012458,0.00008636,0.00002814,0.0001135
 6,-0.00010205,-0.00010527,-0.00010506,0.00001449,0.00006096,0.00005094
 ,0.00003289,0.00000197,-0.00000954,-0.00001862,-0.00000647,0.00001102,
 0.00000478,0.00000100,-0.00000995,0.00000521,0.00000628,-0.00000617,-0
 .00000645,-0.00000163,-0.00000784,0.00001058,0.00000807,0.00000299,-0.
 00002717,-0.00001732,0.00000337,0.00001397,0.00002082,-0.00000358,-0.0
 0000569,-0.00001212,0.00000021,0.00000314,0.00000246,-0.00000154,0.000
 00200,0.00000310,0.00000071,0.00000099,0.00000207,0.00000003,-0.000000
 24,0.00000120,-0.00000029,-0.00000027,0.00000026,0.00000053,0.00000028
 ,-0.00000015,0.00000021,0.00000027,0.00000028,-0.00000236,-0.00000489,
 -0.00000505,-0.00000655,0.00001461,0.00000930,0.00000918,0.00005682,-0
 .00000420,-0.00001834,0.00000123,0.00000192,-0.00001114,0.00002051,0.0
 0000754,0.00000157,-0.00000652,0.00000675,-0.00000898,0.00004394,0.000
 03018,-0.00008610,-0.00008369,-0.00000453,0.00057814,-0.00007001,-0.00
 074175,-0.00042923,0.00004308,-0.00002063,0.00001797,-0.00006930,-0.00
 004280,0.00003833,-0.00000477,-0.00001859,-0.00000573,0.00000421,-0.00
 003676,0.00002337,0.00000867,0.00001366,0.00001703,0.00002823,-0.00006
 144,-0.00523446,-0.00064316,-0.00082521,-0.00101032,-0.00005454,0.0005
 4454,-0.00288751,-0.00031293,0.00286694,0.00966352,0.00094847,0.023062
 43,-0.07488770,-0.00364358,-0.06432347,-0.00245753,-0.00101231,-0.0307
 3825,0.00000455,-0.00001721,-0.00001852,0.00000686,0.00000492,-0.00000
 069,0.00000017,-0.00000034,-0.00000143,-0.00000148,0.00000023,-0.00000
 036,-0.00000176,-0.00000012,-0.00000052,0.00000011,0.00000252,0.000003
 85,0.00000023,-0.00000149,-0.00000591,-0.00000044,-0.00000187,-0.00000
 117,0.00000009,-0.00000046,-0.00000051,-0.00000013,-0.00000023,-0.0000
 0036,0.00000057,-0.00000051,0.00000027,-0.00000067,0.00000068,0.000000
 23,-0.00000170,0.00000110,0.00000162,-0.00000357,0.00000831,-0.0000040
 5,-0.00000191,0.00000530,-0.00000387,0.00000349,0.00001430,-0.00000739
 ,-0.00000699,-0.00002715,-0.00001340,-0.00001922,0.00000150,0.00000050
 ,0.00000045,0.00000204,-0.00001456,-0.00000471,-0.00000284,-0.00000598
 ,0.00000034,-0.00001029,-0.00000867,-0.00000940,-0.00000257,0.00001123
 ,0.00007231,0.00004893,-0.00006981,0.00027781,0.00004658,0.00109882,0.
 00103728,0.00018412,-0.00074073,0.07415354,-0.00002874,-0.00001483,-0.
 00000533,0.00004311,0.00002106,-0.00000816,-0.00003474,-0.00000926,0.0
 0000937,0.00002038,0.00001507,0.00000131,-0.00000607,-0.00000830,-0.00
 000216,0.00000262,0.00000220,0.00000107,-0.00000255,-0.00000169,0.0000
 0030,0.00000194,-0.00000002,0.00000005,-0.00000500,-0.00000291,-0.0000
 0002,0.00001412,0.00000847,0.00000283,-0.00001145,-0.00000713,-0.00000
 157,0.00000164,0.00000159,0.00000180,-0.00000076,0.00000204,-0.0000024
 4,0.00000411,-0.00000262,0.00000176,-0.00000071,0.00000066,-0.00000058
 ,-0.00000025,-0.00000120,0.00000084,-0.00000090,-0.00000032,0.00000026
 ,0.00000093,-0.00000022,-0.00000020,-0.00000024,0.00000073,-0.00000038
 ,0.00000149,0.00000119,-0.00000120,-0.00000947,-0.00000121,0.00000078,
 -0.00001992,-0.00000692,0.00002986,-0.00000447,0.00000383,-0.00000079,
 -0.00000040,-0.00001428,0.00000153,0.00000704,0.00000650,-0.00001243,0
 .00000723,-0.00002130,-0.00002456,-0.00000255,0.00000253,0.00002435,0.
 00002018,0.00021637,-0.00009106,0.00003269,-0.00010965,0.00010351,0.00
 000087,0.00000766,-0.00004276,-0.00000417,0.00003350,0.00004587,0.0000
 0983,-0.00005973,0.00002060,0.00000351,0.00000101,-0.00006997,0.000035
 60,0.00004190,0.00002001,-0.00074558,0.00715653,-0.00048302,-0.0001453
 0,-0.00057887,0.00015556,-0.00014739,0.00697990,-0.00000376,0.00010280
 ,0.00366731,0.00016134,-0.00367884,-0.03837393,-0.01060340,-0.00017674
 ,0.00368409,-0.00155486,0.00000543,0.00000054,-0.00000136,0.00000204,0
 .00000313,0.00000016,-0.00000080,-0.00000098,-0.00000120,-0.00000112,-
 0.00000010,-0.00000029,0.00000004,0.00000072,-0.00000004,0.00000096,-0
 .00000059,-0.00000165,0.00000021,0.00000085,-0.00000073,-0.00000024,-0
 .00000157,0.00000136,0.00000009,0.00000045,-0.00000015,-0.00000084,0.0
 0000033,-0.00000008,-0.00000051,-0.00000060,-0.00000018,-0.00000046,0.
 00000007,0.00000083,-0.00000020,0.00000006,0.00000070,-0.00000177,0.00
 000006,-0.00000752,0.00000132,0.00000070,0.00000211,-0.00000063,-0.000
 01130,0.00000800,-0.00001900,0.00000849,0.00002362,0.00000357,-0.00000
 118,0.00000203,-0.00000497,-0.00000017,0.00000127,-0.00000191,-0.00000
 173,-0.00000041,0.00000379,-0.00000159,-0.00000555,-0.00001429,0.00000
 013,0.00000002,0.00003995,-0.00115389,0.00004137,-0.00000635,0.0002506
 7,0.00001629,0.00021772,-0.00405729,0.00013066,0.00417756,0.02652158,-
 0.00010507,0.00007126,0.00002252,0.00014294,-0.00007616,-0.00010135,-0
 .00013292,0.00000831,0.00005993,0.00007025,0.00004409,0.00000452,-0.00
 001482,-0.00002396,-0.00000938,0.00001566,0.00000712,0.00000063,-0.000
 01249,0.00000724,0.00000740,-0.00000664,-0.00000802,-0.00000269,-0.000
 01096,0.00001226,0.00000960,0.00001890,-0.00003234,-0.00001991,-0.0000
 0672,0.00001934,0.00001929,-0.00000202,-0.00001134,-0.00001125,-0.0000
 0019,0.00000305,0.00000243,0.00000138,0.00000186,0.00000508,-0.0000016
 6,0.00000187,0.00000295,0.00000057,0.,0.00000177,-0.00000021,-0.000000
 44,0.00000069,0.00000060,0.00000175,-0.00000094,0.00000020,-0.00000007
 ,-0.00000018,-0.00000201,-0.00001055,-0.00000728,-0.00001823,0.0000242
 7,0.00001445,0.00001547,0.00004113,-0.00001788,-0.00001670,0.00001678,
 0.00001024,-0.00002625,0.00002064,0.00000621,-0.00000498,-0.00003434,0
 .00001013,0.00000512,0.00005358,0.00002264,-0.00008738,-0.00005738,-0.
 00005801,0.00057491,0.00000998,-0.00006443,-0.00014956,0.00002699,-0.0
 0000507,-0.00000517,-0.00005630,-0.00001296,0.00000816,-0.00000857,-0.
 00000438,-0.00000311,0.00000421,-0.00001416,0.00000377,0.00001082,0.00
 000989,-0.00000670,0.00002831,-0.00003669,-0.00185454,-0.00039119,0.00
 144716,0.00045721,0.00013025,0.00083360,0.00411410,-0.00008433,-0.0009
 8964,-0.00847488,-0.00086522,-0.01631585,-0.06423155,-0.01097147,-0.31
 868376,0.00070670,-0.00010531,-0.00464620,0.00001172,-0.00002260,-0.00
 001890,0.00000875,0.00000561,0.00000072,0.00000043,-0.00000112,-0.0000
 0147,-0.00000237,-0.00000025,-0.00000008,-0.00000193,-0.00000007,-0.00
 000008,0.00000066,0.00000173,0.00000275,-0.00000066,-0.00000309,-0.000
 00760,-0.00000014,-0.00000327,-0.00000171,-0.00000004,0.00000004,-0.00
 000146,-0.00000097,-0.00000008,-0.00000081,0.00000066,-0.00000087,-0.0
 0000009,-0.00000112,0.00000153,0.00000082,-0.00000165,0.00000143,0.000
 00233,-0.00000359,0.00000832,-0.00000159,-0.00000431,0.00000746,-0.000
 00443,0.00000457,0.00001537,-0.00001171,0.00000714,-0.00005635,-0.0000
 0688,0.00000004,0.00000008,0.00000134,0.00000281,0.00000282,-0.0000097
 3,0.00000022,-0.00000183,-0.00000638,0.00000366,-0.00000719,-0.0000061
 7,0.00000234,0.00000620,0.00000585,-0.00004220,0.00002309,-0.00005528,
 -0.00042379,-0.00006739,-0.00082211,0.00011342,0.00015043,0.00102235,0
 .06956801,0.01200716,0.33759874,0.00022654,-0.00021496,0.00002165,-0.0
 0016710,0.00023190,0.00019877,0.00018535,-0.00003782,-0.00010379,-0.00
 010402,-0.00006151,-0.00000750,0.00001985,0.00003512,0.00001449,-0.000
 02127,-0.00001173,-0.00000036,0.00001840,-0.00000927,-0.00001020,0.000
 00918,0.00001082,0.00000398,0.00001558,-0.00001924,-0.00001403,-0.0000
 1641,0.00004874,0.00002869,0.00000142,-0.00003187,-0.00002473,0.000004
 51,0.00001441,0.00001490,0.00000028,-0.00000230,-0.00000464,0.00000148
 ,-0.00000296,-0.00000372,0.00000025,-0.00000165,-0.00000263,-0.0000004
 2,-0.00000030,-0.00000129,-0.00000024,0.00000063,-0.00000059,-0.000000
 52,-0.00000211,0.00000094,-0.00000027,0.00000019,-0.00000041,0.0000033
 4,0.00001267,0.00000865,0.00001882,-0.00003070,-0.00001855,0.00001843,
 -0.00002215,0.00004339,-0.00000058,-0.00000424,0.00000202,0.00002318,-
 0.00002260,-0.00000479,-0.00003124,-0.00000025,-0.00002156,0.00002529,
 -0.00008945,-0.00005676,0.00000188,0.00019666,-0.00006367,0.00038800,0
 .00033914,-0.00090657,-0.00014791,-0.00000280,0.00002924,0.00000452,0.
 00003518,-0.00002764,0.00002528,0.00003629,0.00000313,-0.00000641,-0.0
 0000372,0.00004772,0.00000287,-0.00001759,-0.00002437,0.00000840,-0.00
 001988,0.00007933,0.00920766,0.00001049,-0.00610796,0.00027205,-0.0004
 0248,-0.00186307,0.00005367,0.00000603,-0.00094102,-0.00431911,-0.0007
 1436,-0.00320776,-0.01651730,-0.00003841,0.02315401,-0.19741626,-0.005
 69625,0.13582168,-0.00000740,0.00003955,0.00001827,-0.00001226,-0.0000
 0839,-0.00000371,-0.00000011,0.00000164,0.00000195,0.00000302,0.000000
 19,-0.00000020,0.00000275,0.00000030,0.00000022,-0.00000039,-0.0000030
 7,-0.00000441,0.00000047,0.00000280,0.00000712,0.00000011,0.00000236,0
 .00000184,-0.00000014,0.00000012,0.00000117,0.00000069,0.00000012,0.00
 000078,-0.00000097,0.00000084,-0.00000001,0.00000103,-0.00000186,-0.00
 000053,0.00000210,-0.00000204,-0.00000269,0.00000461,-0.00000630,-0.00
 000030,0.00000025,-0.00000722,0.00000551,-0.00000579,-0.00001697,0.000
 01473,-0.00003597,0.00001038,0.00003222,-0.00001700,-0.00001003,-0.000
 00154,-0.00000028,-0.00000391,0.00000852,-0.00000094,0.00000064,0.0000
 0530,-0.00000070,0.00000879,0.00000592,0.00000615,-0.00000777,-0.00000
 840,0.00041916,0.00007306,-0.00046966,-0.00000453,0.00006119,0.0000858
 4,-0.00082708,-0.00010784,0.00103812,0.00127604,0.00031657,-0.00020285
 ,0.20740998,-0.00001328,-0.00007023,-0.00001115,0.00004769,0.00009280,
 0.00003671,-0.00003650,-0.00002851,-0.00000656,0.00002906,0.00002209,0
 .00000244,-0.00000961,-0.00001118,-0.00000106,0.00000227,0.00000138,0.
 00000209,-0.00000266,-0.00000465,-0.00000087,0.00000548,0.00000185,0.0
 0000050,-0.00000812,-0.00000813,-0.00000186,0.00003050,0.00002335,0.00
 000954,-0.00002671,-0.00001523,-0.00000924,0.00000427,0.00000023,0.000
 00499,-0.00000112,0.00000298,-0.00000464,0.00000996,-0.00000437,0.0000
 0422,-0.00000400,0.00000112,0.,0.00000011,-0.00000122,0.00000116,-0.00
 000165,-0.00000013,0.00000037,0.00000127,-0.00000017,-0.00000043,-0.00
 000061,0.00000086,-0.00000088,0.00000278,0.00000112,-0.00000221,-0.000
 01957,-0.00000247,0.00000135,0.00004284,-0.00022745,-0.00007600,0.0000
 5034,0.00006625,0.00000600,-0.00003737,-0.00003960,0.00000313,0.000000
 53,-0.00006691,-0.00006017,0.00004628,-0.00004699,-0.00009519,0.000335
 55,0.00002610,0.00015134,0.00076120,-0.00188516,0.00064947,-0.00029867
 ,-0.00010526,0.00006178,-0.00003792,-0.00001345,0.00004710,0.00003353,
 -0.00001861,-0.00000895,-0.00000352,0.00001943,-0.00001572,0.00001178,
 -0.00001430,0.00003070,0.00002035,0.00004122,-0.00006508,0.00073916,0.
 00189943,-0.00123940,-0.00016500,0.00698316,-0.00053887,-0.00006833,-0
 .00064381,-0.00013813,-0.00067242,0.00716780,-0.00025803,-0.00096364,0
 .00414096,0.00138003,-0.00617374,-0.03863396,0.00402037,0.00001386,0.0
 0000673,0.00000363,0.00000164,0.00000536,-0.00000172,-0.00000183,-0.00
 000155,-0.00000219,-0.00000153,-0.00000020,-0.00000072,0.00000031,0.00
 000119,0.,0.00000228,-0.00000236,-0.00000424,-0.00000044,-0.00000106,-
 0.00000165,-0.00000005,-0.00000288,0.00000147,-0.00000032,0.00000097,-
 0.00000074,-0.00000143,0.00000053,-0.00000025,-0.00000086,-0.00000078,
 -0.00000036,-0.00000087,0.00000021,0.00000127,-0.00000030,-0.00000006,
 0.00000100,0.00000106,-0.00001390,0.00000350,-0.00000253,0.00000192,0.
 00000740,-0.00000154,-0.00001411,0.00000711,-0.00011482,0.00010423,0.0
 0003859,-0.00001019,-0.00000366,0.00001171,0.00000778,-0.00000037,0.00
 000172,-0.00000141,-0.00000155,0.00000097,-0.00000348,-0.00000464,-0.0
 0000596,0.00000553,-0.00001400,0.00000783,0.00006279,0.00029088,-0.000
 02339,0.00005367,-0.00119214,0.00005120,-0.00006549,0.00014505,0.00007
 097,0.00028847,-0.00419655,0.00012478,0.00613916,0.02624241,0.00002937
 ,-0.00003777,0.00001369,-0.00013216,0.00002025,0.00004754,0.00012191,0
 .00000261,-0.00003555,-0.00007480,-0.00004365,-0.00000624,0.00001736,0
 .00002254,0.00001082,-0.00001726,-0.00000817,0.00000070,0.00001264,-0.
 00000748,-0.00000665,0.00000561,0.00000794,0.00000306,0.00001091,-0.00
 001091,-0.00000828,-0.00002890,0.00002825,0.00001694,0.00001503,-0.000
 01873,-0.00001231,0.00000026,0.00001339,0.00000838,0.00000054,-0.00000
 299,-0.00000140,-0.00000530,0.00000048,-0.00000544,0.00000379,-0.00000
 192,-0.00000193,-0.00000093,0.00000037,-0.00000141,0.00000054,0.000000
 55,-0.00000049,-0.00000034,-0.00000215,0.00000120,0.00000002,-0.000000
 06,0.00000020,0.00000127,0.00001219,0.00000751,0.00002482,-0.00002597,
 -0.00001548,-0.00002241,0.00009480,-0.00001932,-0.00003303,-0.00003186
 ,-0.00000398,0.00004120,0.00000213,-0.00000995,-0.00005684,0.00005652,
 0.00001223,0.00009378,-0.00005928,-0.00001321,-0.00033348,0.00010193,0
 .00008501,0.00137982,0.00089833,-0.00091762,-0.00022955,-0.00064375,0.
 00026294,-0.00005698,0.00012155,0.00029593,0.00004961,-0.00006075,0.00
 005933,-0.00000173,-0.00000100,0.00002534,0.00000525,0.00003296,0.0000
 0070,-0.00002429,0.00001082,0.00004921,0.02178303,0.00062736,-0.017277
 43,-0.00296740,-0.00034734,-0.00473997,-0.00096188,-0.00001758,-0.0001
 2425,-0.00189722,-0.00017017,0.00060942,-0.00822244,-0.00033294,0.0092
 9922,0.13659918,0.00388885,-0.19115424,-0.00001920,0.00002349,0.000010
 37,-0.00000867,-0.00000366,-0.00000456,-0.00000040,0.00000202,0.000000
 51,0.00000259,0.00000069,-0.00000041,0.00000170,0.00000003,-0.00000035
 ,-0.00000133,-0.00000120,-0.00000091,0.00000052,0.00000330,0.00000639,
 -0.00000041,0.00000337,0.00000052,0.00000032,-0.00000100,0.00000153,0.
 00000153,-0.00000026,0.00000071,-0.00000036,0.00000104,0.00000023,0.00
 000117,-0.00000178,-0.00000101,0.00000151,-0.00000157,-0.00000236,0.00
 000148,0.00000281,0.00000597,-0.00000061,-0.00000535,0.00000422,-0.000
 00140,-0.00001241,-0.00000547,0.00005716,-0.00010324,-0.00003275,-0.00
 000840,-0.00000574,-0.00000126,0.00000727,0.00000559,0.00003158,-0.000
 00125,0.00000243,0.00000655,0.00000299,0.00001029,0.00001221,0.0000151
 5,-0.00000148,-0.00003810,0.00124672,-0.00002676,-0.00075067,0.0000959
 8,0.00003397,0.00002283,-0.00043397,0.00001771,0.00029277,0.00049914,0
 .00010923,0.00083247,-0.14658821,-0.00417082,0.20315479\\-0.00000118,0
 .00000440,0.00000470,0.00000642,-0.00000532,-0.00000724,-0.00000965,-0
 .00000189,0.00000350,0.00000252,0.00000535,-0.00000104,-0.00000043,0.0
 0000002,-0.00000012,0.00000014,-0.00000168,-0.00000123,-0.00000059,0.0
 0000008,0.00000046,-0.00000019,0.00000033,0.00000010,-0.00000090,0.000
 00117,0.00000014,0.00000114,-0.00000106,-0.00000046,0.00000059,0.00000
 170,-0.00000114,0.00000029,-0.00000111,0.00000205,-0.00000093,0.000000
 69,-0.00000073,0.00000275,0.,0.00000010,0.00000038,-0.00000071,0.00000
 006,-0.00000003,0.00000065,-0.00000066,0.00000027,0.00000061,-0.000001
 43,-0.00000212,-0.00000003,0.00000103,0.00000183,-0.00000142,-0.000000
 36,0.00000053,0.00000349,0.00000196,-0.00000132,-0.00000180,-0.0000007
 4,-0.00000149,0.00000056,0.00000039,-0.00000277,0.00000486,-0.00000049
 ,0.00000211,-0.00000056,-0.00000018,-0.00000207,-0.00000096,0.,0.00000
 364,0.00000102,0.00000028,0.00000483,-0.00000276,-0.00000050,-0.000002
 76,0.00000328,-0.00000405,0.00000117,-0.00000423,0.00000198,-0.0000009
 3,0.00000246,0.00000056,-0.00000030,0.,-0.00000103,-0.00000016,-0.0000
 0040,-0.00000047,-0.00000022,-0.00000059,-0.00000051,-0.00000002,0.000
 00001,0.00000094,-0.00000326,-0.00000206,0.00000669,0.00000448,0.00000
 041,-0.00000273,-0.00000161,-0.00000004,-0.00000288,0.00000007,-0.0000
 0022,0.00000229,0.00000220,-0.00000003,0.00000008,0.00000032,-0.000000
 40,-0.00000253,0.00000032,-0.00000267,0.00000150,-0.00000083,-0.000000
 46,0.00000102,-0.00000042,0.00000122,0.00000066,0.00000066,0.00000083,
 -0.00000019,0.00000042,-0.00000041,0.00000004,0.00000016,-0.00000043,-
 0.00000068,-0.00000132,0.00000047,-0.00000031,-0.00000058,0.00000015,0
 .00000025,0.00000020,-0.00000072,0.00000057,0.00000103,-0.00000021,0.0
 0000045,0.00000042,0.00000139,0.00000028,0.00000050,-0.00000023,-0.000
 00004,-0.00000032,0.00000005,-0.00000104,0.00000217,-0.00000094,0.0000
 0012,0.00000076,-0.00000094,0.00000011,-0.00000097,0.00000016,-0.00000
 034,-0.00000204,0.00000107,-0.00000012,-0.00000041,-0.00000109,0.00000
 004,0.00000010,-0.00000051,0.00000064,-0.00000001,-0.00000008,0.000000
 94,-0.00000048,0.00000085,0.00000005,-0.00000032,0.00000071,-0.0000007
 4,0.00000027,-0.00000109,0.00000102,-0.00000089,-0.00000015,0.00000062
 ,-0.00000102,-0.00000010,0.00000015,-0.00000004,-0.00000038,-0.0000009
 2,-0.00000012,-0.00000032,-0.00000090\\\@
 The archive entry for this job was punched.


 ACHIEVEMENT--  THE MAN WHO ROWS THE BOAT GENERALLY 
                DOESN'T HAVE TIME TO ROCK IT.

                   -- FROM THE BACK OF A SUGAR PACKET
 Job cpu time:       0 days  6 hours 56 minutes 50.6 seconds.
 Elapsed time:       0 days  0 hours 10 minutes 30.2 seconds.
 File lengths (MBytes):  RWF=   2834 Int=      0 D2E=      0 Chk=     34 Scr=      1
 Normal termination of Gaussian 16 at Mon Feb 26 13:03:47 2024.
