 Entering Gaussian System, Link 0=g16
 Initial command:
 /public/software/apps/Gaussian/g16/l1.exe "/tmp/Gau-88141.inp" -scrdir="/tmp/"
 Entering Link 1 = /public/software/apps/Gaussian/g16/l1.exe PID=     88142.
  
 Copyright (c) 1988-2019, Gaussian, Inc.  All Rights Reserved.
  
 This is part of the Gaussian(R) 16 program.  It is based on
 the Gaussian(R) 09 system (copyright 2009, Gaussian, Inc.),
 the Gaussian(R) 03 system (copyright 2003, Gaussian, Inc.),
 the Gaussian(R) 98 system (copyright 1998, Gaussian, Inc.),
 the Gaussian(R) 94 system (copyright 1995, Gaussian, Inc.),
 the Gaussian 92(TM) system (copyright 1992, Gaussian, Inc.),
 the Gaussian 90(TM) system (copyright 1990, Gaussian, Inc.),
 the Gaussian 88(TM) system (copyright 1988, Gaussian, Inc.),
 the Gaussian 86(TM) system (copyright 1986, Carnegie Mellon
 University), and the Gaussian 82(TM) system (copyright 1983,
 Carnegie Mellon University). Gaussian is a federally registered
 trademark of Gaussian, Inc.
  
 This software contains proprietary and confidential information,
 including trade secrets, belonging to Gaussian, Inc.
  
 This software is provided under written license and may be
 used, copied, transmitted, or stored only in accord with that
 written license.
  
 The following legend is applicable only to US Government
 contracts under FAR:
  
                    RESTRICTED RIGHTS LEGEND
  
 Use, reproduction and disclosure by the US Government is
 subject to restrictions as set forth in subparagraphs (a)
 and (c) of the Commercial Computer Software - Restricted
 Rights clause in FAR 52.227-19.
  
 Gaussian, Inc.
 340 Quinnipiac St., Bldg. 40, Wallingford CT 06492
  
  
 ---------------------------------------------------------------
 Warning -- This program may not be used in any manner that
 competes with the business of Gaussian, Inc. or will provide
 assistance to any competitor of Gaussian, Inc.  The licensee
 of this program is prohibited from giving any competitor of
 Gaussian, Inc. access to this program.  By using this program,
 the user acknowledges that Gaussian, Inc. is engaged in the
 business of creating and licensing software in the field of
 computational chemistry and represents and warrants to the
 licensee that it is not a competitor of Gaussian, Inc. and that
 it will not use this program in any manner prohibited above.
 ---------------------------------------------------------------
  

 Cite this work as:
 Gaussian 16, Revision C.01,
 M. J. Frisch, G. W. Trucks, H. B. Schlegel, G. E. Scuseria, 
 M. A. Robb, J. R. Cheeseman, G. Scalmani, V. Barone, 
 G. A. Petersson, H. Nakatsuji, X. Li, M. Caricato, A. V. Marenich, 
 J. Bloino, B. G. Janesko, R. Gomperts, B. Mennucci, H. P. Hratchian, 
 J. V. Ortiz, A. F. Izmaylov, J. L. Sonnenberg, D. Williams-Young, 
 F. Ding, F. Lipparini, F. Egidi, J. Goings, B. Peng, A. Petrone, 
 T. Henderson, D. Ranasinghe, V. G. Zakrzewski, J. Gao, N. Rega, 
 G. Zheng, W. Liang, M. Hada, M. Ehara, K. Toyota, R. Fukuda, 
 J. Hasegawa, M. Ishida, T. Nakajima, Y. Honda, O. Kitao, H. Nakai, 
 T. Vreven, K. Throssell, J. A. Montgomery, Jr., J. E. Peralta, 
 F. Ogliaro, M. J. Bearpark, J. J. Heyd, E. N. Brothers, K. N. Kudin, 
 V. N. Staroverov, T. A. Keith, R. Kobayashi, J. Normand, 
 K. Raghavachari, A. P. Rendell, J. C. Burant, S. S. Iyengar, 
 J. Tomasi, M. Cossi, J. M. Millam, M. Klene, C. Adamo, R. Cammi, 
 J. W. Ochterski, R. L. Martin, K. Morokuma, O. Farkas, 
 J. B. Foresman, and D. J. Fox, Gaussian, Inc., Wallingford CT, 2019.
 
 ******************************************
 Gaussian 16:  ES64L-G16RevC.01  3-Jul-2019
                31-Jul-2024 
 ******************************************
 %nprocshared=32
 Will use up to   32 processors via shared memory.
 %mem=100GB
 ------------------------------------------
 #p opt freq b3lyp/def2svpp em=gd3bj nosymm
 ------------------------------------------
 1/18=20,19=15,26=3,38=1/1,3;
 2/9=110,12=2,15=1,17=6,18=5,40=1/2;
 3/5=43,7=202,11=2,25=1,30=1,71=1,74=-5,124=41/1,2,3;
 4//1;
 5/5=2,38=5/2;
 6/7=2,8=2,9=2,10=2,28=1/1;
 7/30=1/1,2,3,16;
 1/18=20,19=15,26=3/3(2);
 2/9=110,15=1/2;
 99//99;
 2/9=110,15=1/2;
 3/5=43,7=202,11=2,25=1,30=1,71=1,74=-5,124=41/1,2,3;
 4/5=5,16=3,69=1/1;
 5/5=2,38=5/2;
 7/30=1/1,2,3,16;
 1/18=20,19=15,26=3/3(-5);
 2/9=110,15=1/2;
 6/7=2,8=2,9=2,10=2,19=2,28=1/1;
 99/9=1/99;
 Leave Link    1 at Wed Jul 31 20:57:15 2024, MaxMem= 13421772800 cpu:               0.9 elap:               0.0
 (Enter /public/software/apps/Gaussian/g16/l101.exe)
 ----------------------
 $$$$Singlemol####0????
 ----------------------
 Symbolic Z-matrix:
 Charge =  0 Multiplicity = 1
 C                    -5.8395    0.9815   -2.1761 
 C                    -4.5234    0.784    -2.5937 
 C                    -3.5609    0.3472   -1.681 
 C                    -3.9297    0.1098   -0.3443 
 C                    -2.934    -0.3545    0.6524 
 C                    -3.2998   -0.5887    1.9891 
 C                    -2.3362   -1.0242    2.8999 
 C                    -1.0205   -1.2242    2.482 
 C                    -0.6818   -0.9842    1.1443 
 C                     0.6953   -1.1827    0.6697 
 N                     1.0482   -0.9733   -0.5524 
 C                     2.4714   -1.2534   -0.6907 
 C                     3.2341   -0.0069   -0.9422 
 C                     3.1736    0.7982   -2.0828 
 C                     3.9724    1.9506   -2.138 
 C                     4.815     2.2787   -1.0606 
 C                     4.8611    1.4555    0.0751 
 C                     4.0565    0.3137    0.1111 
 C                     3.9738   -0.6755    1.2132 
 C                     2.9228   -1.6926    0.7215 
 O                     1.7304   -1.6043    1.4839 
 N                    -1.6401   -0.5595    0.2752 
 N                    -5.2253    0.3128    0.0309 
 C                    -6.1755    0.7377   -0.844 
 H                    -6.5914    1.3199   -2.8772 
 H                    -4.2486    0.9692   -3.6241 
 H                    -2.5431    0.1982   -2.0186 
 H                    -4.3166   -0.4377    2.3286 
 H                    -2.6097   -1.2066    3.9312 
 H                    -0.2781   -1.5617    3.1944 
 H                     2.6608   -2.0282   -1.4644 
 H                     2.5225    0.5401   -2.9081 
 H                     3.9401    2.5882   -3.0118 
 H                     5.43      3.168    -1.1076 
 H                     5.5087    1.7018    0.9067 
 H                     3.6574   -0.1802    2.1566 
 H                     4.9594   -1.1692    1.3523 
 H                     3.3127   -2.7337    0.7275 
 H                    -7.1918    0.8861   -0.5043 
 
 ITRead=  0  0  0  0  0  0  0  0  0  0  0  0  0  0  0  0  0  0  0  0
 ITRead=  0  0  0  0  0  0  0  0  0  0  0  0  0  0  0  0  0  0  0
 MicOpt= -1 -1 -1 -1 -1 -1 -1 -1 -1 -1 -1 -1 -1 -1 -1 -1 -1 -1 -1 -1
 MicOpt= -1 -1 -1 -1 -1 -1 -1 -1 -1 -1 -1 -1 -1 -1 -1 -1 -1 -1 -1
 NAtoms=     39 NQM=       39 NQMF=       0 NMMI=      0 NMMIF=      0
                NMic=       0 NMicF=      0.
                    Isotopes and Nuclear Properties:
 (Nuclear quadrupole moments (NQMom) in fm**2, nuclear magnetic moments (NMagM)
  in nuclear magnetons)

  Atom         1           2           3           4           5           6           7           8           9          10
 IAtWgt=          12          12          12          12          12          12          12          12          12          12
 AtmWgt=  12.0000000  12.0000000  12.0000000  12.0000000  12.0000000  12.0000000  12.0000000  12.0000000  12.0000000  12.0000000
 NucSpn=           0           0           0           0           0           0           0           0           0           0
 AtZEff=  -0.0000000  -0.0000000  -0.0000000  -0.0000000  -0.0000000  -0.0000000  -0.0000000  -0.0000000  -0.0000000  -0.0000000
 NQMom=    0.0000000   0.0000000   0.0000000   0.0000000   0.0000000   0.0000000   0.0000000   0.0000000   0.0000000   0.0000000
 NMagM=    0.0000000   0.0000000   0.0000000   0.0000000   0.0000000   0.0000000   0.0000000   0.0000000   0.0000000   0.0000000
 AtZNuc=   6.0000000   6.0000000   6.0000000   6.0000000   6.0000000   6.0000000   6.0000000   6.0000000   6.0000000   6.0000000

  Atom        11          12          13          14          15          16          17          18          19          20
 IAtWgt=          14          12          12          12          12          12          12          12          12          12
 AtmWgt=  14.0030740  12.0000000  12.0000000  12.0000000  12.0000000  12.0000000  12.0000000  12.0000000  12.0000000  12.0000000
 NucSpn=           2           0           0           0           0           0           0           0           0           0
 AtZEff=  -0.0000000  -0.0000000  -0.0000000  -0.0000000  -0.0000000  -0.0000000  -0.0000000  -0.0000000  -0.0000000  -0.0000000
 NQMom=    2.0440000   0.0000000   0.0000000   0.0000000   0.0000000   0.0000000   0.0000000   0.0000000   0.0000000   0.0000000
 NMagM=    0.4037610   0.0000000   0.0000000   0.0000000   0.0000000   0.0000000   0.0000000   0.0000000   0.0000000   0.0000000
 AtZNuc=   7.0000000   6.0000000   6.0000000   6.0000000   6.0000000   6.0000000   6.0000000   6.0000000   6.0000000   6.0000000

  Atom        21          22          23          24          25          26          27          28          29          30
 IAtWgt=          16          14          14          12           1           1           1           1           1           1
 AtmWgt=  15.9949146  14.0030740  14.0030740  12.0000000   1.0078250   1.0078250   1.0078250   1.0078250   1.0078250   1.0078250
 NucSpn=           0           2           2           0           1           1           1           1           1           1
 AtZEff=  -0.0000000  -0.0000000  -0.0000000  -0.0000000  -0.0000000  -0.0000000  -0.0000000  -0.0000000  -0.0000000  -0.0000000
 NQMom=    0.0000000   2.0440000   2.0440000   0.0000000   0.0000000   0.0000000   0.0000000   0.0000000   0.0000000   0.0000000
 NMagM=    0.0000000   0.4037610   0.4037610   0.0000000   2.7928460   2.7928460   2.7928460   2.7928460   2.7928460   2.7928460
 AtZNuc=   8.0000000   7.0000000   7.0000000   6.0000000   1.0000000   1.0000000   1.0000000   1.0000000   1.0000000   1.0000000

  Atom        31          32          33          34          35          36          37          38          39
 IAtWgt=           1           1           1           1           1           1           1           1           1
 AtmWgt=   1.0078250   1.0078250   1.0078250   1.0078250   1.0078250   1.0078250   1.0078250   1.0078250   1.0078250
 NucSpn=           1           1           1           1           1           1           1           1           1
 AtZEff=  -0.0000000  -0.0000000  -0.0000000  -0.0000000  -0.0000000  -0.0000000  -0.0000000  -0.0000000  -0.0000000
 NQMom=    0.0000000   0.0000000   0.0000000   0.0000000   0.0000000   0.0000000   0.0000000   0.0000000   0.0000000
 NMagM=    2.7928460   2.7928460   2.7928460   2.7928460   2.7928460   2.7928460   2.7928460   2.7928460   2.7928460
 AtZNuc=   1.0000000   1.0000000   1.0000000   1.0000000   1.0000000   1.0000000   1.0000000   1.0000000   1.0000000
 Leave Link  101 at Wed Jul 31 20:57:15 2024, MaxMem= 13421772800 cpu:               4.4 elap:               0.1
 (Enter /public/software/apps/Gaussian/g16/l103.exe)

 GradGradGradGradGradGradGradGradGradGradGradGradGradGradGradGradGradGrad
 Berny optimization.
 Initialization pass.
                           ----------------------------
                           !    Initial Parameters    !
                           ! (Angstroms and Degrees)  !
 --------------------------                            --------------------------
 ! Name  Definition              Value          Derivative Info.                !
 --------------------------------------------------------------------------------
 ! R1    R(1,2)                  1.3948         estimate D2E/DX2                !
 ! R2    R(1,24)                 1.3953         estimate D2E/DX2                !
 ! R3    R(1,25)                 1.0823         estimate D2E/DX2                !
 ! R4    R(2,3)                  1.3965         estimate D2E/DX2                !
 ! R5    R(2,26)                 1.0824         estimate D2E/DX2                !
 ! R6    R(3,4)                  1.4068         estimate D2E/DX2                !
 ! R7    R(3,27)                 1.0826         estimate D2E/DX2                !
 ! R8    R(4,5)                  1.4834         estimate D2E/DX2                !
 ! R9    R(4,23)                 1.364          estimate D2E/DX2                !
 ! R10   R(5,6)                  1.4055         estimate D2E/DX2                !
 ! R11   R(5,22)                 1.3633         estimate D2E/DX2                !
 ! R12   R(6,7)                  1.3956         estimate D2E/DX2                !
 ! R13   R(6,28)                 1.0826         estimate D2E/DX2                !
 ! R14   R(7,8)                  1.3949         estimate D2E/DX2                !
 ! R15   R(7,29)                 1.0824         estimate D2E/DX2                !
 ! R16   R(8,9)                  1.4006         estimate D2E/DX2                !
 ! R17   R(8,30)                 1.0829         estimate D2E/DX2                !
 ! R18   R(9,10)                 1.4701         estimate D2E/DX2                !
 ! R19   R(9,22)                 1.3616         estimate D2E/DX2                !
 ! R20   R(10,11)                1.2892         estimate D2E/DX2                !
 ! R21   R(10,21)                1.3828         estimate D2E/DX2                !
 ! R22   R(11,12)                1.4571         estimate D2E/DX2                !
 ! R23   R(12,13)                1.4828         estimate D2E/DX2                !
 ! R24   R(12,20)                1.5463         estimate D2E/DX2                !
 ! R25   R(12,31)                1.1112         estimate D2E/DX2                !
 ! R26   R(13,14)                1.3974         estimate D2E/DX2                !
 ! R27   R(13,18)                1.3743         estimate D2E/DX2                !
 ! R28   R(14,15)                1.4033         estimate D2E/DX2                !
 ! R29   R(14,32)                1.0824         estimate D2E/DX2                !
 ! R30   R(15,16)                1.4066         estimate D2E/DX2                !
 ! R31   R(15,33)                1.0822         estimate D2E/DX2                !
 ! R32   R(16,17)                1.4034         estimate D2E/DX2                !
 ! R33   R(16,34)                1.0823         estimate D2E/DX2                !
 ! R34   R(17,18)                1.3973         estimate D2E/DX2                !
 ! R35   R(17,35)                1.0824         estimate D2E/DX2                !
 ! R36   R(18,19)                1.4832         estimate D2E/DX2                !
 ! R37   R(19,20)                1.543          estimate D2E/DX2                !
 ! R38   R(19,36)                1.1115         estimate D2E/DX2                !
 ! R39   R(19,37)                1.1111         estimate D2E/DX2                !
 ! R40   R(20,21)                1.4181         estimate D2E/DX2                !
 ! R41   R(20,38)                1.1117         estimate D2E/DX2                !
 ! R42   R(23,24)                1.3597         estimate D2E/DX2                !
 ! R43   R(24,39)                1.0818         estimate D2E/DX2                !
 ! A1    A(2,1,24)             119.2299         estimate D2E/DX2                !
 ! A2    A(2,1,25)             120.387          estimate D2E/DX2                !
 ! A3    A(24,1,25)            120.3831         estimate D2E/DX2                !
 ! A4    A(1,2,3)              119.93           estimate D2E/DX2                !
 ! A5    A(1,2,26)             120.023          estimate D2E/DX2                !
 ! A6    A(3,2,26)             120.0471         estimate D2E/DX2                !
 ! A7    A(2,3,4)              119.5437         estimate D2E/DX2                !
 ! A8    A(2,3,27)             119.1563         estimate D2E/DX2                !
 ! A9    A(4,3,27)             121.3            estimate D2E/DX2                !
 ! A10   A(3,4,5)              121.0159         estimate D2E/DX2                !
 ! A11   A(3,4,23)             119.0286         estimate D2E/DX2                !
 ! A12   A(5,4,23)             119.9555         estimate D2E/DX2                !
 ! A13   A(4,5,6)              121.0965         estimate D2E/DX2                !
 ! A14   A(4,5,22)             119.8839         estimate D2E/DX2                !
 ! A15   A(6,5,22)             119.0197         estimate D2E/DX2                !
 ! A16   A(5,6,7)              119.5359         estimate D2E/DX2                !
 ! A17   A(5,6,28)             121.2965         estimate D2E/DX2                !
 ! A18   A(7,6,28)             119.1676         estimate D2E/DX2                !
 ! A19   A(6,7,8)              120.0314         estimate D2E/DX2                !
 ! A20   A(6,7,29)             119.9944         estimate D2E/DX2                !
 ! A21   A(8,7,29)             119.9742         estimate D2E/DX2                !
 ! A22   A(7,8,9)              119.3181         estimate D2E/DX2                !
 ! A23   A(7,8,30)             119.6211         estimate D2E/DX2                !
 ! A24   A(9,8,30)             121.0608         estimate D2E/DX2                !
 ! A25   A(8,9,10)             120.7793         estimate D2E/DX2                !
 ! A26   A(8,9,22)             119.5285         estimate D2E/DX2                !
 ! A27   A(10,9,22)            119.692          estimate D2E/DX2                !
 ! A28   A(9,10,11)            122.7216         estimate D2E/DX2                !
 ! A29   A(9,10,21)            123.5252         estimate D2E/DX2                !
 ! A30   A(11,10,21)           113.753          estimate D2E/DX2                !
 ! A31   A(10,11,12)           109.0343         estimate D2E/DX2                !
 ! A32   A(11,12,13)           110.9101         estimate D2E/DX2                !
 ! A33   A(11,12,20)           104.6584         estimate D2E/DX2                !
 ! A34   A(11,12,31)           111.5063         estimate D2E/DX2                !
 ! A35   A(13,12,20)           104.0943         estimate D2E/DX2                !
 ! A36   A(13,12,31)           112.3567         estimate D2E/DX2                !
 ! A37   A(20,12,31)           112.8356         estimate D2E/DX2                !
 ! A38   A(12,13,14)           126.9044         estimate D2E/DX2                !
 ! A39   A(12,13,18)           111.9579         estimate D2E/DX2                !
 ! A40   A(14,13,18)           121.1374         estimate D2E/DX2                !
 ! A41   A(13,14,15)           118.7243         estimate D2E/DX2                !
 ! A42   A(13,14,32)           120.7295         estimate D2E/DX2                !
 ! A43   A(15,14,32)           120.5461         estimate D2E/DX2                !
 ! A44   A(14,15,16)           120.1613         estimate D2E/DX2                !
 ! A45   A(14,15,33)           119.9091         estimate D2E/DX2                !
 ! A46   A(16,15,33)           119.9295         estimate D2E/DX2                !
 ! A47   A(15,16,17)           120.1796         estimate D2E/DX2                !
 ! A48   A(15,16,34)           119.9221         estimate D2E/DX2                !
 ! A49   A(17,16,34)           119.8983         estimate D2E/DX2                !
 ! A50   A(16,17,18)           118.7672         estimate D2E/DX2                !
 ! A51   A(16,17,35)           120.5244         estimate D2E/DX2                !
 ! A52   A(18,17,35)           120.7083         estimate D2E/DX2                !
 ! A53   A(13,18,17)           121.0301         estimate D2E/DX2                !
 ! A54   A(13,18,19)           112.3679         estimate D2E/DX2                !
 ! A55   A(17,18,19)           126.6005         estimate D2E/DX2                !
 ! A56   A(18,19,20)           103.9345         estimate D2E/DX2                !
 ! A57   A(18,19,36)           110.4473         estimate D2E/DX2                !
 ! A58   A(18,19,37)           109.8711         estimate D2E/DX2                !
 ! A59   A(20,19,36)           111.7348         estimate D2E/DX2                !
 ! A60   A(20,19,37)           110.5615         estimate D2E/DX2                !
 ! A61   A(36,19,37)           110.1365         estimate D2E/DX2                !
 ! A62   A(12,20,19)           107.6167         estimate D2E/DX2                !
 ! A63   A(12,20,21)           103.1712         estimate D2E/DX2                !
 ! A64   A(12,20,38)           111.9195         estimate D2E/DX2                !
 ! A65   A(19,20,21)           111.1235         estimate D2E/DX2                !
 ! A66   A(19,20,38)           112.1285         estimate D2E/DX2                !
 ! A67   A(21,20,38)           110.5067         estimate D2E/DX2                !
 ! A68   A(10,21,20)           109.3818         estimate D2E/DX2                !
 ! A69   A(5,22,9)             122.5664         estimate D2E/DX2                !
 ! A70   A(4,23,24)            122.2271         estimate D2E/DX2                !
 ! A71   A(1,24,23)            120.0408         estimate D2E/DX2                !
 ! A72   A(1,24,39)            120.1361         estimate D2E/DX2                !
 ! A73   A(23,24,39)           119.8231         estimate D2E/DX2                !
 ! D1    D(24,1,2,3)            -0.0039         estimate D2E/DX2                !
 ! D2    D(24,1,2,26)          179.9993         estimate D2E/DX2                !
 ! D3    D(25,1,2,3)           179.9983         estimate D2E/DX2                !
 ! D4    D(25,1,2,26)            0.0014         estimate D2E/DX2                !
 ! D5    D(2,1,24,23)            0.0059         estimate D2E/DX2                !
 ! D6    D(2,1,24,39)          179.9985         estimate D2E/DX2                !
 ! D7    D(25,1,24,23)        -179.9962         estimate D2E/DX2                !
 ! D8    D(25,1,24,39)          -0.0036         estimate D2E/DX2                !
 ! D9    D(1,2,3,4)              0.0001         estimate D2E/DX2                !
 ! D10   D(1,2,3,27)          -179.9874         estimate D2E/DX2                !
 ! D11   D(26,2,3,4)           179.997          estimate D2E/DX2                !
 ! D12   D(26,2,3,27)            0.0095         estimate D2E/DX2                !
 ! D13   D(2,3,4,5)           -179.9926         estimate D2E/DX2                !
 ! D14   D(2,3,4,23)             0.0017         estimate D2E/DX2                !
 ! D15   D(27,3,4,5)            -0.0054         estimate D2E/DX2                !
 ! D16   D(27,3,4,23)          179.9889         estimate D2E/DX2                !
 ! D17   D(3,4,5,6)            179.8247         estimate D2E/DX2                !
 ! D18   D(3,4,5,22)            -0.1376         estimate D2E/DX2                !
 ! D19   D(23,4,5,6)            -0.1696         estimate D2E/DX2                !
 ! D20   D(23,4,5,22)          179.8681         estimate D2E/DX2                !
 ! D21   D(3,4,23,24)            0.0004         estimate D2E/DX2                !
 ! D22   D(5,4,23,24)          179.9948         estimate D2E/DX2                !
 ! D23   D(4,5,6,7)           -179.9529         estimate D2E/DX2                !
 ! D24   D(4,5,6,28)             0.0295         estimate D2E/DX2                !
 ! D25   D(22,5,6,7)             0.0097         estimate D2E/DX2                !
 ! D26   D(22,5,6,28)          179.9921         estimate D2E/DX2                !
 ! D27   D(4,5,22,9)           179.9676         estimate D2E/DX2                !
 ! D28   D(6,5,22,9)             0.0045         estimate D2E/DX2                !
 ! D29   D(5,6,7,8)              0.0037         estimate D2E/DX2                !
 ! D30   D(5,6,7,29)           179.984          estimate D2E/DX2                !
 ! D31   D(28,6,7,8)          -179.979          estimate D2E/DX2                !
 ! D32   D(28,6,7,29)            0.0012         estimate D2E/DX2                !
 ! D33   D(6,7,8,9)             -0.0306         estimate D2E/DX2                !
 ! D34   D(6,7,8,30)           179.9673         estimate D2E/DX2                !
 ! D35   D(29,7,8,9)           179.9892         estimate D2E/DX2                !
 ! D36   D(29,7,8,30)           -0.0129         estimate D2E/DX2                !
 ! D37   D(7,8,9,10)           179.913          estimate D2E/DX2                !
 ! D38   D(7,8,9,22)             0.0443         estimate D2E/DX2                !
 ! D39   D(30,8,9,10)           -0.0849         estimate D2E/DX2                !
 ! D40   D(30,8,9,22)         -179.9536         estimate D2E/DX2                !
 ! D41   D(8,9,10,11)          179.9975         estimate D2E/DX2                !
 ! D42   D(8,9,10,21)           -0.2167         estimate D2E/DX2                !
 ! D43   D(22,9,10,11)          -0.134          estimate D2E/DX2                !
 ! D44   D(22,9,10,21)         179.6517         estimate D2E/DX2                !
 ! D45   D(8,9,22,5)            -0.0317         estimate D2E/DX2                !
 ! D46   D(10,9,22,5)         -179.9019         estimate D2E/DX2                !
 ! D47   D(9,10,11,12)         179.6703         estimate D2E/DX2                !
 ! D48   D(21,10,11,12)         -0.1346         estimate D2E/DX2                !
 ! D49   D(9,10,21,20)        -179.9259         estimate D2E/DX2                !
 ! D50   D(11,10,21,20)         -0.1229         estimate D2E/DX2                !
 ! D51   D(10,11,12,13)       -111.3673         estimate D2E/DX2                !
 ! D52   D(10,11,12,20)          0.311          estimate D2E/DX2                !
 ! D53   D(10,11,12,31)        122.6028         estimate D2E/DX2                !
 ! D54   D(11,12,13,14)        -67.1654         estimate D2E/DX2                !
 ! D55   D(11,12,13,18)        112.6377         estimate D2E/DX2                !
 ! D56   D(20,12,13,14)       -179.204          estimate D2E/DX2                !
 ! D57   D(20,12,13,18)          0.599          estimate D2E/DX2                !
 ! D58   D(31,12,13,14)         58.3896         estimate D2E/DX2                !
 ! D59   D(31,12,13,18)       -121.8074         estimate D2E/DX2                !
 ! D60   D(11,12,20,19)       -117.92           estimate D2E/DX2                !
 ! D61   D(11,12,20,21)         -0.3626         estimate D2E/DX2                !
 ! D62   D(11,12,20,38)        118.4524         estimate D2E/DX2                !
 ! D63   D(13,12,20,19)         -1.4305         estimate D2E/DX2                !
 ! D64   D(13,12,20,21)        116.1268         estimate D2E/DX2                !
 ! D65   D(13,12,20,38)       -125.0581         estimate D2E/DX2                !
 ! D66   D(31,12,20,19)        120.6599         estimate D2E/DX2                !
 ! D67   D(31,12,20,21)       -121.7827         estimate D2E/DX2                !
 ! D68   D(31,12,20,38)         -2.9676         estimate D2E/DX2                !
 ! D69   D(12,13,14,15)        179.7743         estimate D2E/DX2                !
 ! D70   D(12,13,14,32)         -0.1338         estimate D2E/DX2                !
 ! D71   D(18,13,14,15)         -0.0123         estimate D2E/DX2                !
 ! D72   D(18,13,14,32)       -179.9204         estimate D2E/DX2                !
 ! D73   D(12,13,18,17)       -179.8971         estimate D2E/DX2                !
 ! D74   D(12,13,18,19)          0.5245         estimate D2E/DX2                !
 ! D75   D(14,13,18,17)         -0.0811         estimate D2E/DX2                !
 ! D76   D(14,13,18,19)       -179.6595         estimate D2E/DX2                !
 ! D77   D(13,14,15,16)          0.0562         estimate D2E/DX2                !
 ! D78   D(13,14,15,33)       -179.9574         estimate D2E/DX2                !
 ! D79   D(32,14,15,16)        179.9645         estimate D2E/DX2                !
 ! D80   D(32,14,15,33)         -0.0491         estimate D2E/DX2                !
 ! D81   D(14,15,16,17)         -0.0083         estimate D2E/DX2                !
 ! D82   D(14,15,16,34)        179.9527         estimate D2E/DX2                !
 ! D83   D(33,15,16,17)       -179.9947         estimate D2E/DX2                !
 ! D84   D(33,15,16,34)         -0.0337         estimate D2E/DX2                !
 ! D85   D(15,16,17,18)         -0.0827         estimate D2E/DX2                !
 ! D86   D(15,16,17,35)        179.8986         estimate D2E/DX2                !
 ! D87   D(34,16,17,18)        179.9563         estimate D2E/DX2                !
 ! D88   D(34,16,17,35)         -0.0624         estimate D2E/DX2                !
 ! D89   D(16,17,18,13)          0.1278         estimate D2E/DX2                !
 ! D90   D(16,17,18,19)        179.6422         estimate D2E/DX2                !
 ! D91   D(35,17,18,13)       -179.8534         estimate D2E/DX2                !
 ! D92   D(35,17,18,19)         -0.3391         estimate D2E/DX2                !
 ! D93   D(13,18,19,20)         -1.4002         estimate D2E/DX2                !
 ! D94   D(13,18,19,36)       -121.3805         estimate D2E/DX2                !
 ! D95   D(13,18,19,37)        116.923          estimate D2E/DX2                !
 ! D96   D(17,18,19,20)        179.0498         estimate D2E/DX2                !
 ! D97   D(17,18,19,36)         59.0695         estimate D2E/DX2                !
 ! D98   D(17,18,19,37)        -62.627          estimate D2E/DX2                !
 ! D99   D(18,19,20,12)          1.7026         estimate D2E/DX2                !
 ! D100  D(18,19,20,21)       -110.5674         estimate D2E/DX2                !
 ! D101  D(18,19,20,38)        125.2028         estimate D2E/DX2                !
 ! D102  D(36,19,20,12)        120.8066         estimate D2E/DX2                !
 ! D103  D(36,19,20,21)          8.5366         estimate D2E/DX2                !
 ! D104  D(36,19,20,38)       -115.6932         estimate D2E/DX2                !
 ! D105  D(37,19,20,12)       -116.1442         estimate D2E/DX2                !
 ! D106  D(37,19,20,21)        131.5858         estimate D2E/DX2                !
 ! D107  D(37,19,20,38)          7.356          estimate D2E/DX2                !
 ! D108  D(12,20,21,10)          0.3002         estimate D2E/DX2                !
 ! D109  D(19,20,21,10)        115.3638         estimate D2E/DX2                !
 ! D110  D(38,20,21,10)       -119.4919         estimate D2E/DX2                !
 ! D111  D(4,23,24,1)           -0.0042         estimate D2E/DX2                !
 ! D112  D(4,23,24,39)        -179.9969         estimate D2E/DX2                !
 --------------------------------------------------------------------------------
 Trust Radius=3.00D-01 FncErr=1.00D-07 GrdErr=1.00D-06 EigMax=2.50D+02 EigMin=1.00D-04
 Number of steps in this run=    234 maximum allowed number of steps=    234.
 GradGradGradGradGradGradGradGradGradGradGradGradGradGradGradGradGradGrad

 Leave Link  103 at Wed Jul 31 20:57:15 2024, MaxMem= 13421772800 cpu:               0.7 elap:               0.0
 (Enter /public/software/apps/Gaussian/g16/l202.exe)
                          Input orientation:                          
 ---------------------------------------------------------------------
 Center     Atomic      Atomic             Coordinates (Angstroms)
 Number     Number       Type             X           Y           Z
 ---------------------------------------------------------------------
      1          6           0       -5.839500    0.981500   -2.176100
      2          6           0       -4.523400    0.784000   -2.593700
      3          6           0       -3.560900    0.347200   -1.681000
      4          6           0       -3.929700    0.109800   -0.344300
      5          6           0       -2.934000   -0.354500    0.652400
      6          6           0       -3.299800   -0.588700    1.989100
      7          6           0       -2.336200   -1.024200    2.899900
      8          6           0       -1.020500   -1.224200    2.482000
      9          6           0       -0.681800   -0.984200    1.144300
     10          6           0        0.695300   -1.182700    0.669700
     11          7           0        1.048200   -0.973300   -0.552400
     12          6           0        2.471400   -1.253400   -0.690700
     13          6           0        3.234100   -0.006900   -0.942200
     14          6           0        3.173600    0.798200   -2.082800
     15          6           0        3.972400    1.950600   -2.138000
     16          6           0        4.815000    2.278700   -1.060600
     17          6           0        4.861100    1.455500    0.075100
     18          6           0        4.056500    0.313700    0.111100
     19          6           0        3.973800   -0.675500    1.213200
     20          6           0        2.922800   -1.692600    0.721500
     21          8           0        1.730400   -1.604300    1.483900
     22          7           0       -1.640100   -0.559500    0.275200
     23          7           0       -5.225300    0.312800    0.030900
     24          6           0       -6.175500    0.737700   -0.844000
     25          1           0       -6.591400    1.319900   -2.877200
     26          1           0       -4.248600    0.969200   -3.624100
     27          1           0       -2.543100    0.198200   -2.018600
     28          1           0       -4.316600   -0.437700    2.328600
     29          1           0       -2.609700   -1.206600    3.931200
     30          1           0       -0.278100   -1.561700    3.194400
     31          1           0        2.660800   -2.028200   -1.464400
     32          1           0        2.522500    0.540100   -2.908100
     33          1           0        3.940100    2.588200   -3.011800
     34          1           0        5.430000    3.168000   -1.107600
     35          1           0        5.508700    1.701800    0.906700
     36          1           0        3.657400   -0.180200    2.156600
     37          1           0        4.959400   -1.169200    1.352300
     38          1           0        3.312700   -2.733700    0.727500
     39          1           0       -7.191800    0.886100   -0.504300
 ---------------------------------------------------------------------
                    Distance matrix (angstroms):
                    1          2          3          4          5
     1  C    0.000000
     2  C    1.394817   0.000000
     3  C    2.416501   1.396503   0.000000
     4  C    2.786160   2.422153   1.406819   0.000000
     5  C    4.269337   3.789398   2.515977   1.483376   0.000000
     6  C    5.124890   4.937971   3.796540   2.515836   1.405499
     7  C    6.485501   6.183290   4.936119   3.788144   2.420149
     8  C    7.055903   6.485823   5.123817   4.269774   2.786628
     9  C    6.441343   5.644206   4.247842   3.736525   2.389747
    10  C    7.448889   6.461619   5.097217   4.908093   3.722638
    11  N    7.341530   6.188516   4.925572   5.098617   4.206230
    12  C    8.733399   7.529916   6.319118   6.553807   5.641834
    13  C    9.210302   7.970683   6.844212   7.189655   6.380363
    14  C    9.015446   7.713950   6.761533   7.345281   6.790642
    15  C    9.859715   8.587621   7.715591   8.309578   7.797319
    16  C   10.790989   9.580722   8.618079   9.038086   8.361526
    17  C   10.945109   9.779685   8.674232   8.903088   8.023276
    18  C   10.178804   9.008430   7.825441   8.001772   7.043194
    19  C   10.513508   9.424703   8.135970   8.093690   6.937956
    20  C    9.608579   8.518802   7.209102   7.165287   6.008111
    21  O    8.796894   7.838419   6.467055   6.190088   4.900002
    22  N    5.100835   4.283573   2.887611   2.464551   1.363262
    23  N    2.386472   2.757393   2.387889   1.364025   2.466091
    24  C    1.395287   2.406871   2.772939   2.384864   3.733555
    25  H    1.082317   2.155037   3.400143   3.868407   5.351473
    26  H    2.151236   1.082376   2.153010   3.405489   4.665705
    27  H    3.391846   2.143709   1.082632   2.175719   2.755453
    28  H    4.962426   5.075860   4.155002   2.755693   2.174431
    29  H    7.246965   7.085129   5.900497   4.664248   3.403201
    30  H    8.138753   7.551621   6.179822   5.352615   3.869483
    31  H    9.045436   7.797212   6.663257   7.018572   6.211594
    32  H    8.405576   7.057127   6.208924   6.956228   6.576539
    33  H    9.945876   8.663762   7.940914   8.671319   8.327010
    34  H   11.529272  10.342249   9.440444   9.876194   9.244572
    35  H   11.781517  10.664811   9.528314   9.653127   8.693228
    36  H   10.502997   9.508971   8.192019   7.993916   6.763102
    37  H   11.562498  10.455114   9.170381   9.139496   7.966138
    38  H   10.295454   9.209183   7.908173   7.854082   6.684870
    39  H    2.152378   3.390631   3.854669   3.357013   4.583220
                    6          7          8          9         10
     6  C    0.000000
     7  C    1.395615   0.000000
     8  C    2.417027   1.394886   0.000000
     9  C    2.779214   2.412627   1.400628   0.000000
    10  C    4.249056   3.766816   2.496021   1.470052   0.000000
    11  N    5.050965   4.834783   3.681040   2.423182   1.289153
    12  C    6.397648   6.004828   4.718076   3.658191   2.238352
    13  C    7.184905   6.842870   5.595408   4.543443   3.228968
    14  C    7.772308   7.648944   6.520581   5.334345   4.200261
    15  C    8.738758   8.603970   7.506851   6.406881   5.332929
    16  C    9.130862   8.816710   7.672899   6.761872   5.652182
    17  C    8.628003   8.119700   6.896896   6.149721   4.966643
    18  C    7.645676   7.101690   5.810528   5.020312   3.721413
    19  C    7.315382   6.540845   5.182080   4.666332   3.361727
    20  C    6.445631   5.731428   4.343774   3.697801   2.285703
    21  O    5.156509   4.344975   2.950954   2.513675   1.382787
    22  N    2.385982   2.754914   2.386566   1.361633   2.449102
    23  N    2.890467   4.285514   5.103979   4.854406   6.139877
    24  C    4.249170   5.644582   6.440912   6.090896   7.292950
    25  H    6.177237   7.548272   8.138083   7.510307   8.481716
    26  H    5.902143   7.084737   7.246799   6.267015   6.892716
    27  H    4.153729   5.072348   4.959530   3.855703   4.429568
    28  H    1.082563   2.142977   3.392107   3.861735   5.331615
    29  H    2.151695   1.082429   2.150825   3.396038   4.643380
    30  H    3.395607   2.147420   1.082856   2.167808   2.732263
    31  H    7.037583   6.710077   5.456414   4.366718   3.021993
    32  H    7.691290   7.732197   6.687210   5.386369   4.371196
    33  H    9.355097   9.348239   8.326091   7.169182   6.188849
    34  H    9.995587   9.692701   8.589854   7.724372   6.671190
    35  H    9.165569   8.540865   7.326220   6.752284   5.616523
    36  H    6.971195   6.098202   4.804016   4.527673   3.462646
    37  H    8.304028   7.459348   6.085922   5.648064   4.318411
    38  H    7.065254   6.289021   4.912584   4.380697   3.042980
    39  H    4.851777   6.230142   7.173305   6.971083   8.237995
                   11         12         13         14         15
    11  N    0.000000
    12  C    1.457080   0.000000
    13  C    2.421576   1.482810   0.000000
    14  C    3.161908   2.576837   1.397431   0.000000
    15  C    4.428799   3.822734   2.409737   1.403266   0.000000
    16  C    5.002255   4.254999   2.781588   2.435358   1.406561
    17  C    4.564103   3.692595   2.412601   2.817132   2.435718
    18  C    3.338633   2.368803   1.374251   2.414011   2.782978
    19  C    3.430038   2.493193   2.374854   3.698071   4.257575
    20  C    2.377885   1.546275   2.388805   3.759133   4.748822
    21  O    2.238320   2.324026   3.270896   4.536098   5.548156
    22  N    2.843081   4.280058   5.054231   5.529487   6.604869
    23  N    6.430482   7.887514   8.521184   8.674380   9.590839
    24  C    7.429293   8.874506   9.439526   9.431010  10.301720
    25  H    8.308246   9.671453  10.101736   9.811140  10.608396
    26  H    6.423763   7.661800   8.008505   7.582473   8.411687
    27  H    4.052109   5.386620   5.880199   5.748459   6.748104
    28  H    6.112946   7.473853   8.239951   8.780148   9.714011
    29  H    5.791142   6.868896   7.703201   8.581024   9.493532
    30  H    4.017934   4.769570   5.644857   6.732919   7.670560
    31  H    2.131909   1.111215   2.164953   2.938353   4.243216
    32  H    3.164374   2.852388   2.161098   1.082436   2.164434
    33  H    5.205383   4.722550   3.393556   2.157467   1.082175
    34  H    6.054650   5.336281   3.863848   3.414426   2.160645
    35  H    5.401962   4.528806   3.392918   3.899525   3.419403
    36  H    3.843906   3.265803   3.132376   4.377652   4.804490
    37  H    4.354738   3.220417   3.097149   4.342771   4.784299
    38  H    3.140878   2.215934   3.198361   4.515690   5.530729
    39  H    8.447324   9.898972  10.473232  10.485271  11.333203
                   16         17         18         19         20
    16  C    0.000000
    17  C    1.403424   0.000000
    18  C    2.410276   1.397277   0.000000
    19  C    3.821660   2.573662   1.483233   0.000000
    20  C    4.746317   3.753049   2.383926   1.543004   0.000000
    21  O    5.573771   4.598736   3.312710   2.443111   1.418051
    22  N    7.176911   6.809249   5.765471   5.692906   4.722622
    23  N   10.289012  10.151019   9.282147   9.327272   8.419625
    24  C   11.100121  11.098041  10.285223  10.451674   9.546529
    25  H   11.589879  11.827689  11.104961  11.503758  10.608761
    26  H    9.509741   9.844146   9.129955   9.680515   8.797636
    27  H    7.706353   7.796574   6.935682   7.326518   6.399948
    28  H   10.111955   9.638083   8.694292   8.368476   7.521068
    29  H    9.601643   8.818681   7.832158   7.142273   6.414587
    30  H    7.667683   6.726433   5.640268   4.773799   4.046990
    31  H    4.832496   4.398585   3.148758   3.274646   2.226978
    32  H    3.419290   3.899550   3.394110   4.535314   4.280092
    33  H    2.160653   3.414704   3.865152   5.338867   5.770414
    34  H    1.082261   2.157564   3.393930   4.720077   5.766896
    35  H    2.164325   1.082408   2.160714   2.846299   4.271198
    36  H    4.211485   2.908101   2.141796   1.111501   2.210544
    37  H    4.210814   2.920608   2.134197   1.111079   2.195358
    38  H    5.529770   4.513598   3.196848   2.215659   1.111732
    39  H   12.100085  12.080245  11.279655  11.404342  10.509872
                   21         22         23         24         25
    21  O    0.000000
    22  N    3.729991   0.000000
    23  N    7.359908   3.697871   0.000000
    24  C    8.567808   4.848215   1.359732   0.000000
    25  H    9.839842   6.163209   3.367124   2.155419   0.000000
    26  H    8.274238   4.934140   3.839769   3.390500   2.483860
    27  H    5.811997   2.578960   3.377541   3.855525   4.287673
    28  H    6.216163   3.375639   2.582327   3.860371   5.946783
    29  H    4.998391   3.837343   4.935816   6.268793   8.281995
    30  H    2.638503   3.373600   6.164111   7.508345   9.220938
    31  H    3.120546   4.866316   8.361027   9.279833   9.940271
    32  H    4.951317   5.354415   8.289619   8.941742   9.147252
    33  H    6.532316   7.200765   9.921695  10.509475  10.608449
    34  H    6.570979   8.111270  11.089805  11.860163  12.290688
    35  H    5.053613   7.524468  10.858872  11.853901  12.683697
    36  H    2.488758   5.634451   9.146803  10.321437  11.516395
    37  H    3.260839   6.714557  10.376441  11.508519  12.550110
    38  H    2.085991   5.427886   9.091967  10.224782  11.292331
    39  H    9.474212   5.789538   2.117129   1.081797   2.485823
                   26         27         28         29         30
    26  H    0.000000
    27  H    2.465928   0.000000
    28  H    6.117077   4.737913   0.000000
    29  H    8.031355   6.113757   2.464354   0.000000
    30  H    8.286270   5.950029   4.280475   2.470896   0.000000
    31  H    7.835083   5.687229   8.099423   7.587206   5.528035
    32  H    6.822359   5.154455   8.669049   8.727340   7.035725
    33  H    8.369640   6.980718  10.288296  10.271594   8.575068
    34  H   10.239277   8.556866  10.945536  10.448129   8.570862
    35  H   10.782845   8.697682  10.155579   9.138644   7.026454
    36  H    9.861159   7.484763   7.980010   6.593879   4.298108
    37  H   10.682910   8.337881   9.355877   7.996462   5.565860
    38  H    9.477402   7.101232   8.126583   6.904386   4.511433
    39  H    4.289812   4.937279   4.247887   6.711832   8.214095
                   31         32         33         34         35
    31  H    0.000000
    32  H    2.949502   0.000000
    33  H    5.034104   2.493002   0.000000
    34  H    5.898836   4.312913   2.486352   0.000000
    35  H    5.257904   4.981931   4.312871   2.492657   0.000000
    36  H    4.185685   5.240040   5.869950   5.000756   2.920871
    37  H    3.735672   5.197230   5.848281   5.008381   2.956845
    38  H    2.393142   4.955781   6.534418   6.533040   4.952594
    39  H   10.319334  10.013271  11.537066  12.840595  12.804647
                   36         37         38         39
    36  H    0.000000
    37  H    1.822148   0.000000
    38  H    2.946440   2.355771   0.000000
    39  H   11.221521  12.462860  11.178766   0.000000
 Symmetry turned off by external request.
 Stoichiometry    C20H15N3O
 Framework group  C1[X(C20H15N3O)]
 Deg. of freedom   111
 Full point group                 C1      NOp   1
 Rotational constants (GHZ):           0.4569049           0.1186893           0.1003114
 Leave Link  202 at Wed Jul 31 20:57:15 2024, MaxMem= 13421772800 cpu:               0.2 elap:               0.0
 (Enter /public/software/apps/Gaussian/g16/l301.exe)
 Standard basis: def2SVPP (5D, 7F)
 Ernie: Thresh=  0.10000D-02 Tol=  0.10000D-05 Strict=F.
   366 basis functions,   660 primitive gaussians,   390 cartesian basis functions
    82 alpha electrons       82 beta electrons
       nuclear repulsion energy      1812.4676257800 Hartrees.
 IExCor=  402 DFT=T Ex+Corr=B3LYP ExCW=0 ScaHFX=  0.200000
 ScaDFX=  0.800000  0.720000  1.000000  0.810000 ScalE2=  1.000000  1.000000
 IRadAn=      5 IRanWt=     -1 IRanGd=            0 ICorTp=0 IEmpDi=141
 NAtoms=   39 NActive=   39 NUniq=   39 SFac= 1.00D+00 NAtFMM=   60 NAOKFM=F Big=F
 Integral buffers will be    131072 words long.
 Raffenetti 2 integral format.
 Two-electron integral symmetry is turned off.
 R6Disp:  Grimme-D3(BJ) Dispersion energy=       -0.0885583045 Hartrees.
 Nuclear repulsion after empirical dispersion term =     1812.3790674755 Hartrees.
 Leave Link  301 at Wed Jul 31 20:57:15 2024, MaxMem= 13421772800 cpu:               0.9 elap:               0.0
 (Enter /public/software/apps/Gaussian/g16/l302.exe)
 NPDir=0 NMtPBC=     1 NCelOv=     1 NCel=       1 NClECP=     1 NCelD=      1
         NCelK=      1 NCelE2=     1 NClLst=     1 CellRange=     0.0.
 One-electron integrals computed using PRISM.
   1 Symmetry operations used in ECPInt.
 ECPInt:  NShTT=   15225 NPrTT=   61083 LenC2=   13172 LenP2D=   34772.
 LDataN:  DoStor=T MaxTD1= 4 Len=   56
 NBasis=   366 RedAO= T EigKep=  2.72D-04  NBF=   366
 NBsUse=   366 1.00D-06 EigRej= -1.00D+00 NBFU=   366
 Precomputing XC quadrature grid using
 IXCGrd= 4 IRadAn=           5 IRanWt=          -1 IRanGd=           0 AccXCQ= 0.00D+00.
 Generated NRdTot=       0 NPtTot=           0 NUsed=           0 NTot=          32
 NSgBfM=   383   383   383   383   383 MxSgAt=    39 MxSgA2=    39.
 Leave Link  302 at Wed Jul 31 20:57:15 2024, MaxMem= 13421772800 cpu:               9.1 elap:               0.3
 (Enter /public/software/apps/Gaussian/g16/l303.exe)
 DipDrv:  MaxL=1.
 Leave Link  303 at Wed Jul 31 20:57:15 2024, MaxMem= 13421772800 cpu:               1.1 elap:               0.0
 (Enter /public/software/apps/Gaussian/g16/l401.exe)
 ExpMin= 1.22D-01 ExpMax= 2.27D+03 ExpMxC= 3.41D+02 IAcc=3 IRadAn=         5 AccDes= 0.00D+00
 Harris functional with IExCor=  402 and IRadAn=       5 diagonalized for initial guess.
 HarFok:  IExCor=  402 AccDes= 0.00D+00 IRadAn=         5 IDoV= 1 UseB2=F ITyADJ=14
 ICtDFT=  3500011 ScaDFX=  1.000000  1.000000  1.000000  1.000000
 FoFCou: FMM=F IPFlag=           0 FMFlag=      100000 FMFlg1=           0
         NFxFlg=           0 DoJE=T BraDBF=F KetDBF=T FulRan=T
         wScrn=  0.000000 ICntrl=       500 IOpCl=  0 I1Cent=   200000004 NGrid=           0
         NMat0=    1 NMatS0=      1 NMatT0=    0 NMatD0=    1 NMtDS0=    0 NMtDT0=    0
 Symmetry not used in FoFCou.
 Harris En= -1009.85741865283    
 JPrj=0 DoOrth=F DoCkMO=F.
 Leave Link  401 at Wed Jul 31 20:57:16 2024, MaxMem= 13421772800 cpu:              21.7 elap:               0.7
 (Enter /public/software/apps/Gaussian/g16/l502.exe)
 Two-electron integral symmetry not used.
 Closed shell SCF:
 Using DIIS extrapolation, IDIIS=  1040.
 NGot= 13421772800 LenX= 13421451898 LenY= 13421299357
 Requested convergence on RMS density matrix=1.00D-08 within 128 cycles.
 Requested convergence on MAX density matrix=1.00D-06.
 Requested convergence on             energy=1.00D-06.
 No special actions if energy rises.
 Fock matrices will be formed incrementally for  20 cycles.
 Integral accuracy reduced to 1.0D-05 until final iterations.

 Cycle   1  Pass 0  IDiag  1:
 FoFJK:  IHMeth= 1 ICntrl=       0 DoSepK=F KAlg= 0 I1Cent=           0 FoldK=F
 IRaf= 780000000 NMat=       1 IRICut=       1 DoRegI=T DoRafI=F ISym2E= 0 IDoP0=0 IntGTp=1.
 FoFCou: FMM=F IPFlag=           0 FMFlag=      100000 FMFlg1=           0
         NFxFlg=           0 DoJE=F BraDBF=F KetDBF=F FulRan=T
         wScrn=  0.000000 ICntrl=         0 IOpCl=  0 I1Cent=           0 NGrid=           0
         NMat0=    1 NMatS0=      1 NMatT0=    0 NMatD0=    1 NMtDS0=    0 NMtDT0=    0
 Symmetry not used in FoFCou.
 E= -1009.55665943385    
 DIIS: error= 3.01D-02 at cycle   1 NSaved=   1.
 NSaved= 1 IEnMin= 1 EnMin= -1009.55665943385     IErMin= 1 ErrMin= 3.01D-02
 ErrMax= 3.01D-02  0.00D+00 EMaxC= 1.00D-01 BMatC= 3.49D-01 BMatP= 3.49D-01
 IDIUse=3 WtCom= 6.99D-01 WtEn= 3.01D-01
 Coeff-Com:  0.100D+01
 Coeff-En:   0.100D+01
 Coeff:      0.100D+01
 Gap=     0.165 Goal=   None    Shift=    0.000
 GapD=    0.165 DampG=1.000 DampE=0.500 DampFc=0.5000 IDamp=-1.
 Damping current iteration by 5.00D-01
 RMSDP=5.24D-03 MaxDP=1.54D-01              OVMax= 2.08D-01

 Cycle   2  Pass 0  IDiag  1:
 RMSU=  2.51D-03    CP:  9.64D-01
 E= -1009.72302692615     Delta-E=       -0.166367492297 Rises=F Damp=T
 DIIS: error= 5.44D-03 at cycle   2 NSaved=   2.
 NSaved= 2 IEnMin= 2 EnMin= -1009.72302692615     IErMin= 2 ErrMin= 5.44D-03
 ErrMax= 5.44D-03  0.00D+00 EMaxC= 1.00D-01 BMatC= 3.20D-02 BMatP= 3.49D-01
 IDIUse=3 WtCom= 9.46D-01 WtEn= 5.44D-02
 Coeff-Com:  0.896D-01 0.910D+00
 Coeff-En:   0.128D+00 0.872D+00
 Coeff:      0.917D-01 0.908D+00
 Gap=     0.195 Goal=   None    Shift=    0.000
 RMSDP=1.94D-03 MaxDP=7.53D-02 DE=-1.66D-01 OVMax= 2.13D-01

 Cycle   3  Pass 0  IDiag  1:
 RMSU=  1.87D-03    CP:  9.39D-01  1.02D+00
 E= -1009.90444408739     Delta-E=       -0.181417161241 Rises=F Damp=F
 DIIS: error= 1.18D-02 at cycle   3 NSaved=   3.
 NSaved= 3 IEnMin= 3 EnMin= -1009.90444408739     IErMin= 2 ErrMin= 5.44D-03
 ErrMax= 1.18D-02  0.00D+00 EMaxC= 1.00D-01 BMatC= 4.86D-02 BMatP= 3.20D-02
 IDIUse=2 WtCom= 0.00D+00 WtEn= 1.00D+00
 Coeff-En:   0.000D+00 0.000D+00 0.100D+01
 Coeff:      0.000D+00 0.000D+00 0.100D+01
 Gap=     0.196 Goal=   None    Shift=    0.000
 RMSDP=2.35D-03 MaxDP=1.47D-01 DE=-1.81D-01 OVMax= 2.47D-01

 Cycle   4  Pass 0  IDiag  1:
 RMSU=  1.59D-03    CP:  9.44D-01  1.32D+00  1.66D-01
 E= -1009.69134388200     Delta-E=        0.213100205394 Rises=F Damp=F
 DIIS: error= 2.78D-02 at cycle   4 NSaved=   4.
 NSaved= 4 IEnMin= 3 EnMin= -1009.90444408739     IErMin= 2 ErrMin= 5.44D-03
 ErrMax= 2.78D-02  0.00D+00 EMaxC= 1.00D-01 BMatC= 2.69D-01 BMatP= 3.20D-02
 IDIUse=2 WtCom= 0.00D+00 WtEn= 1.00D+00
 Coeff-En:   0.000D+00 0.000D+00 0.790D+00 0.210D+00
 Coeff:      0.000D+00 0.000D+00 0.790D+00 0.210D+00
 Gap=     0.181 Goal=   None    Shift=    0.000
 RMSDP=1.28D-03 MaxDP=7.36D-02 DE= 2.13D-01 OVMax= 1.27D-01

 Cycle   5  Pass 0  IDiag  1:
 RMSU=  2.90D-04    CP:  9.41D-01  1.14D+00  5.82D-01  4.65D-01
 E= -1009.93197910608     Delta-E=       -0.240635224081 Rises=F Damp=F
 DIIS: error= 7.61D-03 at cycle   5 NSaved=   5.
 NSaved= 5 IEnMin= 5 EnMin= -1009.93197910608     IErMin= 2 ErrMin= 5.44D-03
 ErrMax= 7.61D-03  0.00D+00 EMaxC= 1.00D-01 BMatC= 2.05D-02 BMatP= 3.20D-02
 IDIUse=3 WtCom= 9.24D-01 WtEn= 7.61D-02
 Coeff-Com:  0.830D-02 0.382D-02 0.342D+00-0.448D-01 0.690D+00
 Coeff-En:   0.000D+00 0.000D+00 0.342D+00 0.000D+00 0.658D+00
 Coeff:      0.767D-02 0.353D-02 0.342D+00-0.414D-01 0.688D+00
 Gap=     0.176 Goal=   None    Shift=    0.000
 RMSDP=4.58D-04 MaxDP=2.78D-02 DE=-2.41D-01 OVMax= 4.26D-02

 Cycle   6  Pass 0  IDiag  1:
 RMSU=  1.09D-04    CP:  9.39D-01  1.09D+00  7.40D-01  2.76D-01  7.60D-01
 E= -1009.95149599531     Delta-E=       -0.019516889228 Rises=F Damp=F
 DIIS: error= 6.02D-04 at cycle   6 NSaved=   6.
 NSaved= 6 IEnMin= 6 EnMin= -1009.95149599531     IErMin= 6 ErrMin= 6.02D-04
 ErrMax= 6.02D-04  0.00D+00 EMaxC= 1.00D-01 BMatC= 1.75D-04 BMatP= 2.05D-02
 IDIUse=3 WtCom= 9.94D-01 WtEn= 6.02D-03
 Coeff-Com:  0.276D-02-0.236D-02 0.153D+00-0.531D-01 0.434D+00 0.465D+00
 Coeff-En:   0.000D+00 0.000D+00 0.000D+00 0.000D+00 0.000D+00 0.100D+01
 Coeff:      0.274D-02-0.234D-02 0.152D+00-0.528D-01 0.432D+00 0.468D+00
 Gap=     0.175 Goal=   None    Shift=    0.000
 RMSDP=5.73D-05 MaxDP=1.80D-03 DE=-1.95D-02 OVMax= 4.44D-03

 Cycle   7  Pass 0  IDiag  1:
 RMSU=  2.76D-05    CP:  9.39D-01  1.09D+00  7.39D-01  2.82D-01  8.19D-01
                    CP:  5.79D-01
 E= -1009.95168336814     Delta-E=       -0.000187372830 Rises=F Damp=F
 DIIS: error= 2.03D-04 at cycle   7 NSaved=   7.
 NSaved= 7 IEnMin= 7 EnMin= -1009.95168336814     IErMin= 7 ErrMin= 2.03D-04
 ErrMax= 2.03D-04  0.00D+00 EMaxC= 1.00D-01 BMatC= 1.64D-05 BMatP= 1.75D-04
 IDIUse=3 WtCom= 9.98D-01 WtEn= 2.03D-03
 Coeff-Com:  0.122D-02-0.161D-02 0.709D-01-0.303D-01 0.218D+00 0.284D+00
 Coeff-Com:  0.458D+00
 Coeff-En:   0.000D+00 0.000D+00 0.000D+00 0.000D+00 0.000D+00 0.000D+00
 Coeff-En:   0.100D+01
 Coeff:      0.121D-02-0.161D-02 0.708D-01-0.302D-01 0.217D+00 0.283D+00
 Coeff:      0.459D+00
 Gap=     0.175 Goal=   None    Shift=    0.000
 RMSDP=1.51D-05 MaxDP=9.22D-04 DE=-1.87D-04 OVMax= 1.55D-03

 Cycle   8  Pass 0  IDiag  1:
 RMSU=  8.06D-06    CP:  9.40D-01  1.09D+00  7.41D-01  2.81D-01  8.10D-01
                    CP:  5.99D-01  5.73D-01
 E= -1009.95170027409     Delta-E=       -0.000016905958 Rises=F Damp=F
 DIIS: error= 5.32D-05 at cycle   8 NSaved=   8.
 NSaved= 8 IEnMin= 8 EnMin= -1009.95170027409     IErMin= 8 ErrMin= 5.32D-05
 ErrMax= 5.32D-05  0.00D+00 EMaxC= 1.00D-01 BMatC= 1.73D-06 BMatP= 1.64D-05
 IDIUse=1 WtCom= 1.00D+00 WtEn= 0.00D+00
 Coeff-Com:  0.393D-03-0.894D-03 0.127D-01-0.657D-02 0.394D-01 0.664D-01
 Coeff-Com:  0.252D+00 0.637D+00
 Coeff:      0.393D-03-0.894D-03 0.127D-01-0.657D-02 0.394D-01 0.664D-01
 Coeff:      0.252D+00 0.637D+00
 Gap=     0.175 Goal=   None    Shift=    0.000
 RMSDP=5.35D-06 MaxDP=2.53D-04 DE=-1.69D-05 OVMax= 4.26D-04

 Initial convergence to 1.0D-05 achieved.  Increase integral accuracy.
 Cycle   9  Pass 1  IDiag  1:
 E= -1009.95164991615     Delta-E=        0.000050357942 Rises=F Damp=F
 DIIS: error= 8.79D-05 at cycle   1 NSaved=   1.
 NSaved= 1 IEnMin= 1 EnMin= -1009.95164991615     IErMin= 1 ErrMin= 8.79D-05
 ErrMax= 8.79D-05  0.00D+00 EMaxC= 1.00D-01 BMatC= 3.35D-06 BMatP= 3.35D-06
 IDIUse=1 WtCom= 1.00D+00 WtEn= 0.00D+00
 Coeff-Com:  0.100D+01
 Coeff:      0.100D+01
 Gap=     0.175 Goal=   None    Shift=    0.000
 RMSDP=5.35D-06 MaxDP=2.53D-04 DE= 5.04D-05 OVMax= 3.48D-04

 Cycle  10  Pass 1  IDiag  1:
 RMSU=  1.37D-04    CP:  1.00D+00
 E= -1009.95165336832     Delta-E=       -0.000003452171 Rises=F Damp=F
 DIIS: error= 2.79D-05 at cycle   2 NSaved=   2.
 NSaved= 2 IEnMin= 2 EnMin= -1009.95165336832     IErMin= 2 ErrMin= 2.79D-05
 ErrMax= 2.79D-05  0.00D+00 EMaxC= 1.00D-01 BMatC= 4.75D-07 BMatP= 3.35D-06
 IDIUse=1 WtCom= 1.00D+00 WtEn= 0.00D+00
 Coeff-Com:  0.163D+00 0.837D+00
 Coeff:      0.163D+00 0.837D+00
 Gap=     0.175 Goal=   None    Shift=    0.000
 RMSDP=6.09D-06 MaxDP=2.51D-04 DE=-3.45D-06 OVMax= 4.53D-04

 Cycle  11  Pass 1  IDiag  1:
 RMSU=  5.93D-06    CP:  1.00D+00  1.01D+00
 E= -1009.95165274725     Delta-E=        0.000000621072 Rises=F Damp=F
 DIIS: error= 4.55D-05 at cycle   3 NSaved=   3.
 NSaved= 3 IEnMin= 2 EnMin= -1009.95165336832     IErMin= 2 ErrMin= 2.79D-05
 ErrMax= 4.55D-05  0.00D+00 EMaxC= 1.00D-01 BMatC= 1.07D-06 BMatP= 4.75D-07
 IDIUse=1 WtCom= 1.00D+00 WtEn= 0.00D+00
 Coeff-Com:  0.609D-03 0.601D+00 0.399D+00
 Coeff:      0.609D-03 0.601D+00 0.399D+00
 Gap=     0.175 Goal=   None    Shift=    0.000
 RMSDP=3.61D-06 MaxDP=1.71D-04 DE= 6.21D-07 OVMax= 3.14D-04

 Cycle  12  Pass 1  IDiag  1:
 RMSU=  1.09D-06    CP:  1.00D+00  1.01D+00  4.25D-01
 E= -1009.95165383881     Delta-E=       -0.000001091560 Rises=F Damp=F
 DIIS: error= 4.65D-06 at cycle   4 NSaved=   4.
 NSaved= 4 IEnMin= 4 EnMin= -1009.95165383881     IErMin= 4 ErrMin= 4.65D-06
 ErrMax= 4.65D-06  0.00D+00 EMaxC= 1.00D-01 BMatC= 2.07D-08 BMatP= 4.75D-07
 IDIUse=1 WtCom= 1.00D+00 WtEn= 0.00D+00
 Coeff-Com: -0.400D-02 0.348D+00 0.245D+00 0.411D+00
 Coeff:     -0.400D-02 0.348D+00 0.245D+00 0.411D+00
 Gap=     0.175 Goal=   None    Shift=    0.000
 RMSDP=5.44D-07 MaxDP=2.07D-05 DE=-1.09D-06 OVMax= 3.99D-05

 Cycle  13  Pass 1  IDiag  1:
 RMSU=  2.79D-07    CP:  1.00D+00  1.01D+00  4.34D-01  5.74D-01
 E= -1009.95165385972     Delta-E=       -0.000000020913 Rises=F Damp=F
 DIIS: error= 7.38D-07 at cycle   5 NSaved=   5.
 NSaved= 5 IEnMin= 5 EnMin= -1009.95165385972     IErMin= 5 ErrMin= 7.38D-07
 ErrMax= 7.38D-07  0.00D+00 EMaxC= 1.00D-01 BMatC= 3.96D-10 BMatP= 2.07D-08
 IDIUse=1 WtCom= 1.00D+00 WtEn= 0.00D+00
 Coeff-Com: -0.233D-02 0.188D+00 0.133D+00 0.240D+00 0.441D+00
 Coeff:     -0.233D-02 0.188D+00 0.133D+00 0.240D+00 0.441D+00
 Gap=     0.175 Goal=   None    Shift=    0.000
 RMSDP=9.06D-08 MaxDP=2.38D-06 DE=-2.09D-08 OVMax= 5.94D-06

 Cycle  14  Pass 1  IDiag  1:
 RMSU=  8.14D-08    CP:  1.00D+00  1.01D+00  4.31D-01  5.63D-01  8.79D-01
 E= -1009.95165386012     Delta-E=       -0.000000000396 Rises=F Damp=F
 DIIS: error= 2.29D-07 at cycle   6 NSaved=   6.
 NSaved= 6 IEnMin= 6 EnMin= -1009.95165386012     IErMin= 6 ErrMin= 2.29D-07
 ErrMax= 2.29D-07  0.00D+00 EMaxC= 1.00D-01 BMatC= 2.48D-11 BMatP= 3.96D-10
 IDIUse=1 WtCom= 1.00D+00 WtEn= 0.00D+00
 Coeff-Com: -0.806D-03 0.627D-01 0.445D-01 0.834D-01 0.238D+00 0.572D+00
 Coeff:     -0.806D-03 0.627D-01 0.445D-01 0.834D-01 0.238D+00 0.572D+00
 Gap=     0.175 Goal=   None    Shift=    0.000
 RMSDP=2.39D-08 MaxDP=6.95D-07 DE=-3.96D-10 OVMax= 1.46D-06

 Cycle  15  Pass 1  IDiag  1:
 RMSU=  2.04D-08    CP:  1.00D+00  1.01D+00  4.30D-01  5.66D-01  8.93D-01
                    CP:  8.66D-01
 E= -1009.95165386017     Delta-E=       -0.000000000050 Rises=F Damp=F
 DIIS: error= 6.70D-08 at cycle   7 NSaved=   7.
 NSaved= 7 IEnMin= 7 EnMin= -1009.95165386017     IErMin= 7 ErrMin= 6.70D-08
 ErrMax= 6.70D-08  0.00D+00 EMaxC= 1.00D-01 BMatC= 3.71D-12 BMatP= 2.48D-11
 IDIUse=1 WtCom= 1.00D+00 WtEn= 0.00D+00
 Coeff-Com: -0.919D-04 0.602D-02 0.437D-02 0.942D-02 0.688D-01 0.321D+00
 Coeff-Com:  0.590D+00
 Coeff:     -0.919D-04 0.602D-02 0.437D-02 0.942D-02 0.688D-01 0.321D+00
 Coeff:      0.590D+00
 Gap=     0.175 Goal=   None    Shift=    0.000
 RMSDP=8.96D-09 MaxDP=4.63D-07 DE=-4.96D-11 OVMax= 5.79D-07

 SCF Done:  E(RB3LYP) =  -1009.95165386     A.U. after   15 cycles
            NFock= 15  Conv=0.90D-08     -V/T= 2.0102
 KE= 9.997262777020D+02 PE=-5.968514386000D+03 EE= 2.146457386962D+03
 Leave Link  502 at Wed Jul 31 20:57:30 2024, MaxMem= 13421772800 cpu:             463.0 elap:              14.6
 (Enter /public/software/apps/Gaussian/g16/l601.exe)
 Copying SCF densities to generalized density rwf, IOpCl= 0 IROHF=0.

 **********************************************************************

            Population analysis using the SCF Density.

 **********************************************************************

 Alpha  occ. eigenvalues --  -19.16810 -14.32922 -14.32578 -14.30477 -10.27844
 Alpha  occ. eigenvalues --  -10.24540 -10.24513 -10.23898 -10.23492 -10.22565
 Alpha  occ. eigenvalues --  -10.21509 -10.20745 -10.20357 -10.20276 -10.19815
 Alpha  occ. eigenvalues --  -10.19748 -10.19295 -10.19003 -10.18791 -10.18750
 Alpha  occ. eigenvalues --  -10.18626 -10.18598 -10.18533 -10.18389  -1.08086
 Alpha  occ. eigenvalues --   -0.94135  -0.92276  -0.89621  -0.86503  -0.81169
 Alpha  occ. eigenvalues --   -0.79896  -0.79496  -0.78651  -0.75500  -0.74538
 Alpha  occ. eigenvalues --   -0.71741  -0.69373  -0.65866  -0.65004  -0.62761
 Alpha  occ. eigenvalues --   -0.61703  -0.60378  -0.58974  -0.57485  -0.56806
 Alpha  occ. eigenvalues --   -0.53668  -0.52110  -0.51209  -0.49982  -0.49474
 Alpha  occ. eigenvalues --   -0.48289  -0.47583  -0.46883  -0.45919  -0.45187
 Alpha  occ. eigenvalues --   -0.44513  -0.43861  -0.43238  -0.42192  -0.41841
 Alpha  occ. eigenvalues --   -0.41396  -0.40967  -0.40567  -0.39882  -0.39387
 Alpha  occ. eigenvalues --   -0.38543  -0.37283  -0.37152  -0.35203  -0.34810
 Alpha  occ. eigenvalues --   -0.34331  -0.33659  -0.30542  -0.29317  -0.28392
 Alpha  occ. eigenvalues --   -0.27075  -0.25934  -0.25493  -0.25082  -0.24693
 Alpha  occ. eigenvalues --   -0.24612  -0.23780
 Alpha virt. eigenvalues --   -0.06254  -0.06000  -0.02702  -0.01704  -0.00263
 Alpha virt. eigenvalues --    0.01064   0.05259   0.06658   0.06941   0.07189
 Alpha virt. eigenvalues --    0.07423   0.08873   0.10354   0.10386   0.11437
 Alpha virt. eigenvalues --    0.11464   0.12541   0.12960   0.13184   0.13376
 Alpha virt. eigenvalues --    0.14397   0.14828   0.15514   0.15945   0.16569
 Alpha virt. eigenvalues --    0.17696   0.18057   0.19545   0.20359   0.21590
 Alpha virt. eigenvalues --    0.22350   0.24188   0.25577   0.25977   0.26810
 Alpha virt. eigenvalues --    0.27787   0.28161   0.28749   0.29603   0.30048
 Alpha virt. eigenvalues --    0.31100   0.31655   0.31814   0.32062   0.33777
 Alpha virt. eigenvalues --    0.34392   0.36084   0.36683   0.37540   0.38027
 Alpha virt. eigenvalues --    0.39073   0.39735   0.40355   0.40829   0.42276
 Alpha virt. eigenvalues --    0.43205   0.43871   0.44578   0.45069   0.45429
 Alpha virt. eigenvalues --    0.46016   0.46447   0.47297   0.47491   0.47649
 Alpha virt. eigenvalues --    0.48057   0.48647   0.49173   0.50135   0.50613
 Alpha virt. eigenvalues --    0.50749   0.51481   0.52194   0.52697   0.53485
 Alpha virt. eigenvalues --    0.53850   0.54532   0.55587   0.56585   0.57251
 Alpha virt. eigenvalues --    0.58492   0.58831   0.59129   0.59765   0.60231
 Alpha virt. eigenvalues --    0.60468   0.61008   0.61746   0.62950   0.64315
 Alpha virt. eigenvalues --    0.64994   0.65332   0.66116   0.66246   0.66615
 Alpha virt. eigenvalues --    0.67039   0.67131   0.67680   0.67882   0.68106
 Alpha virt. eigenvalues --    0.68266   0.68655   0.69054   0.69698   0.70133
 Alpha virt. eigenvalues --    0.70607   0.71023   0.71727   0.72235   0.72917
 Alpha virt. eigenvalues --    0.73437   0.73752   0.74010   0.74961   0.75339
 Alpha virt. eigenvalues --    0.75785   0.76380   0.76909   0.77177   0.78058
 Alpha virt. eigenvalues --    0.79316   0.79501   0.80750   0.81444   0.83972
 Alpha virt. eigenvalues --    0.85515   0.87582   0.88941   0.89136   0.90648
 Alpha virt. eigenvalues --    0.92151   0.92616   0.93434   0.94891   0.97297
 Alpha virt. eigenvalues --    0.99309   1.00671   1.02597   1.03615   1.06765
 Alpha virt. eigenvalues --    1.07379   1.09208   1.10470   1.12390   1.12682
 Alpha virt. eigenvalues --    1.14937   1.15719   1.17028   1.18073   1.20402
 Alpha virt. eigenvalues --    1.21960   1.23236   1.25479   1.26174   1.26960
 Alpha virt. eigenvalues --    1.27262   1.27828   1.30906   1.31637   1.33969
 Alpha virt. eigenvalues --    1.36071   1.37637   1.39957   1.41328   1.42395
 Alpha virt. eigenvalues --    1.42759   1.44439   1.45529   1.46694   1.47358
 Alpha virt. eigenvalues --    1.47943   1.48536   1.48801   1.49084   1.50567
 Alpha virt. eigenvalues --    1.51109   1.55848   1.56621   1.62754   1.63327
 Alpha virt. eigenvalues --    1.64438   1.69604   1.70584   1.72230   1.73999
 Alpha virt. eigenvalues --    1.74987   1.75819   1.76247   1.76735   1.78412
 Alpha virt. eigenvalues --    1.79674   1.82019   1.82547   1.83222   1.84471
 Alpha virt. eigenvalues --    1.85120   1.85296   1.85595   1.87141   1.88125
 Alpha virt. eigenvalues --    1.89460   1.89793   1.92171   1.93094   1.95455
 Alpha virt. eigenvalues --    1.95633   1.97121   1.98668   2.01127   2.01301
 Alpha virt. eigenvalues --    2.02293   2.04415   2.05762   2.08245   2.10868
 Alpha virt. eigenvalues --    2.11342   2.11709   2.12029   2.13108   2.13898
 Alpha virt. eigenvalues --    2.16479   2.16978   2.18061   2.19159   2.19436
 Alpha virt. eigenvalues --    2.19758   2.20352   2.21648   2.22825   2.25563
 Alpha virt. eigenvalues --    2.26822   2.27750   2.29370   2.31172   2.33546
 Alpha virt. eigenvalues --    2.36214   2.39688   2.41101   2.41689   2.41940
 Alpha virt. eigenvalues --    2.45992   2.46138   2.47209   2.47768   2.49052
 Alpha virt. eigenvalues --    2.52242   2.53897   2.55763   2.56831   2.59076
 Alpha virt. eigenvalues --    2.59260   2.61107   2.62123   2.64016   2.65004
 Alpha virt. eigenvalues --    2.67633   2.69061   2.69598   2.73090   2.76077
 Alpha virt. eigenvalues --    2.77556   2.78279   2.81040   2.81970   2.82346
 Alpha virt. eigenvalues --    2.82877   2.83730   2.84120   2.85993   2.89576
 Alpha virt. eigenvalues --    2.90334   2.92341   2.97591   2.99252   3.10072
 Alpha virt. eigenvalues --    3.13132   3.15211   3.25309   3.29389   3.37723
 Alpha virt. eigenvalues --    3.39977   3.40943   3.52405   3.60888
          Condensed to atoms (all electrons):
               1          2          3          4          5          6
     1  C    5.098940   0.340431   0.070520  -0.076588  -0.000131   0.000273
     2  C    0.340431   5.035641   0.313193   0.026010   0.013793  -0.000383
     3  C    0.070520   0.313193   5.313789   0.286148  -0.098769   0.036424
     4  C   -0.076588   0.026010   0.286148   5.365555   0.054337  -0.108018
     5  C   -0.000131   0.013793  -0.098769   0.054337   5.358708   0.255691
     6  C    0.000273  -0.000383   0.036424  -0.108018   0.255691   5.372744
     7  C    0.000001   0.000018  -0.000481   0.013272   0.035469   0.289328
     8  C   -0.000000   0.000002   0.000408  -0.001476  -0.097833   0.094654
     9  C    0.000002  -0.000007  -0.000367   0.012063  -0.020039  -0.102447
    10  C    0.000000  -0.000009  -0.000560   0.001517   0.010074  -0.001725
    11  N    0.000000  -0.000000  -0.000194  -0.000002   0.000178  -0.000019
    12  C   -0.000000   0.000000   0.000004  -0.000002   0.000005   0.000005
    13  C   -0.000000   0.000000   0.000000  -0.000000   0.000000  -0.000000
    14  C    0.000000  -0.000000  -0.000001   0.000000  -0.000000  -0.000000
    15  C   -0.000000  -0.000000   0.000000   0.000000   0.000000   0.000000
    16  C    0.000000  -0.000000  -0.000000   0.000000   0.000000   0.000000
    17  C   -0.000000   0.000000  -0.000000   0.000000  -0.000000  -0.000000
    18  C   -0.000000   0.000000   0.000000  -0.000000  -0.000000   0.000000
    19  C   -0.000000   0.000000   0.000000  -0.000000  -0.000000  -0.000000
    20  C    0.000000  -0.000000  -0.000000   0.000001   0.000008  -0.000001
    21  O    0.000000  -0.000000  -0.000000   0.000001   0.000001  -0.000021
    22  N   -0.000021   0.001436   0.013048  -0.132707   0.585612  -0.075144
    23  N   -0.020912  -0.060560  -0.075422   0.577171  -0.125973   0.010745
    24  C    0.393226   0.030677  -0.092479  -0.033409   0.008719  -0.000423
    25  H    0.400696  -0.067938   0.011613   0.000377   0.000133  -0.000008
    26  H   -0.074820   0.428544  -0.068529   0.013282  -0.000514   0.000002
    27  H    0.012738  -0.072259   0.411400  -0.046031  -0.016532   0.000468
    28  H    0.000118   0.000077   0.000783  -0.015099  -0.051456   0.411783
    29  H   -0.000000   0.000000   0.000001  -0.000514   0.013635  -0.072825
    30  H    0.000000  -0.000000  -0.000006   0.000110   0.000241   0.011779
    31  H   -0.000000   0.000000   0.000000  -0.000000   0.000000   0.000000
    32  H    0.000000  -0.000000  -0.000001   0.000000  -0.000000  -0.000000
    33  H   -0.000000   0.000000   0.000000   0.000000  -0.000000   0.000000
    34  H    0.000000  -0.000000  -0.000000   0.000000  -0.000000  -0.000000
    35  H    0.000000  -0.000000  -0.000000   0.000000   0.000000   0.000000
    36  H    0.000000  -0.000000  -0.000000  -0.000000  -0.000000   0.000000
    37  H    0.000000  -0.000000  -0.000000   0.000000   0.000000  -0.000000
    38  H   -0.000000   0.000000   0.000000  -0.000000  -0.000000   0.000000
    39  H   -0.074196   0.007274   0.000425   0.004417   0.000182  -0.000095
               7          8          9         10         11         12
     1  C    0.000001  -0.000000   0.000002   0.000000   0.000000  -0.000000
     2  C    0.000018   0.000002  -0.000007  -0.000009  -0.000000   0.000000
     3  C   -0.000481   0.000408  -0.000367  -0.000560  -0.000194   0.000004
     4  C    0.013272  -0.001476   0.012063   0.001517  -0.000002  -0.000002
     5  C    0.035469  -0.097833  -0.020039   0.010074   0.000178   0.000005
     6  C    0.289328   0.094654  -0.102447  -0.001725  -0.000019   0.000005
     7  C    5.051371   0.296937   0.042027   0.010794  -0.000092   0.000004
     8  C    0.296937   5.317994   0.312268  -0.123793   0.009073  -0.000396
     9  C    0.042027   0.312268   5.323198   0.054153  -0.100496   0.026182
    10  C    0.010794  -0.123793   0.054153   5.170482   0.590630  -0.051265
    11  N   -0.000092   0.009073  -0.100496   0.590630   6.531806   0.339779
    12  C    0.000004  -0.000396   0.026182  -0.051265   0.339779   5.277119
    13  C    0.000000   0.000025  -0.002756  -0.005894  -0.066684   0.178450
    14  C    0.000000   0.000001  -0.000306  -0.001298   0.011358  -0.130151
    15  C   -0.000000   0.000000  -0.000001  -0.000038  -0.000164   0.015309
    16  C   -0.000000  -0.000000   0.000001   0.000017   0.000013   0.000395
    17  C    0.000000   0.000001   0.000012  -0.000415  -0.000282   0.024612
    18  C   -0.000000  -0.000015   0.000426   0.005932  -0.006570  -0.048134
    19  C    0.000000  -0.000085  -0.000263   0.003260   0.000868  -0.090667
    20  C   -0.000001  -0.000641  -0.003389  -0.103748  -0.039780   0.231809
    21  O    0.000645   0.014023  -0.101499   0.405257  -0.109305  -0.066199
    22  N   -0.052109  -0.061495   0.560622  -0.098003   0.001176   0.000116
    23  N    0.001500  -0.000029   0.000003   0.000003   0.000000  -0.000000
    24  C   -0.000006   0.000001   0.000004  -0.000000  -0.000000   0.000000
    25  H   -0.000000   0.000000   0.000000  -0.000000  -0.000000  -0.000000
    26  H    0.000000  -0.000000  -0.000001   0.000000  -0.000000   0.000000
    27  H    0.000077   0.000101   0.000385  -0.000164   0.001297  -0.000033
    28  H   -0.072116   0.012474   0.000235   0.000112  -0.000000  -0.000000
    29  H    0.431895  -0.076981   0.013441  -0.000560   0.000000  -0.000000
    30  H   -0.067601   0.415605  -0.053958  -0.012532   0.000637   0.000047
    31  H   -0.000000  -0.000007  -0.000369   0.005848  -0.028416   0.311041
    32  H    0.000000  -0.000000  -0.000041   0.000124   0.004112  -0.023611
    33  H   -0.000000   0.000000   0.000000  -0.000001   0.000001  -0.000437
    34  H    0.000000   0.000000  -0.000000  -0.000000   0.000001   0.000019
    35  H    0.000000  -0.000000  -0.000000   0.000001   0.000008  -0.000905
    36  H    0.000002   0.000139  -0.000676  -0.000659   0.000977  -0.000181
    37  H    0.000000   0.000001   0.000018   0.000078  -0.000408   0.003272
    38  H   -0.000001  -0.000013   0.000022   0.006674   0.001529   0.012108
    39  H   -0.000004   0.000000  -0.000000   0.000000  -0.000000   0.000000
              13         14         15         16         17         18
     1  C   -0.000000   0.000000  -0.000000   0.000000  -0.000000  -0.000000
     2  C    0.000000  -0.000000  -0.000000  -0.000000   0.000000   0.000000
     3  C    0.000000  -0.000001   0.000000  -0.000000  -0.000000   0.000000
     4  C   -0.000000   0.000000   0.000000   0.000000   0.000000  -0.000000
     5  C    0.000000  -0.000000   0.000000   0.000000  -0.000000  -0.000000
     6  C   -0.000000  -0.000000   0.000000   0.000000  -0.000000   0.000000
     7  C    0.000000   0.000000  -0.000000  -0.000000   0.000000  -0.000000
     8  C    0.000025   0.000001   0.000000  -0.000000   0.000001  -0.000015
     9  C   -0.002756  -0.000306  -0.000001   0.000001   0.000012   0.000426
    10  C   -0.005894  -0.001298  -0.000038   0.000017  -0.000415   0.005932
    11  N   -0.066684   0.011358  -0.000164   0.000013  -0.000282  -0.006570
    12  C    0.178450  -0.130151   0.015309   0.000395   0.024612  -0.048134
    13  C    5.353044   0.227938   0.152061  -0.176535   0.084901   0.312273
    14  C    0.227938   5.343777   0.216849   0.132599  -0.152565   0.053101
    15  C    0.152061   0.216849   5.221116   0.207567   0.131054  -0.175971
    16  C   -0.176535   0.132599   0.207567   5.197811   0.228778   0.150442
    17  C    0.084901  -0.152565   0.131054   0.228778   5.332267   0.218980
    18  C    0.312273   0.053101  -0.175971   0.150442   0.218980   5.291812
    19  C   -0.099802   0.028147   0.000442   0.014464  -0.110879   0.297010
    20  C    0.016653   0.016208  -0.001226  -0.001119   0.008920  -0.041118
    21  O    0.002688  -0.000127   0.000003   0.000006  -0.000288   0.000935
    22  N    0.000018   0.000000  -0.000000   0.000000   0.000000  -0.000000
    23  N   -0.000000   0.000000  -0.000000   0.000000   0.000000  -0.000000
    24  C   -0.000000  -0.000000   0.000000  -0.000000   0.000000   0.000000
    25  H    0.000000  -0.000000   0.000000  -0.000000   0.000000   0.000000
    26  H    0.000000  -0.000000   0.000000  -0.000000  -0.000000   0.000000
    27  H   -0.000001   0.000007  -0.000000   0.000000   0.000000  -0.000000
    28  H    0.000000   0.000000   0.000000  -0.000000   0.000000  -0.000000
    29  H    0.000000   0.000000  -0.000000   0.000000  -0.000000   0.000000
    30  H   -0.000007  -0.000000  -0.000000  -0.000000   0.000000   0.000000
    31  H   -0.007343  -0.006103  -0.000267   0.000095  -0.000951   0.003756
    32  H   -0.073885   0.442056  -0.086311   0.014674  -0.002007   0.018563
    33  H    0.015795  -0.079708   0.434440  -0.080191   0.014808  -0.001646
    34  H   -0.001709   0.014761  -0.079986   0.433693  -0.079726   0.015892
    35  H    0.019826  -0.002043   0.014740  -0.084718   0.437843  -0.079508
    36  H    0.003486  -0.000859   0.000123  -0.000217  -0.003453   0.014949
    37  H   -0.001375  -0.000774   0.000111  -0.000157  -0.002564   0.003406
    38  H    0.000996  -0.000890   0.000027   0.000030  -0.000600   0.003983
    39  H   -0.000000  -0.000000  -0.000000   0.000000  -0.000000   0.000000
              19         20         21         22         23         24
     1  C   -0.000000   0.000000   0.000000  -0.000021  -0.020912   0.393226
     2  C    0.000000  -0.000000  -0.000000   0.001436  -0.060560   0.030677
     3  C    0.000000  -0.000000  -0.000000   0.013048  -0.075422  -0.092479
     4  C   -0.000000   0.000001   0.000001  -0.132707   0.577171  -0.033409
     5  C   -0.000000   0.000008   0.000001   0.585612  -0.125973   0.008719
     6  C   -0.000000  -0.000001  -0.000021  -0.075144   0.010745  -0.000423
     7  C    0.000000  -0.000001   0.000645  -0.052109   0.001500  -0.000006
     8  C   -0.000085  -0.000641   0.014023  -0.061495  -0.000029   0.000001
     9  C   -0.000263  -0.003389  -0.101499   0.560622   0.000003   0.000004
    10  C    0.003260  -0.103748   0.405257  -0.098003   0.000003  -0.000000
    11  N    0.000868  -0.039780  -0.109305   0.001176   0.000000  -0.000000
    12  C   -0.090667   0.231809  -0.066199   0.000116  -0.000000   0.000000
    13  C   -0.099802   0.016653   0.002688   0.000018  -0.000000  -0.000000
    14  C    0.028147   0.016208  -0.000127   0.000000   0.000000  -0.000000
    15  C    0.000442  -0.001226   0.000003  -0.000000  -0.000000   0.000000
    16  C    0.014464  -0.001119   0.000006   0.000000   0.000000  -0.000000
    17  C   -0.110879   0.008920  -0.000288   0.000000   0.000000   0.000000
    18  C    0.297010  -0.041118   0.000935  -0.000000  -0.000000   0.000000
    19  C    5.141782   0.313954  -0.046477   0.000007  -0.000000  -0.000000
    20  C    0.313954   4.907825   0.317223  -0.000198   0.000000  -0.000000
    21  O   -0.046477   0.317223   7.911139   0.000675   0.000000   0.000000
    22  N    0.000007  -0.000198   0.000675   6.306466   0.000840  -0.000027
    23  N   -0.000000   0.000000   0.000000   0.000840   6.329813   0.490884
    24  C   -0.000000  -0.000000   0.000000  -0.000027   0.490884   4.853868
    25  H    0.000000  -0.000000   0.000000   0.000000   0.006550  -0.053026
    26  H   -0.000000  -0.000000  -0.000000  -0.000026  -0.000105   0.011366
    27  H   -0.000000   0.000002   0.000002   0.019834   0.005759  -0.000380
    28  H   -0.000000   0.000000  -0.000000   0.005405   0.023563   0.000397
    29  H    0.000000  -0.000001  -0.000008   0.000134  -0.000027  -0.000000
    30  H   -0.000112   0.000281   0.007115   0.005270   0.000000   0.000000
    31  H    0.007868  -0.017146   0.002921   0.000023  -0.000000  -0.000000
    32  H   -0.000858   0.001407   0.000013   0.000002   0.000000  -0.000000
    33  H    0.000023   0.000016  -0.000000  -0.000000  -0.000000   0.000000
    34  H   -0.000431   0.000020  -0.000000   0.000000   0.000000   0.000000
    35  H   -0.021443   0.001045  -0.000009  -0.000000   0.000000  -0.000000
    36  H    0.275534   0.017334   0.002803  -0.000002  -0.000000   0.000000
    37  H    0.290571   0.003259   0.003198  -0.000000   0.000000  -0.000000
    38  H   -0.020709   0.302766  -0.026414   0.000004  -0.000000   0.000000
    39  H   -0.000000  -0.000000  -0.000000   0.000003  -0.043272   0.407884
              25         26         27         28         29         30
     1  C    0.400696  -0.074820   0.012738   0.000118  -0.000000   0.000000
     2  C   -0.067938   0.428544  -0.072259   0.000077   0.000000  -0.000000
     3  C    0.011613  -0.068529   0.411400   0.000783   0.000001  -0.000006
     4  C    0.000377   0.013282  -0.046031  -0.015099  -0.000514   0.000110
     5  C    0.000133  -0.000514  -0.016532  -0.051456   0.013635   0.000241
     6  C   -0.000008   0.000002   0.000468   0.411783  -0.072825   0.011779
     7  C   -0.000000   0.000000   0.000077  -0.072116   0.431895  -0.067601
     8  C    0.000000  -0.000000   0.000101   0.012474  -0.076981   0.415605
     9  C    0.000000  -0.000001   0.000385   0.000235   0.013441  -0.053958
    10  C   -0.000000   0.000000  -0.000164   0.000112  -0.000560  -0.012532
    11  N   -0.000000  -0.000000   0.001297  -0.000000   0.000000   0.000637
    12  C   -0.000000   0.000000  -0.000033  -0.000000  -0.000000   0.000047
    13  C    0.000000   0.000000  -0.000001   0.000000   0.000000  -0.000007
    14  C   -0.000000  -0.000000   0.000007   0.000000   0.000000  -0.000000
    15  C    0.000000   0.000000  -0.000000   0.000000  -0.000000  -0.000000
    16  C   -0.000000  -0.000000   0.000000  -0.000000   0.000000  -0.000000
    17  C    0.000000  -0.000000   0.000000   0.000000  -0.000000   0.000000
    18  C    0.000000   0.000000  -0.000000  -0.000000   0.000000   0.000000
    19  C    0.000000  -0.000000  -0.000000  -0.000000   0.000000  -0.000112
[...]
 0222,0.00000881,0.00000977,-0.00000578,0.00001834,-0.00001701,0.000004
 85,-0.00000581,0.00001139,-0.00000511,-0.00000231,-0.00003152,0.000002
 90,0.00001197,0.00007547,0.00001101,-0.00000603,-0.00020753,0.00013825
 ,-0.00030313,-0.00009434,-0.00024273,0.00024758,-0.00045044,0.00011517
 ,-0.00109513,-0.00474482,-0.00205895,0.00245159,0.00007979,-0.00086808
 ,0.00041822,-0.00259441,-0.00044406,0.00420656,0.01250937,0.00799201,0
 .01616488,-0.04065250,-0.06460644,-0.03844145,-0.01525280,0.00012928,-
 0.02130455,0.00212402,0.00062168,-0.00101059,-0.00019667,0.00003042,-0
 .00020168,0.00036602,-0.00008767,0.00023815,-0.00002020,0.00000200,-0.
 00000033,-0.00000637,0.00000107,-0.00000399,0.00000371,-0.00000026,-0.
 00000301,-0.00000073,0.00000051,-0.00000046,-0.00000007,0.00000036,-0.
 00000098,0.00000161,-0.00000081,0.00000371,0.00000111,0.00000013,0.000
 00151,-0.00000293,0.00000110,0.00000251,-0.00000181,0.00000067,-0.0000
 0107,-0.00012348,-0.00019668,0.00001969,0.00046749,-0.00024362,-0.0003
 6385,0.00049252,0.00024854,0.00079349,0.00167828,-0.00021408,-0.001715
 81,0.04658278,0.06022888,-0.00000706,0.00000085,0.00000371,0.00000372,
 -0.00000201,0.00000375,-0.00000022,0.00000093,-0.00000999,0.00000792,-
 0.00000378,0.00001152,0.00000673,-0.00000743,0.00002344,-0.00001739,0.
 00000658,-0.00001105,0.00001390,-0.00000334,-0.00000654,-0.00002799,0.
 00000300,0.00001599,0.00004059,0.00000661,-0.00002654,0.00003751,0.000
 02670,-0.00008155,-0.00011678,-0.00003157,0.00010970,0.00026765,0.0002
 3063,0.00003922,-0.00156713,0.00155268,0.00270416,0.00070339,0.0003270
 6,0.00012258,-0.00116737,0.00525901,-0.00070455,-0.01525170,-0.0072576
 0,-0.01404415,-0.13383573,-0.03736906,-0.22184604,0.00024241,0.0008313
 9,0.00314903,0.00139747,-0.00050481,-0.00025069,-0.00010204,-0.0000980
 9,-0.00013834,0.00002761,-0.00005182,0.00005857,-0.00002353,0.00000155
 ,0.00000716,-0.00001363,0.00000353,-0.00000235,0.00000745,-0.00000037,
 -0.00000730,-0.00000159,0.00000075,-0.00000130,0.00000177,0.00000030,-
 0.00000033,0.00000414,0.00000015,0.00000342,0.00000014,0.00000015,0.00
 000133,-0.00000250,-0.00000014,0.00000370,0.00000474,0.00000069,-0.000
 00761,-0.00003347,-0.00000221,-0.00000221,0.00035614,-0.00032262,-0.00
 030092,-0.00076541,-0.00028907,-0.00071345,0.00186916,-0.00109382,0.00
 013289,0.14810412,0.03951227,0.23149230,0.00001025,-0.00000168,-0.0000
 0282,-0.00000703,0.00000347,-0.00000510,0.00001122,-0.00000325,0.00001
 271,-0.00001298,0.00000618,-0.00001911,0.00002844,-0.00000518,-0.00001
 831,0.00000193,-0.00000972,0.00002411,-0.00002007,0.00001489,0.0000360
 1,-0.00003999,0.00001356,-0.00003836,0.00005509,-0.00005926,0.00008173
 ,-0.00077517,0.00033239,-0.00152656,-0.00093813,0.00061354,-0.00001126
 ,-0.00205286,-0.00257335,-0.00032842,-0.00050126,-0.00020300,-0.000174
 85,-0.00007612,0.00006984,-0.00010992,0.00000487,-0.00005173,0.0002497
 2,-0.00006148,0.00016647,-0.00017237,0.00058464,-0.00038310,0.00036442
 ,0.00005767,0.00097062,-0.00015797,-0.05634707,0.02002880,0.05376319,0
 .00313997,-0.00826014,-0.02303352,0.00335356,0.00031322,0.00054383,0.0
 0000734,0.00001114,0.00001230,0.00001184,-0.00000193,0.00000670,-0.000
 00782,-0.00000029,0.00000951,0.00000105,-0.00000085,0.00000113,-0.0000
 0030,-0.00000111,0.00000151,0.00000250,-0.00000289,-0.00000273,0.00000
 191,-0.00000139,0.00000220,-0.00000320,-0.00000155,-0.00000289,-0.0000
 7626,-0.00005134,0.00005762,-0.00028362,0.00017056,-0.00050976,0.00001
 489,-0.00001909,-0.00000825,0.00003952,-0.00002082,-0.00003989,0.00000
 261,-0.00001031,-0.00000596,-0.00014581,-0.00017357,-0.00009566,0.0588
 4731,-0.00000670,0.00000167,0.00000090,0.00000332,-0.00000166,0.000006
 77,-0.00000052,0.00000293,-0.00001158,0.00000717,-0.00000199,0.0000155
 4,0.00001501,0.00000084,0.00002999,-0.00002191,0.00000596,-0.00001346,
 0.00002547,-0.00001086,0.00000831,-0.00006984,0.00002211,-0.00001315,0
 .00003627,-0.00014491,-0.00007235,-0.00000377,0.00055061,-0.00015270,-
 0.00052876,0.00037614,-0.00018498,-0.00098591,-0.00206960,0.00128630,-
 0.00074739,-0.00229664,0.00153604,0.00108180,-0.00040684,0.00006841,0.
 00006101,0.00006532,0.00040073,0.00060147,0.00001471,-0.00041959,0.000
 46296,0.00075425,-0.00034064,-0.00518802,0.01121782,0.02422582,0.01784
 927,-0.08146677,-0.08789314,0.00462205,-0.00706648,-0.01754149,0.00229
 197,0.00150500,0.00116774,-0.00003045,-0.00000682,0.00002482,-0.000011
 25,0.00000261,-0.00000564,0.00000569,-0.00000076,-0.00000517,-0.000001
 48,0.00000040,-0.00000085,-0.00000024,-0.00000027,-0.00000177,0.000004
 81,-0.00000421,0.00000738,0.00000177,0.00000020,0.00000403,-0.00000753
 ,0.00000252,0.00000397,-0.00004558,0.00001201,0.00000014,0.00000981,0.
 00028222,-0.00035103,0.00002798,-0.00016535,0.00020194,-0.00001853,0.0
 0000788,-0.00000440,0.00000350,-0.00002461,-0.00004157,-0.00047606,0.0
 0001881,-0.00022092,-0.02020843,0.08490520,0.00000760,-0.00000197,0.00
 000058,-0.00000561,0.00000267,-0.00000678,0.00001073,-0.00000448,0.000
 01208,-0.00000948,0.00000402,-0.00001676,0.00001480,-0.00000518,-0.000
 00980,-0.00000501,-0.00000376,0.00001873,-0.00001048,0.00000982,0.0000
 1440,-0.00002808,0.00002540,-0.00000511,0.00008235,-0.00008495,0.00003
 569,-0.00069128,0.00058720,-0.00094932,-0.00003788,-0.00022037,0.00060
 138,0.00043217,-0.00075822,-0.00063940,0.00080853,0.00162877,-0.001525
 09,-0.00098670,0.00002539,0.00012856,0.00043479,0.00018492,0.00029904,
 -0.00079115,0.00077084,-0.00054870,-0.00121355,-0.00150818,0.00107695,
 0.00236636,-0.00419180,-0.01700002,0.05004428,-0.08856750,-0.26395532,
 0.00099383,-0.00235376,-0.00693206,0.00205634,0.00102338,0.00198106,-0
 .00000282,0.00001058,0.00001972,0.00000377,-0.00000080,0.00000938,-0.0
 0000376,-0.00000026,0.00000521,0.00000070,-0.00000030,0.00000033,0.000
 00161,-0.00000071,0.00000266,0.00000136,0.00000031,-0.00000566,0.00000
 060,-0.00000072,0.00000009,-0.00000447,-0.00000233,0.00000101,-0.00002
 125,-0.00002746,0.00001933,-0.00031238,0.00002944,-0.00035554,0.000001
 59,0.00013252,-0.00015689,0.00012625,-0.00003167,-0.00005056,0.0000157
 2,0.00002956,-0.00002102,0.00073444,0.00003729,-0.00010495,-0.05340959
 ,0.09266996,0.28479674,-0.00002504,0.00000493,0.00000468,0.00001363,-0
 .00000636,0.00001776,-0.00001159,0.00000908,-0.00003806,0.00002726,-0.
 00001728,0.00005276,-0.00001674,-0.00002405,0.00007575,-0.00005377,0.0
 0001994,-0.00005066,0.00005216,-0.00000804,-0.00001747,-0.00008059,-0.
 00000313,0.00004328,0.00006525,0.00011706,-0.00031185,0.00050584,-0.00
 101310,0.00137135,-0.00040786,0.00015372,-0.00070213,-0.00073722,-0.00
 044677,-0.00008049,-0.00017828,-0.00004065,0.00007030,-0.00011932,-0.0
 0014440,0.00005036,0.00043249,0.00008335,0.00051864,-0.00016891,0.0005
 8338,-0.00077911,-0.00015689,-0.00105335,0.00028173,0.00713958,-0.0017
 6993,-0.00189801,-0.23465766,0.11090180,-0.01095737,-0.01541363,0.0134
 5637,0.00115231,-0.00479731,-0.00202332,-0.00241700,-0.00015447,0.0000
 6951,0.00003565,-0.00003705,0.00001077,-0.00001834,0.00001880,-0.00000
 013,-0.00002094,-0.00000425,0.00000158,-0.00000293,0.00000052,0.000000
 96,-0.00000492,0.00000989,-0.00000521,0.00001760,-0.00000092,0.0000010
 7,0.00000580,-0.00001033,0.00000197,0.00001140,0.00002446,0.00000791,-
 0.00005844,-0.00004198,0.00007628,-0.00027813,-0.00000342,-0.00000686,
 0.00002744,-0.00005513,0.00006476,0.00003110,-0.00001455,0.00001736,-0
 .00002683,-0.00013689,0.00011182,-0.00005608,-0.00414286,0.00253494,-0
 .00004456,0.25214509,-0.00000706,0.00000266,-0.00000226,0.00000436,-0.
 00000040,0.00000613,-0.00000804,0.00000633,-0.00001196,0.00000632,-0.0
 0000822,0.00002144,-0.00003616,-0.00000940,0.00001649,-0.00001274,0.00
 000457,-0.00002278,0.00001516,0.00000661,0.00000256,-0.00000910,0.0000
 0447,0.00000592,-0.00007032,0.00009292,-0.00025252,-0.00011368,-0.0003
 9829,0.00140925,-0.00002565,0.00039736,-0.00067756,-0.00020963,-0.0012
 4563,-0.00042988,-0.00109176,-0.00185873,0.00015195,-0.00063745,0.0002
 8307,0.00071263,0.00012302,-0.00027180,0.00014709,-0.00048278,0.000459
 04,0.00073788,0.00024435,0.00140812,0.00061858,0.01861694,-0.01261858,
 0.00371815,0.11705706,-0.11631270,0.00475613,-0.01659088,0.01064392,-0
 .00035793,-0.00471522,-0.00094915,-0.00187854,-0.00010752,0.00006197,0
 .00001543,-0.00000662,0.00000576,-0.00000971,0.00000186,0.00000011,-0.
 00000368,-0.00000076,-0.00000065,-0.00000031,-0.00000233,-0.00000066,-
 0.00000313,-0.00000003,-0.00000591,0.00000657,-0.00000113,-0.00000079,
 0.00000258,-0.00000278,-0.00000106,0.00000204,0.00000599,-0.00001476,-
 0.00002563,0.00008995,0.00019675,-0.00017059,-0.00001237,-0.00008690,0
 .00015576,0.00005224,-0.00005633,-0.00004706,-0.00003352,-0.00005412,0
 .00002085,0.00008118,-0.00059274,-0.00048537,0.00975998,-0.00550058,0.
 00075973,-0.12146666,0.12528092,0.00000678,-0.00000192,-0.00000050,-0.
 00000439,0.00000122,-0.00000475,0.00000598,-0.00000429,0.00000983,-0.0
 0000812,0.00000491,-0.00001336,0.00001472,0.00000587,-0.00002089,0.000
 00615,-0.00000610,0.00002026,-0.00001569,0.00000632,0.00001172,0.00000
 741,0.00001290,-0.00001044,0.00004423,-0.00005353,-0.00003682,-0.00047
 397,0.00020648,-0.00061564,-0.00040437,-0.00024100,0.00030075,-0.00033
 264,0.00021910,-0.00054476,0.00050443,0.00149108,-0.00139641,0.0006274
 1,-0.00080371,-0.00074551,0.00023285,0.00034667,0.00015366,0.00027058,
 -0.00026010,-0.00113466,-0.00053755,-0.00141742,0.00080308,-0.01933298
 ,0.01367997,-0.00298240,-0.01178336,0.00544122,-0.04589840,-0.00753334
 ,0.00473988,-0.00088514,0.00076170,0.00007095,0.00025582,-0.00002786,0
 .00000503,0.00000492,0.00000680,-0.00000312,0.00000566,-0.00000446,0.0
 0000022,0.00000534,0.00000086,0.00000006,0.00000067,0.00000077,0.00000
 042,0.00000185,-0.00000020,0.00000282,-0.00000400,0.00000044,-0.000000
 81,-0.00000006,-0.00000008,-0.00000184,-0.00000123,-0.00001604,-0.0000
 1963,0.00001767,-0.00010047,-0.00004294,-0.00017274,-0.00005185,0.0001
 2197,-0.00011240,-0.00009348,0.00008064,0.00006154,0.00002630,0.000021
 18,-0.00000909,-0.00021565,0.00028217,0.00036551,0.02467629,-0.0142748
 1,0.00366004,0.01340209,-0.00973662,0.04821698,-0.00003366,0.00000755,
 0.00000267,0.00001652,-0.00000955,0.00002226,-0.00001755,0.00001128,-0
 .00005193,0.00003940,-0.00000807,0.00008331,-0.00009942,0.00008566,0.0
 0015125,-0.00007556,0.00004760,-0.00010687,0.00007940,-0.00003775,-0.0
 0001668,-0.00009806,0.00004179,0.00001953,-0.00044002,-0.00018133,-0.0
 0083093,0.00157297,0.00094726,0.00655079,-0.00025193,-0.00043757,-0.00
 173448,0.00131061,0.00659693,-0.00073719,-0.00058218,-0.00051643,-0.00
 101195,0.00032027,0.00017133,0.00023043,-0.00003007,0.00001807,-0.0000
 2028,-0.00018707,-0.00013166,-0.00010238,0.00004700,-0.00050477,0.0011
 4580,-0.00218100,-0.00197724,-0.00219579,0.00370921,-0.02177515,0.0014
 3392,-0.05314993,0.04373122,-0.00787338,-0.02391053,0.03190570,0.00310
 842,-0.00033093,-0.00015232,0.00005529,-0.00005409,0.00001513,-0.00002
 781,0.00002235,-0.00000324,-0.00002624,-0.00000493,0.00000264,-0.00000
 344,-0.00000038,0.00000201,-0.00000726,0.00001290,-0.00000420,0.000023
 58,-0.00000484,-0.00000843,0.00000788,-0.00001750,0.00000269,0.0000183
 4,0.00006463,0.00005304,-0.00008808,0.00058338,-0.00054489,0.00043431,
 -0.00000659,-0.00004576,0.00004635,0.00001758,0.00003885,0.00002168,0.
 00002366,-0.00009096,0.00006725,0.00005326,0.00005636,-0.00000794,-0.0
 0068746,-0.00129149,-0.00056063,0.00099977,-0.00041337,0.00033909,0.07
 330102,0.00001724,-0.00000230,-0.00000419,-0.00000753,0.00000642,-0.00
 001049,0.00000437,-0.00000234,0.00002495,-0.00001680,0.00001087,-0.000
 03184,0.00001375,0.00000794,-0.00006619,0.00004309,-0.00002155,0.00003
 849,-0.00003866,0.00002094,0.00002054,0.00005836,-0.00001733,-0.000027
 21,-0.00000993,-0.00018893,0.00017206,-0.00160888,-0.00023200,-0.00176
 712,0.00019387,-0.00050400,0.00020858,-0.00069724,-0.00243297,-0.00074
 111,0.00004248,-0.00014271,0.00096924,-0.00018791,-0.00000737,-0.00004
 472,-0.00002465,-0.00008859,0.00002339,-0.00011317,-0.00018274,-0.0000
 0112,0.00008695,-0.00015127,0.00078159,-0.00180335,-0.00122176,-0.0014
 6364,0.00277614,-0.01297068,0.00337138,0.04807490,-0.30688759,0.025649
 39,0.00944234,0.00255081,-0.00294669,0.00012487,0.00004419,-0.00002341
 ,0.00002795,-0.00000373,0.00000994,-0.00001344,-0.00000059,0.00001549,
 0.00000276,-0.00000246,0.00000196,-0.00000184,-0.00000257,0.00000223,-
 0.00001091,-0.00000291,-0.00001165,0.00000109,-0.00000160,-0.00000373,
 0.00000997,-0.00000661,-0.00001159,-0.00002858,-0.00001679,0.00007194,
 -0.00017451,0.00111485,0.00039773,0.00001224,-0.00000930,0.00002818,0.
 00000772,-0.00003667,0.00000576,0.00002217,-0.00007835,0.00003557,0.00
 000363,0.00002029,-0.00002143,-0.00042988,-0.00058142,-0.00016702,-0.0
 0020122,0.00113289,0.00012699,-0.05560341,0.32088995,0.00000775,-0.000
 00250,0.00000112,-0.00000496,0.00000090,-0.00000406,0.00001105,-0.0000
 0594,0.00001118,-0.00001858,-0.00000588,-0.00003383,0.00013219,-0.0000
 5823,-0.00008422,0.00002217,-0.00001770,0.00009990,-0.00007791,0.00002
 639,0.00000441,0.00006418,-0.00003762,0.00004120,0.00045033,0.00030173
 ,0.00048987,-0.00208095,-0.00121766,-0.00653106,-0.00240173,0.00144283
 ,0.00040649,-0.00262158,0.02544668,0.00136212,-0.00210033,0.00129016,-
 0.00422130,0.00100527,0.00083820,0.00030571,-0.00008345,0.00017539,-0.
 00028443,-0.00010033,-0.00006472,-0.00008809,0.00007633,-0.00021407,0.
 00069619,-0.00134538,-0.00058090,-0.00184925,0.00082347,-0.01252947,0.
 00402631,-0.01095455,0.02953057,-0.05319262,0.01672310,-0.02008100,0.0
 0372728,-0.00004174,0.00009589,-0.00004942,0.00001863,-0.00000694,0.00
 001063,-0.00000801,0.00000374,0.00000455,0.00000083,-0.00000018,0.0000
 0107,0.00000094,0.00000083,0.00000210,0.00000652,0.00000463,-0.0000024
 4,-0.00000042,0.00000151,0.00000056,0.00000625,0.00000146,-0.00000512,
 -0.00001089,-0.00004187,0.00002689,0.00032588,-0.00051498,0.00164279,-
 0.00002826,-0.00002858,0.00001570,0.00005913,0.00011995,0.00000602,0.0
 0003235,-0.00004387,0.00003659,0.00004643,0.00004388,0.00001112,-0.000
 16917,-0.00010976,-0.00039998,0.00059237,0.00084881,0.00069400,0.00164
 042,-0.02461135,0.05312201,-0.00131199,0.00192688,0.00012404,0.0015149
 9,0.00103829,0.00125847,0.00011621,-0.00010489,-0.00022355,0.00115729,
 0.00253035,-0.00137764,-0.00001903,-0.00000539,0.00082732,-0.00009491,
 0.00006521,-0.00027385,0.00005994,-0.00002717,0.00006882,-0.00012204,0
 .00002207,0.00000982,-0.00000482,-0.00000030,-0.00008999,0.00016333,-0
 .00003104,-0.00004177,-0.00009315,0.00001303,0.00004603,0.00004151,-0.
 00000833,-0.00001002,-0.00000300,0.00002368,0.00000013,-0.00000391,-0.
 00000247,-0.00000250,-0.00000246,0.00000158,-0.00000360,-0.00000197,-0
 .00000346,0.00000167,0.00000360,-0.00000001,0.00000323,-0.00000978,-0.
 00000763,0.00000073,0.00000152,0.00000435,-0.00000014,0.00005396,-0.00
 001219,-0.00002467,-0.00014197,0.00002856,0.00001514,-0.00036024,0.000
 09386,-0.00017934,-0.02756051,0.00610624,-0.00354001,-0.27456745,0.037
 30453,0.10145298,0.00024654,-0.00083847,0.00024873,-0.00017209,-0.0000
 1567,-0.00011767,-0.00015193,-0.00039667,0.00013800,-0.00001187,-0.000
 03846,0.00020721,-0.00001051,0.00000991,-0.00002940,-0.00000510,0.0000
 0736,-0.00001118,-0.00001372,0.00000349,0.00000415,0.00000405,0.000002
 21,-0.00000501,0.00000039,-0.00000310,0.00000233,-0.00000247,-0.000003
 85,0.00000005,-0.00000173,-0.00000131,-0.00000336,0.00000287,-0.000002
 42,0.00000088,-0.00000809,-0.00000084,0.00000161,-0.00001021,0.0000060
 3,0.00000264,0.30131876,-0.00296381,0.00727940,0.00216620,0.00125491,0
 .00622967,0.00183741,-0.00000015,-0.00049954,0.00003663,0.00294248,0.0
 0979020,0.00232428,0.00018111,0.00055909,-0.00020141,0.00001789,-0.000
 02865,0.00005094,-0.00001495,-0.00000016,-0.00000995,0.00001838,-0.000
 02934,-0.00000264,-0.00001229,-0.00007392,-0.00000070,-0.00003370,0.00
 001158,0.00001317,0.00001944,-0.00000462,-0.00001108,-0.00000859,0.000
 00199,0.00000241,0.00000122,-0.00000472,0.00000022,0.00000150,0.000000
 29,0.00000107,0.00000065,-0.00000058,-0.00000009,0.00000072,0.00000010
 ,-0.00000037,-0.00000054,-0.00000038,-0.00000076,0.00000159,0.00000153
 ,-0.00000080,0.00000007,-0.00000084,0.00000014,-0.00001081,0.00000523,
 0.00000582,0.00003168,-0.00000646,-0.00000400,0.00010901,-0.00013083,0
 .00005139,0.01019077,-0.00637575,-0.00162495,0.03724846,-0.04808102,-0
 .01355241,-0.00067613,-0.00284258,-0.00073312,-0.00027141,-0.00026686,
 0.00003345,-0.00036095,-0.00158724,-0.00035096,0.00000094,-0.00002001,
 -0.00005115,0.00000603,0.00000771,0.00000954,0.00000490,0.00001551,0.0
 0000632,0.00000346,-0.00000122,-0.00000135,-0.00000086,0.00000007,0.00
 000094,-0.00000046,0.00000075,0.00000017,-0.00000017,0.00000069,0.0000
 0010,0.,0.00000049,0.00000064,-0.00000080,0.00000058,-0.00000035,0.000
 00190,-0.00000006,-0.00000022,0.00000249,-0.00000201,-0.00000036,-0.04
 768397,0.03605192,0.02834768,-0.00448383,-0.00571520,0.00000164,0.0021
 3351,-0.00546921,-0.00082882,0.00018043,-0.00040698,-0.00374314,0.0028
 7981,-0.00064837,-0.00025131,0.00005392,0.00059835,0.00000292,-0.00001
 261,0.00005527,-0.00000304,0.00000654,-0.00003928,0.00002248,-0.000006
 12,-0.00002169,-0.00002585,-0.00001524,0.00004739,-0.00001886,0.000007
 87,-0.00001531,0.00000823,-0.00000206,0.00000168,-0.00000607,0.0000011
 4,0.00000008,0.00000105,-0.00000125,0.00000031,-0.00000100,-0.00000050
 ,-0.00000222,0.00000118,-0.00000065,0.00000106,0.00000005,-0.00000033,
 -0.00000043,-0.00000002,-0.00000022,-0.00000017,0.00000088,0.00000067,
 -0.00000029,-0.00000056,0.00000028,0.00000059,-0.00000711,0.00000237,0
 .00000154,0.00000839,-0.00000205,0.00000354,-0.00027362,0.00007426,-0.
 00015073,-0.02711459,0.00392538,0.00996435,0.10178517,-0.01363013,-0.1
 0140181,-0.00068806,-0.00051104,0.00075886,0.00136013,-0.00031443,-0.0
 0035863,-0.00006611,-0.00030263,0.00010291,-0.00002867,0.00000363,-0.0
 0001091,-0.00000586,0.00000402,-0.00000447,0.00000284,0.00000310,-0.00
 000423,0.00000061,0.,-0.00000062,-0.00000103,0.00000042,0.00000115,-0.
 00000089,0.00000003,-0.00000015,0.00000030,0.00000079,0.00000025,0.000
 00013,0.00000018,0.00000075,-0.00000047,0.00000021,-0.00000001,0.00000
 096,-0.00000045,-0.00000009,0.00000069,-0.00000089,0.,-0.09848027,0.01
 000584,0.10271273\\-0.00001146,0.00000144,0.00000446,-0.00000007,-0.00
 000036,0.00000128,0.00000804,-0.00000274,0.00000965,-0.00000970,0.0000
 0275,-0.00000455,0.00000783,-0.00000746,0.00000301,-0.00000951,0.00000
 522,-0.00000797,0.00000592,0.00000060,-0.00000147,0.00000450,-0.000001
 87,-0.00000372,-0.00001310,0.00001290,-0.00000753,0.00004295,-0.000017
 20,0.00004841,0.00000828,0.00000177,-0.00002998,-0.00003359,-0.0000106
 6,0.00000449,0.00001500,0.00000823,0.00000597,0.00000406,0.00001006,-0
 .00000268,-0.00000649,-0.00000861,-0.00000494,0.00000313,-0.00000306,0
 .00000912,0.00000427,0.00000628,-0.00000018,-0.00001335,0.00001092,-0.
 00002678,0.00002268,-0.00002034,0.00003187,0.00000537,0.00000630,0.000
 00280,-0.00003213,0.00000499,-0.00002326,0.00000276,-0.00000685,0.0000
 1205,-0.00000238,0.00000269,-0.00000527,0.00000652,-0.00000088,-0.0000
 0304,0.00000140,-0.00000022,-0.00000218,0.00000154,-0.00000049,-0.0000
 0177,-0.00000161,0.00000124,-0.00000578,0.00000172,-0.00000125,0.00000
 502,-0.00000052,0.00000030,0.00000217,0.00000112,-0.00000147,0.0000041
 2,0.00000365,0.00000339,0.00000028,-0.00000203,-0.00000058,-0.00000184
 ,-0.00000066,0.00000089,-0.00000107,0.00000003,0.00000142,-0.00000174,
 0.00000041,-0.00000164,0.00000147,-0.00000685,0.00000198,-0.00000862,-
 0.00000385,0.00000199,-0.00000540,-0.00000216,0.00000083,0.00000094,-0
 .00000175,-0.00000052,0.00000267\\\@
 The archive entry for this job was punched.


 IN THE FIGHT BETWEEN YOU AND THE WORLD, BACK THE WORLD

                                        -- FRANZ KAFKA
 Job cpu time:       0 days  1 hours 19 minutes  9.4 seconds.
 Elapsed time:       0 days  0 hours  2 minutes 29.4 seconds.
 File lengths (MBytes):  RWF=    619 Int=      0 D2E=      0 Chk=     13 Scr=      1
 Normal termination of Gaussian 16 at Wed Jul 31 21:02:43 2024.
