 Entering Gaussian System, Link 0=g16
 Initial command:
 /public/software/apps/Gaussian/g16/l1.exe "/tmp/Gau-125978.inp" -scrdir="/tmp/"
 Entering Link 1 = /public/software/apps/Gaussian/g16/l1.exe PID=    125979.
  
 Copyright (c) 1988-2019, Gaussian, Inc.  All Rights Reserved.
  
 This is part of the Gaussian(R) 16 program.  It is based on
 the Gaussian(R) 09 system (copyright 2009, Gaussian, Inc.),
 the Gaussian(R) 03 system (copyright 2003, Gaussian, Inc.),
 the Gaussian(R) 98 system (copyright 1998, Gaussian, Inc.),
 the Gaussian(R) 94 system (copyright 1995, Gaussian, Inc.),
 the Gaussian 92(TM) system (copyright 1992, Gaussian, Inc.),
 the Gaussian 90(TM) system (copyright 1990, Gaussian, Inc.),
 the Gaussian 88(TM) system (copyright 1988, Gaussian, Inc.),
 the Gaussian 86(TM) system (copyright 1986, Carnegie Mellon
 University), and the Gaussian 82(TM) system (copyright 1983,
 Carnegie Mellon University). Gaussian is a federally registered
 trademark of Gaussian, Inc.
  
 This software contains proprietary and confidential information,
 including trade secrets, belonging to Gaussian, Inc.
  
 This software is provided under written license and may be
 used, copied, transmitted, or stored only in accord with that
 written license.
  
 The following legend is applicable only to US Government
 contracts under FAR:
  
                    RESTRICTED RIGHTS LEGEND
  
 Use, reproduction and disclosure by the US Government is
 subject to restrictions as set forth in subparagraphs (a)
 and (c) of the Commercial Computer Software - Restricted
 Rights clause in FAR 52.227-19.
  
 Gaussian, Inc.
 340 Quinnipiac St., Bldg. 40, Wallingford CT 06492
  
  
 ---------------------------------------------------------------
 Warning -- This program may not be used in any manner that
 competes with the business of Gaussian, Inc. or will provide
 assistance to any competitor of Gaussian, Inc.  The licensee
 of this program is prohibited from giving any competitor of
 Gaussian, Inc. access to this program.  By using this program,
 the user acknowledges that Gaussian, Inc. is engaged in the
 business of creating and licensing software in the field of
 computational chemistry and represents and warrants to the
 licensee that it is not a competitor of Gaussian, Inc. and that
 it will not use this program in any manner prohibited above.
 ---------------------------------------------------------------
  

 Cite this work as:
 Gaussian 16, Revision C.01,
 M. J. Frisch, G. W. Trucks, H. B. Schlegel, G. E. Scuseria, 
 M. A. Robb, J. R. Cheeseman, G. Scalmani, V. Barone, 
 G. A. Petersson, H. Nakatsuji, X. Li, M. Caricato, A. V. Marenich, 
 J. Bloino, B. G. Janesko, R. Gomperts, B. Mennucci, H. P. Hratchian, 
 J. V. Ortiz, A. F. Izmaylov, J. L. Sonnenberg, D. Williams-Young, 
 F. Ding, F. Lipparini, F. Egidi, J. Goings, B. Peng, A. Petrone, 
 T. Henderson, D. Ranasinghe, V. G. Zakrzewski, J. Gao, N. Rega, 
 G. Zheng, W. Liang, M. Hada, M. Ehara, K. Toyota, R. Fukuda, 
 J. Hasegawa, M. Ishida, T. Nakajima, Y. Honda, O. Kitao, H. Nakai, 
 T. Vreven, K. Throssell, J. A. Montgomery, Jr., J. E. Peralta, 
 F. Ogliaro, M. J. Bearpark, J. J. Heyd, E. N. Brothers, K. N. Kudin, 
 V. N. Staroverov, T. A. Keith, R. Kobayashi, J. Normand, 
 K. Raghavachari, A. P. Rendell, J. C. Burant, S. S. Iyengar, 
 J. Tomasi, M. Cossi, J. M. Millam, M. Klene, C. Adamo, R. Cammi, 
 J. W. Ochterski, R. L. Martin, K. Morokuma, O. Farkas, 
 J. B. Foresman, and D. J. Fox, Gaussian, Inc., Wallingford CT, 2019.
 
 ******************************************
 Gaussian 16:  ES64L-G16RevC.01  3-Jul-2019
                31-Jul-2024 
 ******************************************
 %nprocshared=32
 Will use up to   32 processors via shared memory.
 %mem=100GB
 ------------------------------------------
 #p opt freq b3lyp/def2svpp em=gd3bj nosymm
 ------------------------------------------
 1/18=20,19=15,26=3,38=1/1,3;
 2/9=110,12=2,15=1,17=6,18=5,40=1/2;
 3/5=43,7=202,11=2,25=1,30=1,71=1,74=-5,124=41/1,2,3;
 4//1;
 5/5=2,38=5/2;
 6/7=2,8=2,9=2,10=2,28=1/1;
 7/30=1/1,2,3,16;
 1/18=20,19=15,26=3/3(2);
 2/9=110,15=1/2;
 99//99;
 2/9=110,15=1/2;
 3/5=43,7=202,11=2,25=1,30=1,71=1,74=-5,124=41/1,2,3;
 4/5=5,16=3,69=1/1;
 5/5=2,38=5/2;
 7/30=1/1,2,3,16;
 1/18=20,19=15,26=3/3(-5);
 2/9=110,15=1/2;
 6/7=2,8=2,9=2,10=2,19=2,28=1/1;
 99/9=1/99;
 Leave Link    1 at Wed Jul 31 21:26:11 2024, MaxMem= 13421772800 cpu:               0.5 elap:               0.0
 (Enter /public/software/apps/Gaussian/g16/l101.exe)
 ----------------------
 $$$$Singlemol####0????
 ----------------------
 Symbolic Z-matrix:
 Charge =  0 Multiplicity = 1
 C                    -6.8583   -2.3794    1.0163 
 C                    -6.0707   -1.8586    2.0466 
 C                    -4.7537   -1.4641    1.7915 
 C                    -4.214    -1.5909    0.4999 
 C                    -2.8012   -1.1504    0.2123 
 C                    -2.7681    0.2003   -0.5212 
 C                    -3.2125    1.3885    0.3617 
 O                    -2.0885    2.2488    0.3478 
 C                    -1.0848    1.6705   -0.4005 
 C                     0.262     2.2907   -0.5862 
 C                     1.3704    1.8793    0.3273 
 N                     2.0801    0.8253    0.1273 
 C                     3.0633    0.7016    1.1973 
 C                     4.4883    0.7219    0.6228 
 C                     4.7342   -0.4737   -0.2603 
 C                     5.134    -1.6979    0.3013 
 C                     5.329    -2.8167   -0.5147 
 C                     5.1179   -2.7239   -1.8932 
 C                     4.7089   -1.5126   -2.4579 
 C                     4.5133   -0.3912   -1.6458 
 C                     2.7854    1.9139    2.1124 
 O                     1.7107    2.5739    1.4692 
 C                     0.6585    2.6292   -2.0162 
 C                     0.276     3.7406   -1.0471 
 N                    -1.3983    0.526    -0.8982 
 C                    -5.0137   -2.1132   -0.5308 
 C                    -6.3301   -2.5068   -0.2712 
 H                    -7.8775   -2.6843    1.2157 
 H                    -6.4811   -1.7599    3.0433 
 H                    -4.1566   -1.0611    2.5999 
 H                    -2.3098   -1.9196   -0.4229 
 H                    -2.2096   -1.0851    1.1524 
 H                    -3.3902    0.1536   -1.4424 
 H                    -4.0894    1.9067   -0.0813 
 H                    -3.4357    1.0924    1.4082 
 H                     2.8863   -0.2445    1.7557 
 H                     4.651     1.6606    0.0475 
 H                     5.2215    0.7195    1.4591 
 H                     5.2917   -1.7852    1.3693 
 H                     5.6401   -3.7568   -0.0777 
 H                     5.2677   -3.5913   -2.5231 
 H                     4.5401   -1.4433   -3.5247 
 H                     4.1869    0.5388   -2.0948 
 H                     2.4691    1.5821    3.1243 
 H                     3.653     2.6039    2.1948 
 H                     1.7466    2.5902   -2.2401 
 H                    -0.1118    2.4333   -2.793 
 H                     1.1424    4.3511   -0.7126 
 H                    -0.7155    4.1932   -1.2646 
 H                    -4.6168   -2.215    -1.5331 
 H                    -6.9405   -2.9106   -1.0683 
 
 ITRead=  0  0  0  0  0  0  0  0  0  0  0  0  0  0  0  0  0  0  0  0
 ITRead=  0  0  0  0  0  0  0  0  0  0  0  0  0  0  0  0  0  0  0  0
 ITRead=  0  0  0  0  0  0  0  0  0  0  0
 MicOpt= -1 -1 -1 -1 -1 -1 -1 -1 -1 -1 -1 -1 -1 -1 -1 -1 -1 -1 -1 -1
 MicOpt= -1 -1 -1 -1 -1 -1 -1 -1 -1 -1 -1 -1 -1 -1 -1 -1 -1 -1 -1 -1
 MicOpt= -1 -1 -1 -1 -1 -1 -1 -1 -1 -1 -1
 NAtoms=     51 NQM=       51 NQMF=       0 NMMI=      0 NMMIF=      0
                NMic=       0 NMicF=      0.
                    Isotopes and Nuclear Properties:
 (Nuclear quadrupole moments (NQMom) in fm**2, nuclear magnetic moments (NMagM)
  in nuclear magnetons)

  Atom         1           2           3           4           5           6           7           8           9          10
 IAtWgt=          12          12          12          12          12          12          12          16          12          12
 AtmWgt=  12.0000000  12.0000000  12.0000000  12.0000000  12.0000000  12.0000000  12.0000000  15.9949146  12.0000000  12.0000000
 NucSpn=           0           0           0           0           0           0           0           0           0           0
 AtZEff=  -0.0000000  -0.0000000  -0.0000000  -0.0000000  -0.0000000  -0.0000000  -0.0000000  -0.0000000  -0.0000000  -0.0000000
 NQMom=    0.0000000   0.0000000   0.0000000   0.0000000   0.0000000   0.0000000   0.0000000   0.0000000   0.0000000   0.0000000
 NMagM=    0.0000000   0.0000000   0.0000000   0.0000000   0.0000000   0.0000000   0.0000000   0.0000000   0.0000000   0.0000000
 AtZNuc=   6.0000000   6.0000000   6.0000000   6.0000000   6.0000000   6.0000000   6.0000000   8.0000000   6.0000000   6.0000000

  Atom        11          12          13          14          15          16          17          18          19          20
 IAtWgt=          12          14          12          12          12          12          12          12          12          12
 AtmWgt=  12.0000000  14.0030740  12.0000000  12.0000000  12.0000000  12.0000000  12.0000000  12.0000000  12.0000000  12.0000000
 NucSpn=           0           2           0           0           0           0           0           0           0           0
 AtZEff=  -0.0000000  -0.0000000  -0.0000000  -0.0000000  -0.0000000  -0.0000000  -0.0000000  -0.0000000  -0.0000000  -0.0000000
 NQMom=    0.0000000   2.0440000   0.0000000   0.0000000   0.0000000   0.0000000   0.0000000   0.0000000   0.0000000   0.0000000
 NMagM=    0.0000000   0.4037610   0.0000000   0.0000000   0.0000000   0.0000000   0.0000000   0.0000000   0.0000000   0.0000000
 AtZNuc=   6.0000000   7.0000000   6.0000000   6.0000000   6.0000000   6.0000000   6.0000000   6.0000000   6.0000000   6.0000000

  Atom        21          22          23          24          25          26          27          28          29          30
 IAtWgt=          12          16          12          12          14          12          12           1           1           1
 AtmWgt=  12.0000000  15.9949146  12.0000000  12.0000000  14.0030740  12.0000000  12.0000000   1.0078250   1.0078250   1.0078250
 NucSpn=           0           0           0           0           2           0           0           1           1           1
 AtZEff=  -0.0000000  -0.0000000  -0.0000000  -0.0000000  -0.0000000  -0.0000000  -0.0000000  -0.0000000  -0.0000000  -0.0000000
 NQMom=    0.0000000   0.0000000   0.0000000   0.0000000   2.0440000   0.0000000   0.0000000   0.0000000   0.0000000   0.0000000
 NMagM=    0.0000000   0.0000000   0.0000000   0.0000000   0.4037610   0.0000000   0.0000000   2.7928460   2.7928460   2.7928460
 AtZNuc=   6.0000000   8.0000000   6.0000000   6.0000000   7.0000000   6.0000000   6.0000000   1.0000000   1.0000000   1.0000000

  Atom        31          32          33          34          35          36          37          38          39          40
 IAtWgt=           1           1           1           1           1           1           1           1           1           1
 AtmWgt=   1.0078250   1.0078250   1.0078250   1.0078250   1.0078250   1.0078250   1.0078250   1.0078250   1.0078250   1.0078250
 NucSpn=           1           1           1           1           1           1           1           1           1           1
 AtZEff=  -0.0000000  -0.0000000  -0.0000000  -0.0000000  -0.0000000  -0.0000000  -0.0000000  -0.0000000  -0.0000000  -0.0000000
 NQMom=    0.0000000   0.0000000   0.0000000   0.0000000   0.0000000   0.0000000   0.0000000   0.0000000   0.0000000   0.0000000
 NMagM=    2.7928460   2.7928460   2.7928460   2.7928460   2.7928460   2.7928460   2.7928460   2.7928460   2.7928460   2.7928460
 AtZNuc=   1.0000000   1.0000000   1.0000000   1.0000000   1.0000000   1.0000000   1.0000000   1.0000000   1.0000000   1.0000000

  Atom        41          42          43          44          45          46          47          48          49          50
 IAtWgt=           1           1           1           1           1           1           1           1           1           1
 AtmWgt=   1.0078250   1.0078250   1.0078250   1.0078250   1.0078250   1.0078250   1.0078250   1.0078250   1.0078250   1.0078250
 NucSpn=           1           1           1           1           1           1           1           1           1           1
 AtZEff=  -0.0000000  -0.0000000  -0.0000000  -0.0000000  -0.0000000  -0.0000000  -0.0000000  -0.0000000  -0.0000000  -0.0000000
 NQMom=    0.0000000   0.0000000   0.0000000   0.0000000   0.0000000   0.0000000   0.0000000   0.0000000   0.0000000   0.0000000
 NMagM=    2.7928460   2.7928460   2.7928460   2.7928460   2.7928460   2.7928460   2.7928460   2.7928460   2.7928460   2.7928460
 AtZNuc=   1.0000000   1.0000000   1.0000000   1.0000000   1.0000000   1.0000000   1.0000000   1.0000000   1.0000000   1.0000000

  Atom        51
 IAtWgt=           1
 AtmWgt=   1.0078250
 NucSpn=           1
 AtZEff=  -0.0000000
 NQMom=    0.0000000
 NMagM=    2.7928460
 AtZNuc=   1.0000000
 Leave Link  101 at Wed Jul 31 21:26:11 2024, MaxMem= 13421772800 cpu:               4.2 elap:               0.1
 (Enter /public/software/apps/Gaussian/g16/l103.exe)

 GradGradGradGradGradGradGradGradGradGradGradGradGradGradGradGradGradGrad
 Berny optimization.
 Initialization pass.
                           ----------------------------
                           !    Initial Parameters    !
                           ! (Angstroms and Degrees)  !
 --------------------------                            --------------------------
 ! Name  Definition              Value          Derivative Info.                !
 --------------------------------------------------------------------------------
 ! R1    R(1,2)                  1.3975         estimate D2E/DX2                !
 ! R2    R(1,27)                 1.3975         estimate D2E/DX2                !
 ! R3    R(1,28)                 1.0824         estimate D2E/DX2                !
 ! R4    R(2,3)                  1.3983         estimate D2E/DX2                !
 ! R5    R(2,29)                 1.0824         estimate D2E/DX2                !
 ! R6    R(3,4)                  1.4056         estimate D2E/DX2                !
 ! R7    R(3,30)                 1.0828         estimate D2E/DX2                !
 ! R8    R(4,5)                  1.5076         estimate D2E/DX2                !
 ! R9    R(4,26)                 1.4052         estimate D2E/DX2                !
 ! R10   R(5,6)                  1.5374         estimate D2E/DX2                !
 ! R11   R(5,31)                 1.112          estimate D2E/DX2                !
 ! R12   R(5,32)                 1.1127         estimate D2E/DX2                !
 ! R13   R(6,7)                  1.5456         estimate D2E/DX2                !
 ! R14   R(6,25)                 1.4576         estimate D2E/DX2                !
 ! R15   R(6,33)                 1.1126         estimate D2E/DX2                !
 ! R16   R(7,8)                  1.4155         estimate D2E/DX2                !
 ! R17   R(7,34)                 1.1107         estimate D2E/DX2                !
 ! R18   R(7,35)                 1.1103         estimate D2E/DX2                !
 ! R19   R(8,9)                  1.3791         estimate D2E/DX2                !
 ! R20   R(9,10)                 1.4943         estimate D2E/DX2                !
 ! R21   R(9,25)                 1.2868         estimate D2E/DX2                !
 ! R22   R(10,11)                1.4941         estimate D2E/DX2                !
 ! R23   R(10,23)                1.5221         estimate D2E/DX2                !
 ! R24   R(10,24)                1.5215         estimate D2E/DX2                !
 ! R25   R(11,12)                1.2863         estimate D2E/DX2                !
 ! R26   R(11,22)                1.3792         estimate D2E/DX2                !
 ! R27   R(12,13)                1.4584         estimate D2E/DX2                !
 ! R28   R(13,14)                1.5366         estimate D2E/DX2                !
 ! R29   R(13,21)                1.5441         estimate D2E/DX2                !
 ! R30   R(13,36)                1.1128         estimate D2E/DX2                !
 ! R31   R(14,15)                1.5066         estimate D2E/DX2                !
 ! R32   R(14,37)                1.1129         estimate D2E/DX2                !
 ! R33   R(14,38)                1.1122         estimate D2E/DX2                !
 ! R34   R(15,16)                1.405          estimate D2E/DX2                !
 ! R35   R(15,20)                1.4054         estimate D2E/DX2                !
 ! R36   R(16,17)                1.3984         estimate D2E/DX2                !
 ! R37   R(16,39)                1.0831         estimate D2E/DX2                !
 ! R38   R(17,18)                1.3977         estimate D2E/DX2                !
 ! R39   R(17,40)                1.0824         estimate D2E/DX2                !
 ! R40   R(18,19)                1.3976         estimate D2E/DX2                !
 ! R41   R(18,41)                1.0824         estimate D2E/DX2                !
 ! R42   R(19,20)                1.3983         estimate D2E/DX2                !
 ! R43   R(19,42)                1.0823         estimate D2E/DX2                !
 ! R44   R(20,43)                1.0831         estimate D2E/DX2                !
 ! R45   R(21,22)                1.4157         estimate D2E/DX2                !
 ! R46   R(21,44)                1.1109         estimate D2E/DX2                !
 ! R47   R(21,45)                1.1116         estimate D2E/DX2                !
 ! R48   R(23,24)                1.5234         estimate D2E/DX2                !
 ! R49   R(23,46)                1.1116         estimate D2E/DX2                !
 ! R50   R(23,47)                1.1114         estimate D2E/DX2                !
 ! R51   R(24,48)                1.1114         estimate D2E/DX2                !
 ! R52   R(24,49)                1.1114         estimate D2E/DX2                !
 ! R53   R(26,27)                1.3983         estimate D2E/DX2                !
 ! R54   R(26,50)                1.0828         estimate D2E/DX2                !
 ! R55   R(27,51)                1.0821         estimate D2E/DX2                !
 ! A1    A(2,1,27)             120.0123         estimate D2E/DX2                !
 ! A2    A(2,1,28)             119.9897         estimate D2E/DX2                !
 ! A3    A(27,1,28)            119.9979         estimate D2E/DX2                !
 ! A4    A(1,2,3)              120.0959         estimate D2E/DX2                !
 ! A5    A(1,2,29)             119.9448         estimate D2E/DX2                !
 ! A6    A(3,2,29)             119.9594         estimate D2E/DX2                !
 ! A7    A(2,3,4)              120.2551         estimate D2E/DX2                !
 ! A8    A(2,3,30)             119.2214         estimate D2E/DX2                !
 ! A9    A(4,3,30)             120.5235         estimate D2E/DX2                !
 ! A10   A(3,4,5)              120.5829         estimate D2E/DX2                !
 ! A11   A(3,4,26)             119.2764         estimate D2E/DX2                !
 ! A12   A(5,4,26)             120.132          estimate D2E/DX2                !
 ! A13   A(4,5,6)              111.5868         estimate D2E/DX2                !
 ! A14   A(4,5,31)             108.7218         estimate D2E/DX2                !
 ! A15   A(4,5,32)             110.7466         estimate D2E/DX2                !
 ! A16   A(6,5,31)             109.0064         estimate D2E/DX2                !
 ! A17   A(6,5,32)             109.8833         estimate D2E/DX2                !
 ! A18   A(31,5,32)            106.7536         estimate D2E/DX2                !
 ! A19   A(5,6,7)              113.3713         estimate D2E/DX2                !
 ! A20   A(5,6,25)             109.8742         estimate D2E/DX2                !
 ! A21   A(5,6,33)             110.2509         estimate D2E/DX2                !
 ! A22   A(7,6,25)             104.2515         estimate D2E/DX2                !
 ! A23   A(7,6,33)             110.1501         estimate D2E/DX2                !
 ! A24   A(25,6,33)            108.7054         estimate D2E/DX2                !
 ! A25   A(6,7,8)              103.4919         estimate D2E/DX2                !
 ! A26   A(6,7,34)             110.9669         estimate D2E/DX2                !
 ! A27   A(6,7,35)             113.0301         estimate D2E/DX2                !
 ! A28   A(8,7,34)             109.842          estimate D2E/DX2                !
 ! A29   A(8,7,35)             109.3282         estimate D2E/DX2                !
 ! A30   A(34,7,35)            109.9771         estimate D2E/DX2                !
 ! A31   A(7,8,9)              109.1713         estimate D2E/DX2                !
 ! A32   A(8,9,10)             123.3226         estimate D2E/DX2                !
 ! A33   A(8,9,25)             113.924          estimate D2E/DX2                !
 ! A34   A(10,9,25)            122.7279         estimate D2E/DX2                !
 ! A35   A(9,10,11)            118.5783         estimate D2E/DX2                !
 ! A36   A(9,10,23)            116.3491         estimate D2E/DX2                !
 ! A37   A(9,10,24)            116.1968         estimate D2E/DX2                !
 ! A38   A(11,10,23)           116.2578         estimate D2E/DX2                !
 ! A39   A(11,10,24)           116.1545         estimate D2E/DX2                !
 ! A40   A(10,11,12)           122.6747         estimate D2E/DX2                !
 ! A41   A(10,11,22)           123.407          estimate D2E/DX2                !
 ! A42   A(12,11,22)           113.9078         estimate D2E/DX2                !
 ! A43   A(11,12,13)           109.1103         estimate D2E/DX2                !
 ! A44   A(12,13,14)           110.4739         estimate D2E/DX2                !
 ! A45   A(12,13,21)           104.2932         estimate D2E/DX2                !
 ! A46   A(12,13,36)           109.4543         estimate D2E/DX2                !
 ! A47   A(14,13,21)           112.2165         estimate D2E/DX2                !
 ! A48   A(14,13,36)           110.2651         estimate D2E/DX2                !
 ! A49   A(21,13,36)           109.9682         estimate D2E/DX2                !
 ! A50   A(13,14,15)           111.1024         estimate D2E/DX2                !
 ! A51   A(13,14,37)           109.8761         estimate D2E/DX2                !
 ! A52   A(13,14,38)           109.2809         estimate D2E/DX2                !
 ! A53   A(15,14,37)           110.0286         estimate D2E/DX2                !
 ! A54   A(15,14,38)           109.3564         estimate D2E/DX2                !
 ! A55   A(37,14,38)           107.106          estimate D2E/DX2                !
 ! A56   A(14,15,16)           120.2402         estimate D2E/DX2                !
 ! A57   A(14,15,20)           120.3721         estimate D2E/DX2                !
 ! A58   A(16,15,20)           119.3365         estimate D2E/DX2                !
 ! A59   A(15,16,17)           120.2349         estimate D2E/DX2                !
 ! A60   A(15,16,39)           120.3857         estimate D2E/DX2                !
 ! A61   A(17,16,39)           119.3793         estimate D2E/DX2                !
 ! A62   A(16,17,18)           120.0884         estimate D2E/DX2                !
 ! A63   A(16,17,40)           119.9582         estimate D2E/DX2                !
 ! A64   A(18,17,40)           119.953          estimate D2E/DX2                !
 ! A65   A(17,18,19)           120.0161         estimate D2E/DX2                !
 ! A66   A(17,18,41)           119.9907         estimate D2E/DX2                !
 ! A67   A(19,18,41)           119.9929         estimate D2E/DX2                !
 ! A68   A(18,19,20)           120.0874         estimate D2E/DX2                !
 ! A69   A(18,19,42)           119.9595         estimate D2E/DX2                !
 ! A70   A(20,19,42)           119.9528         estimate D2E/DX2                !
 ! A71   A(15,20,19)           120.23           estimate D2E/DX2                !
 ! A72   A(15,20,43)           120.4282         estimate D2E/DX2                !
 ! A73   A(19,20,43)           119.3414         estimate D2E/DX2                !
 ! A74   A(13,21,22)           103.4962         estimate D2E/DX2                !
 ! A75   A(13,21,44)           110.8899         estimate D2E/DX2                !
 ! A76   A(13,21,45)           113.0046         estimate D2E/DX2                !
 ! A77   A(22,21,44)           109.6906         estimate D2E/DX2                !
 ! A78   A(22,21,45)           109.6815         estimate D2E/DX2                !
 ! A79   A(44,21,45)           109.8835         estimate D2E/DX2                !
 ! A80   A(11,22,21)           109.1881         estimate D2E/DX2                !
 ! A81   A(10,23,46)           115.8767         estimate D2E/DX2                !
 ! A82   A(10,23,47)           115.9074         estimate D2E/DX2                !
 ! A83   A(24,23,46)           113.548          estimate D2E/DX2                !
 ! A84   A(24,23,47)           113.5288         estimate D2E/DX2                !
 ! A85   A(46,23,47)           122.1063         estimate D2E/DX2                !
 ! A86   A(10,24,48)           116.0697         estimate D2E/DX2                !
 ! A87   A(10,24,49)           116.0498         estimate D2E/DX2                !
 ! A88   A(23,24,48)           113.3581         estimate D2E/DX2                !
 ! A89   A(23,24,49)           113.3662         estimate D2E/DX2                !
 ! A90   A(48,24,49)           122.0493         estimate D2E/DX2                !
 ! A91   A(6,25,9)             109.1266         estimate D2E/DX2                !
 ! A92   A(4,26,27)            120.279          estimate D2E/DX2                !
 ! A93   A(4,26,50)            120.3501         estimate D2E/DX2                !
 ! A94   A(27,26,50)           119.371          estimate D2E/DX2                !
 ! A95   A(1,27,26)            120.0808         estimate D2E/DX2                !
 ! A96   A(1,27,51)            119.9642         estimate D2E/DX2                !
 ! A97   A(26,27,51)           119.955          estimate D2E/DX2                !
 ! D1    D(27,1,2,3)             0.0078         estimate D2E/DX2                !
 ! D2    D(27,1,2,29)          179.9665         estimate D2E/DX2                !
 ! D3    D(28,1,2,3)           179.9954         estimate D2E/DX2                !
 ! D4    D(28,1,2,29)           -0.0459         estimate D2E/DX2                !
 ! D5    D(2,1,27,26)           -0.0249         estimate D2E/DX2                !
 ! D6    D(2,1,27,51)          179.9713         estimate D2E/DX2                !
 ! D7    D(28,1,27,26)         179.9875         estimate D2E/DX2                !
 ! D8    D(28,1,27,51)          -0.0163         estimate D2E/DX2                !
 ! D9    D(1,2,3,4)             -0.1119         estimate D2E/DX2                !
 ! D10   D(1,2,3,30)           179.911          estimate D2E/DX2                !
 ! D11   D(29,2,3,4)           179.9294         estimate D2E/DX2                !
 ! D12   D(29,2,3,30)           -0.0477         estimate D2E/DX2                !
 ! D13   D(2,3,4,5)            179.1588         estimate D2E/DX2                !
 ! D14   D(2,3,4,26)             0.2305         estimate D2E/DX2                !
 ! D15   D(30,3,4,5)            -0.8645         estimate D2E/DX2                !
 ! D16   D(30,3,4,26)         -179.7927         estimate D2E/DX2                !
 ! D17   D(3,4,5,6)           -103.0129         estimate D2E/DX2                !
 ! D18   D(3,4,5,31)           136.7289         estimate D2E/DX2                !
 ! D19   D(3,4,5,32)            19.7385         estimate D2E/DX2                !
 ! D20   D(26,4,5,6)            75.9061         estimate D2E/DX2                !
 ! D21   D(26,4,5,31)          -44.352          estimate D2E/DX2                !
 ! D22   D(26,4,5,32)         -161.3424         estimate D2E/DX2                !
 ! D23   D(3,4,26,27)           -0.2477         estimate D2E/DX2                !
 ! D24   D(3,4,26,50)          179.7682         estimate D2E/DX2                !
 ! D25   D(5,4,26,27)         -179.1808         estimate D2E/DX2                !
 ! D26   D(5,4,26,50)            0.835          estimate D2E/DX2                !
 ! D27   D(4,5,6,7)             69.4411         estimate D2E/DX2                !
 ! D28   D(4,5,6,25)          -174.3669         estimate D2E/DX2                !
 ! D29   D(4,5,6,33)           -54.5753         estimate D2E/DX2                !
 ! D30   D(31,5,6,7)          -170.4679         estimate D2E/DX2                !
 ! D31   D(31,5,6,25)          -54.2759         estimate D2E/DX2                !
 ! D32   D(31,5,6,33)           65.5157         estimate D2E/DX2                !
 ! D33   D(32,5,6,7)           -53.8025         estimate D2E/DX2                !
 ! D34   D(32,5,6,25)           62.3895         estimate D2E/DX2                !
 ! D35   D(32,5,6,33)         -177.8189         estimate D2E/DX2                !
 ! D36   D(5,6,7,8)            121.2599         estimate D2E/DX2                !
 ! D37   D(5,6,7,34)          -120.9812         estimate D2E/DX2                !
 ! D38   D(5,6,7,35)             3.1059         estimate D2E/DX2                !
 ! D39   D(25,6,7,8)             1.7967         estimate D2E/DX2                !
 ! D40   D(25,6,7,34)          119.5557         estimate D2E/DX2                !
 ! D41   D(25,6,7,35)         -116.3572         estimate D2E/DX2                !
 ! D42   D(33,6,7,8)          -114.6689         estimate D2E/DX2                !
 ! D43   D(33,6,7,34)            3.0901         estimate D2E/DX2                !
 ! D44   D(33,6,7,35)          127.1772         estimate D2E/DX2                !
 ! D45   D(5,6,25,9)          -123.5255         estimate D2E/DX2                !
 ! D46   D(7,6,25,9)            -1.7211         estimate D2E/DX2                !
 ! D47   D(33,6,25,9)          115.7459         estimate D2E/DX2                !
 ! D48   D(6,7,8,9)             -1.3192         estimate D2E/DX2                !
 ! D49   D(34,7,8,9)          -119.8602         estimate D2E/DX2                !
 ! D50   D(35,7,8,9)           119.3781         estimate D2E/DX2                !
 ! D51   D(7,8,9,10)          -177.9141         estimate D2E/DX2                !
 ! D52   D(7,8,9,25)             0.2892         estimate D2E/DX2                !
 ! D53   D(8,9,10,11)           94.7572         estimate D2E/DX2                !
 ! D54   D(8,9,10,23)         -118.9381         estimate D2E/DX2                !
 ! D55   D(8,9,10,24)          -51.0764         estimate D2E/DX2                !
 ! D56   D(25,9,10,11)         -83.2904         estimate D2E/DX2                !
 ! D57   D(25,9,10,23)          63.0143         estimate D2E/DX2                !
 ! D58   D(25,9,10,24)         130.876          estimate D2E/DX2                !
 ! D59   D(8,9,25,6)             0.9837         estimate D2E/DX2                !
 ! D60   D(10,9,25,6)          179.199          estimate D2E/DX2                !
 ! D61   D(9,10,11,12)          83.6509         estimate D2E/DX2                !
 ! D62   D(9,10,11,22)         -95.0976         estimate D2E/DX2                !
 ! D63   D(23,10,11,12)        -62.6839         estimate D2E/DX2                !
 ! D64   D(23,10,11,22)        118.5676         estimate D2E/DX2                !
 ! D65   D(24,10,11,12)       -130.5014         estimate D2E/DX2                !
 ! D66   D(24,10,11,22)         50.7501         estimate D2E/DX2                !
 ! D67   D(9,10,23,46)        -150.1082         estimate D2E/DX2                !
 ! D68   D(9,10,23,47)           3.0601         estimate D2E/DX2                !
 ! D69   D(11,10,23,46)         -3.0127         estimate D2E/DX2                !
 ! D70   D(11,10,23,47)        150.1556         estimate D2E/DX2                !
 ! D71   D(9,10,24,48)         150.1638         estimate D2E/DX2                !
 ! D72   D(9,10,24,49)          -3.5632         estimate D2E/DX2                !
 ! D73   D(11,10,24,48)          3.4919         estimate D2E/DX2                !
 ! D74   D(11,10,24,49)       -150.2351         estimate D2E/DX2                !
 ! D75   D(10,11,12,13)       -179.5453         estimate D2E/DX2                !
 ! D76   D(22,11,12,13)         -0.6881         estimate D2E/DX2                !
 ! D77   D(10,11,22,21)        179.2866         estimate D2E/DX2                !
 ! D78   D(12,11,22,21)          0.4389         estimate D2E/DX2                !
 ! D79   D(11,12,13,14)       -120.1391         estimate D2E/DX2                !
 ! D80   D(11,12,13,21)          0.6325         estimate D2E/DX2                !
 ! D81   D(11,12,13,36)        118.2609         estimate D2E/DX2                !
 ! D82   D(12,13,14,15)        -64.3273         estimate D2E/DX2                !
 ! D83   D(12,13,14,37)         57.6699         estimate D2E/DX2                !
 ! D84   D(12,13,14,38)        174.9169         estimate D2E/DX2                !
 ! D85   D(21,13,14,15)        179.75           estimate D2E/DX2                !
 ! D86   D(21,13,14,37)        -58.2527         estimate D2E/DX2                !
 ! D87   D(21,13,14,38)         58.9942         estimate D2E/DX2                !
 ! D88   D(36,13,14,15)         56.7921         estimate D2E/DX2                !
 ! D89   D(36,13,14,37)        178.7894         estimate D2E/DX2                !
 ! D90   D(36,13,14,38)        -63.9637         estimate D2E/DX2                !
 ! D91   D(12,13,21,22)         -0.3605         estimate D2E/DX2                !
 ! D92   D(12,13,21,44)        117.1876         estimate D2E/DX2                !
 ! D93   D(12,13,21,45)       -118.9272         estimate D2E/DX2                !
 ! D94   D(14,13,21,22)        119.2404         estimate D2E/DX2                !
 ! D95   D(14,13,21,44)       -123.2116         estimate D2E/DX2                !
 ! D96   D(14,13,21,45)          0.6737         estimate D2E/DX2                !
 ! D97   D(36,13,21,22)       -117.6345         estimate D2E/DX2                !
 ! D98   D(36,13,21,44)         -0.0865         estimate D2E/DX2                !
 ! D99   D(36,13,21,45)        123.7988         estimate D2E/DX2                !
 ! D100  D(13,14,15,16)        -84.4189         estimate D2E/DX2                !
 ! D101  D(13,14,15,20)         92.9594         estimate D2E/DX2                !
 ! D102  D(37,14,15,16)        153.6725         estimate D2E/DX2                !
 ! D103  D(37,14,15,20)        -28.9492         estimate D2E/DX2                !
 ! D104  D(38,14,15,16)         36.2924         estimate D2E/DX2                !
 ! D105  D(38,14,15,20)       -146.3293         estimate D2E/DX2                !
 ! D106  D(14,15,16,17)        178.3567         estimate D2E/DX2                !
 ! D107  D(14,15,16,39)         -1.4922         estimate D2E/DX2                !
 ! D108  D(20,15,16,17)          0.9513         estimate D2E/DX2                !
 ! D109  D(20,15,16,39)       -178.8976         estimate D2E/DX2                !
 ! D110  D(14,15,20,19)       -178.3242         estimate D2E/DX2                !
 ! D111  D(14,15,20,43)          1.4537         estimate D2E/DX2                !
 ! D112  D(16,15,20,19)         -0.9223         estimate D2E/DX2                !
 ! D113  D(16,15,20,43)        178.8556         estimate D2E/DX2                !
 ! D114  D(15,16,17,18)         -0.4341         estimate D2E/DX2                !
 ! D115  D(15,16,17,40)        179.804          estimate D2E/DX2                !
 ! D116  D(39,16,17,18)        179.4163         estimate D2E/DX2                !
 ! D117  D(39,16,17,40)         -0.3456         estimate D2E/DX2                !
 ! D118  D(16,17,18,19)         -0.1216         estimate D2E/DX2                !
 ! D119  D(16,17,18,41)       -179.8976         estimate D2E/DX2                !
 ! D120  D(40,17,18,19)        179.6403         estimate D2E/DX2                !
 ! D121  D(40,17,18,41)         -0.1357         estimate D2E/DX2                !
 ! D122  D(17,18,19,20)          0.1506         estimate D2E/DX2                !
 ! D123  D(17,18,19,42)       -179.6421         estimate D2E/DX2                !
 ! D124  D(41,18,19,20)        179.9265         estimate D2E/DX2                !
 ! D125  D(41,18,19,42)          0.1338         estimate D2E/DX2                !
 ! D126  D(18,19,20,15)          0.3759         estimate D2E/DX2                !
 ! D127  D(18,19,20,43)       -179.4043         estimate D2E/DX2                !
 ! D128  D(42,19,20,15)       -179.8313         estimate D2E/DX2                !
 ! D129  D(42,19,20,43)          0.3884         estimate D2E/DX2                !
 ! D130  D(13,21,22,11)         -0.0031         estimate D2E/DX2                !
 ! D131  D(44,21,22,11)       -118.3862         estimate D2E/DX2                !
 ! D132  D(45,21,22,11)        120.84           estimate D2E/DX2                !
 ! D133  D(46,23,24,48)          0.3291         estimate D2E/DX2                !
 ! D134  D(46,23,24,49)        145.0395         estimate D2E/DX2                !
 ! D135  D(47,23,24,48)       -144.9667         estimate D2E/DX2                !
 ! D136  D(47,23,24,49)         -0.2562         estimate D2E/DX2                !
 ! D137  D(4,26,27,1)            0.1462         estimate D2E/DX2                !
 ! D138  D(4,26,27,51)        -179.85           estimate D2E/DX2                !
 ! D139  D(50,26,27,1)        -179.8695         estimate D2E/DX2                !
 ! D140  D(50,26,27,51)          0.1343         estimate D2E/DX2                !
 --------------------------------------------------------------------------------
 Trust Radius=3.00D-01 FncErr=1.00D-07 GrdErr=1.00D-06 EigMax=2.50D+02 EigMin=1.00D-04
 Number of steps in this run=    302 maximum allowed number of steps=    306.
 GradGradGradGradGradGradGradGradGradGradGradGradGradGradGradGradGradGrad

 Leave Link  103 at Wed Jul 31 21:26:11 2024, MaxMem= 13421772800 cpu:               0.1 elap:               0.0
 (Enter /public/software/apps/Gaussian/g16/l202.exe)
 Symmetry turned off by external request.
 Stoichiometry    C23H24N2O2
 Framework group  C1[X(C23H24N2O2)]
 Deg. of freedom   147
 Full point group                 C1      NOp   1
                          Input orientation:                          
 ---------------------------------------------------------------------
 Center     Atomic      Atomic             Coordinates (Angstroms)
 Number     Number       Type             X           Y           Z
 ---------------------------------------------------------------------
      1          6           0       -6.858300   -2.379400    1.016300
      2          6           0       -6.070700   -1.858600    2.046600
      3          6           0       -4.753700   -1.464100    1.791500
      4          6           0       -4.214000   -1.590900    0.499900
      5          6           0       -2.801200   -1.150400    0.212300
      6          6           0       -2.768100    0.200300   -0.521200
      7          6           0       -3.212500    1.388500    0.361700
      8          8           0       -2.088500    2.248800    0.347800
      9          6           0       -1.084800    1.670500   -0.400500
     10          6           0        0.262000    2.290700   -0.586200
     11          6           0        1.370400    1.879300    0.327300
     12          7           0        2.080100    0.825300    0.127300
     13          6           0        3.063300    0.701600    1.197300
     14          6           0        4.488300    0.721900    0.622800
     15          6           0        4.734200   -0.473700   -0.260300
     16          6           0        5.134000   -1.697900    0.301300
     17          6           0        5.329000   -2.816700   -0.514700
     18          6           0        5.117900   -2.723900   -1.893200
     19          6           0        4.708900   -1.512600   -2.457900
     20          6           0        4.513300   -0.391200   -1.645800
     21          6           0        2.785400    1.913900    2.112400
     22          8           0        1.710700    2.573900    1.469200
     23          6           0        0.658500    2.629200   -2.016200
     24          6           0        0.276000    3.740600   -1.047100
     25          7           0       -1.398300    0.526000   -0.898200
     26          6           0       -5.013700   -2.113200   -0.530800
     27          6           0       -6.330100   -2.506800   -0.271200
     28          1           0       -7.877500   -2.684300    1.215700
     29          1           0       -6.481100   -1.759900    3.043300
     30          1           0       -4.156600   -1.061100    2.599900
     31          1           0       -2.309800   -1.919600   -0.422900
     32          1           0       -2.209600   -1.085100    1.152400
     33          1           0       -3.390200    0.153600   -1.442400
     34          1           0       -4.089400    1.906700   -0.081300
     35          1           0       -3.435700    1.092400    1.408200
     36          1           0        2.886300   -0.244500    1.755700
     37          1           0        4.651000    1.660600    0.047500
     38          1           0        5.221500    0.719500    1.459100
     39          1           0        5.291700   -1.785200    1.369300
     40          1           0        5.640100   -3.756800   -0.077700
     41          1           0        5.267700   -3.591300   -2.523100
     42          1           0        4.540100   -1.443300   -3.524700
     43          1           0        4.186900    0.538800   -2.094800
     44          1           0        2.469100    1.582100    3.124300
     45          1           0        3.653000    2.603900    2.194800
     46          1           0        1.746600    2.590200   -2.240100
     47          1           0       -0.111800    2.433300   -2.793000
     48          1           0        1.142400    4.351100   -0.712600
     49          1           0       -0.715500    4.193200   -1.264600
     50          1           0       -4.616800   -2.215000   -1.533100
     51          1           0       -6.940500   -2.910600   -1.068300
 ---------------------------------------------------------------------
 Rotational constants (GHZ):           0.2798981           0.0833523           0.0731963
 Leave Link  202 at Wed Jul 31 21:26:11 2024, MaxMem= 13421772800 cpu:               0.1 elap:               0.0
 (Enter /public/software/apps/Gaussian/g16/l301.exe)
 Standard basis: def2SVPP (5D, 7F)
 Ernie: Thresh=  0.10000D-02 Tol=  0.10000D-05 Strict=F.
   426 basis functions,   771 primitive gaussians,   453 cartesian basis functions
    96 alpha electrons       96 beta electrons
       nuclear repulsion energy      2277.3843868686 Hartrees.
 IExCor=  402 DFT=T Ex+Corr=B3LYP ExCW=0 ScaHFX=  0.200000
 ScaDFX=  0.800000  0.720000  1.000000  0.810000 ScalE2=  1.000000  1.000000
 IRadAn=      5 IRanWt=     -1 IRanGd=            0 ICorTp=0 IEmpDi=141
 NAtoms=   51 NActive=   51 NUniq=   51 SFac= 1.00D+00 NAtFMM=   60 NAOKFM=F Big=F
 Integral buffers will be    131072 words long.
 Raffenetti 2 integral format.
 Two-electron integral symmetry is turned off.
 R6Disp:  Grimme-D3(BJ) Dispersion energy=       -0.1056307428 Hartrees.
 Nuclear repulsion after empirical dispersion term =     2277.2787561257 Hartrees.
 Leave Link  301 at Wed Jul 31 21:26:11 2024, MaxMem= 13421772800 cpu:               0.5 elap:               0.0
 (Enter /public/software/apps/Gaussian/g16/l302.exe)
 NPDir=0 NMtPBC=     1 NCelOv=     1 NCel=       1 NClECP=     1 NCelD=      1
         NCelK=      1 NCelE2=     1 NClLst=     1 CellRange=     0.0.
 One-electron integrals computed using PRISM.
   1 Symmetry operations used in ECPInt.
 ECPInt:  NShTT=   22155 NPrTT=   88833 LenC2=   18511 LenP2D=   47831.
 LDataN:  DoStor=T MaxTD1= 4 Len=   56
 NBasis=   426 RedAO= T EigKep=  3.00D-04  NBF=   426
 NBsUse=   426 1.00D-06 EigRej= -1.00D+00 NBFU=   426
 Precomputing XC quadrature grid using
 IXCGrd= 4 IRadAn=           5 IRanWt=          -1 IRanGd=           0 AccXCQ= 0.00D+00.
 Generated NRdTot=       0 NPtTot=           0 NUsed=           0 NTot=          32
 NSgBfM=   443   443   443   443   443 MxSgAt=    51 MxSgA2=    51.
 Leave Link  302 at Wed Jul 31 21:26:11 2024, MaxMem= 13421772800 cpu:              11.6 elap:               0.4
 (Enter /public/software/apps/Gaussian/g16/l303.exe)
 DipDrv:  MaxL=1.
 Leave Link  303 at Wed Jul 31 21:26:11 2024, MaxMem= 13421772800 cpu:               1.1 elap:               0.0
 (Enter /public/software/apps/Gaussian/g16/l401.exe)
 ExpMin= 1.22D-01 ExpMax= 2.27D+03 ExpMxC= 3.41D+02 IAcc=3 IRadAn=         5 AccDes= 0.00D+00
 Harris functional with IExCor=  402 and IRadAn=       5 diagonalized for initial guess.
 HarFok:  IExCor=  402 AccDes= 0.00D+00 IRadAn=         5 IDoV= 1 UseB2=F ITyADJ=14
 ICtDFT=  3500011 ScaDFX=  1.000000  1.000000  1.000000  1.000000
 FoFCou: FMM=F IPFlag=           0 FMFlag=      100000 FMFlg1=           0
         NFxFlg=           0 DoJE=T BraDBF=F KetDBF=T FulRan=T
         wScrn=  0.000000 ICntrl=       500 IOpCl=  0 I1Cent=   200000004 NGrid=           0
         NMat0=    1 NMatS0=      1 NMatT0=    0 NMatD0=    1 NMtDS0=    0 NMtDT0=    0
 Symmetry not used in FoFCou.
 Harris En= -1149.93284269470    
 JPrj=0 DoOrth=F DoCkMO=F.
 Leave Link  401 at Wed Jul 31 21:26:12 2024, MaxMem= 13421772800 cpu:              26.1 elap:               0.8
 (Enter /public/software/apps/Gaussian/g16/l502.exe)
 Two-electron integral symmetry not used.
 Closed shell SCF:
 Using DIIS extrapolation, IDIIS=  1040.
 NGot= 13421772800 LenX= 13421342701 LenY= 13421137039
 Requested convergence on RMS density matrix=1.00D-08 within 128 cycles.
 Requested convergence on MAX density matrix=1.00D-06.
 Requested convergence on             energy=1.00D-06.
 No special actions if energy rises.
 Fock matrices will be formed incrementally for  20 cycles.
 Integral accuracy reduced to 1.0D-05 until final iterations.

 Cycle   1  Pass 0  IDiag  1:
 FoFJK:  IHMeth= 1 ICntrl=       0 DoSepK=F KAlg= 0 I1Cent=           0 FoldK=F
 IRaf= 740000000 NMat=       1 IRICut=       1 DoRegI=T DoRafI=F ISym2E= 0 IDoP0=0 IntGTp=1.
 FoFCou: FMM=F IPFlag=           0 FMFlag=      100000 FMFlg1=           0
         NFxFlg=           0 DoJE=F BraDBF=F KetDBF=F FulRan=T
         wScrn=  0.000000 ICntrl=         0 IOpCl=  0 I1Cent=           0 NGrid=           0
         NMat0=    1 NMatS0=      1 NMatT0=    0 NMatD0=    1 NMtDS0=    0 NMtDT0=    0
 Symmetry not used in FoFCou.
 E= -1149.45587256196    
 DIIS: error= 3.40D-02 at cycle   1 NSaved=   1.
 NSaved= 1 IEnMin= 1 EnMin= -1149.45587256196     IErMin= 1 ErrMin= 3.40D-02
 ErrMax= 3.40D-02  0.00D+00 EMaxC= 1.00D-01 BMatC= 4.86D-01 BMatP= 4.86D-01
 IDIUse=3 WtCom= 6.60D-01 WtEn= 3.40D-01
 Coeff-Com:  0.100D+01
 Coeff-En:   0.100D+01
 Coeff:      0.100D+01
 Gap=     0.262 Goal=   None    Shift=    0.000
 GapD=    0.262 DampG=1.000 DampE=0.500 DampFc=0.5000 IDamp=-1.
 Damping current iteration by 5.00D-01
 RMSDP=5.11D-03 MaxDP=1.49D-01              OVMax= 2.58D-01

 Cycle   2  Pass 0  IDiag  1:
 RMSU=  2.43D-03    CP:  9.58D-01
 E= -1149.66522110415     Delta-E=       -0.209348542191 Rises=F Damp=T
 DIIS: error= 9.23D-03 at cycle   2 NSaved=   2.
 NSaved= 2 IEnMin= 2 EnMin= -1149.66522110415     IErMin= 2 ErrMin= 9.23D-03
 ErrMax= 9.23D-03  0.00D+00 EMaxC= 1.00D-01 BMatC= 5.13D-02 BMatP= 4.86D-01
 IDIUse=3 WtCom= 9.08D-01 WtEn= 9.23D-02
 Coeff-Com:  0.135D+00 0.865D+00
 Coeff-En:   0.202D+00 0.798D+00
 Coeff:      0.141D+00 0.859D+00
 Gap=     0.217 Goal=   None    Shift=    0.000
 RMSDP=1.72D-03 MaxDP=6.27D-02 DE=-2.09D-01 OVMax= 1.97D-01

 Cycle   3  Pass 0  IDiag  1:
 RMSU=  1.65D-03    CP:  9.35D-01  9.22D-01
 E= -1149.91793641350     Delta-E=       -0.252715309342 Rises=F Damp=F
 DIIS: error= 1.53D-02 at cycle   3 NSaved=   3.
 NSaved= 3 IEnMin= 3 EnMin= -1149.91793641350     IErMin= 2 ErrMin= 9.23D-03
 ErrMax= 1.53D-02  0.00D+00 EMaxC= 1.00D-01 BMatC= 8.71D-02 BMatP= 5.13D-02
 IDIUse=2 WtCom= 0.00D+00 WtEn= 1.00D+00
 Coeff-En:   0.000D+00 0.000D+00 0.100D+01
 Coeff:      0.000D+00 0.000D+00 0.100D+01
 Gap=     0.201 Goal=   None    Shift=    0.000
 RMSDP=2.54D-03 MaxDP=1.20D-01 DE=-2.53D-01 OVMax= 2.70D-01

 Cycle   4  Pass 0  IDiag  1:
 RMSU=  1.59D-03    CP:  9.42D-01  1.28D+00 -8.00D-02
 E= -1149.49875701320     Delta-E=        0.419179400296 Rises=F Damp=F
 DIIS: error= 4.22D-02 at cycle   4 NSaved=   4.
 NSaved= 4 IEnMin= 3 EnMin= -1149.91793641350     IErMin= 2 ErrMin= 9.23D-03
 ErrMax= 4.22D-02  0.00D+00 EMaxC= 1.00D-01 BMatC= 5.45D-01 BMatP= 5.13D-02
 IDIUse=2 WtCom= 0.00D+00 WtEn= 1.00D+00
 Coeff-En:   0.000D+00 0.000D+00 0.802D+00 0.198D+00
 Coeff:      0.000D+00 0.000D+00 0.802D+00 0.198D+00
 Gap=     0.215 Goal=   None    Shift=    0.000
 RMSDP=1.35D-03 MaxDP=6.20D-02 DE= 4.19D-01 OVMax= 1.25D-01

 Cycle   5  Pass 0  IDiag  1:
 RMSU=  2.59D-04    CP:  9.39D-01  1.06D+00  4.77D-01  5.03D-01
 E= -1149.95771740403     Delta-E=       -0.458960390824 Rises=F Damp=F
 DIIS: error= 1.20D-02 at cycle   5 NSaved=   5.
 NSaved= 5 IEnMin= 5 EnMin= -1149.95771740403     IErMin= 2 ErrMin= 9.23D-03
 ErrMax= 1.20D-02  0.00D+00 EMaxC= 1.00D-01 BMatC= 4.56D-02 BMatP= 5.13D-02
 IDIUse=3 WtCom= 8.80D-01 WtEn= 1.20D-01
 Coeff-Com: -0.123D-02 0.309D-01 0.305D+00-0.113D+00 0.779D+00
 Coeff-En:   0.000D+00 0.000D+00 0.380D+00 0.000D+00 0.620D+00
 Coeff:     -0.108D-02 0.271D-01 0.314D+00-0.992D-01 0.759D+00
 Gap=     0.214 Goal=   None    Shift=    0.000
 RMSDP=5.22D-04 MaxDP=2.58D-02 DE=-4.59D-01 OVMax= 5.13D-02

 Cycle   6  Pass 0  IDiag  1:
 RMSU=  6.04D-05    CP:  9.37D-01  9.98D-01  6.96D-01  2.90D-01  8.82D-01
 E= -1149.99910058010     Delta-E=       -0.041383176070 Rises=F Damp=F
 DIIS: error= 1.72D-04 at cycle   6 NSaved=   6.
 NSaved= 6 IEnMin= 6 EnMin= -1149.99910058010     IErMin= 6 ErrMin= 1.72D-04
 ErrMax= 1.72D-04  0.00D+00 EMaxC= 1.00D-01 BMatC= 3.51D-05 BMatP= 4.56D-02
 IDIUse=3 WtCom= 9.98D-01 WtEn= 1.72D-03
 Coeff-Com: -0.146D-02 0.616D-02 0.994D-01-0.450D-01 0.292D+00 0.648D+00
 Coeff-En:   0.000D+00 0.000D+00 0.000D+00 0.000D+00 0.000D+00 0.100D+01
 Coeff:     -0.145D-02 0.615D-02 0.993D-01-0.449D-01 0.292D+00 0.649D+00
 Gap=     0.214 Goal=   None    Shift=    0.000
 RMSDP=2.34D-05 MaxDP=1.18D-03 DE=-4.14D-02 OVMax= 1.81D-03

 Cycle   7  Pass 0  IDiag  1:
 RMSU=  1.69D-05    CP:  9.37D-01  9.99D-01  6.95D-01  2.94D-01  8.82D-01
                    CP:  7.62D-01
 E= -1149.99912685023     Delta-E=       -0.000026270132 Rises=F Damp=F
 DIIS: error= 1.41D-04 at cycle   7 NSaved=   7.
 NSaved= 7 IEnMin= 7 EnMin= -1149.99912685023     IErMin= 7 ErrMin= 1.41D-04
 ErrMax= 1.41D-04  0.00D+00 EMaxC= 1.00D-01 BMatC= 9.61D-06 BMatP= 3.51D-05
 IDIUse=3 WtCom= 9.99D-01 WtEn= 1.41D-03
 Coeff-Com: -0.242D-03-0.808D-03 0.247D-01-0.108D-01 0.721D-01 0.361D+00
 Coeff-Com:  0.554D+00
 Coeff-En:   0.000D+00 0.000D+00 0.000D+00 0.000D+00 0.000D+00 0.207D+00
 Coeff-En:   0.793D+00
 Coeff:     -0.242D-03-0.807D-03 0.246D-01-0.108D-01 0.720D-01 0.361D+00
 Coeff:      0.555D+00
 Gap=     0.214 Goal=   None    Shift=    0.000
 RMSDP=9.93D-06 MaxDP=4.26D-04 DE=-2.63D-05 OVMax= 1.14D-03

 Initial convergence to 1.0D-05 achieved.  Increase integral accuracy.
 Cycle   8  Pass 1  IDiag  1:
 E= -1149.99918547710     Delta-E=       -0.000058626868 Rises=F Damp=F
 DIIS: error= 1.17D-04 at cycle   1 NSaved=   1.
 NSaved= 1 IEnMin= 1 EnMin= -1149.99918547710     IErMin= 1 ErrMin= 1.17D-04
 ErrMax= 1.17D-04  0.00D+00 EMaxC= 1.00D-01 BMatC= 4.41D-06 BMatP= 4.41D-06
 IDIUse=3 WtCom= 9.99D-01 WtEn= 1.17D-03
 Coeff-Com:  0.100D+01
 Coeff-En:   0.100D+01
 Coeff:      0.100D+01
 Gap=     0.214 Goal=   None    Shift=    0.000
 RMSDP=9.93D-06 MaxDP=4.26D-04 DE=-5.86D-05 OVMax= 9.98D-04

 Cycle   9  Pass 1  IDiag  1:
 RMSU=  1.12D-04    CP:  1.00D+00
 E= -1149.99918636824     Delta-E=       -0.000000891146 Rises=F Damp=F
 DIIS: error= 1.20D-04 at cycle   2 NSaved=   2.
 NSaved= 2 IEnMin= 2 EnMin= -1149.99918636824     IErMin= 1 ErrMin= 1.17D-04
 ErrMax= 1.20D-04  0.00D+00 EMaxC= 1.00D-01 BMatC= 4.02D-06 BMatP= 4.41D-06
 IDIUse=3 WtCom= 9.99D-01 WtEn= 1.20D-03
 Coeff-Com:  0.484D+00 0.516D+00
 Coeff-En:   0.432D+00 0.568D+00
 Coeff:      0.484D+00 0.516D+00
 Gap=     0.214 Goal=   None    Shift=    0.000
 RMSDP=8.81D-06 MaxDP=4.28D-04 DE=-8.91D-07 OVMax= 1.01D-03

 Cycle  10  Pass 1  IDiag  1:
 RMSU=  8.81D-06    CP:  1.00D+00  1.00D+00
 E= -1149.99918928437     Delta-E=       -0.000002916124 Rises=F Damp=F
 DIIS: error= 6.94D-05 at cycle   3 NSaved=   3.
 NSaved= 3 IEnMin= 3 EnMin= -1149.99918928437     IErMin= 3 ErrMin= 6.94D-05
 ErrMax= 6.94D-05  0.00D+00 EMaxC= 1.00D-01 BMatC= 1.39D-06 BMatP= 4.02D-06
 IDIUse=1 WtCom= 1.00D+00 WtEn= 0.00D+00
 Coeff-Com:  0.142D-01 0.368D+00 0.618D+00
 Coeff:      0.142D-01 0.368D+00 0.618D+00
 Gap=     0.214 Goal=   None    Shift=    0.000
 RMSDP=3.66D-06 MaxDP=1.48D-04 DE=-2.92D-06 OVMax= 3.58D-04

 Cycle  11  Pass 1  IDiag  1:
 RMSU=  1.37D-06    CP:  1.00D+00  1.01D+00  6.31D-01
 E= -1149.99919071858     Delta-E=       -0.000001434214 Rises=F Damp=F
 DIIS: error= 1.93D-05 at cycle   4 NSaved=   4.
 NSaved= 4 IEnMin= 4 EnMin= -1149.99919071858     IErMin= 4 ErrMin= 1.93D-05
 ErrMax= 1.93D-05  0.00D+00 EMaxC= 1.00D-01 BMatC= 1.16D-07 BMatP= 1.39D-06
 IDIUse=1 WtCom= 1.00D+00 WtEn= 0.00D+00
 Coeff-Com: -0.327D-02 0.239D+00 0.424D+00 0.341D+00
 Coeff:     -0.327D-02 0.239D+00 0.424D+00 0.341D+00
 Gap=     0.214 Goal=   None    Shift=    0.000
 RMSDP=8.59D-07 MaxDP=4.27D-05 DE=-1.43D-06 OVMax= 8.44D-05

 Cycle  12  Pass 1  IDiag  1:
 RMSU=  3.30D-07    CP:  1.00D+00  1.01D+00  6.39D-01  4.26D-01
 E= -1149.99919081768     Delta-E=       -0.000000099100 Rises=F Damp=F
 DIIS: error= 1.95D-06 at cycle   5 NSaved=   5.
 NSaved= 5 IEnMin= 5 EnMin= -1149.99919081768     IErMin= 5 ErrMin= 1.95D-06
 ErrMax= 1.95D-06  0.00D+00 EMaxC= 1.00D-01 BMatC= 2.56D-09 BMatP= 1.16D-07
 IDIUse=1 WtCom= 1.00D+00 WtEn= 0.00D+00
 Coeff-Com: -0.267D-02 0.127D+00 0.229D+00 0.204D+00 0.443D+00
 Coeff:     -0.267D-02 0.127D+00 0.229D+00 0.204D+00 0.443D+00
 Gap=     0.214 Goal=   None    Shift=    0.000
 RMSDP=1.45D-07 MaxDP=6.98D-06 DE=-9.91D-08 OVMax= 1.07D-05

 Cycle  13  Pass 1  IDiag  1:
 RMSU=  1.00D-07    CP:  1.00D+00  1.01D+00  6.41D-01  4.32D-01  6.94D-01
 E= -1149.99919082005     Delta-E=       -0.000000002367 Rises=F Damp=F
 DIIS: error= 3.18D-07 at cycle   6 NSaved=   6.
 NSaved= 6 IEnMin= 6 EnMin= -1149.99919082005     IErMin= 6 ErrMin= 3.18D-07
 ErrMax= 3.18D-07  0.00D+00 EMaxC= 1.00D-01 BMatC= 6.74D-11 BMatP= 2.56D-09
 IDIUse=1 WtCom= 1.00D+00 WtEn= 0.00D+00
 Coeff-Com: -0.113D-02 0.496D-01 0.897D-01 0.795D-01 0.222D+00 0.561D+00
 Coeff:     -0.113D-02 0.496D-01 0.897D-01 0.795D-01 0.222D+00 0.561D+00
 Gap=     0.214 Goal=   None    Shift=    0.000
 RMSDP=3.17D-08 MaxDP=2.25D-06 DE=-2.37D-09 OVMax= 2.06D-06

 Cycle  14  Pass 1  IDiag  1:
 RMSU=  2.73D-08    CP:  1.00D+00  1.01D+00  6.41D-01  4.25D-01  7.13D-01
                    CP:  8.90D-01
 E= -1149.99919082010     Delta-E=       -0.000000000056 Rises=F Damp=F
 DIIS: error= 1.14D-07 at cycle   7 NSaved=   7.
 NSaved= 7 IEnMin= 7 EnMin= -1149.99919082010     IErMin= 7 ErrMin= 1.14D-07
 ErrMax= 1.14D-07  0.00D+00 EMaxC= 1.00D-01 BMatC= 7.32D-12 BMatP= 6.74D-11
 IDIUse=1 WtCom= 1.00D+00 WtEn= 0.00D+00
 Coeff-Com: -0.360D-03 0.151D-01 0.275D-01 0.236D-01 0.806D-01 0.298D+00
 Coeff-Com:  0.555D+00
 Coeff:     -0.360D-03 0.151D-01 0.275D-01 0.236D-01 0.806D-01 0.298D+00
 Coeff:      0.555D+00
 Gap=     0.214 Goal=   None    Shift=    0.000
 RMSDP=9.19D-09 MaxDP=5.39D-07 DE=-5.64D-11 OVMax= 6.06D-07

 SCF Done:  E(RB3LYP) =  -1149.99919082     A.U. after   14 cycles
            NFock= 14  Conv=0.92D-08     -V/T= 2.0103
 KE= 1.138293235955D+03 PE=-7.223408494010D+03 EE= 2.657837311110D+03
 Leave Link  502 at Wed Jul 31 21:26:33 2024, MaxMem= 13421772800 cpu:             656.5 elap:              20.6
 (Enter /public/software/apps/Gaussian/g16/l601.exe)
 Copying SCF densities to generalized density rwf, IOpCl= 0 IROHF=0.

 **********************************************************************

            Population analysis using the SCF Density.

 **********************************************************************

 Alpha  occ. eigenvalues --  -19.16667 -19.16478 -14.30347 -14.30221 -10.28118
 Alpha  occ. eigenvalues --  -10.27950 -10.24017 -10.23721 -10.23169 -10.21886
 Alpha  occ. eigenvalues --  -10.21752 -10.20198 -10.20060 -10.19758 -10.18987
 Alpha  occ. eigenvalues --  -10.18953 -10.18930 -10.18849 -10.18815 -10.18769
 Alpha  occ. eigenvalues --  -10.18725 -10.18639 -10.18001 -10.17951 -10.17842
 Alpha  occ. eigenvalues --  -10.17763 -10.17690  -1.08029  -1.07738  -0.90176
 Alpha  occ. eigenvalues --   -0.89060  -0.87274  -0.85191  -0.84187  -0.78951
 Alpha  occ. eigenvalues --   -0.78771  -0.74693  -0.74365  -0.74115  -0.73087
 Alpha  occ. eigenvalues --   -0.68548  -0.68043  -0.65697  -0.61639  -0.61324
 Alpha  occ. eigenvalues --   -0.60478  -0.59829  -0.59409  -0.58917  -0.57594
 Alpha  occ. eigenvalues --   -0.56975  -0.53889  -0.52459  -0.51782  -0.51388
 Alpha  occ. eigenvalues --   -0.49855  -0.49352  -0.48797  -0.47243  -0.46593
 Alpha  occ. eigenvalues --   -0.46429  -0.45975  -0.45501  -0.44923  -0.44517
 Alpha  occ. eigenvalues --   -0.43602  -0.42738  -0.41811  -0.41389  -0.40969
 Alpha  occ. eigenvalues --   -0.40750  -0.40193  -0.39443  -0.38311  -0.38092
 Alpha  occ. eigenvalues --   -0.37764  -0.36933  -0.36541  -0.36016  -0.35871
 Alpha  occ. eigenvalues --   -0.34942  -0.34875  -0.34379  -0.33792  -0.33179
 Alpha  occ. eigenvalues --   -0.32690  -0.31506  -0.30600  -0.26857  -0.26507
 Alpha  occ. eigenvalues --   -0.25833  -0.25392  -0.25152  -0.24637  -0.24227
 Alpha  occ. eigenvalues --   -0.23619
 Alpha virt. eigenvalues --   -0.02208  -0.01224  -0.00902  -0.00243  -0.00000
 Alpha virt. eigenvalues --    0.02126   0.04864   0.05602   0.06451   0.06646
 Alpha virt. eigenvalues --    0.07202   0.07604   0.08088   0.08611   0.09493
 Alpha virt. eigenvalues --    0.09739   0.10156   0.10456   0.11342   0.12030
 Alpha virt. eigenvalues --    0.12138   0.12369   0.12682   0.13195   0.13655
 Alpha virt. eigenvalues --    0.14014   0.14311   0.15171   0.15523   0.15856
 Alpha virt. eigenvalues --    0.16065   0.16663   0.16912   0.17219   0.17917
 Alpha virt. eigenvalues --    0.18318   0.19576   0.20700   0.22424   0.22979
 Alpha virt. eigenvalues --    0.23359   0.24711   0.24887   0.25803   0.27133
 Alpha virt. eigenvalues --    0.28870   0.29145   0.29511   0.30087   0.30598
 Alpha virt. eigenvalues --    0.31092   0.31628   0.32111   0.32300   0.32912
 Alpha virt. eigenvalues --    0.33874   0.34088   0.36184   0.36526   0.37334
 Alpha virt. eigenvalues --    0.38614   0.39429   0.40247   0.40901   0.41391
 Alpha virt. eigenvalues --    0.41743   0.41987   0.42433   0.43285   0.44256
 Alpha virt. eigenvalues --    0.44620   0.45186   0.45653   0.46121   0.46395
 Alpha virt. eigenvalues --    0.47187   0.47731   0.48382   0.49004   0.49613
 Alpha virt. eigenvalues --    0.50028   0.50198   0.50378   0.51567   0.51966
 Alpha virt. eigenvalues --    0.53095   0.53468   0.53790   0.53895   0.54215
 Alpha virt. eigenvalues --    0.54608   0.54822   0.55163   0.56119   0.56645
 Alpha virt. eigenvalues --    0.57059   0.57360   0.58160   0.58892   0.60221
 Alpha virt. eigenvalues --    0.60739   0.61390   0.61802   0.62301   0.62485
 Alpha virt. eigenvalues --    0.63469   0.63772   0.64655   0.65052   0.65189
 Alpha virt. eigenvalues --    0.65454   0.65846   0.66327   0.66387   0.66901
 Alpha virt. eigenvalues --    0.67158   0.67441   0.67798   0.67935   0.68667
 Alpha virt. eigenvalues --    0.68730   0.68978   0.69571   0.69788   0.69898
 Alpha virt. eigenvalues --    0.70232   0.70554   0.70939   0.71498   0.71928
 Alpha virt. eigenvalues --    0.72117   0.72737   0.73340   0.73730   0.73975
 Alpha virt. eigenvalues --    0.74217   0.74227   0.74768   0.75072   0.75783
 Alpha virt. eigenvalues --    0.76044   0.76270   0.77396   0.78158   0.78458
 Alpha virt. eigenvalues --    0.79034   0.79762   0.81387   0.81801   0.82480
 Alpha virt. eigenvalues --    0.82913   0.83023   0.83856   0.83991   0.86081
 Alpha virt. eigenvalues --    0.87026   0.88336   0.89688   0.91078   0.92060
 Alpha virt. eigenvalues --    0.93550   0.94470   0.94818   0.96625   0.97774
 Alpha virt. eigenvalues --    0.99775   1.00060   1.03180   1.05654   1.06486
 Alpha virt. eigenvalues --    1.07332   1.08414   1.09171   1.11652   1.12502
 Alpha virt. eigenvalues --    1.13313   1.13932   1.15618   1.17362   1.23304
 Alpha virt. eigenvalues --    1.25347   1.25719   1.26372   1.26745   1.27489
 Alpha virt. eigenvalues --    1.29188   1.29992   1.30450   1.32448   1.35868
 Alpha virt. eigenvalues --    1.36596   1.42938   1.43649   1.44374   1.45592
 Alpha virt. eigenvalues --    1.47199   1.47594   1.48373   1.49631   1.49996
 Alpha virt. eigenvalues --    1.50428   1.50830   1.51499   1.52113   1.54167
 Alpha virt. eigenvalues --    1.56807   1.58170   1.58932   1.62722   1.63694
 Alpha virt. eigenvalues --    1.64358   1.66779   1.67942   1.70086   1.72197
 Alpha virt. eigenvalues --    1.73344   1.74658   1.75448   1.75865   1.76358
 Alpha virt. eigenvalues --    1.76870   1.77556   1.78486   1.78642   1.79822
 Alpha virt. eigenvalues --    1.80888   1.81184   1.83427   1.83754   1.85182
 Alpha virt. eigenvalues --    1.85994   1.87375   1.87685   1.88514   1.89096
 Alpha virt. eigenvalues --    1.89749   1.90158   1.93289   1.93887   1.95637
 Alpha virt. eigenvalues --    1.96110   1.96809   1.98073   1.98470   1.98802
 Alpha virt. eigenvalues --    2.00177   2.01461   2.02178   2.03277   2.04461
 Alpha virt. eigenvalues --    2.05619   2.06500   2.07783   2.08126   2.09051
 Alpha virt. eigenvalues --    2.09688   2.11022   2.12124   2.12722   2.13353
 Alpha virt. eigenvalues --    2.13963   2.14530   2.17334   2.18504   2.22102
 Alpha virt. eigenvalues --    2.22339   2.23207   2.23741   2.23974   2.27223
 Alpha virt. eigenvalues --    2.28388   2.29105   2.29611   2.30324   2.31279
 Alpha virt. eigenvalues --    2.31973   2.32307   2.33391   2.35291   2.36485
 Alpha virt. eigenvalues --    2.40405   2.42114   2.44283   2.45278   2.45916
 Alpha virt. eigenvalues --    2.47218   2.47895   2.50681   2.51606   2.52865
 Alpha virt. eigenvalues --    2.55321   2.58081   2.58707   2.58998   2.63402
 Alpha virt. eigenvalues --    2.64471   2.65616   2.66248   2.68432   2.69019
 Alpha virt. eigenvalues --    2.69840   2.70109   2.70688   2.71635   2.72329
 Alpha virt. eigenvalues --    2.74762   2.75571   2.76881   2.78548   2.80365
 Alpha virt. eigenvalues --    2.83419   2.85539   2.89539   2.90480   2.94214
 Alpha virt. eigenvalues --    2.95263   2.96450   2.97660   3.01042   3.01652
 Alpha virt. eigenvalues --    3.10812   3.13812   3.23098   3.24159   3.33287
 Alpha virt. eigenvalues --    3.34798   3.36059   3.36905   3.53173   3.59643
          Condensed to atoms (all electrons):
 Mulliken charges:
               1
     1  C   -0.049855
     2  C   -0.046610
     3  C   -0.117575
     4  C    0.064297
     5  C   -0.040548
     6  C   -0.101752
     7  C    0.092737
     8  O   -0.315329
     9  C    0.116399
    10  C   -0.036739
    11  C    0.112988
    12  N   -0.164158
    13  C   -0.100009
    14  C   -0.063640
    15  C    0.099972
    16  C   -0.119027
    17  C   -0.045616
    18  C   -0.048995
    19  C   -0.049393
    20  C   -0.084938
    21  C    0.112985
    22  O   -0.313695
    23  C   -0.142985
    24  C   -0.164422
    25  N   -0.162069
    26  C   -0.113887
    27  C   -0.044626
    28  H    0.051325
    29  H    0.049633
    30  H    0.044764
    31  H    0.094959
    32  H    0.071722
    33  H    0.079422
    34  H    0.090164
    35  H    0.090153
    36  H    0.081243
    37  H    0.067362
    38  H    0.075951
    39  H    0.032197
    40  H    0.045196
    41  H    0.047306
    42  H    0.046269
    43  H    0.037417
    44  H    0.087850
    45  H    0.085932
    46  H    0.115408
    47  H    0.112518
    48  H    0.110744
    49  H    0.112155
    50  H    0.045921
    51  H    0.050879
 Sum of Mulliken charges =  -0.00000
 Mulliken charges with hydrogens summed into heavy atoms:
               1
     1  C    0.001470
     2  C    0.003024
     3  C   -0.072811
     4  C    0.064297
     5  C    0.126133
     6  C   -0.022330
     7  C    0.273054
     8  O   -0.315329
     9  C    0.116399
    10  C   -0.036739
    11  C    0.112988
    12  N   -0.164158
    13  C   -0.018766
    14  C    0.079673
    15  C    0.099972
    16  C   -0.086831
    17  C   -0.000420
    18  C   -0.001689
    19  C   -0.003124
    20  C   -0.047520
    21  C    0.286767
    22  O   -0.313695
    23  C    0.084941
    24  C    0.058476
    25  N   -0.162069
    26  C   -0.067966
    27  C    0.006252
 Electronic spatial extent (au):  <R**2>=          14706.6538
 Charge=              0.0000 electrons
 Dipole moment (field-independent basis, Debye):
    X=             -0.6642    Y=              0.8638    Z=              0.9866  Tot=              1.4700
 Quadrupole moment (field-independent basis, Debye-Ang):
   XX=           -147.1342   YY=           -158.2531   ZZ=           -148.9775
   XY=              4.6078   XZ=              6.2211   YZ=             -3.7238
 Traceless Quadrupole moment (field-independent basis, Debye-Ang):
   XX=              4.3207   YY=             -6.7981   ZZ=              2.4774
   XY=              4.6078   XZ=              6.2211   YZ=             -3.7238
 Octapole moment (field-independent basis, Debye-Ang**2):
  XXX=            -99.1125  YYY=            -17.2430  ZZZ=             15.5788  XYY=             31.4257
  XXY=            -16.0027  XXZ=             35.0602  XZZ=              4.6384  YZZ=             -9.7571
  YYZ=            -27.2074  XYZ=              0.3822
 Hexadecapole moment (field-independent basis, Debye-Ang**3):
 XXXX=         -14939.0821 YYYY=          -3844.8860 ZZZZ=          -1603.2174 XXXY=           -300.3900
 XXXZ=            851.2314 YYYX=           -701.5316 YYYZ=            -32.8028 ZZZX=            674.9608
 ZZZY=             -7.2847 XXYY=          -2994.9079 XXZZ=          -2596.7928 YYZZ=           -905.4347
 XXYZ=             13.8771 YYXZ=            274.4276 ZZXY=           -191.3687
 N-N= 2.277278756126D+03 E-N=-7.223408489823D+03  KE= 1.138293235955D+03
 No NMR shielding tensors so no spin-rotation constants.
 Leave Link  601 at Wed Jul 31 21:26:33 2024, MaxMem= 13421772800 cpu:               3.9 elap:               0.2
 (Enter /public/software/apps/Gaussian/g16/l701.exe)
 ... and contract with generalized density number  0.
 Compute integral first derivatives.
 R6Disp: Adding Grimme-D3(BJ) dispersion energy 1st derivatives to the gradient.
   1 Symmetry operations used in ECPInt.
 ECPInt:  NShTT=   22155 NPrTT=   88833 LenC2=   18511 LenP2D=   47831.
 LDataN:  DoStor=T MaxTD1= 5 Len=  102
 Leave Link  701 at Wed Jul 31 21:26:33 2024, MaxMem= 13421772800 cpu:               6.4 elap:               0.2
 (Enter /public/software/apps/Gaussian/g16/l702.exe)
 L702 exits ... SP integral derivatives will be done elsewhere.
 Leave Link  702 at Wed Jul 31 21:26:33 2024, MaxMem= 13421772800 cpu:               0.2 elap:               0.0
 (Enter /public/software/apps/Gaussian/g16/l703.exe)
 Integral derivatives from FoFJK, PRISM(SPDF).
 Compute integral first derivatives, UseDBF=F ICtDFT=           0.
 Calling FoFJK, ICntrl=      2127 FMM=F ISym2X=0 I1Cent= 0 IOpClX= 0 NMat=1 NMatS=1 NMatT=0.
 FoFJK:  IHMeth= 1 ICntrl=    2127 DoSepK=F KAlg= 0 I1Cent=           0 FoldK=F
 IRaf=         0 NMat=       1 IRICut=       1 DoRegI=T DoRafI=F ISym2E= 0 IDoP0=0 IntGTp=1.
 FoFCou: FMM=F IPFlag=           0 FMFlag=      100000 FMFlg1=         800
         NFxFlg=           0 DoJE=F BraDBF=F KetDBF=F FulRan=T
         wScrn=  0.000000 ICntrl=      2127 IOpCl=  0 I1Cent=           0 NGrid=           0
         NMat0=    1 NMatS0=      1 NMatT0=    0 NMatD0=    1 NMtDS0=    0 NMtDT0=    0
 Symmetry not used in FoFCou.
 Leave Link  703 at Wed Jul 31 21:26:38 2024, MaxMem= 13421772800 cpu:             156.8 elap:               4.9
 (Enter /public/software/apps/Gaussian/g16/l716.exe)
 Dipole        =-2.61322654D-01 3.39844274D-01 3.88171050D-01
 -------------------------------------------------------------------
 Center     Atomic                   Forces (Hartrees/Bohr)
 Number     Number              X              Y              Z
 -------------------------------------------------------------------
      1        6           0.005657287    0.001908903   -0.000043830
      2        6           0.002420502   -0.000468435   -0.007851199
      3        6          -0.008550808   -0.004697606   -0.009601605
      4        6           0.002439791   -0.000316215    0.004744528
      5        6          -0.000080232   -0.008362940   -0.004357116
      6        6           0.005941316   -0.003322686    0.000477561
      7        6          -0.007835836   -0.003969158   -0.004322062
      8        8           0.024842694    0.026216938    0.002666715
      9        6          -0.024983984   -0.042792653    0.000562009
     10        6          -0.003096686    0.028309075    0.003938912
     11        6           0.028669084   -0.037134424    0.014848286
     12        7          -0.012722919    0.006885202   -0.006078520
     13        6           0.001674021    0.003920054   -0.000323897
     14        6           0.005515222   -0.005228296   -0.000149330
     15        6           0.002190766    0.001241000   -0.002377647
     16        6          -0.001432333    0.000678644   -0.013646513
     17        6          -0.003252529    0.007275013   -0.002785072
     18        6          -0.000805055    0.004925496    0.003858193
     19        6           0.001005452    0.000510560    0.009413578
     20        6           0.004538165   -0.011480576    0.004027740
     21        6           0.001536061   -0.006294477    0.005058961
     22        8          -0.026516007    0.022072242   -0.010408799
     23        6          -0.002851031    0.010202429    0.006573428
     24        6           0.003695684   -0.003400281   -0.011521963
     25        7           0.012066140    0.014335406   -0.005070809
     26        6          -0.006832794    0.000947194    0.011279877
     27        6           0.006183988    0.004069211    0.005236087
     28        1          -0.007849018   -0.002484152    0.001580840
     29        1          -0.003073200    0.000720682    0.007795628
     30        1           0.006175551    0.002427649    0.004944103
     31        1           0.000052559    0.006196712    0.001929473
     32        1          -0.002816199    0.002041975   -0.005475266
     33        1           0.003520765   -0.004111063    0.004076049
     34        1           0.004165540    0.000806406    0.006275066
     35        1           0.000142616    0.003144161   -0.004072114
     36        1           0.003056459    0.002197175   -0.006522514
     37        1          -0.003507641   -0.003541699    0.004184030
     38        1          -0.004017428    0.000871526   -0.001857205
     39        1           0.001541550    0.000975388    0.008339332
     40        1           0.002570842   -0.007269057    0.003530734
     41        1           0.001293267   -0.006755516   -0.004857607
     42        1          -0.001432710    0.000696823   -0.008260832
     43        1          -0.002307079    0.006915555   -0.000909010
     44        1           0.000659576    0.006397345   -0.003015084
     45        1          -0.005063192   -0.001625906    0.000342412
     46        1          -0.014322802   -0.007763673   -0.004574371
     47        1           0.015507082   -0.005391478    0.004311140
     48        1          -0.016675346    0.000513396    0.001404711
     49        1           0.012954186    0.003038055    0.010108729
     50        1           0.004699853   -0.000725686   -0.007038112
     51        1          -0.004691194   -0.003304237   -0.006387645
 -------------------------------------------------------------------
 Cartesian Forces:  Max     0.042792653 RMS     0.009222698
 Leave Link  716 at Wed Jul 31 21:26:38 2024, MaxMem= 13421772800 cpu:               0.2 elap:               0.0
 (Enter /public/software/apps/Gaussian/g16/l103.exe)

 GradGradGradGradGradGradGradGradGradGradGradGradGradGradGradGradGradGrad
 Berny optimization.
 FormGI is forming the generalized inverse of G from B-inverse, IUseBI=4.
 GSVD:  received Info=                   1 from GESDD.
 Internal  Forces:  Max     0.031070441 RMS     0.005202839
 Search for a local minimum.
 Step number   1 out of a maximum of  302
 All quantities printed in internal units (Hartrees-Bohrs-Radians)
 RMS Force = .52028D-02 SwitMx=.10000D-02 MixMth= 1
 Mixed Optimization -- RFO/linear search
 Second derivative matrix not updated -- first step.
 ITU=  0
     Eigenvalues ---    0.00272   0.00282   0.00590   0.00593   0.00666
     Eigenvalues ---    0.00679   0.00841   0.00844   0.01425   0.01425
     Eigenvalues ---    0.01477   0.01487   0.01898   0.02029   0.02031
     Eigenvalues ---    0.02060   0.02061   0.02068   0.02069   0.02094
     Eigenvalues ---    0.02095   0.02114   0.02115   0.02116   0.02117
     Eigenvalues ---    0.02117   0.02119   0.02120   0.02122   0.02169
     Eigenvalues ---    0.02170   0.02238   0.02830   0.02840   0.03543
     Eigenvalues ---    0.04060   0.04084   0.04150   0.04163   0.04229
     Eigenvalues ---    0.04750   0.04831   0.05180   0.05224   0.05419
     Eigenvalues ---    0.05427   0.05770   0.05790   0.07476   0.07664
     Eigenvalues ---    0.09137   0.09207   0.10721   0.10733   0.10936
     Eigenvalues ---    0.11025   0.11048   0.11059   0.12678   0.12738
     Eigenvalues ---    0.13314   0.15362   0.15471   0.16000   0.16000
     Eigenvalues ---    0.16000   0.16000   0.16000   0.16000   0.16000
     Eigenvalues ---    0.16000   0.16000   0.16000   0.16000   0.18025
     Eigenvalues ---    0.19698   0.19956   0.20040   0.21923   0.21925
     Eigenvalues ---    0.21999   0.22000   0.22000   0.22000   0.23468
     Eigenvalues ---    0.23476   0.23703   0.24621   0.24624   0.24973
     Eigenvalues ---    0.24991   0.24995   0.24996   0.27388   0.27391
     Eigenvalues ---    0.27494   0.28753   0.28824   0.30147   0.31596
     Eigenvalues ---    0.31696   0.32292   0.32309   0.32319   0.32330
     Eigenvalues ---    0.32368   0.32386   0.32433   0.32433   0.32450
     Eigenvalues ---    0.32452   0.32455   0.32506   0.32522   0.32574
     Eigenvalues ---    0.32980   0.33006   0.35622   0.35626   0.35656
     Eigenvalues ---    0.35659   0.35706   0.35706   0.35709   0.35711
     Eigenvalues ---    0.35719   0.35738   0.35781   0.35873   0.41388
     Eigenvalues ---    0.41392   0.41477   0.41478   0.41853   0.41887
     Eigenvalues ---    0.44988   0.45007   0.45470   0.45474   0.45891
     Eigenvalues ---    0.45905   0.45989   0.46014   0.46688   0.46721
     Eigenvalues ---    0.67332   0.67467
 RFO step:  Lambda=-3.02620926D-02 EMin= 2.71606182D-03
 Linear search not attempted -- first point.
 Maximum step size (   0.300) exceeded in Quadratic search.
    -- Step size scaled by   0.936
 Iteration  1 RMS(Cart)=  0.11381794 RMS(Int)=  0.00206431
 Iteration  2 RMS(Cart)=  0.00580971 RMS(Int)=  0.00038935
 Iteration  3 RMS(Cart)=  0.00000999 RMS(Int)=  0.00038934
 Iteration  4 RMS(Cart)=  0.00000000 RMS(Int)=  0.00038934
 ITry= 1 IFail=0 DXMaxC= 5.98D-01 DCOld= 1.00D+10 DXMaxT= 3.00D-01 DXLimC= 3.00D+00 Rises=F
 Variable       Old X    -DE/DX   Delta X   Delta X   Delta X     New X
                                 (Linear)    (Quad)   (Total)
    R1        2.64093  -0.00049   0.00000  -0.00063  -0.00063   2.64030
    R2        2.64081   0.00090   0.00000   0.00199   0.00199   2.64279
    R3        2.04536   0.00838   0.00000   0.02026   0.02026   2.06561
    R4        2.64237   0.00134   0.00000   0.00259   0.00259   2.64496
    R5        2.04543   0.00841   0.00000   0.02032   0.02032   2.06576
    R6        2.65611  -0.00205   0.00000  -0.00431  -0.00431   2.65181
    R7        2.04619   0.00800   0.00000   0.01936   0.01936   2.06555
    R8        2.84889   0.00466   0.00000   0.01259   0.01259   2.86148
    R9        2.65549  -0.00145   0.00000  -0.00316  -0.00316   2.65233
   R10        2.90521   0.00038   0.00000   0.00113   0.00113   2.90634
   R11        2.10144  -0.00537   0.00000  -0.01418  -0.01418   2.08726
   R12        2.10265  -0.00600   0.00000  -0.01590  -0.01590   2.08675
   R13        2.92073   0.00954   0.00000   0.03147   0.03113   2.95185
   R14        2.75444   0.00057   0.00000   0.00112   0.00099   2.75543
   R15        2.10244  -0.00517   0.00000  -0.01369  -0.01369   2.08875
   R16        2.67494   0.00635   0.00000   0.01394   0.01390   2.68884
   R17        2.09899  -0.00542   0.00000  -0.01426  -0.01426   2.08473
   R18        2.09807  -0.00471   0.00000  -0.01237  -0.01237   2.08570
   R19        2.60604  -0.01159   0.00000  -0.02179  -0.02147   2.58457
   R20        2.82386  -0.00591   0.00000  -0.01536  -0.01536   2.80850
   R21        2.43171  -0.01534   0.00000  -0.02057  -0.02031   2.41140
   R22        2.82341  -0.00590   0.00000  -0.01532  -0.01532   2.80809
   R23        2.87629  -0.00684   0.00000  -0.02352  -0.02332   2.85297
   R24        2.87514  -0.00020   0.00000  -0.00298  -0.00278   2.87236
   R25        2.43077  -0.01442   0.00000  -0.01936  -0.01907   2.41170
   R26        2.60632  -0.01130   0.00000  -0.02135  -0.02101   2.58531
   R27        2.75595  -0.00153   0.00000  -0.00366  -0.00379   2.75215
   R28        2.90372   0.00218   0.00000   0.00642   0.00642   2.91014
   R29        2.91796   0.01117   0.00000   0.03631   0.03594   2.95391
   R30        2.10282  -0.00563   0.00000  -0.01491  -0.01491   2.08791
   R31        2.84703   0.00460   0.00000   0.01241   0.01241   2.85944
   R32        2.10312  -0.00566   0.00000  -0.01501  -0.01501   2.08811
   R33        2.10175  -0.00405   0.00000  -0.01070  -0.01070   2.09105
   R34        2.65498  -0.00240   0.00000  -0.00504  -0.00504   2.64994
   R35        2.65586  -0.00357   0.00000  -0.00740  -0.00740   2.64846
   R36        2.64264   0.00018   0.00000   0.00039   0.00038   2.64303
   R37        2.04677   0.00837   0.00000   0.02027   0.02027   2.06704
   R38        2.64118  -0.00032   0.00000  -0.00023  -0.00023   2.64096
   R39        2.04540   0.00848   0.00000   0.02049   0.02049   2.06589
   R40        2.64117   0.00029   0.00000   0.00090   0.00090   2.64207
   R41        2.04545   0.00842   0.00000   0.02035   0.02035   2.06579
   R42        2.64245  -0.00030   0.00000  -0.00061  -0.00061   2.64184
   R43        2.04524   0.00841   0.00000   0.02032   0.02032   2.06556
   R44        2.04670   0.00701   0.00000   0.01698   0.01698   2.06368
   R45        2.67534   0.00520   0.00000   0.01154   0.01149   2.68683
   R46        2.09928  -0.00485   0.00000  -0.01276  -0.01276   2.08652
   R47        2.10059  -0.00494   0.00000  -0.01303  -0.01303   2.08756
   R48        2.87876   0.00017   0.00000   0.00715   0.00675   2.88551
   R49        2.10058  -0.01283   0.00000  -0.03386  -0.03386   2.06672
   R50        2.10020  -0.01281   0.00000  -0.03380  -0.03380   2.06640
   R51        2.10028  -0.01229   0.00000  -0.03244  -0.03244   2.06783
   R52        2.10025  -0.01230   0.00000  -0.03245  -0.03245   2.06781
   R53        2.64239  -0.00013   0.00000  -0.00028  -0.00028   2.64211
[...]
 ,0.00000011,0.00016643,0.00207213,-0.00205968,-0.00007830,-0.00341067,
 0.00365388,0.12176138,0.10672793,0.00000758,-0.00000032,-0.00000403,-0
 .00000638,-0.00000413,0.00000291,0.00002479,-0.00000244,-0.00000525,-0
 .00001565,0.00003146,0.00006598,0.00007524,-0.00000392,-0.00010922,-0.
 00006212,0.00006140,0.00024338,-0.00031880,-0.00001395,-0.00026045,0.0
 0195359,-0.00034641,-0.00088745,-0.00374371,0.00472557,-0.00140057,0.0
 2624906,0.01347820,-0.00613696,0.00332416,-0.00163271,0.00132518,-0.00
 058036,-0.00038467,0.00080713,-0.00016849,-0.00000273,-0.00026870,-0.0
 0003014,0.00020548,-0.00004017,-0.00008103,0.00005512,0.00009087,0.000
 00511,-0.00001862,-0.00004706,0.00000236,0.00000093,-0.00001062,0.0000
 2624,-0.00002288,-0.00001750,0.00001443,0.00002490,0.00005123,0.000007
 29,-0.00003967,-0.00007189,0.00011598,0.00014748,-0.00020439,-0.000295
 18,-0.00001444,-0.00024798,-0.01099601,-0.00296823,-0.00142535,0.02547
 527,0.01993579,-0.04281889,0.00052109,-0.00064487,0.00035644,0.0000082
 4,0.00000967,-0.00000541,-0.00000458,0.00000283,-0.00000127,0.00000322
 ,0.00000066,-0.00000180,0.00000185,0.00000288,-0.00000362,-0.00000162,
 -0.00000711,-0.00000209,0.00001651,-0.00001095,0.00000779,-0.00000232,
 0.00001700,-0.00001667,0.00007134,-0.00000290,-0.00002103,0.00016771,-
 0.00002626,-0.00005422,0.00008754,-0.00000597,-0.00004409,0.00002005,-
 0.00000266,0.00006571,0.00000274,-0.00010061,0.00001082,0.00004776,-0.
 00002308,0.00001810,-0.00000893,0.00000155,-0.00000334,0.00000722,-0.0
 0000629,-0.00000231,0.00000620,-0.00000710,-0.00000166,0.00001543,-0.0
 0002026,-0.00002250,-0.00006641,0.00003985,0.00012172,-0.00004122,-0.0
 0001426,0.00000195,0.00000179,-0.00000102,-0.00000524,0.00060117,0.001
 58786,-0.00029438,-0.00023053,-0.00249559,0.00135216,-0.03305468,-0.02
 359176,0.04710464,0.00000906,0.00000406,-0.00000673,0.00000032,-0.0000
 0310,0.00000223,0.00002490,-0.00000306,-0.00000689,-0.00004817,0.00000
 054,0.00003195,0.00003379,-0.00001786,0.00002467,-0.00035191,0.0001949
 7,-0.00011734,-0.00011789,0.00007505,0.00001244,0.00007245,0.00067451,
 -0.00094566,0.00018845,0.00058289,0.00096843,0.00588328,-0.00362149,0.
 00390270,-0.00163555,-0.00079934,-0.00028444,0.00097712,-0.00004380,-0
 .00000522,0.00002112,0.00010446,-0.00015289,0.00005701,-0.00000634,0.0
 0010298,-0.00003722,0.00002764,0.00000879,0.00000612,-0.00000700,-0.00
 001103,-0.00000806,0.00000252,-0.00000044,-0.00000390,0.00000310,0.000
 00579,-0.00002424,-0.00000102,-0.00003094,0.00007835,-0.00002624,0.000
 03713,-0.00000229,0.00002765,-0.00002205,0.00008068,-0.00000306,0.0001
 5026,0.00245287,-0.00141311,0.00160438,-0.24151939,0.10348420,-0.10037
 407,-0.00101868,-0.00123975,0.00136434,0.00001947,0.00000525,-0.000005
 93,-0.00000838,0.00000484,0.00000191,0.00000419,0.00000142,-0.00000320
 ,0.00000274,0.00000441,-0.00000462,-0.00000299,-0.00000591,0.00000125,
 -0.00004214,-0.00000324,-0.00000708,0.00000544,0.00000470,-0.00000470,
 0.00001104,-0.00002144,0.00001895,-0.00000383,-0.00000550,-0.00003421,
 -0.00000537,0.00000308,0.00001037,0.00000430,-0.00001126,0.00000152,-0
 .00000088,0.00002151,0.00000754,0.00002932,0.00001996,-0.00001976,-0.0
 0000598,0.00000214,-0.00000448,-0.00000106,0.00000059,-0.00000090,-0.0
 0000487,0.00000413,-0.00000231,0.00000245,0.00000074,0.00000173,0.0000
 4366,-0.00000962,-0.00000880,0.00001076,-0.00000405,0.00000838,0.00000
 997,0.00000238,0.00000858,0.00038093,-0.00049753,0.00022680,0.00084581
 ,-0.00056966,-0.00014201,-0.01255836,0.01069995,-0.00915173,0.24615083
 ,0.00000182,0.00000253,-0.00000275,0.00000266,-0.00000024,0.00000121,0
 .00000749,-0.00000354,-0.00000434,-0.00003242,-0.00001740,-0.00001669,
 -0.00004084,-0.00001592,0.00006902,-0.00023724,-0.00011787,-0.00034733
 ,0.00010133,0.00000832,-0.00003426,-0.00022187,0.00032041,-0.00016950,
 0.00153351,-0.00010036,0.00187729,-0.00273742,-0.00217260,-0.00039513,
 -0.00001810,0.00008146,-0.00098285,0.00030750,0.00036338,-0.00005162,-
 0.00001283,0.00013696,0.00012142,0.00000509,-0.00005954,0.00000600,0.0
 0000278,-0.00000375,-0.00002835,0.00000010,0.00000037,-0.00000062,-0.0
 0000602,0.00000340,-0.00000018,-0.00000958,0.00001044,0.00000616,-0.00
 002017,0.00000737,-0.00002539,0.00006855,-0.00000210,0.00003628,-0.000
 02695,-0.00005443,0.00007034,-0.00005723,-0.00013750,0.00000449,0.0225
 3370,-0.01134787,0.01177888,0.09738552,-0.10210762,0.05751179,0.000338
 80,-0.00040349,-0.00084758,0.00000856,0.00001034,-0.00000899,-0.000001
 78,-0.00000236,0.00000321,0.00000103,0.00000024,-0.00000055,0.00000157
 ,0.00000109,-0.00000106,-0.00000031,-0.00000286,0.00000207,-0.00003098
 ,0.00002263,-0.00000056,0.00001047,-0.00001875,0.00001569,0.00003200,0
 .00000666,-0.00002296,-0.00002181,0.00000575,-0.00002317,-0.00002363,0
 .00000658,-0.00001301,-0.00002143,-0.00001814,-0.00004954,-0.00000048,
 0.00002844,0.00000914,-0.00001869,0.00000279,-0.00001136,-0.00000263,-
 0.00000033,-0.00000315,-0.00000444,0.00000192,-0.00000090,-0.00000701,
 0.00000326,0.00000018,-0.00000128,-0.00000348,0.00000756,0.00002434,-0
 .00003885,-0.00001340,0.00000815,0.00000391,-0.00000345,-0.00002356,0.
 00000139,-0.00001090,-0.00164805,-0.00338299,0.00336347,0.00058599,0.0
 0200077,-0.00200413,-0.01008874,0.00864987,-0.00791333,-0.10764626,0.1
 0833079,-0.00001331,-0.00000496,0.00000901,0.00000250,0.00000710,-0.00
 000337,-0.00003402,0.00000260,0.00000825,0.00005225,-0.00001223,-0.000
 07472,-0.00000232,0.00001661,0.00003819,0.00088250,-0.00031801,0.00043
 127,-0.00005122,-0.00022996,0.00022428,-0.00041471,-0.00062670,0.00128
 280,-0.00271067,-0.00083955,-0.00006445,-0.02267364,0.01304580,-0.0150
 4450,0.00278001,0.00469115,-0.00016048,-0.00111609,0.00023348,-0.00102
 531,-0.00019384,-0.00031761,0.00082739,-0.00011507,-0.00006184,-0.0003
 8429,0.00011843,-0.00010334,-0.00007650,-0.00001376,0.00002032,0.00003
 773,0.00001252,-0.00000114,0.00000547,-0.00001420,0.00001443,0.0000060
 6,0.00001805,-0.00000628,0.00000739,-0.00007177,0.00004816,-0.00000899
 ,-0.00005537,-0.00004890,0.00011470,-0.00007064,-0.00029048,-0.0003554
 1,0.01227041,-0.00363656,0.00314452,-0.09452290,0.05590870,-0.08529170
 ,-0.00063723,-0.00015709,0.00018874,-0.00002633,-0.00001007,0.00000646
 ,0.00001050,-0.00000696,-0.00000387,-0.00000593,-0.00000153,0.00000473
 ,-0.00000341,-0.00000621,0.00000690,0.00000436,0.00001025,-0.00000026,
 0.00001508,0.00002132,-0.00000389,-0.00000330,-0.00002028,0.00000483,-
 0.00001845,0.00004000,0.00000105,-0.00001739,0.00000965,0.00004094,0.0
 0000475,-0.00004994,0.00009641,-0.00002379,-0.00000253,-0.00009129,0.0
 0001421,-0.00000493,0.00001563,-0.00014302,-0.00007575,0.00004539,0.00
 001451,-0.00000502,0.00000781,-0.00000611,0.00000485,0.00000093,-0.000
 00192,0.00000073,0.00000542,-0.00000913,0.00000553,0.00001397,-0.00003
 163,-0.00000889,-0.00002833,-0.00001149,0.00000767,-0.00002655,-0.0000
 3571,-0.00002289,-0.00004320,-0.00034966,-0.00274720,0.00131611,-0.000
 01006,0.00146928,-0.00048761,0.00435292,-0.00404089,0.00281310,0.10284
 657,-0.06189818,0.09245964,-0.00256870,0.00093100,0.00479673,-0.000962
 99,0.00021440,0.00007051,-0.00196479,0.00366909,0.00286882,0.00630611,
 0.01986179,-0.01070011,-0.00001771,-0.00045968,-0.00192247,-0.00050349
 ,0.00047607,0.00014903,0.00003102,0.00004353,-0.00011676,0.00014526,-0
 .00011717,0.00011081,-0.00014140,0.00008062,-0.00009171,0.00002131,-0.
 00000548,0.00000556,-0.00006310,0.00001746,-0.00004712,0.00005832,-0.0
 0000755,0.00002105,-0.00001553,-0.00000885,-0.00000984,0.00000015,0.00
 000203,0.00000328,-0.00000364,0.00000584,0.00000503,0.00000132,-0.0000
 0123,-0.00000319,-0.00000002,0.00000003,-0.00000045,0.00000113,-0.0000
 0055,-0.00000045,0.00000160,0.00000091,0.00000293,-0.00000297,0.000000
 91,-0.00000484,-0.00002186,-0.00000031,-0.00002065,0.00004501,-0.00000
 407,0.00001698,0.00001725,-0.00001249,0.00002200,0.00000892,0.00001299
 ,0.00000791,0.00020820,-0.00027302,-0.00000518,-0.05700080,-0.01781784
 ,0.01901934,0.00189213,-0.02422290,0.01205252,-0.00001619,-0.00105848,
 0.00063478,-0.00013720,-0.00021907,-0.00040740,0.00019866,0.00110386,-
 0.00048914,-0.00001966,0.00017767,0.00021865,0.00026138,-0.00015778,0.
 00003249,-0.00052641,-0.00028293,-0.00023804,-0.00000265,-0.00000664,0
 .00001195,0.00003451,-0.00001337,0.00003653,0.00000534,-0.00000008,0.0
 0000578,-0.00000058,-0.00000257,-0.00000040,0.00000449,0.00000121,0.00
 000054,-0.00000111,0.00000017,0.00000056,0.00000148,-0.00000098,0.0000
 0059,0.00000118,-0.00000122,-0.00000066,-0.00000106,-0.00000036,-0.000
 00051,-0.00000038,-0.00000208,0.00000358,0.00000121,-0.00000147,0.0000
 0213,0.00000227,0.00000318,0.00000253,0.00000399,0.00000092,-0.0000097
 7,-0.00000515,0.00000648,0.00000739,0.00000692,-0.00000106,-0.00000496
 ,-0.00001051,-0.00000242,0.00001489,0.05455323,-0.00018053,0.00250074,
 0.00228180,0.00030797,0.00048284,-0.00064593,0.00466239,-0.00025051,0.
 00061492,-0.00344804,-0.01515188,0.01079346,-0.00219947,-0.00026187,-0
 .00011943,0.00030929,-0.00013630,-0.00021772,-0.00009709,-0.00008445,0
 .00015225,-0.00001268,0.00013571,-0.00015921,0.00011434,-0.00014454,0.
 00016733,-0.00000933,0.00000723,-0.00000867,0.00003631,-0.00001130,0.0
 0003643,-0.00003072,0.00000695,-0.00001646,0.00000661,0.00000341,0.000
 00690,0.00000007,-0.00000168,-0.00000180,0.00000147,-0.00000197,-0.000
 00230,-0.00000029,0.00000082,0.00000129,-0.00000003,0.00000036,-0.0000
 0003,-0.00000037,0.00000049,-0.00000009,-0.00000062,0.00000008,-0.0000
 0094,0.00000254,-0.00000065,0.00000223,0.00001125,-0.00000263,0.000014
 57,-0.00002343,0.00000180,-0.00001672,-0.00001662,0.00000821,-0.000012
 90,-0.00000008,-0.00000352,-0.00000442,-0.00015051,0.00012452,0.000027
 16,-0.01848665,-0.26851591,0.11720252,0.00164080,-0.00198806,0.0016623
 8,0.00015363,-0.00016428,0.00012322,-0.00023192,-0.00021028,-0.0002931
 4,-0.00017323,-0.00079802,0.00053679,0.00054808,0.00033990,-0.00080079
 ,-0.00009389,0.00015363,-0.00028192,-0.00007641,0.00032036,0.00014316,
 0.00000130,0.00000650,-0.00003268,-0.00003094,0.00005133,-0.00006747,-
 0.00000385,0.00000034,-0.00000356,0.00000028,0.00000170,-0.00000016,-0
 .00000243,-0.00000079,-0.00000036,0.00000020,-0.00000045,-0.00000051,-
 0.00000103,0.00000028,-0.00000024,-0.00000065,0.00000030,0.00000044,0.
 00000050,-0.00000033,-0.00000001,-0.00000021,0.00000089,-0.00000135,-0
 .00000093,0.00000118,-0.00000314,-0.00000116,-0.00000106,-0.00000166,-
 0.00000268,-0.00000039,0.00000860,0.00000229,-0.00000529,0.00000035,-0
 .00000337,0.00000162,0.00000259,0.00000578,0.00000101,-0.00000623,0.01
 854912,0.28347129,0.00531547,0.00162798,0.00357662,0.00000509,-0.00061
 807,-0.00038218,0.00248871,0.00098712,0.00473689,0.00122127,-0.0025009
 4,0.00408588,-0.00129352,-0.00175216,-0.00151494,-0.00022420,0.0005369
 4,0.00052314,-0.00006742,-0.00001604,0.00001980,0.00012214,-0.00003761
 ,-0.00007901,0.00001739,-0.00006898,0.00005768,0.00001236,0.00004477,0
 .00002513,-0.00000135,0.00002148,0.00001886,0.00001102,-0.00000954,-0.
 00000641,-0.00000311,-0.00000051,0.00000149,0.00000021,0.00000070,-0.0
 0000025,-0.00000217,0.00000202,0.00000218,0.00000057,-0.00000078,-0.00
 000086,-0.00000024,-0.00000015,-0.00000022,0.00000038,-0.00000068,-0.0
 0000038,0.00000004,0.00000003,0.00000119,0.00000031,-0.00000086,-0.000
 00132,-0.00000274,0.00000183,-0.00000184,0.00000898,-0.00001644,-0.000
 01884,-0.00000609,0.00000142,0.00000545,0.00000377,0.00000117,0.000002
 22,-0.00005858,-0.00035904,-0.00016007,0.01872127,0.11756115,-0.102321
 01,0.00018102,0.01558779,-0.00360037,0.00006169,0.00075207,-0.00017447
 ,-0.00041624,-0.00027885,-0.00074001,0.00005969,-0.00009492,0.00028740
 ,-0.00017763,0.00035461,-0.00031346,0.00004940,0.00005414,-0.00014214,
 -0.00026431,-0.00041831,-0.00010362,-0.00002880,0.00000510,-0.00005507
 ,0.00005468,-0.00000260,0.00002917,0.00000145,-0.00000042,0.00000092,0
 .00000038,-0.00000063,0.00000064,-0.00000015,0.00000004,-0.00000064,-0
 .00000044,0.00000024,-0.00000034,0.00000042,-0.00000005,0.00000007,0.0
 0000059,-0.00000017,-0.00000028,0.00000016,0.00000003,-0.00000079,0.00
 000006,0.00000037,0.00000110,-0.00000081,0.00000123,-0.00000114,-0.000
 00185,-0.00000086,0.00000025,0.00000008,-0.00000081,0.00000246,-0.0000
 0095,-0.00000087,-0.00000073,-0.00000062,-0.00000031,-0.00000111,-0.00
 000027,0.00000169,0.00000577,-0.02388265,-0.12960362,0.09866936,0.0059
 1564,-0.00404618,0.00074301,0.00233448,0.00013455,0.00234967,0.0001057
 6,-0.00096532,0.00007998,-0.00131476,-0.00146439,0.00513522,-0.0003571
 2,0.00107874,-0.00012995,0.00007332,0.00014810,0.00013164,0.00001787,0
 .00001172,0.00004009,-0.00003349,0.00002134,-0.00005251,0.00011302,-0.
 00007182,0.00006266,-0.00000711,0.00002731,0.00001598,0.00004251,0.000
 00457,0.00004571,-0.00003369,-0.00000401,-0.00001859,0.00000955,0.0000
 0706,0.00000776,0.00000009,-0.00000050,-0.00000252,0.00000101,-0.00000
 298,-0.00000194,-0.00000055,0.00000022,0.00000184,-0.00000011,-0.00000
 026,0.00000023,-0.00000060,-0.00000021,0.00000010,-0.00000114,-0.00000
 084,-0.00000127,0.00000193,-0.00000128,0.00000244,0.00001468,0.0000025
 1,0.00001358,-0.00002686,-0.00001055,-0.00002504,-0.00000985,0.0000094
 5,-0.00001253,-0.00000898,-0.00000898,-0.00000510,-0.00016015,-0.00007
 187,-0.00008248,-0.01383496,0.01968932,0.00044823,-0.19922710,0.140974
 29,0.02183261,-0.00019479,-0.00039138,-0.00189872,0.00017239,-0.000215
 41,0.00010481,-0.00024877,-0.00008914,-0.00039592,0.00003317,-0.000025
 70,-0.00000171,-0.00039603,-0.00008523,0.00013053,-0.00000637,-0.00001
 893,-0.00000634,-0.00001993,-0.00001255,-0.00002940,0.00001222,-0.0000
 0773,0.00002251,-0.00000244,-0.00000033,-0.00000328,0.00000075,0.00000
 119,0.00000090,-0.00000342,-0.00000089,-0.00000091,0.00000055,0.000000
 13,-0.00000066,-0.00000068,0.00000075,-0.00000037,-0.00000031,0.000000
 82,0.00000022,0.00000089,0.00000047,-0.00000025,0.00000044,0.00000192,
 -0.00000188,-0.00000134,0.00000217,-0.00000186,-0.00000322,-0.00000334
 ,-0.00000156,-0.00000240,-0.00000182,0.00000772,0.00000309,-0.00000368
 ,-0.00000884,-0.00000470,-0.00000094,0.00000386,0.00000523,0.00000322,
 -0.00000639,0.00017550,-0.00107505,-0.00190448,0.20686677,0.02173380,-
 0.01373520,-0.00358667,-0.00087218,-0.00281817,0.00490866,-0.00092809,
 -0.00003196,0.00025047,-0.00035929,0.00175401,0.00276706,-0.00024856,0
 .00025924,0.00011128,-0.00002046,-0.00002727,-0.00002165,-0.00003499,-
 0.00001327,-0.00000088,0.00004145,0.00000325,-0.00000569,-0.00004754,0
 .00001128,0.00000328,0.00000446,-0.00000952,-0.00001157,-0.00002509,0.
 00000631,-0.00001256,0.00002216,-0.00000104,0.00000574,-0.00000729,-0.
 00000392,-0.00000367,-0.00000008,0.00000077,0.00000099,-0.00000158,0.0
 0000275,0.00000224,0.00000078,-0.00000044,-0.00000158,-0.00000010,0.00
 000026,-0.00000035,0.00000051,0.00000003,-0.00000016,0.00000080,0.0000
 0056,0.00000124,-0.00000097,0.00000039,-0.00000208,-0.00000895,-0.0000
 0105,-0.00000666,0.00001763,-0.00000141,0.00000503,0.00000650,-0.00000
 388,0.00000829,0.00000419,0.00000510,0.00000326,0.00006136,0.00000478,
 -0.00000090,-0.00605366,0.00780163,0.00140173,0.14099046,-0.18724132,-
 0.00718763,-0.00107241,0.00053412,-0.00154071,0.00100374,-0.00072768,-
 0.00013801,-0.00010192,-0.00013394,-0.00037040,0.00004205,0.00001784,-
 0.00001351,-0.00010909,-0.00002140,0.00001049,-0.00002092,-0.00001540,
 -0.00000722,0.00000315,0.00000211,0.00000076,-0.00000662,0.00000660,-0
 .00000484,0.00000144,-0.00000010,0.00000193,-0.00000014,-0.00000095,-0
 .00000027,0.00000185,0.00000046,0.00000030,-0.00000066,-0.00000005,0.0
 0000026,0.00000060,-0.00000059,0.00000035,0.00000043,-0.00000071,-0.00
 000030,-0.00000059,-0.00000032,-0.00000015,-0.00000020,-0.00000105,0.0
 0000161,0.00000031,-0.00000065,-0.00000005,0.00000083,0.00000165,0.000
 00069,0.00000071,-0.00000013,-0.00000364,-0.00000105,0.00000090,0.0000
 0370,0.00000214,0.00000047,-0.00000206,-0.00000280,-0.00000012,0.00000
 452,-0.00047761,0.00011268,-0.00175967,-0.15353853,0.19426434,-0.01103
 953,0.01006047,0.00515019,0.00276434,0.00437159,0.00338230,0.00012218,
 0.00030659,-0.00083564,0.00510012,0.00322015,0.00332439,0.00031522,-0.
 00068906,0.00024220,-0.00010350,-0.00009027,-0.00003326,-0.00000704,0.
 00001320,-0.00001341,0.00002232,-0.00000101,-0.00000002,-0.00004311,0.
 00002025,-0.00000351,0.00000185,-0.00001209,-0.00001682,-0.00001795,0.
 00001010,-0.00000419,0.00001601,-0.00000322,0.00000186,-0.00000511,-0.
 00000210,-0.00000150,0.00000036,0.00000031,0.00000103,-0.00000154,0.00
 000226,0.00000170,0.00000060,-0.00000040,-0.00000092,-0.00000007,0.000
 00006,-0.00000025,0.00000040,-0.00000024,-0.00000032,0.00000048,0.0000
 0042,0.00000118,-0.00000030,-0.00000001,-0.00000158,-0.00000511,-0.000
 00089,-0.00000282,0.00001237,-0.00000366,-0.00000178,0.00000614,-0.000
 00622,0.00000861,0.00000414,0.00000547,0.00000511,0.00006107,0.0000336
 4,0.00000546,0.01214085,-0.01232315,0.00290515,0.02177950,-0.00697389,
 -0.04673499,-0.00159546,-0.00189465,-0.00234081,-0.00045877,0.00054094
 ,0.00020386,-0.00040445,-0.00034930,-0.00067935,-0.00002397,0.00004540
 ,-0.00003601,0.00013692,-0.00001421,-0.00016784,-0.00002133,0.00001851
 ,0.00002010,-0.00000278,-0.00000624,0.00000285,-0.00000079,0.00000643,
 -0.00000680,0.00000128,0.00000006,0.00000141,-0.00000010,-0.00000061,-
 0.00000015,0.00000095,0.00000023,-0.00000012,-0.00000049,-0.00000004,-
 0.00000008,0.00000035,-0.00000028,0.00000020,0.00000045,-0.00000045,-0
 .00000020,-0.00000026,-0.00000026,-0.00000044,-0.00000028,-0.00000055,
 0.00000128,0.00000012,0.00000046,-0.00000048,0.00000018,0.00000067,0.0
 0000079,0.00000153,0.00000065,-0.00000392,-0.00000209,0.00000104,0.000
 00389,0.00000172,0.00000049,-0.00000186,-0.00000199,-0.00000066,0.0000
 0384,-0.00216859,-0.00147488,-0.00243222,-0.02658682,0.00518898,0.0380
 5389\\0.00000073,-0.00000178,0.00000004,-0.00000188,0.00000031,0.00000
 058,-0.00000030,-0.00000050,-0.00000412,-0.00000182,-0.00000160,0.0000
 0225,0.00000402,0.00000164,-0.00000116,-0.00001141,-0.00000330,0.00000
 818,-0.00000080,-0.00000107,-0.00000065,0.00000054,-0.00000339,0.00001
 111,-0.00000552,0.00000482,-0.00001899,0.00000244,-0.00000193,0.000006
 45,0.00000807,-0.00000054,-0.00000896,-0.00000760,-0.00000301,-0.00000
 365,0.00000421,0.00000645,0.00000731,-0.00000223,0.00000013,-0.0000006
 0,0.00000106,-0.00000144,-0.00000012,0.00000065,0.00000004,-0.00000009
 ,-0.00000045,0.00000071,0.00000128,-0.00000121,0.00000089,-0.00000058,
 0.00000114,-0.00000079,-0.00000092,-0.00000189,0.00000083,0.00000403,0
 .00000003,-0.00000271,-0.00000557,-0.00000177,0.00000088,0.00000586,-0
 .00000453,0.00000343,0.00000319,-0.00000065,0.00000439,0.00000065,0.00
 001002,0.00000190,-0.00000092,0.00000078,0.00000097,0.00000164,0.00000
 077,0.00000045,-0.00000120,-0.00000020,-0.00000002,-0.00000023,0.00000
 015,-0.00000032,-0.00000026,0.00000072,0.00000056,0.00000046,-0.000001
 48,-0.00000317,-0.00000209,0.00000117,0.00000084,0.00000214,0.00000372
 ,0.00000068,-0.00000091,-0.00000046,0.00000127,-0.00000079,0.00000053,
 -0.00000036,-0.00000218,-0.00000098,-0.00000088,-0.00000021,0.00000106
 ,0.00000016,0.00000034,-0.00000021,0.00000045,0.00000099,-0.00000050,0
 .00000087,0.00000015,0.00000024,0.00000004,-0.00000031,0.00000027,-0.0
 0000016,0.00000026,-0.00000005,0.00000007,0.00000014,-0.00000003,0.000
 00081,-0.00000132,0.00000042,-0.00000028,0.,0.00000006,0.00000075,-0.0
 0000047,-0.00000046,-0.00000088,-0.00000104,0.00000301,-0.00000335,-0.
 00000135,0.00000084,-0.00000194,0.00000036,0.00000062,-0.00000086,0.00
 000095,-0.00000070,0.00000005,0.00000022,-0.00000017,-0.00000012,0.000
 00009\\\@
 The archive entry for this job was punched.


 I WISH TO HAVE NO CONNECTION WITH ANY SHIP THAT DOES NOT SAIL FAST,
 FOR I INTEND TO GO IN HARM'S WAY.
     -- JOHN PAUL JONES, USN 1747-1792
 Job cpu time:       0 days  2 hours 30 minutes  5.9 seconds.
 Elapsed time:       0 days  0 hours  4 minutes 43.0 seconds.
 File lengths (MBytes):  RWF=   1102 Int=      0 D2E=      0 Chk=     17 Scr=      1
 Normal termination of Gaussian 16 at Wed Jul 31 21:44:34 2024.
