 Entering Gaussian System, Link 0=g16
 Initial command:
 /public/apps/g16-C01//g16/l1.exe "/public/home/ljq/tmp/Gau-112163.inp" -scrdir="/public/home/ljq/tmp/"
 Entering Link 1 = /public/apps/g16-C01//g16/l1.exe PID=    112164.
  
 Copyright (c) 1988-2019, Gaussian, Inc.  All Rights Reserved.
  
 This is part of the Gaussian(R) 16 program.  It is based on
 the Gaussian(R) 09 system (copyright 2009, Gaussian, Inc.),
 the Gaussian(R) 03 system (copyright 2003, Gaussian, Inc.),
 the Gaussian(R) 98 system (copyright 1998, Gaussian, Inc.),
 the Gaussian(R) 94 system (copyright 1995, Gaussian, Inc.),
 the Gaussian 92(TM) system (copyright 1992, Gaussian, Inc.),
 the Gaussian 90(TM) system (copyright 1990, Gaussian, Inc.),
 the Gaussian 88(TM) system (copyright 1988, Gaussian, Inc.),
 the Gaussian 86(TM) system (copyright 1986, Carnegie Mellon
 University), and the Gaussian 82(TM) system (copyright 1983,
 Carnegie Mellon University). Gaussian is a federally registered
 trademark of Gaussian, Inc.
  
 This software contains proprietary and confidential information,
 including trade secrets, belonging to Gaussian, Inc.
  
 This software is provided under written license and may be
 used, copied, transmitted, or stored only in accord with that
 written license.
  
 The following legend is applicable only to US Government
 contracts under FAR:
  
                    RESTRICTED RIGHTS LEGEND
  
 Use, reproduction and disclosure by the US Government is
 subject to restrictions as set forth in subparagraphs (a)
 and (c) of the Commercial Computer Software - Restricted
 Rights clause in FAR 52.227-19.
  
 Gaussian, Inc.
 340 Quinnipiac St., Bldg. 40, Wallingford CT 06492
  
  
 ---------------------------------------------------------------
 Warning -- This program may not be used in any manner that
 competes with the business of Gaussian, Inc. or will provide
 assistance to any competitor of Gaussian, Inc.  The licensee
 of this program is prohibited from giving any competitor of
 Gaussian, Inc. access to this program.  By using this program,
 the user acknowledges that Gaussian, Inc. is engaged in the
 business of creating and licensing software in the field of
 computational chemistry and represents and warrants to the
 licensee that it is not a competitor of Gaussian, Inc. and that
 it will not use this program in any manner prohibited above.
 ---------------------------------------------------------------
  

 Cite this work as:
 Gaussian 16, Revision C.01,
 M. J. Frisch, G. W. Trucks, H. B. Schlegel, G. E. Scuseria, 
 M. A. Robb, J. R. Cheeseman, G. Scalmani, V. Barone, 
 G. A. Petersson, H. Nakatsuji, X. Li, M. Caricato, A. V. Marenich, 
 J. Bloino, B. G. Janesko, R. Gomperts, B. Mennucci, H. P. Hratchian, 
 J. V. Ortiz, A. F. Izmaylov, J. L. Sonnenberg, D. Williams-Young, 
 F. Ding, F. Lipparini, F. Egidi, J. Goings, B. Peng, A. Petrone, 
 T. Henderson, D. Ranasinghe, V. G. Zakrzewski, J. Gao, N. Rega, 
 G. Zheng, W. Liang, M. Hada, M. Ehara, K. Toyota, R. Fukuda, 
 J. Hasegawa, M. Ishida, T. Nakajima, Y. Honda, O. Kitao, H. Nakai, 
 T. Vreven, K. Throssell, J. A. Montgomery, Jr., J. E. Peralta, 
 F. Ogliaro, M. J. Bearpark, J. J. Heyd, E. N. Brothers, K. N. Kudin, 
 V. N. Staroverov, T. A. Keith, R. Kobayashi, J. Normand, 
 K. Raghavachari, A. P. Rendell, J. C. Burant, S. S. Iyengar, 
 J. Tomasi, M. Cossi, J. M. Millam, M. Klene, C. Adamo, R. Cammi, 
 J. W. Ochterski, R. L. Martin, K. Morokuma, O. Farkas, 
 J. B. Foresman, and D. J. Fox, Gaussian, Inc., Wallingford CT, 2019.
 
 ******************************************
 Gaussian 16:  ES64L-G16RevC.01  3-Jul-2019
                25-Feb-2024 
 ******************************************
 %nproc=40
 Will use up to   40 processors via shared memory.
 %mem=56GB
 ------------------------------------------
 #p opt freq b3lyp/def2svpp em=gd3bj nosymm
 ------------------------------------------
 1/18=20,19=15,26=3,38=1/1,3;
 2/9=110,12=2,15=1,17=6,18=5,40=1/2;
 3/5=43,7=202,11=2,25=1,30=1,71=1,74=-5,124=41/1,2,3;
 4//1;
 5/5=2,38=5/2;
 6/7=2,8=2,9=2,10=2,28=1/1;
 7/30=1/1,2,3,16;
 1/18=20,19=15,26=3/3(2);
 2/9=110,15=1/2;
 99//99;
 2/9=110,15=1/2;
 3/5=43,7=202,11=2,25=1,30=1,71=1,74=-5,124=41/1,2,3;
 4/5=5,16=3,69=1/1;
 5/5=2,38=5/2;
 7/30=1/1,2,3,16;
 1/18=20,19=15,26=3/3(-5);
 2/9=110,15=1/2;
 6/7=2,8=2,9=2,10=2,19=2,28=1/1;
 99/9=1/99;
 Leave Link    1 at Sun Feb 25 23:03:10 2024, MaxMem=  7516192768 cpu:               1.7 elap:               0.1
 (Enter /public/apps/g16-C01//g16/l101.exe)
 ----------------------
 $$$$Singlemol####0????
 ----------------------
 Symbolic Z-matrix:
 Charge =  0 Multiplicity = 1
 C                    -4.18275   2.75523   0.33415 
 C                    -4.87148   1.56715   0.16581 
 C                    -4.18916   0.41421  -0.18347 
 C                    -2.81434   0.43685  -0.37392 
 C                    -2.07228  -0.81572  -0.74924 
 C                    -1.07453  -1.23682   0.34169 
 C                    -0.45464  -2.64226   0.09044 
 O                     0.9419   -2.3996   -0.01207 
 C                     1.1098   -1.05567   0.14673 
 C                     2.47449  -0.53761   0.06473 
 C                     3.5535   -1.41813  -0.02212 
 C                     4.83035  -0.88915  -0.09642 
 C                     4.98408   0.48808  -0.08321 
 C                     3.8416    1.27451   0.00308 
 N                     2.62205   0.78309   0.07489 
 N                     0.07299  -0.36434   0.35897 
 C                    -2.12839   1.6334   -0.20125 
 C                    -2.8097    2.78357   0.15288 
 H                    -4.71434   3.65514   0.60777 
 H                    -5.94226   1.53584   0.30799 
 H                    -4.73393  -0.51136  -0.31211 
 H                    -2.77981  -1.6337   -0.90298 
 H                    -1.51803  -0.65456  -1.67776 
 H                    -1.57225  -1.17941   1.31613 
 H                    -0.63169  -3.34007   0.9127 
 H                    -0.80151  -3.08894  -0.84624 
 H                     3.37894  -2.48212  -0.02886 
 H                     5.69021  -1.54027  -0.16347 
 H                     5.96171   0.9411   -0.13951 
 H                     3.9075    2.35467   0.01394 
 H                    -1.05671   1.64538  -0.32581 
 H                    -2.26704   3.70782   0.28787 
 
 ITRead=  0  0  0  0  0  0  0  0  0  0  0  0  0  0  0  0  0  0  0  0
 ITRead=  0  0  0  0  0  0  0  0  0  0  0  0
 MicOpt= -1 -1 -1 -1 -1 -1 -1 -1 -1 -1 -1 -1 -1 -1 -1 -1 -1 -1 -1 -1
 MicOpt= -1 -1 -1 -1 -1 -1 -1 -1 -1 -1 -1 -1
 NAtoms=     32 NQM=       32 NQMF=       0 NMMI=      0 NMMIF=      0
                NMic=       0 NMicF=      0.
                    Isotopes and Nuclear Properties:
 (Nuclear quadrupole moments (NQMom) in fm**2, nuclear magnetic moments (NMagM)
  in nuclear magnetons)

  Atom         1           2           3           4           5           6           7           8           9          10
 IAtWgt=          12          12          12          12          12          12          12          16          12          12
 AtmWgt=  12.0000000  12.0000000  12.0000000  12.0000000  12.0000000  12.0000000  12.0000000  15.9949146  12.0000000  12.0000000
 NucSpn=           0           0           0           0           0           0           0           0           0           0
 AtZEff=  -0.0000000  -0.0000000  -0.0000000  -0.0000000  -0.0000000  -0.0000000  -0.0000000  -0.0000000  -0.0000000  -0.0000000
 NQMom=    0.0000000   0.0000000   0.0000000   0.0000000   0.0000000   0.0000000   0.0000000   0.0000000   0.0000000   0.0000000
 NMagM=    0.0000000   0.0000000   0.0000000   0.0000000   0.0000000   0.0000000   0.0000000   0.0000000   0.0000000   0.0000000
 AtZNuc=   6.0000000   6.0000000   6.0000000   6.0000000   6.0000000   6.0000000   6.0000000   8.0000000   6.0000000   6.0000000

  Atom        11          12          13          14          15          16          17          18          19          20
 IAtWgt=          12          12          12          12          14          14          12          12           1           1
 AtmWgt=  12.0000000  12.0000000  12.0000000  12.0000000  14.0030740  14.0030740  12.0000000  12.0000000   1.0078250   1.0078250
 NucSpn=           0           0           0           0           2           2           0           0           1           1
 AtZEff=  -0.0000000  -0.0000000  -0.0000000  -0.0000000  -0.0000000  -0.0000000  -0.0000000  -0.0000000  -0.0000000  -0.0000000
 NQMom=    0.0000000   0.0000000   0.0000000   0.0000000   2.0440000   2.0440000   0.0000000   0.0000000   0.0000000   0.0000000
 NMagM=    0.0000000   0.0000000   0.0000000   0.0000000   0.4037610   0.4037610   0.0000000   0.0000000   2.7928460   2.7928460
 AtZNuc=   6.0000000   6.0000000   6.0000000   6.0000000   7.0000000   7.0000000   6.0000000   6.0000000   1.0000000   1.0000000

  Atom        21          22          23          24          25          26          27          28          29          30
 IAtWgt=           1           1           1           1           1           1           1           1           1           1
 AtmWgt=   1.0078250   1.0078250   1.0078250   1.0078250   1.0078250   1.0078250   1.0078250   1.0078250   1.0078250   1.0078250
 NucSpn=           1           1           1           1           1           1           1           1           1           1
 AtZEff=  -0.0000000  -0.0000000  -0.0000000  -0.0000000  -0.0000000  -0.0000000  -0.0000000  -0.0000000  -0.0000000  -0.0000000
 NQMom=    0.0000000   0.0000000   0.0000000   0.0000000   0.0000000   0.0000000   0.0000000   0.0000000   0.0000000   0.0000000
 NMagM=    2.7928460   2.7928460   2.7928460   2.7928460   2.7928460   2.7928460   2.7928460   2.7928460   2.7928460   2.7928460
 AtZNuc=   1.0000000   1.0000000   1.0000000   1.0000000   1.0000000   1.0000000   1.0000000   1.0000000   1.0000000   1.0000000

  Atom        31          32
 IAtWgt=           1           1
 AtmWgt=   1.0078250   1.0078250
 NucSpn=           1           1
 AtZEff=  -0.0000000  -0.0000000
 NQMom=    0.0000000   0.0000000
 NMagM=    2.7928460   2.7928460
 AtZNuc=   1.0000000   1.0000000
 Leave Link  101 at Sun Feb 25 23:03:10 2024, MaxMem=  7516192768 cpu:              18.9 elap:               0.5
 (Enter /public/apps/g16-C01//g16/l103.exe)

 GradGradGradGradGradGradGradGradGradGradGradGradGradGradGradGradGradGrad
 Berny optimization.
 Initialization pass.
                           ----------------------------
                           !    Initial Parameters    !
                           ! (Angstroms and Degrees)  !
 --------------------------                            --------------------------
 ! Name  Definition              Value          Derivative Info.                !
 --------------------------------------------------------------------------------
 ! R1    R(1,2)                  1.3836         estimate D2E/DX2                !
 ! R2    R(1,18)                 1.3853         estimate D2E/DX2                !
 ! R3    R(1,19)                 1.0804         estimate D2E/DX2                !
 ! R4    R(2,3)                  1.3845         estimate D2E/DX2                !
 ! R5    R(2,20)                 1.0806         estimate D2E/DX2                !
 ! R6    R(3,4)                  1.3881         estimate D2E/DX2                !
 ! R7    R(3,21)                 1.0817         estimate D2E/DX2                !
 ! R8    R(4,5)                  1.5035         estimate D2E/DX2                !
 ! R9    R(4,17)                 1.39           estimate D2E/DX2                !
 ! R10   R(5,6)                  1.5372         estimate D2E/DX2                !
 ! R11   R(5,22)                 1.0924         estimate D2E/DX2                !
 ! R12   R(5,23)                 1.0933         estimate D2E/DX2                !
 ! R13   R(6,7)                  1.5565         estimate D2E/DX2                !
 ! R14   R(6,16)                 1.4416         estimate D2E/DX2                !
 ! R15   R(6,24)                 1.0957         estimate D2E/DX2                !
 ! R16   R(7,8)                  1.4212         estimate D2E/DX2                !
 ! R17   R(7,25)                 1.0929         estimate D2E/DX2                !
 ! R18   R(7,26)                 1.0942         estimate D2E/DX2                !
 ! R19   R(8,9)                  1.3637         estimate D2E/DX2                !
 ! R20   R(9,10)                 1.462          estimate D2E/DX2                !
 ! R21   R(9,16)                 1.2641         estimate D2E/DX2                !
 ! R22   R(10,11)                1.3954         estimate D2E/DX2                !
 ! R23   R(10,15)                1.3289         estimate D2E/DX2                !
 ! R24   R(11,12)                1.3841         estimate D2E/DX2                !
 ! R25   R(11,27)                1.0782         estimate D2E/DX2                !
 ! R26   R(12,13)                1.3858         estimate D2E/DX2                !
 ! R27   R(12,28)                1.0806         estimate D2E/DX2                !
 ! R28   R(13,14)                1.3897         estimate D2E/DX2                !
 ! R29   R(13,29)                1.079          estimate D2E/DX2                !
 ! R30   R(14,15)                1.3168         estimate D2E/DX2                !
 ! R31   R(14,30)                1.0822         estimate D2E/DX2                !
 ! R32   R(17,18)                1.3829         estimate D2E/DX2                !
 ! R33   R(17,31)                1.079          estimate D2E/DX2                !
 ! R34   R(18,32)                1.0802         estimate D2E/DX2                !
 ! A1    A(2,1,18)             119.6734         estimate D2E/DX2                !
 ! A2    A(2,1,19)             120.0752         estimate D2E/DX2                !
 ! A3    A(18,1,19)            120.2512         estimate D2E/DX2                !
 ! A4    A(1,2,3)              120.0309         estimate D2E/DX2                !
 ! A5    A(1,2,20)             120.1411         estimate D2E/DX2                !
 ! A6    A(3,2,20)             119.8279         estimate D2E/DX2                !
 ! A7    A(2,3,4)              120.6059         estimate D2E/DX2                !
 ! A8    A(2,3,21)             119.6283         estimate D2E/DX2                !
 ! A9    A(4,3,21)             119.7656         estimate D2E/DX2                !
 ! A10   A(3,4,5)              120.63           estimate D2E/DX2                !
 ! A11   A(3,4,17)             119.0618         estimate D2E/DX2                !
 ! A12   A(5,4,17)             120.3058         estimate D2E/DX2                !
 ! A13   A(4,5,6)              111.8028         estimate D2E/DX2                !
 ! A14   A(4,5,22)             109.8333         estimate D2E/DX2                !
 ! A15   A(4,5,23)             109.8412         estimate D2E/DX2                !
 ! A16   A(6,5,22)             108.3696         estimate D2E/DX2                !
 ! A17   A(6,5,23)             108.3042         estimate D2E/DX2                !
 ! A18   A(22,5,23)            108.6151         estimate D2E/DX2                !
 ! A19   A(5,6,7)              113.0354         estimate D2E/DX2                !
 ! A20   A(5,6,16)             111.0611         estimate D2E/DX2                !
 ! A21   A(5,6,24)             108.7818         estimate D2E/DX2                !
 ! A22   A(7,6,16)             103.3789         estimate D2E/DX2                !
 ! A23   A(7,6,24)             111.8255         estimate D2E/DX2                !
 ! A24   A(16,6,24)            108.6148         estimate D2E/DX2                !
 ! A25   A(6,7,8)              104.4088         estimate D2E/DX2                !
 ! A26   A(6,7,25)             112.99           estimate D2E/DX2                !
 ! A27   A(6,7,26)             112.3677         estimate D2E/DX2                !
 ! A28   A(8,7,25)             108.8138         estimate D2E/DX2                !
 ! A29   A(8,7,26)             108.6314         estimate D2E/DX2                !
 ! A30   A(25,7,26)            109.3934         estimate D2E/DX2                !
 ! A31   A(7,8,9)              106.3116         estimate D2E/DX2                !
 ! A32   A(8,9,10)             117.2335         estimate D2E/DX2                !
 ! A33   A(8,9,16)             117.2293         estimate D2E/DX2                !
 ! A34   A(10,9,16)            125.5362         estimate D2E/DX2                !
 ! A35   A(9,10,11)            120.1109         estimate D2E/DX2                !
 ! A36   A(9,10,15)            117.0879         estimate D2E/DX2                !
 ! A37   A(11,10,15)           122.8011         estimate D2E/DX2                !
 ! A38   A(10,11,12)           118.3936         estimate D2E/DX2                !
 ! A39   A(10,11,27)           119.8604         estimate D2E/DX2                !
 ! A40   A(12,11,27)           121.746          estimate D2E/DX2                !
 ! A41   A(11,12,13)           118.7918         estimate D2E/DX2                !
 ! A42   A(11,12,28)           120.4703         estimate D2E/DX2                !
 ! A43   A(13,12,28)           120.7379         estimate D2E/DX2                !
 ! A44   A(12,13,14)           118.1506         estimate D2E/DX2                !
 ! A45   A(12,13,29)           121.1486         estimate D2E/DX2                !
 ! A46   A(14,13,29)           120.7007         estimate D2E/DX2                !
 ! A47   A(13,14,15)           123.6146         estimate D2E/DX2                !
 ! A48   A(13,14,30)           121.0237         estimate D2E/DX2                !
 ! A49   A(15,14,30)           115.3616         estimate D2E/DX2                !
 ! A50   A(10,15,14)           118.2479         estimate D2E/DX2                !
 ! A51   A(6,16,9)             108.6547         estimate D2E/DX2                !
 ! A52   A(4,17,18)            120.3076         estimate D2E/DX2                !
 ! A53   A(4,17,31)            119.0367         estimate D2E/DX2                !
 ! A54   A(18,17,31)           120.6416         estimate D2E/DX2                !
 ! A55   A(1,18,17)            120.3189         estimate D2E/DX2                !
 ! A56   A(1,18,32)            119.9384         estimate D2E/DX2                !
 ! A57   A(17,18,32)           119.7427         estimate D2E/DX2                !
 ! D1    D(18,1,2,3)            -0.0676         estimate D2E/DX2                !
 ! D2    D(18,1,2,20)          179.8307         estimate D2E/DX2                !
 ! D3    D(19,1,2,3)          -179.9329         estimate D2E/DX2                !
 ! D4    D(19,1,2,20)           -0.0346         estimate D2E/DX2                !
 ! D5    D(2,1,18,17)            0.328          estimate D2E/DX2                !
 ! D6    D(2,1,18,32)         -179.7052         estimate D2E/DX2                !
 ! D7    D(19,1,18,17)        -179.807          estimate D2E/DX2                !
 ! D8    D(19,1,18,32)           0.1598         estimate D2E/DX2                !
 ! D9    D(1,2,3,4)             -0.288          estimate D2E/DX2                !
 ! D10   D(1,2,3,21)           179.9193         estimate D2E/DX2                !
 ! D11   D(20,2,3,4)           179.8134         estimate D2E/DX2                !
 ! D12   D(20,2,3,21)            0.0207         estimate D2E/DX2                !
 ! D13   D(2,3,4,5)            179.8179         estimate D2E/DX2                !
 ! D14   D(2,3,4,17)             0.379          estimate D2E/DX2                !
 ! D15   D(21,3,4,5)            -0.3897         estimate D2E/DX2                !
 ! D16   D(21,3,4,17)         -179.8285         estimate D2E/DX2                !
 ! D17   D(3,4,5,6)           -116.124          estimate D2E/DX2                !
 ! D18   D(3,4,5,22)             4.2147         estimate D2E/DX2                !
 ! D19   D(3,4,5,23)           123.6143         estimate D2E/DX2                !
 ! D20   D(17,4,5,6)            63.3079         estimate D2E/DX2                !
 ! D21   D(17,4,5,22)         -176.3534         estimate D2E/DX2                !
 ! D22   D(17,4,5,23)          -56.9538         estimate D2E/DX2                !
 ! D23   D(3,4,17,18)           -0.1179         estimate D2E/DX2                !
 ! D24   D(3,4,17,31)          178.5224         estimate D2E/DX2                !
 ! D25   D(5,4,17,18)         -179.5586         estimate D2E/DX2                !
 ! D26   D(5,4,17,31)           -0.9183         estimate D2E/DX2                !
 ! D27   D(4,5,6,7)            170.9488         estimate D2E/DX2                !
 ! D28   D(4,5,6,16)           -73.3818         estimate D2E/DX2                !
 ! D29   D(4,5,6,24)            46.1068         estimate D2E/DX2                !
 ! D30   D(22,5,6,7)            49.7586         estimate D2E/DX2                !
 ! D31   D(22,5,6,16)          165.428          estimate D2E/DX2                !
 ! D32   D(22,5,6,24)          -75.0835         estimate D2E/DX2                !
 ! D33   D(23,5,6,7)           -67.8947         estimate D2E/DX2                !
 ! D34   D(23,5,6,16)           47.7747         estimate D2E/DX2                !
 ! D35   D(23,5,6,24)          167.2632         estimate D2E/DX2                !
 ! D36   D(5,6,7,8)            119.7648         estimate D2E/DX2                !
 ! D37   D(5,6,7,25)          -122.1556         estimate D2E/DX2                !
 ! D38   D(5,6,7,26)             2.2216         estimate D2E/DX2                !
 ! D39   D(16,6,7,8)            -0.4025         estimate D2E/DX2                !
 ! D40   D(16,6,7,25)          117.6771         estimate D2E/DX2                !
 ! D41   D(16,6,7,26)         -117.9456         estimate D2E/DX2                !
 ! D42   D(24,6,7,8)          -117.0625         estimate D2E/DX2                !
 ! D43   D(24,6,7,25)            1.0171         estimate D2E/DX2                !
 ! D44   D(24,6,7,26)          125.3944         estimate D2E/DX2                !
 ! D45   D(5,6,16,9)          -120.4491         estimate D2E/DX2                !
 ! D46   D(7,6,16,9)             1.0576         estimate D2E/DX2                !
 ! D47   D(24,6,16,9)          119.9626         estimate D2E/DX2                !
 ! D48   D(6,7,8,9)             -0.3303         estimate D2E/DX2                !
 ! D49   D(25,7,8,9)          -121.2307         estimate D2E/DX2                !
 ! D50   D(26,7,8,9)           119.7529         estimate D2E/DX2                !
 ! D51   D(7,8,9,10)          -179.1999         estimate D2E/DX2                !
 ! D52   D(7,8,9,16)             1.1427         estimate D2E/DX2                !
 ! D53   D(8,9,10,11)           -6.949          estimate D2E/DX2                !
 ! D54   D(8,9,10,15)          172.9274         estimate D2E/DX2                !
 ! D55   D(16,9,10,11)         172.6766         estimate D2E/DX2                !
 ! D56   D(16,9,10,15)          -7.447          estimate D2E/DX2                !
 ! D57   D(8,9,16,6)            -1.4418         estimate D2E/DX2                !
 ! D58   D(10,9,16,6)          178.9325         estimate D2E/DX2                !
 ! D59   D(9,10,11,12)        -179.922          estimate D2E/DX2                !
 ! D60   D(9,10,11,27)           0.0123         estimate D2E/DX2                !
 ! D61   D(15,10,11,12)          0.2089         estimate D2E/DX2                !
 ! D62   D(15,10,11,27)       -179.8568         estimate D2E/DX2                !
 ! D63   D(9,10,15,14)         179.9485         estimate D2E/DX2                !
 ! D64   D(11,10,15,14)         -0.1787         estimate D2E/DX2                !
 ! D65   D(10,11,12,13)         -0.0774         estimate D2E/DX2                !
 ! D66   D(10,11,12,28)        179.9239         estimate D2E/DX2                !
 ! D67   D(27,11,12,13)        179.9896         estimate D2E/DX2                !
 ! D68   D(27,11,12,28)         -0.0091         estimate D2E/DX2                !
 ! D69   D(11,12,13,14)         -0.0673         estimate D2E/DX2                !
 ! D70   D(11,12,13,29)       -179.9864         estimate D2E/DX2                !
 ! D71   D(28,12,13,14)        179.9314         estimate D2E/DX2                !
 ! D72   D(28,12,13,29)          0.0123         estimate D2E/DX2                !
 ! D73   D(12,13,14,15)          0.1026         estimate D2E/DX2                !
 ! D74   D(12,13,14,30)       -179.8145         estimate D2E/DX2                !
 ! D75   D(29,13,14,15)       -179.978          estimate D2E/DX2                !
 ! D76   D(29,13,14,30)          0.1049         estimate D2E/DX2                !
 ! D77   D(13,14,15,10)          0.0196         estimate D2E/DX2                !
 ! D78   D(30,14,15,10)        179.941          estimate D2E/DX2                !
 ! D79   D(4,17,18,1)           -0.2348         estimate D2E/DX2                !
 ! D80   D(4,17,18,32)         179.7983         estimate D2E/DX2                !
 ! D81   D(31,17,18,1)        -178.853          estimate D2E/DX2                !
 ! D82   D(31,17,18,32)          1.18           estimate D2E/DX2                !
 --------------------------------------------------------------------------------
 Trust Radius=3.00D-01 FncErr=1.00D-07 GrdErr=1.00D-06 EigMax=2.50D+02 EigMin=1.00D-04
 Number of steps in this run=    183 maximum allowed number of steps=    192.
 GradGradGradGradGradGradGradGradGradGradGradGradGradGradGradGradGradGrad

 Leave Link  103 at Sun Feb 25 23:03:10 2024, MaxMem=  7516192768 cpu:               0.8 elap:               0.0
 (Enter /public/apps/g16-C01//g16/l202.exe)
                          Input orientation:                          
 ---------------------------------------------------------------------
 Center     Atomic      Atomic             Coordinates (Angstroms)
 Number     Number       Type             X           Y           Z
 ---------------------------------------------------------------------
      1          6           0       -4.182751    2.755232    0.334147
      2          6           0       -4.871478    1.567152    0.165814
      3          6           0       -4.189160    0.414205   -0.183471
      4          6           0       -2.814339    0.436845   -0.373916
      5          6           0       -2.072276   -0.815721   -0.749243
      6          6           0       -1.074534   -1.236821    0.341691
      7          6           0       -0.454635   -2.642255    0.090440
      8          8           0        0.941901   -2.399602   -0.012073
      9          6           0        1.109797   -1.055672    0.146726
     10          6           0        2.474494   -0.537606    0.064729
     11          6           0        3.553498   -1.418131   -0.022118
     12          6           0        4.830355   -0.889150   -0.096421
     13          6           0        4.984077    0.488083   -0.083208
     14          6           0        3.841598    1.274508    0.003083
     15          7           0        2.622046    0.783088    0.074886
     16          7           0        0.072986   -0.364338    0.358969
     17          6           0       -2.128394    1.633402   -0.201248
     18          6           0       -2.809700    2.783568    0.152882
     19          1           0       -4.714342    3.655143    0.607771
     20          1           0       -5.942257    1.535841    0.307993
     21          1           0       -4.733928   -0.511355   -0.312108
     22          1           0       -2.779806   -1.633696   -0.902976
     23          1           0       -1.518026   -0.654556   -1.677758
     24          1           0       -1.572249   -1.179412    1.316130
     25          1           0       -0.631693   -3.340071    0.912696
     26          1           0       -0.801510   -3.088940   -0.846244
     27          1           0        3.378938   -2.482115   -0.028856
     28          1           0        5.690206   -1.540265   -0.163472
     29          1           0        5.961705    0.941096   -0.139509
     30          1           0        3.907497    2.354670    0.013936
     31          1           0       -1.056707    1.645375   -0.325807
     32          1           0       -2.267045    3.707817    0.287872
 ---------------------------------------------------------------------
                    Distance matrix (angstroms):
                    1          2          3          4          5
     1  C    0.000000
     2  C    1.383552   0.000000
     3  C    2.397577   1.384502   0.000000
     4  C    2.783671   2.408469   1.388134   0.000000
     5  C    4.287137   3.788264   2.512770   1.503479   0.000000
     6  C    5.059403   4.723344   3.564067   2.517970   1.537189
     7  C    6.564382   6.101909   4.833596   3.907005   2.580321
     8  O    7.276966   7.040040   5.854458   4.720773   3.483872
     9  C    6.524506   6.531096   5.508949   4.230546   3.314502
    10  C    7.431977   7.642220   6.735862   5.395713   4.627420
    11  C    8.797354   8.940216   7.958156   6.641841   5.704467
    12  C    9.731546  10.011381   9.113614   7.763801   6.933822
    13  C    9.452242   9.917579   9.174082   7.804001   7.206638
    14  C    8.166537   8.719508   8.078861   6.719026   6.317354
    15  N    7.089558   7.534980   6.826079   5.465857   5.027130
    16  N    5.276706   5.311844   4.366493   3.084746   2.456426
    17  C    2.401152   2.768327   2.394476   1.389994   2.510309
    18  C    1.385254   2.393901   2.762232   2.405129   3.783187
    19  H    1.080416   2.140029   3.377212   3.864086   5.367553
    20  H    2.140902   1.080631   2.138446   3.384769   4.650198
    21  H    3.375208   2.137176   1.081657   2.141898   2.714428
    22  H    4.770893   3.970243   2.588023   2.137343   1.092390
    23  H    4.772334   4.424973   3.241929   2.138127   1.093301
    24  H    4.822907   4.444294   3.411252   2.647892   2.155937
    25  H    7.077955   6.527974   5.286941   4.548011   3.348084
    26  H    6.854229   6.266426   4.918075   4.087265   2.606104
    27  H    9.205472   9.192596   8.104856   6.855368   5.745569
    28  H   10.778414  11.014247  10.070860   8.733873   7.818198
    29  H   10.316270  10.855553  10.164625   8.793643   8.246395
    30  H    8.106485   8.815535   8.328279   7.000826   6.811131
    31  H    3.382229   3.847114   3.368724   2.133572   2.695862
    32  H    2.139974   3.373487   3.842469   3.381827   4.644991
                    6          7          8          9         10
     6  C    0.000000
     7  C    1.556485   0.000000
     8  O    2.354404   1.421162   0.000000
     9  C    2.200484   2.228870   1.363655   0.000000
    10  C    3.627838   3.606938   2.412834   1.462024   0.000000
    11  C    4.645849   4.192407   2.789951   2.476199   1.395391
    12  C    5.931318   5.571303   4.172368   3.732211   2.387391
    13  C    6.313684   6.277640   4.968196   4.176852   2.715130
    14  C    5.530803   5.814317   4.680551   3.593481   2.270800
    15  N    4.220891   4.604257   3.599995   2.381826   1.328950
    16  N    1.441640   2.353592   2.243877   1.264107   2.425663
    17  C    3.105412   4.600847   5.072240   4.223516   5.096136
    18  C    4.382919   5.915216   6.400545   5.486553   6.241849
    19  H    6.103303   7.620365   8.308864   7.504994   8.339868
    20  H    5.602099   6.900566   7.936106   7.514879   8.671797
    21  H    3.787469   4.797408   5.989201   5.886929   7.218313
    22  H    2.148176   2.722221   3.902746   4.070012   5.453947
    23  H    2.147997   2.865008   3.445422   3.224142   4.357769
    24  H    1.095695   2.211625   3.094178   2.928513   4.284162
    25  H    2.223919   1.092887   2.053260   2.972873   4.268636
    26  H    2.217223   1.094179   2.051953   2.961969   4.251044
    27  H    4.639124   3.838770   2.438491   2.685995   2.146600
    28  H    6.790359   6.248034   4.827813   4.616406   3.376123
    29  H    7.381296   7.352734   6.031164   5.254524   3.793272
    30  H    6.150355   6.633499   5.603440   4.413070   3.228210
    31  H    2.958534   4.349658   4.522687   3.494665   4.169809
    32  H    5.086691   6.606605   6.905640   5.840703   6.368328
                   11         12         13         14         15
    11  C    0.000000
    12  C    1.384090   0.000000
    13  C    2.384102   1.385848   0.000000
    14  C    2.708125   2.380957   1.389665   0.000000
    15  N    2.392149   2.775312   2.385626   1.316798   0.000000
    16  N    3.656456   4.807844   5.004094   4.124913   2.809804
    17  C    6.451964   7.402597   7.205063   5.984259   4.833835
    18  C    7.627266   8.480652   8.128219   6.821984   5.788944
    19  H    9.720702  10.594703  10.225803   8.901527   7.896534
    20  H    9.950090  11.049584  10.983424   9.792093   8.600480
    21  H    8.341928   9.574171   9.771944   8.765175   7.479017
    22  H    6.397900   7.688916   8.090231   7.288456   5.998088
    23  H    5.389299   6.546572   6.791580   5.939031   4.720040
    24  H    5.302940   6.562994   6.908263   6.087327   4.794184
    25  H    4.699314   6.071186   6.869022   6.490922   5.318758
    26  H    4.736758   6.092554   6.844730   6.428024   5.249935
    27  H    1.078229   2.156088   3.376611   3.785141   3.353386
    28  H    2.144859   1.080643   2.149245   3.371652   3.855955
    29  H    3.373306   2.152118   1.078956   2.150895   3.350262
    30  H    3.789544   3.374346   2.156991   1.082225   2.031248
    31  H    5.543581   6.413574   6.155424   4.923322   3.799647
    32  H    7.762097   8.464802   7.942491   6.581612   5.701106
                   16         17         18         19         20
    16  N    0.000000
    17  C    3.025042   0.000000
    18  C    4.273367   1.382920   0.000000
    19  H    6.255928   3.380692   2.143415   0.000000
    20  H    6.308441   3.848947   3.375470   2.467607   0.000000
    21  H    4.855757   3.376549   3.843877   4.266880   2.456745
    22  H    3.367818   3.404510   4.541800   5.830661   4.638266
    23  H    2.600731   2.790588   4.103701   5.832117   5.321171
    24  H    2.070580   3.244018   4.311571   5.809255   5.242701
    25  H    3.107760   5.311913   6.543698   8.105185   7.234796
    26  H    3.104954   4.947439   6.286289   7.931398   7.010574
    27  H    3.945213   6.877347   8.127711  10.177053  10.155891
    28  H    5.762717   8.438252   9.541699  11.655115  12.041549
    29  H    6.052243   8.119902   8.967594  11.040945  11.927208
    30  H    4.713335   6.082640   6.732310   8.739564   9.888104
    31  H    2.405010   1.078968   2.144204   4.276567   4.927707
    32  H    4.697153   2.135804   1.080247   2.468678   4.269083
                   21         22         23         24         25
    21  H    0.000000
    22  H    2.329671   0.000000
    23  H    3.496789   1.775131   0.000000
    24  H    3.618518   2.566905   3.040029   0.000000
    25  H    5.131287   3.289798   3.835105   2.390785   0.000000
    26  H    4.732141   2.456544   2.670400   2.986000   1.784874
    27  H    8.353605   6.278059   5.480794   5.293418   4.208060
    28  H   10.475845   8.502747   7.418635   7.420424   6.660619
    29  H   10.795183   9.144750   7.801198   7.960898   7.931483
    30  H    9.110139   7.840141   6.430674   6.649290   7.337717
    31  H    4.263054   3.748933   2.707447   3.307743   5.154532
    32  H    4.924114   5.496617   4.843039   5.042327   7.262059
                   26         27         28         29         30
    26  H    0.000000
    27  H    4.302616   0.000000
    28  H    6.708722   2.499432   0.000000
    29  H    7.904539   4.289674   2.496285   0.000000
    30  H    7.248969   4.865768   4.287195   2.498301   0.000000
    31  H    4.769667   6.066243   7.462941   7.056120   5.026116
    32  H    7.044850   8.384074   9.542742   8.691935   6.327007
                   31         32
    31  H    0.000000
    32  H    2.468843   0.000000
 Symmetry turned off by external request.
 Stoichiometry    C15H14N2O
 Framework group  C1[X(C15H14N2O)]
 Deg. of freedom    90
 Full point group                 C1      NOp   1
 Rotational constants (GHZ):           0.9602340           0.2065867           0.1726221
 Leave Link  202 at Sun Feb 25 23:03:10 2024, MaxMem=  7516192768 cpu:               0.3 elap:               0.0
 (Enter /public/apps/g16-C01//g16/l301.exe)
 Standard basis: def2SVPP (5D, 7F)
 Ernie: Thresh=  0.10000D-02 Tol=  0.10000D-05 Strict=F.
   280 basis functions,   506 primitive gaussians,   298 cartesian basis functions
    63 alpha electrons       63 beta electrons
       nuclear repulsion energy      1194.2528842182 Hartrees.
 IExCor=  402 DFT=T Ex+Corr=B3LYP ExCW=0 ScaHFX=  0.200000
 ScaDFX=  0.800000  0.720000  1.000000  0.810000 ScalE2=  1.000000  1.000000
 IRadAn=      5 IRanWt=     -1 IRanGd=            0 ICorTp=0 IEmpDi=141
 NAtoms=   32 NActive=   32 NUniq=   32 SFac= 1.00D+00 NAtFMM=   60 NAOKFM=F Big=F
 Integral buffers will be    131072 words long.
 Raffenetti 2 integral format.
 Two-electron integral symmetry is turned off.
 R6Disp:  Grimme-D3(BJ) Dispersion energy=       -0.0657023129 Hartrees.
 Nuclear repulsion after empirical dispersion term =     1194.1871819053 Hartrees.
 Leave Link  301 at Sun Feb 25 23:03:10 2024, MaxMem=  7516192768 cpu:               1.1 elap:               0.0
 (Enter /public/apps/g16-C01//g16/l302.exe)
 NPDir=0 NMtPBC=     1 NCelOv=     1 NCel=       1 NClECP=     1 NCelD=      1
         NCelK=      1 NCelE2=     1 NClLst=     1 CellRange=     0.0.
 One-electron integrals computed using PRISM.
   1 Symmetry operations used in ECPInt.
 ECPInt:  NShTT=    9316 NPrTT=   37404 LenC2=    8513 LenP2D=   23541.
 LDataN:  DoStor=T MaxTD1= 4 Len=   56
 NBasis=   280 RedAO= T EigKep=  2.76D-04  NBF=   280
 NBsUse=   280 1.00D-06 EigRej= -1.00D+00 NBFU=   280
 Precomputing XC quadrature grid using
 IXCGrd= 4 IRadAn=           5 IRanWt=          -1 IRanGd=           0 AccXCQ= 0.00D+00.
 Generated NRdTot=       0 NPtTot=           0 NUsed=           0 NTot=          32
 NSgBfM=   295   295   295   295   295 MxSgAt=    32 MxSgA2=    32.
 Leave Link  302 at Sun Feb 25 23:03:11 2024, MaxMem=  7516192768 cpu:               9.7 elap:               0.3
 (Enter /public/apps/g16-C01//g16/l303.exe)
 DipDrv:  MaxL=1.
 Leave Link  303 at Sun Feb 25 23:03:11 2024, MaxMem=  7516192768 cpu:               1.9 elap:               0.1
 (Enter /public/apps/g16-C01//g16/l401.exe)
 ExpMin= 1.22D-01 ExpMax= 2.27D+03 ExpMxC= 3.41D+02 IAcc=3 IRadAn=         5 AccDes= 0.00D+00
 Harris functional with IExCor=  402 and IRadAn=       5 diagonalized for initial guess.
 HarFok:  IExCor=  402 AccDes= 0.00D+00 IRadAn=         5 IDoV= 1 UseB2=F ITyADJ=14
 ICtDFT=  3500011 ScaDFX=  1.000000  1.000000  1.000000  1.000000
 FoFCou: FMM=F IPFlag=           0 FMFlag=      100000 FMFlg1=           0
         NFxFlg=           0 DoJE=T BraDBF=F KetDBF=T FulRan=T
         wScrn=  0.000000 ICntrl=       500 IOpCl=  0 I1Cent=   200000004 NGrid=           0
         NMat0=    1 NMatS0=      1 NMatT0=    0 NMatD0=    1 NMtDS0=    0 NMtDT0=    0
 Symmetry not used in FoFCou.
 Harris En= -764.179275103607    
 JPrj=0 DoOrth=F DoCkMO=F.
 Leave Link  401 at Sun Feb 25 23:03:11 2024, MaxMem=  7516192768 cpu:              16.8 elap:               0.4
 (Enter /public/apps/g16-C01//g16/l502.exe)
 Two-electron integral symmetry not used.
 Closed shell SCF:
 Using DIIS extrapolation, IDIIS=  1040.
 NGot=  7516192768 LenX=  7515999856 LenY=  7515910611
 Requested convergence on RMS density matrix=1.00D-08 within 128 cycles.
 Requested convergence on MAX density matrix=1.00D-06.
 Requested convergence on             energy=1.00D-06.
 No special actions if energy rises.
 Fock matrices will be formed incrementally for  20 cycles.
 Integral accuracy reduced to 1.0D-05 until final iterations.

 Cycle   1  Pass 0  IDiag  1:
 FoFJK:  IHMeth= 1 ICntrl=       0 DoSepK=F KAlg= 0 I1Cent=           0 FoldK=F
 IRaf= 850000000 NMat=       1 IRICut=       1 DoRegI=T DoRafI=F ISym2E= 0 IDoP0=0 IntGTp=1.
 FoFCou: FMM=F IPFlag=           0 FMFlag=      100000 FMFlg1=           0
         NFxFlg=           0 DoJE=F BraDBF=F KetDBF=F FulRan=T
         wScrn=  0.000000 ICntrl=         0 IOpCl=  0 I1Cent=           0 NGrid=           0
         NMat0=    1 NMatS0=      1 NMatT0=    0 NMatD0=    1 NMtDS0=    0 NMtDT0=    0
 Symmetry not used in FoFCou.
 E= -763.875110657778    
 DIIS: error= 3.90D-02 at cycle   1 NSaved=   1.
 NSaved= 1 IEnMin= 1 EnMin= -763.875110657778     IErMin= 1 ErrMin= 3.90D-02
 ErrMax= 3.90D-02  0.00D+00 EMaxC= 1.00D-01 BMatC= 3.00D-01 BMatP= 3.00D-01
 IDIUse=3 WtCom= 6.10D-01 WtEn= 3.90D-01
 Coeff-Com:  0.100D+01
 Coeff-En:   0.100D+01
 Coeff:      0.100D+01
 Gap=     0.176 Goal=   None    Shift=    0.000
 GapD=    0.176 DampG=1.000 DampE=0.500 DampFc=0.5000 IDamp=-1.
 Damping current iteration by 5.00D-01
 RMSDP=6.32D-03 MaxDP=1.56D-01              OVMax= 2.14D-01

 Cycle   2  Pass 0  IDiag  1:
 RMSU=  3.02D-03    CP:  9.60D-01
 E= -764.020879523479     Delta-E=       -0.145768865701 Rises=F Damp=T
 DIIS: error= 6.09D-03 at cycle   2 NSaved=   2.
 NSaved= 2 IEnMin= 2 EnMin= -764.020879523479     IErMin= 2 ErrMin= 6.09D-03
 ErrMax= 6.09D-03  0.00D+00 EMaxC= 1.00D-01 BMatC= 2.52D-02 BMatP= 3.00D-01
 IDIUse=3 WtCom= 9.39D-01 WtEn= 6.09D-02
 Coeff-Com:  0.870D-01 0.913D+00
 Coeff-En:   0.120D+00 0.880D+00
 Coeff:      0.890D-01 0.911D+00
 Gap=     0.188 Goal=   None    Shift=    0.000
 RMSDP=2.09D-03 MaxDP=6.65D-02 DE=-1.46D-01 OVMax= 1.59D-01

 Cycle   3  Pass 0  IDiag  1:
 RMSU=  2.01D-03    CP:  9.37D-01  9.54D-01
 E= -764.179134917008     Delta-E=       -0.158255393529 Rises=F Damp=F
 DIIS: error= 1.08D-02 at cycle   3 NSaved=   3.
 NSaved= 3 IEnMin= 3 EnMin= -764.179134917008     IErMin= 2 ErrMin= 6.09D-03
 ErrMax= 1.08D-02  0.00D+00 EMaxC= 1.00D-01 BMatC= 4.08D-02 BMatP= 2.52D-02
 IDIUse=2 WtCom= 0.00D+00 WtEn= 1.00D+00
 Coeff-En:   0.000D+00 0.000D+00 0.100D+01
 Coeff:      0.000D+00 0.000D+00 0.100D+01
 Gap=     0.156 Goal=   None    Shift=    0.000
 RMSDP=2.78D-03 MaxDP=1.38D-01 DE=-1.58D-01 OVMax= 2.33D-01

 Cycle   4  Pass 0  IDiag  1:
 RMSU=  1.78D-03    CP:  9.43D-01  1.29D+00  6.54D-02
 E= -764.007943352814     Delta-E=        0.171191564194 Rises=F Damp=F
 DIIS: error= 2.91D-02 at cycle   4 NSaved=   4.
 NSaved= 4 IEnMin= 3 EnMin= -764.179134917008     IErMin= 2 ErrMin= 6.09D-03
 ErrMax= 2.91D-02  0.00D+00 EMaxC= 1.00D-01 BMatC= 2.26D-01 BMatP= 2.52D-02
 IDIUse=2 WtCom= 0.00D+00 WtEn= 1.00D+00
 Coeff-En:   0.000D+00 0.000D+00 0.789D+00 0.211D+00
 Coeff:      0.000D+00 0.000D+00 0.789D+00 0.211D+00
 Gap=     0.191 Goal=   None    Shift=    0.000
 RMSDP=1.50D-03 MaxDP=6.76D-02 DE= 1.71D-01 OVMax= 1.25D-01

 Cycle   5  Pass 0  IDiag  1:
 RMSU=  2.83D-04    CP:  9.39D-01  1.09D+00  5.50D-01  4.81D-01
 E= -764.201231139175     Delta-E=       -0.193287786360 Rises=F Damp=F
 DIIS: error= 7.65D-03 at cycle   5 NSaved=   5.
 NSaved= 5 IEnMin= 5 EnMin= -764.201231139175     IErMin= 2 ErrMin= 6.09D-03
 ErrMax= 7.65D-03  0.00D+00 EMaxC= 1.00D-01 BMatC= 1.74D-02 BMatP= 2.52D-02
 IDIUse=3 WtCom= 9.24D-01 WtEn= 7.65D-02
 Coeff-Com:  0.376D-02 0.106D-01 0.309D+00-0.826D-01 0.759D+00
 Coeff-En:   0.000D+00 0.000D+00 0.344D+00 0.000D+00 0.656D+00
 Coeff:      0.347D-02 0.978D-02 0.312D+00-0.763D-01 0.751D+00
 Gap=     0.180 Goal=   None    Shift=    0.000
 RMSDP=5.34D-04 MaxDP=2.71D-02 DE=-1.93D-01 OVMax= 4.22D-02

 Cycle   6  Pass 0  IDiag  1:
 RMSU=  9.54D-05    CP:  9.37D-01  1.03D+00  7.27D-01  2.88D-01  8.64D-01
 E= -764.217180330625     Delta-E=       -0.015949191451 Rises=F Damp=F
 DIIS: error= 5.74D-04 at cycle   6 NSaved=   6.
 NSaved= 6 IEnMin= 6 EnMin= -764.217180330625     IErMin= 6 ErrMin= 5.74D-04
 ErrMax= 5.74D-04  0.00D+00 EMaxC= 1.00D-01 BMatC= 7.91D-05 BMatP= 1.74D-02
 IDIUse=3 WtCom= 9.94D-01 WtEn= 5.74D-03
 Coeff-Com:  0.739D-03 0.301D-02 0.145D+00-0.649D-01 0.454D+00 0.463D+00
 Coeff-En:   0.000D+00 0.000D+00 0.000D+00 0.000D+00 0.000D+00 0.100D+01
 Coeff:      0.735D-03 0.299D-02 0.144D+00-0.646D-01 0.451D+00 0.466D+00
 Gap=     0.180 Goal=   None    Shift=    0.000
 RMSDP=4.68D-05 MaxDP=2.08D-03 DE=-1.59D-02 OVMax= 4.62D-03

 Cycle   7  Pass 0  IDiag  1:
 RMSU=  2.17D-05    CP:  9.37D-01  1.03D+00  7.27D-01  2.92D-01  8.93D-01
                    CP:  5.84D-01
 E= -764.217264427195     Delta-E=       -0.000084096570 Rises=F Damp=F
 DIIS: error= 1.82D-04 at cycle   7 NSaved=   7.
 NSaved= 7 IEnMin= 7 EnMin= -764.217264427195     IErMin= 7 ErrMin= 1.82D-04
 ErrMax= 1.82D-04  0.00D+00 EMaxC= 1.00D-01 BMatC= 6.26D-06 BMatP= 7.91D-05
 IDIUse=3 WtCom= 9.98D-01 WtEn= 1.82D-03
 Coeff-Com:  0.364D-03 0.171D-03 0.588D-01-0.295D-01 0.193D+00 0.257D+00
 Coeff-Com:  0.520D+00
 Coeff-En:   0.000D+00 0.000D+00 0.000D+00 0.000D+00 0.000D+00 0.000D+00
 Coeff-En:   0.100D+01
 Coeff:      0.363D-03 0.171D-03 0.587D-01-0.295D-01 0.193D+00 0.257D+00
 Coeff:      0.521D+00
 Gap=     0.180 Goal=   None    Shift=    0.000
 RMSDP=1.14D-05 MaxDP=6.21D-04 DE=-8.41D-05 OVMax= 1.19D-03

 Cycle   8  Pass 0  IDiag  1:
 RMSU=  7.15D-06    CP:  9.37D-01  1.03D+00  7.28D-01  2.91D-01  8.86D-01
                    CP:  6.13D-01  6.54D-01
 E= -764.217270633761     Delta-E=       -0.000006206566 Rises=F Damp=F
 DIIS: error= 7.93D-05 at cycle   8 NSaved=   8.
 NSaved= 8 IEnMin= 8 EnMin= -764.217270633761     IErMin= 8 ErrMin= 7.93D-05
 ErrMax= 7.93D-05  0.00D+00 EMaxC= 1.00D-01 BMatC= 1.00D-06 BMatP= 6.26D-06
 IDIUse=1 WtCom= 1.00D+00 WtEn= 0.00D+00
 Coeff-Com:  0.249D-03-0.885D-03 0.854D-02-0.444D-02 0.259D-01 0.651D-01
 Coeff-Com:  0.312D+00 0.594D+00
 Coeff:      0.249D-03-0.885D-03 0.854D-02-0.444D-02 0.259D-01 0.651D-01
 Coeff:      0.312D+00 0.594D+00
 Gap=     0.180 Goal=   None    Shift=    0.000
 RMSDP=4.38D-06 MaxDP=2.26D-04 DE=-6.21D-06 OVMax= 3.25D-04

 Initial convergence to 1.0D-05 achieved.  Increase integral accuracy.
 Cycle   9  Pass 1  IDiag  1:
 E= -764.217236301218     Delta-E=        0.000034332543 Rises=F Damp=F
 DIIS: error= 6.26D-05 at cycle   1 NSaved=   1.
 NSaved= 1 IEnMin= 1 EnMin= -764.217236301218     IErMin= 1 ErrMin= 6.26D-05
 ErrMax= 6.26D-05  0.00D+00 EMaxC= 1.00D-01 BMatC= 1.21D-06 BMatP= 1.21D-06
 IDIUse=1 WtCom= 1.00D+00 WtEn= 0.00D+00
 Coeff-Com:  0.100D+01
 Coeff:      0.100D+01
 Gap=     0.180 Goal=   None    Shift=    0.000
 RMSDP=4.38D-06 MaxDP=2.26D-04 DE= 3.43D-05 OVMax= 2.91D-04

 Cycle  10  Pass 1  IDiag  1:
 RMSU=  8.81D-05    CP:  1.00D+00
 E= -764.217237713415     Delta-E=       -0.000001412197 Rises=F Damp=F
 DIIS: error= 1.75D-05 at cycle   2 NSaved=   2.
 NSaved= 2 IEnMin= 2 EnMin= -764.217237713415     IErMin= 2 ErrMin= 1.75D-05
 ErrMax= 1.75D-05  0.00D+00 EMaxC= 1.00D-01 BMatC= 7.92D-08 BMatP= 1.21D-06
 IDIUse=1 WtCom= 1.00D+00 WtEn= 0.00D+00
 Coeff-Com:  0.828D-01 0.917D+00
 Coeff:      0.828D-01 0.917D+00
 Gap=     0.180 Goal=   None    Shift=    0.000
 RMSDP=3.24D-06 MaxDP=1.41D-04 DE=-1.41D-06 OVMax= 1.99D-04

 Cycle  11  Pass 1  IDiag  1:
 RMSU=  3.03D-06    CP:  1.00D+00  1.01D+00
 E= -764.217237593275     Delta-E=        0.000000120140 Rises=F Damp=F
 DIIS: error= 3.08D-05 at cycle   3 NSaved=   3.
 NSaved= 3 IEnMin= 2 EnMin= -764.217237713415     IErMin= 2 ErrMin= 1.75D-05
 ErrMax= 3.08D-05  0.00D+00 EMaxC= 1.00D-01 BMatC= 2.03D-07 BMatP= 7.92D-08
 IDIUse=1 WtCom= 1.00D+00 WtEn= 0.00D+00
 Coeff-Com: -0.364D-02 0.619D+00 0.385D+00
 Coeff:     -0.364D-02 0.619D+00 0.385D+00
 Gap=     0.180 Goal=   None    Shift=    0.000
 RMSDP=1.89D-06 MaxDP=9.45D-05 DE= 1.20D-07 OVMax= 1.44D-04

 Cycle  12  Pass 1  IDiag  1:
 RMSU=  5.34D-07    CP:  1.00D+00  1.02D+00  4.03D-01
 E= -764.217237786351     Delta-E=       -0.000000193076 Rises=F Damp=F
 DIIS: error= 3.38D-06 at cycle   4 NSaved=   4.
 NSaved= 4 IEnMin= 4 EnMin= -764.217237786351     IErMin= 4 ErrMin= 3.38D-06
 ErrMax= 3.38D-06  0.00D+00 EMaxC= 1.00D-01 BMatC= 3.70D-09 BMatP= 7.92D-08
 IDIUse=1 WtCom= 1.00D+00 WtEn= 0.00D+00
 Coeff-Com: -0.434D-02 0.354D+00 0.234D+00 0.417D+00
 Coeff:     -0.434D-02 0.354D+00 0.234D+00 0.417D+00
 Gap=     0.180 Goal=   None    Shift=    0.000
 RMSDP=2.69D-07 MaxDP=8.77D-06 DE=-1.93D-07 OVMax= 1.76D-05

 Cycle  13  Pass 1  IDiag  1:
 RMSU=  1.69D-07    CP:  1.00D+00  1.02D+00  4.15D-01  6.16D-01
 E= -764.217237790066     Delta-E=       -0.000000003715 Rises=F Damp=F
 DIIS: error= 6.27D-07 at cycle   5 NSaved=   5.
 NSaved= 5 IEnMin= 5 EnMin= -764.217237790066     IErMin= 5 ErrMin= 6.27D-07
 ErrMax= 6.27D-07  0.00D+00 EMaxC= 1.00D-01 BMatC= 7.59D-11 BMatP= 3.70D-09
 IDIUse=1 WtCom= 1.00D+00 WtEn= 0.00D+00
 Coeff-Com: -0.228D-02 0.177D+00 0.117D+00 0.230D+00 0.478D+00
 Coeff:     -0.228D-02 0.177D+00 0.117D+00 0.230D+00 0.478D+00
 Gap=     0.180 Goal=   None    Shift=    0.000
 RMSDP=4.46D-08 MaxDP=1.53D-06 DE=-3.72D-09 OVMax= 2.85D-06

 Cycle  14  Pass 1  IDiag  1:
 RMSU=  4.15D-08    CP:  1.00D+00  1.02D+00  4.11D-01  6.25D-01  9.37D-01
 E= -764.217237790132     Delta-E=       -0.000000000065 Rises=F Damp=F
 DIIS: error= 2.39D-07 at cycle   6 NSaved=   6.
 NSaved= 6 IEnMin= 6 EnMin= -764.217237790132     IErMin= 6 ErrMin= 2.39D-07
 ErrMax= 2.39D-07  0.00D+00 EMaxC= 1.00D-01 BMatC= 1.09D-11 BMatP= 7.59D-11
 IDIUse=1 WtCom= 1.00D+00 WtEn= 0.00D+00
 Coeff-Com: -0.654D-03 0.481D-01 0.320D-01 0.699D-01 0.294D+00 0.556D+00
 Coeff:     -0.654D-03 0.481D-01 0.320D-01 0.699D-01 0.294D+00 0.556D+00
 Gap=     0.180 Goal=   None    Shift=    0.000
 RMSDP=2.21D-08 MaxDP=7.17D-07 DE=-6.55D-11 OVMax= 1.37D-06

 Cycle  15  Pass 1  IDiag  1:
 RMSU=  1.83D-08    CP:  1.00D+00  1.02D+00  4.11D-01  6.27D-01  9.62D-01
                    CP:  7.31D-01
 E= -764.217237790138     Delta-E=       -0.000000000007 Rises=F Damp=F
 DIIS: error= 8.22D-08 at cycle   7 NSaved=   7.
 NSaved= 7 IEnMin= 7 EnMin= -764.217237790138     IErMin= 7 ErrMin= 8.22D-08
 ErrMax= 8.22D-08  0.00D+00 EMaxC= 1.00D-01 BMatC= 1.99D-12 BMatP= 1.09D-11
 IDIUse=1 WtCom= 1.00D+00 WtEn= 0.00D+00
 Coeff-Com: -0.130D-03 0.847D-02 0.572D-02 0.152D-01 0.122D+00 0.360D+00
 Coeff-Com:  0.488D+00
 Coeff:     -0.130D-03 0.847D-02 0.572D-02 0.152D-01 0.122D+00 0.360D+00
 Coeff:      0.488D+00
 Gap=     0.180 Goal=   None    Shift=    0.000
 RMSDP=8.03D-09 MaxDP=3.11D-07 DE=-6.59D-12 OVMax= 5.70D-07

 SCF Done:  E(RB3LYP) =  -764.217237790     A.U. after   15 cycles
            NFock= 15  Conv=0.80D-08     -V/T= 2.0091
 KE= 7.573039572420D+02 PE=-4.162635692822D+03 EE= 1.446927315885D+03
 Leave Link  502 at Sun Feb 25 23:03:19 2024, MaxMem=  7516192768 cpu:             292.1 elap:               7.3
 (Enter /public/apps/g16-C01//g16/l601.exe)
 Copying SCF densities to generalized density rwf, IOpCl= 0 IROHF=0.

 **********************************************************************

            Population analysis using the SCF Density.

 **********************************************************************

 Alpha  occ. eigenvalues --  -19.16994 -14.32595 -14.30290 -10.27252 -10.23800
 Alpha  occ. eigenvalues --  -10.23691 -10.22415 -10.21747 -10.21162 -10.20344
 Alpha  occ. eigenvalues --  -10.20272 -10.18284 -10.18034 -10.17342 -10.17279
 Alpha  occ. eigenvalues --  -10.17169 -10.17057 -10.16328  -1.08872  -0.95480
 Alpha  occ. eigenvalues --   -0.90492  -0.84604  -0.81045  -0.80394  -0.77111
 Alpha  occ. eigenvalues --   -0.73797  -0.72965  -0.68478  -0.65564  -0.63969
 Alpha  occ. eigenvalues --   -0.61053  -0.59451  -0.58014  -0.56860  -0.53721
 Alpha  occ. eigenvalues --   -0.51497  -0.50169  -0.49800  -0.49193  -0.46839
 Alpha  occ. eigenvalues --   -0.46427  -0.44647  -0.44276  -0.43216  -0.42562
 Alpha  occ. eigenvalues --   -0.41689  -0.41156  -0.40784  -0.39667  -0.38703
 Alpha  occ. eigenvalues --   -0.37874  -0.37008  -0.36142  -0.35062  -0.33250
 Alpha  occ. eigenvalues --   -0.32875  -0.30356  -0.28087  -0.27278  -0.25848
 Alpha  occ. eigenvalues --   -0.25020  -0.24524  -0.23656
 Alpha virt. eigenvalues --   -0.05671  -0.02942   0.00348   0.00582   0.05139
 Alpha virt. eigenvalues --    0.06163   0.06846   0.07350   0.08762   0.09768
 Alpha virt. eigenvalues --    0.10066   0.11516   0.11579   0.12857   0.13296
 Alpha virt. eigenvalues --    0.14094   0.14503   0.15478   0.15592   0.16497
 Alpha virt. eigenvalues --    0.17654   0.18335   0.19140   0.22035   0.22704
 Alpha virt. eigenvalues --    0.23931   0.25802   0.26086   0.27631   0.29217
 Alpha virt. eigenvalues --    0.30965   0.31741   0.32047   0.32332   0.33249
 Alpha virt. eigenvalues --    0.34292   0.35336   0.36821   0.38311   0.39618
 Alpha virt. eigenvalues --    0.40769   0.41564   0.42535   0.43075   0.44480
 Alpha virt. eigenvalues --    0.44858   0.45185   0.45339   0.45946   0.47888
 Alpha virt. eigenvalues --    0.48095   0.48635   0.49716   0.50663   0.51501
 Alpha virt. eigenvalues --    0.51969   0.52652   0.53492   0.54259   0.55530
 Alpha virt. eigenvalues --    0.56455   0.56741   0.57055   0.58499   0.58915
 Alpha virt. eigenvalues --    0.59980   0.61478   0.61817   0.63137   0.63788
 Alpha virt. eigenvalues --    0.64218   0.65580   0.66369   0.67115   0.67301
 Alpha virt. eigenvalues --    0.67544   0.67617   0.68951   0.69112   0.69855
 Alpha virt. eigenvalues --    0.70757   0.71150   0.71588   0.71893   0.72459
 Alpha virt. eigenvalues --    0.73036   0.73237   0.74284   0.74445   0.74898
 Alpha virt. eigenvalues --    0.76304   0.76468   0.77415   0.78798   0.79321
 Alpha virt. eigenvalues --    0.81120   0.82804   0.84017   0.84506   0.86140
 Alpha virt. eigenvalues --    0.88591   0.89938   0.91708   0.94052   0.96533
 Alpha virt. eigenvalues --    0.98225   0.98754   1.03443   1.04473   1.06014
 Alpha virt. eigenvalues --    1.10160   1.11654   1.12740   1.13753   1.14453
 Alpha virt. eigenvalues --    1.18145   1.19599   1.20564   1.26047   1.26539
 Alpha virt. eigenvalues --    1.28829   1.30198   1.31346   1.33955   1.36072
 Alpha virt. eigenvalues --    1.37936   1.41307   1.42710   1.43870   1.46949
 Alpha virt. eigenvalues --    1.47190   1.48962   1.49878   1.49979   1.50567
 Alpha virt. eigenvalues --    1.52050   1.55469   1.59982   1.60300   1.63155
 Alpha virt. eigenvalues --    1.64887   1.69361   1.76470   1.76977   1.78869
 Alpha virt. eigenvalues --    1.79284   1.79819   1.80250   1.82105   1.83313
 Alpha virt. eigenvalues --    1.85111   1.85889   1.88745   1.89743   1.90267
 Alpha virt. eigenvalues --    1.91940   1.92536   1.95133   1.99254   1.99793
 Alpha virt. eigenvalues --    2.01160   2.02271   2.03850   2.05565   2.07694
 Alpha virt. eigenvalues --    2.09020   2.10564   2.13358   2.13898   2.14313
 Alpha virt. eigenvalues --    2.15656   2.17724   2.20068   2.22700   2.23490
 Alpha virt. eigenvalues --    2.24717   2.28410   2.29609   2.31513   2.32386
 Alpha virt. eigenvalues --    2.33812   2.40402   2.40729   2.41257   2.45130
 Alpha virt. eigenvalues --    2.46760   2.46838   2.49669   2.52991   2.55236
 Alpha virt. eigenvalues --    2.58125   2.61841   2.65396   2.67045   2.68903
 Alpha virt. eigenvalues --    2.70970   2.71986   2.73662   2.74208   2.76156
 Alpha virt. eigenvalues --    2.79118   2.81955   2.82705   2.82795   2.85989
 Alpha virt. eigenvalues --    2.87156   2.89357   2.98018   2.99536   3.05167
 Alpha virt. eigenvalues --    3.14090   3.20146   3.28423   3.37889   3.42085
 Alpha virt. eigenvalues --    3.50580   3.63489
          Condensed to atoms (all electrons):
               1          2          3          4          5          6
     1  C    5.302551   0.171159   0.165995  -0.209672  -0.000284  -0.000040
     2  C    0.171159   5.234163   0.183877   0.170060   0.015998  -0.000249
     3  C    0.165995   0.183877   5.392433   0.200740  -0.101298  -0.003062
     4  C   -0.209672   0.170060   0.200740   5.216923   0.383035  -0.028209
     5  C   -0.000284   0.015998  -0.101298   0.383035   5.021362   0.360189
     6  C   -0.000040  -0.000249  -0.003062  -0.028209   0.360189   4.929964
     7  C    0.000001   0.000005  -0.000374   0.004543  -0.032064   0.295108
     8  O    0.000000  -0.000000  -0.000000  -0.000237   0.002688  -0.068532
     9  C    0.000000  -0.000001   0.000012   0.000158  -0.003630  -0.062330
    10  C    0.000000   0.000000  -0.000000   0.000210  -0.000553   0.020631
    11  C    0.000000  -0.000000   0.000000   0.000004  -0.000025  -0.000040
    12  C    0.000000  -0.000000   0.000000  -0.000000  -0.000000   0.000005
    13  C    0.000000  -0.000000   0.000000   0.000000  -0.000000   0.000007
    14  C    0.000000  -0.000000   0.000000  -0.000000  -0.000001   0.000006
    15  N    0.000000  -0.000000   0.000000   0.000012  -0.000030  -0.000153
    16  N    0.000027  -0.000005  -0.000099  -0.026328  -0.060652   0.369489
    17  C    0.170960  -0.185871   0.106691   0.172447  -0.108645  -0.014562
    18  C    0.150208   0.169903  -0.195754   0.176101   0.013908   0.001105
    19  H    0.440800  -0.086250   0.016656  -0.001950   0.000036   0.000000
    20  H   -0.088905   0.441555  -0.086967   0.018433  -0.000423   0.000003
    21  H    0.016414  -0.085228   0.432975  -0.081683  -0.022792   0.000493
    22  H    0.000020   0.000580  -0.012227  -0.011844   0.318978  -0.018016
    23  H    0.000092  -0.000791   0.007728   0.004894   0.300817  -0.004633
    24  H   -0.000049  -0.000408   0.004215   0.009382  -0.051557   0.347718
    25  H   -0.000000   0.000000   0.000003  -0.000581   0.005273   0.003373
    26  H   -0.000000  -0.000001   0.000023   0.001916  -0.014576  -0.007246
    27  H   -0.000000   0.000000  -0.000000   0.000000  -0.000005   0.000115
    28  H    0.000000  -0.000000   0.000000  -0.000000   0.000000  -0.000000
    29  H   -0.000000   0.000000  -0.000000  -0.000000   0.000000   0.000000
    30  H   -0.000000   0.000000  -0.000000  -0.000000   0.000000  -0.000002
    31  H    0.015711  -0.002620   0.017903  -0.075106  -0.019485  -0.007614
    32  H   -0.091257   0.017158  -0.002199   0.017886  -0.000447   0.000019
               7          8          9         10         11         12
     1  C    0.000001   0.000000   0.000000   0.000000   0.000000   0.000000
     2  C    0.000005  -0.000000  -0.000001   0.000000  -0.000000  -0.000000
     3  C   -0.000374  -0.000000   0.000012  -0.000000   0.000000   0.000000
     4  C    0.004543  -0.000237   0.000158   0.000210   0.000004  -0.000000
     5  C   -0.032064   0.002688  -0.003630  -0.000553  -0.000025  -0.000000
     6  C    0.295108  -0.068532  -0.062330   0.020631  -0.000040   0.000005
     7  C    4.798604   0.334440  -0.120810   0.001999  -0.001106  -0.000001
     8  O    0.334440   7.880240   0.421922  -0.130657   0.020709   0.000926
     9  C   -0.120810   0.421922   5.253505  -0.011283  -0.123974   0.012791
    10  C    0.001999  -0.130657  -0.011283   5.458392   0.340767   0.032041
    11  C   -0.001106   0.020709  -0.123974   0.340767   5.269027   0.311610
    12  C   -0.000001   0.000926   0.012791   0.032041   0.311610   5.014775
    13  C   -0.000000  -0.000027   0.000747  -0.090370   0.073188   0.344594
    14  C    0.000016  -0.000034   0.010200  -0.031149  -0.104964   0.037315
    15  N   -0.000174   0.000966  -0.108813   0.578561  -0.057699  -0.057100
    16  N   -0.053420  -0.098221   0.626564  -0.121516   0.008172  -0.000079
    17  C    0.001445   0.000007  -0.000339   0.000022  -0.000006  -0.000000
    18  C    0.000017   0.000000  -0.000008  -0.000010  -0.000000   0.000000
    19  H    0.000000   0.000000  -0.000000  -0.000000   0.000000   0.000000
    20  H   -0.000000   0.000000   0.000000  -0.000000  -0.000000  -0.000000
    21  H   -0.000058   0.000000  -0.000001  -0.000000   0.000000   0.000000
    22  H   -0.005009  -0.000098   0.000200   0.000034  -0.000001   0.000000
    23  H   -0.009768  -0.000052   0.005238  -0.000950  -0.000004  -0.000000
    24  H   -0.028063   0.003080   0.004272  -0.001000   0.000017  -0.000000
    25  H    0.341461  -0.029338   0.007636   0.000559  -0.000061  -0.000004
    26  H    0.345582  -0.029738   0.008857   0.000067   0.000054   0.000001
    27  H    0.000166   0.011605  -0.018055  -0.044360   0.417605  -0.074100
    28  H   -0.000001  -0.000018  -0.000651   0.013997  -0.075933   0.436483
    29  H    0.000000  -0.000000   0.000150   0.000774   0.012743  -0.071745
    30  H    0.000000   0.000002  -0.000250   0.006765   0.001385   0.006963
    31  H    0.000789   0.000146   0.001574  -0.000859   0.000034   0.000004
    32  H   -0.000001  -0.000000  -0.000000   0.000000  -0.000000  -0.000000
              13         14         15         16         17         18
     1  C    0.000000   0.000000   0.000000   0.000027   0.170960   0.150208
     2  C   -0.000000  -0.000000  -0.000000  -0.000005  -0.185871   0.169903
     3  C    0.000000   0.000000   0.000000  -0.000099   0.106691  -0.195754
     4  C    0.000000  -0.000000   0.000012  -0.026328   0.172447   0.176101
     5  C   -0.000000  -0.000001  -0.000030  -0.060652  -0.108645   0.013908
     6  C    0.000007   0.000006  -0.000153   0.369489  -0.014562   0.001105
     7  C   -0.000000   0.000016  -0.000174  -0.053420   0.001445   0.000017
     8  O   -0.000027  -0.000034   0.000966  -0.098221   0.000007   0.000000
     9  C    0.000747   0.010200  -0.108813   0.626564  -0.000339  -0.000008
    10  C   -0.090370  -0.031149   0.578561  -0.121516   0.000022  -0.000010
    11  C    0.073188  -0.104964  -0.057699   0.008172  -0.000006  -0.000000
    12  C    0.344594   0.037315  -0.057100  -0.000079  -0.000000   0.000000
    13  C    5.119266   0.368033  -0.019511  -0.000034  -0.000000  -0.000000
    14  C    0.368033   4.866098   0.529572   0.000242  -0.000008  -0.000000
    15  N   -0.019511   0.529572   6.201701  -0.000129  -0.000502  -0.000006
    16  N   -0.000034   0.000242  -0.000129   6.448126   0.006084   0.000331
    17  C   -0.000000  -0.000008  -0.000502   0.006084   5.421469   0.163874
    18  C   -0.000000  -0.000000  -0.000006   0.000331   0.163874   5.268292
    19  H   -0.000000   0.000000   0.000000   0.000000   0.016257  -0.085501
    20  H   -0.000000  -0.000000  -0.000000  -0.000000  -0.002357   0.016944
    21  H    0.000000   0.000000   0.000000   0.000002   0.018696  -0.002174
    22  H    0.000000   0.000000   0.000000   0.006242   0.013915  -0.000479
    23  H    0.000000   0.000001  -0.000001  -0.003220  -0.012581   0.000089
    24  H   -0.000000   0.000000   0.000022  -0.028360  -0.003342  -0.000248
    25  H    0.000000  -0.000001   0.000005   0.001730  -0.000015  -0.000000
    26  H    0.000000  -0.000001   0.000004   0.002455  -0.000122   0.000000
    27  H    0.012637  -0.000232   0.005492   0.000730   0.000000   0.000000
    28  H   -0.076682   0.011831  -0.000170  -0.000000  -0.000000  -0.000000
    29  H    0.408626  -0.053040   0.005935  -0.000000   0.000000   0.000000
    30  H   -0.084287   0.409954  -0.047162   0.000006   0.000005   0.000000
    31  H    0.000003   0.000068   0.003234   0.031510   0.431105  -0.082657
    32  H   -0.000000  -0.000000  -0.000003  -0.000053  -0.086499   0.445312
              19         20         21         22         23         24
     1  C    0.440800  -0.088905   0.016414   0.000020   0.000092  -0.000049
     2  C   -0.086250   0.441555  -0.085228   0.000580  -0.000791  -0.000408
     3  C    0.016656  -0.086967   0.432975  -0.012227   0.007728   0.004215
     4  C   -0.001950   0.018433  -0.081683  -0.011844   0.004894   0.009382
     5  C    0.000036  -0.000423  -0.022792   0.318978   0.300817  -0.051557
     6  C    0.000000   0.000003   0.000493  -0.018016  -0.004633   0.347718
     7  C    0.000000  -0.000000  -0.000058  -0.005009  -0.009768  -0.028063
     8  O    0.000000   0.000000   0.000000  -0.000098  -0.000052   0.003080
     9  C   -0.000000   0.000000  -0.000001   0.000200   0.005238   0.004272
    10  C   -0.000000  -0.000000  -0.000000   0.000034  -0.000950  -0.001000
    11  C    0.000000  -0.000000   0.000000  -0.000001  -0.000004   0.000017
    12  C    0.000000  -0.000000   0.000000   0.000000  -0.000000  -0.000000
    13  C   -0.000000  -0.000000   0.000000   0.000000   0.000000  -0.000000
    14  C    0.000000  -0.000000   0.000000   0.000000   0.000001   0.000000
    15  N    0.000000  -0.000000   0.000000   0.000000  -0.000001   0.000022
    16  N    0.000000  -0.000000   0.000002   0.006242  -0.003220  -0.028360
    17  C    0.016257  -0.002357   0.018696   0.013915  -0.012581  -0.003342
    18  C   -0.085501   0.016944  -0.002174  -0.000479   0.000089  -0.000248
    19  H    0.685354  -0.013562  -0.000338  -0.000002  -0.000001  -0.000001
    20  H   -0.013562   0.689562  -0.013787  -0.000023   0.000013   0.000005
    21  H   -0.000338  -0.013787   0.699344   0.011423   0.000501   0.000302
    22  H   -0.000002  -0.000023   0.011423   0.659289  -0.028676  -0.002421
    23  H   -0.000001   0.000013   0.000501  -0.028676   0.647955   0.010349
    24  H   -0.000001   0.000005   0.000302  -0.002421   0.010349   0.662949
    25  H   -0.000000   0.000000  -0.000001   0.000060  -0.000295  -0.012558
    26  H   -0.000000  -0.000000   0.000006   0.004041   0.006921   0.007013
    27  H   -0.000000  -0.000000  -0.000000   0.000000  -0.000003  -0.000006
    28  H    0.000000  -0.000000   0.000000  -0.000000   0.000000   0.000000
    29  H    0.000000   0.000000  -0.000000   0.000000  -0.000000  -0.000000
    30  H   -0.000000   0.000000  -0.000000   0.000000  -0.000000  -0.000000
    31  H   -0.000240   0.000030  -0.000248   0.000206   0.003951   0.000796
    32  H   -0.013415  -0.000328   0.000046   0.000014   0.000006   0.000005
              25         26         27         28         29         30
     1  C   -0.000000  -0.000000  -0.000000   0.000000  -0.000000  -0.000000
     2  C    0.000000  -0.000001   0.000000  -0.000000   0.000000   0.000000
     3  C    0.000003   0.000023  -0.000000   0.000000  -0.000000  -0.000000
     4  C   -0.000581   0.001916   0.000000  -0.000000  -0.000000  -0.000000
     5  C    0.005273  -0.014576  -0.000005   0.000000   0.000000   0.000000
     6  C    0.003373  -0.007246   0.000115  -0.000000   0.000000  -0.000002
     7  C    0.341461   0.345582   0.000166  -0.000001   0.000000   0.000000
     8  O   -0.029338  -0.029738   0.011605  -0.000018  -0.000000   0.000002
     9  C    0.007636   0.008857  -0.018055  -0.000651   0.000150  -0.000250
    10  C    0.000559   0.000067  -0.044360   0.013997   0.000774   0.006765
    11  C   -0.000061   0.000054   0.417605  -0.075933   0.012743   0.001385
    12  C   -0.000004   0.000001  -0.074100   0.436483  -0.071745   0.006963
    13  C    0.000000   0.000000   0.012637  -0.076682   0.408626  -0.084287
    14  C   -0.000001  -0.000001  -0.000232   0.011831  -0.053040   0.409954
    15  N    0.000005   0.000004   0.005492  -0.000170   0.005935  -0.047162
    16  N    0.001730   0.002455   0.000730  -0.000000  -0.000000   0.000006
    17  C   -0.000015  -0.000122   0.000000  -0.000000   0.000000   0.000005
    18  C   -0.000000   0.000000   0.000000  -0.000000   0.000000   0.000000
    19  H   -0.000000  -0.000000  -0.000000   0.000000   0.000000  -0.000000
    20  H    0.000000  -0.000000  -0.000000  -0.000000   0.000000   0.000000
    21  H   -0.000001   0.000006  -0.000000   0.000000  -0.000000  -0.000000
    22  H    0.000060   0.004041   0.000000  -0.000000   0.000000   0.000000
    23  H   -0.000295   0.006921  -0.000003   0.000000  -0.000000  -0.000000
    24  H   -0.012558   0.007013  -0.000006   0.000000  -0.000000  -0.000000
    25  H    0.633200  -0.037849  -0.000062   0.000000  -0.000000   0.000000
    26  H   -0.037849   0.632761   0.000008  -0.000000  -0.000000  -0.000000
    27  H   -0.000062   0.000008   0.630818  -0.010488  -0.000147   0.000088
    28  H    0.000000  -0.000000  -0.010488   0.649563  -0.011957  -0.000322
    29  H   -0.000000  -0.000000  -0.000147  -0.011957   0.649407  -0.005811
    30  H    0.000000  -0.000000   0.000088  -0.000322  -0.005811   0.643952
    31  H   -0.000028  -0.000012  -0.000004   0.000000  -0.000000  -0.000040
    32  H    0.000000   0.000000   0.000000  -0.000000   0.000000   0.000000
              31         32
     1  C    0.015711  -0.091257
     2  C   -0.002620   0.017158
     3  C    0.017903  -0.002199
     4  C   -0.075106   0.017886
     5  C   -0.019485  -0.000447
     6  C   -0.007614   0.000019
     7  C    0.000789  -0.000001
     8  O    0.000146  -0.000000
     9  C    0.001574  -0.000000
    10  C   -0.000859   0.000000
    11  C    0.000034  -0.000000
    12  C    0.000004  -0.000000
    13  C    0.000003  -0.000000
    14  C    0.000068  -0.000000
    15  N    0.003234  -0.000003
    16  N    0.031510  -0.000053
    17  C    0.431105  -0.086499
    18  C   -0.082657   0.445312
    19  H   -0.000240  -0.013415
    20  H    0.000030  -0.000328
    21  H   -0.000248   0.000046
    22  H    0.000206   0.000014
    23  H    0.003951   0.000006
    24  H    0.000796   0.000005
    25  H   -0.000028   0.000000
    26  H   -0.000012   0.000000
    27  H   -0.000004   0.000000
    28  H    0.000000  -0.000000
    29  H   -0.000000   0.000000
    30  H   -0.000040   0.000000
    31  H    0.623870  -0.012789
    32  H   -0.012789   0.682650
 Mulliken charges:
               1
     1  C   -0.043732
     2  C   -0.043034
     3  C   -0.127272
     4  C    0.058865
     5  C   -0.005816
     6  C   -0.113539
     7  C    0.126671
     8  O   -0.319778
     9  C    0.096322
    10  C   -0.022114
    11  C   -0.091503
    12  C    0.005521
    13  C   -0.056191
    14  C   -0.043906
    15  N   -0.034052
    16  N   -0.109595
    17  C   -0.108128
    18  C   -0.039248
    19  H    0.042156
    20  H    0.039807
    21  H    0.026108
    22  H    0.063793
    23  H    0.072420
    24  H    0.077892
    25  H    0.087492
    26  H    0.079836
    27  H    0.068199
    28  H    0.064347
    29  H    0.065066
    30  H    0.068753
    31  H    0.070766
    32  H    0.043896
 Sum of Mulliken charges =  -0.00000
 Mulliken charges with hydrogens summed into heavy atoms:
               1
     1  C   -0.001576
     2  C   -0.003227
     3  C   -0.101164
     4  C    0.058865
     5  C    0.130397
     6  C   -0.035647
     7  C    0.293998
     8  O   -0.319778
     9  C    0.096322
    10  C   -0.022114
    11  C   -0.023304
    12  C    0.069868
    13  C    0.008875
    14  C    0.024847
    15  N   -0.034052
    16  N   -0.109595
    17  C   -0.037362
    18  C    0.004647
 Electronic spatial extent (au):  <R**2>=           5969.8491
 Charge=              0.0000 electrons
 Dipole moment (field-independent basis, Debye):
    X=              1.9352    Y=             -2.2337    Z=             -0.2244  Tot=              2.9639
 Quadrupole moment (field-independent basis, Debye-Ang):
   XX=            -84.9893   YY=            -97.7046   ZZ=           -107.4173
   XY=              3.2413   XZ=             -1.6753   YZ=              0.1275
 Traceless Quadrupole moment (field-independent basis, Debye-Ang):
   XX=             11.7144   YY=             -1.0009   ZZ=            -10.7135
   XY=              3.2413   XZ=             -1.6753   YZ=              0.1275
 Octapole moment (field-independent basis, Debye-Ang**2):
  XXX=            107.5926  YYY=             -1.9142  ZZZ=              2.0926  XYY=              3.7072
  XXY=             -7.7922  XXZ=              3.6891  XZZ=              7.8187  YZZ=            -10.6311
  YYZ=              6.8187  XYZ=             -5.5178
 Hexadecapole moment (field-independent basis, Debye-Ang**3):
 XXXX=          -5621.4682 YYYY=          -1660.4365 ZZZZ=           -184.5171 XXXY=            554.0441
 XXXZ=            -59.2252 YYYX=            569.8881 YYYZ=            -10.9459 ZZZX=              0.7280
 ZZZY=            -26.0995 XXYY=          -1253.2203 XXZZ=          -1175.1034 YYZZ=           -329.4644
 XXYZ=             20.9089 YYXZ=            -20.2764 ZZXY=            213.5567
 N-N= 1.194187181905D+03 E-N=-4.162635707186D+03  KE= 7.573039572420D+02
 No NMR shielding tensors so no spin-rotation constants.
 Leave Link  601 at Sun Feb 25 23:03:19 2024, MaxMem=  7516192768 cpu:               4.2 elap:               0.1
 (Enter /public/apps/g16-C01//g16/l701.exe)
 ... and contract with generalized density number  0.
 Compute integral first derivatives.
 R6Disp: Adding Grimme-D3(BJ) dispersion energy 1st derivatives to the gradient.
   1 Symmetry operations used in ECPInt.
 ECPInt:  NShTT=    9316 NPrTT=   37404 LenC2=    8513 LenP2D=   23541.
 LDataN:  DoStor=T MaxTD1= 5 Len=  102
 Leave Link  701 at Sun Feb 25 23:03:19 2024, MaxMem=  7516192768 cpu:               6.9 elap:               0.2
 (Enter /public/apps/g16-C01//g16/l702.exe)
 L702 exits ... SP integral derivatives will be done elsewhere.
 Leave Link  702 at Sun Feb 25 23:03:19 2024, MaxMem=  7516192768 cpu:               0.7 elap:               0.0
 (Enter /public/apps/g16-C01//g16/l703.exe)
 Integral derivatives from FoFJK, PRISM(SPDF).
 Compute integral first derivatives, UseDBF=F ICtDFT=           0.
 Calling FoFJK, ICntrl=      2127 FMM=F ISym2X=0 I1Cent= 0 IOpClX= 0 NMat=1 NMatS=1 NMatT=0.
 FoFJK:  IHMeth= 1 ICntrl=    2127 DoSepK=F KAlg= 0 I1Cent=           0 FoldK=F
 IRaf=         0 NMat=       1 IRICut=       1 DoRegI=T DoRafI=F ISym2E= 0 IDoP0=0 IntGTp=1.
 FoFCou: FMM=F IPFlag=           0 FMFlag=      100000 FMFlg1=         800
         NFxFlg=           0 DoJE=F BraDBF=F KetDBF=F FulRan=T
         wScrn=  0.000000 ICntrl=      2127 IOpCl=  0 I1Cent=           0 NGrid=           0
         NMat0=    1 NMatS0=      1 NMatT0=    0 NMatD0=    1 NMtDS0=    0 NMtDT0=    0
 Symmetry not used in FoFCou.
 Leave Link  703 at Sun Feb 25 23:03:21 2024, MaxMem=  7516192768 cpu:              63.3 elap:               1.6
 (Enter /public/apps/g16-C01//g16/l716.exe)
 Dipole        = 7.61360156D-01-8.78814526D-01-8.82763302D-02
 -------------------------------------------------------------------
 Center     Atomic                   Forces (Hartrees/Bohr)
 Number     Number              X              Y              Z
 -------------------------------------------------------------------
      1        6          -0.002786224    0.003846338    0.001431212
      2        6          -0.004809431    0.000142619    0.001022139
      3        6          -0.001606239   -0.002058063   -0.000156794
      4        6           0.002958630   -0.008982603   -0.005442854
      5        6           0.000043342    0.004708385    0.010555669
      6        6           0.000933142   -0.008672868   -0.007185165
      7        6          -0.006183971    0.001457302    0.001944471
      8        8           0.011472948   -0.000933393   -0.000836484
      9        6          -0.006414723   -0.004099832    0.000583530
     10        6           0.003385172   -0.004967603   -0.001221792
     11        6          -0.002205496   -0.000956875   -0.000043278
     12        6           0.002348062    0.000090967   -0.000053300
     13        6           0.001931225   -0.001366679   -0.000152345
     14        6           0.000625341    0.003338382    0.000146948
     15        7          -0.010948951    0.004574472    0.000846405
     16        7           0.000180889    0.014815740    0.003572154
     17        6           0.003568339    0.002493531   -0.000809869
     18        6           0.001744507    0.003292296    0.000264841
     19        1          -0.004909082    0.008468753    0.002544753
     20        1          -0.009952781   -0.000208761    0.001284702
     21        1          -0.004609362   -0.008399945   -0.001395442
     22        1          -0.004873597   -0.005593713   -0.002401191
     23        1           0.004184355   -0.001984089   -0.006757357
     24        1          -0.003898482   -0.000796207    0.004295743
     25        1          -0.001056009   -0.005034318    0.004186303
     26        1          -0.001883857   -0.003473238   -0.005112920
     27        1          -0.001495679   -0.009226661   -0.000161340
     28        1           0.007684069   -0.005838974   -0.000579288
     29        1           0.009292629    0.004821962   -0.000563402
     30        1           0.003054337    0.010963978   -0.000046380
     31        1           0.008925828    0.000870288   -0.000957819
     32        1           0.005301070    0.008708808    0.001198150
 -------------------------------------------------------------------
 Cartesian Forces:  Max     0.014815740 RMS     0.004891475
 Leave Link  716 at Sun Feb 25 23:03:21 2024, MaxMem=  7516192768 cpu:               0.9 elap:               0.0
 (Enter /public/apps/g16-C01//g16/l103.exe)

 GradGradGradGradGradGradGradGradGradGradGradGradGradGradGradGradGradGrad
 Berny optimization.
 FormGI is forming the generalized inverse of G from B-inverse, IUseBI=4.
 Internal  Forces:  Max     0.016488128 RMS     0.005022861
 Search for a local minimum.
 Step number   1 out of a maximum of  183
 All quantities printed in internal units (Hartrees-Bohrs-Radians)
 RMS Force = .50229D-02 SwitMx=.10000D-02 MixMth= 1
 Mixed Optimization -- RFO/linear search
 Second derivative matrix not updated -- first step.
 ITU=  0
     Eigenvalues ---    0.00274   0.00612   0.00720   0.01268   0.01623
     Eigenvalues ---    0.01859   0.01946   0.02214   0.02240   0.02247
     Eigenvalues ---    0.02253   0.02267   0.02272   0.02287   0.02288
     Eigenvalues ---    0.02291   0.02293   0.02298   0.02300   0.02303
     Eigenvalues ---    0.02403   0.02492   0.02605   0.04096   0.04247
     Eigenvalues ---    0.04810   0.05126   0.05518   0.05688   0.07653
     Eigenvalues ---    0.09140   0.10787   0.11222   0.12711   0.15344
     Eigenvalues ---    0.15996   0.16000   0.16000   0.16000   0.16000
     Eigenvalues ---    0.16000   0.16000   0.16000   0.16000   0.20082
     Eigenvalues ---    0.22000   0.22000   0.22000   0.22007   0.22428
     Eigenvalues ---    0.23478   0.24430   0.24642   0.24999   0.25000
     Eigenvalues ---    0.25000   0.26580   0.28769   0.32015   0.34163
     Eigenvalues ---    0.34334   0.34434   0.34481   0.34538   0.35727
     Eigenvalues ---    0.35795   0.35917   0.35918   0.35944   0.35965
     Eigenvalues ---    0.36119   0.36121   0.36209   0.36712   0.37616
     Eigenvalues ---    0.41282   0.42933   0.43446   0.43467   0.45759
     Eigenvalues ---    0.46898   0.47645   0.47917   0.48021   0.48322
     Eigenvalues ---    0.48474   0.49262   0.57927   0.61080   0.73863
 RFO step:  Lambda=-1.09387361D-02 EMin= 2.74002848D-03
 Linear search not attempted -- first point.
 Iteration  1 RMS(Cart)=  0.09970983 RMS(Int)=  0.00080416
 Iteration  2 RMS(Cart)=  0.00399137 RMS(Int)=  0.00008530
 Iteration  3 RMS(Cart)=  0.00000638 RMS(Int)=  0.00008527
 Iteration  4 RMS(Cart)=  0.00000000 RMS(Int)=  0.00008527
 ITry= 1 IFail=0 DXMaxC= 4.22D-01 DCOld= 1.00D+10 DXMaxT= 3.00D-01 DXLimC= 3.00D+00 Rises=F
 Variable       Old X    -DE/DX   Delta X   Delta X   Delta X     New X
                                 (Linear)    (Quad)   (Total)
    R1        2.61453   0.01364   0.00000   0.02745   0.02744   2.64197
    R2        2.61775   0.01428   0.00000   0.02899   0.02898   2.64673
    R3        2.04169   0.01011   0.00000   0.02731   0.02731   2.06900
    R4        2.61633   0.01499   0.00000   0.03029   0.03029   2.64662
    R5        2.04210   0.01004   0.00000   0.02712   0.02712   2.06921
    R6        2.62319   0.01473   0.00000   0.03024   0.03024   2.65344
    R7        2.04403   0.00968   0.00000   0.02623   0.02623   2.07026
    R8        2.84116   0.00960   0.00000   0.02900   0.02900   2.87016
    R9        2.62671   0.01649   0.00000   0.03414   0.03414   2.66085
   R10        2.90487   0.00561   0.00000   0.01879   0.01879   2.92366
   R11        2.06432   0.00768   0.00000   0.02156   0.02156   2.08588
   R12        2.06604   0.00757   0.00000   0.02130   0.02130   2.08734
   R13        2.94133   0.00476   0.00000   0.01345   0.01347   2.95481
   R14        2.72431   0.01329   0.00000   0.03223   0.03227   2.75657
   R15        2.07056   0.00555   0.00000   0.01574   0.01574   2.08630
   R16        2.68561   0.00958   0.00000   0.02159   0.02157   2.70717
   R17        2.06526   0.00654   0.00000   0.01837   0.01837   2.08363
[...]
 14703,0.00096948,-0.00193921,-0.00043161,0.00009798,-0.00372317,0.0054
 3175,0.00134299,0.00050237,-0.00089538,-0.00014374,0.00003169,-0.00004
 495,-0.00000127,0.00000289,0.00001883,0.00000260,0.00000499,-0.0000062
 9,-0.00000195,0.00000804,-0.00000369,-0.00000263,-0.00000910,0.0000021
 8,0.00000111,0.00000117,-0.00000091,0.00000572,0.00000421,-0.00000264,
 -0.00000691,0.00003091,-0.00004358,-0.00002318,0.00009888,0.00005243,-
 0.00003530,0.00011784,0.00004952,0.00005832,0.06626080,-0.00000763,0.0
 0000713,0.00000309,0.00000262,0.00000338,0.00000224,0.00000143,0.00001
 948,0.00000209,0.00000502,-0.00002904,-0.00003025,-0.00001032,0.000024
 83,0.00003853,-0.00019814,0.00006819,-0.00003117,0.00027985,0.00056224
 ,0.00007814,-0.00282817,0.00022438,0.00019807,-0.00029691,-0.00204733,
 0.00005138,-0.00630423,-0.01345743,-0.00072927,-0.04973282,-0.33689935
 ,-0.01960482,0.00033533,-0.00401224,-0.00066868,-0.00157090,0.00159382
 ,-0.00040415,0.00086398,0.00101185,0.00003592,0.00327226,-0.00160214,-
 0.00099534,-0.00012302,0.00031129,0.00004313,-0.00002291,0.00002204,0.
 00000274,0.00000050,-0.00000921,-0.00000056,-0.00000172,0.00000237,0.0
 0000044,-0.00000299,0.00000203,0.00000105,0.00000452,-0.00000025,-0.00
 000093,-0.00000219,-0.00000110,-0.00000185,-0.00000048,0.,0.00000303,-
 0.00001992,0.00002536,0.00001122,-0.00005174,-0.00001525,0.00003737,-0
 .00004910,-0.00000743,-0.00003660,0.05653158,0.35379261,-0.00000011,0.
 00000044,-0.00000079,0.00000011,-0.00000007,-0.00000250,0.00000212,-0.
 00000135,-0.00000203,0.00000628,0.00000479,-0.00000747,0.00004722,0.00
 003974,-0.00001264,0.00002835,-0.00011509,0.00057908,0.00007992,0.0001
 5940,-0.00022766,-0.00013890,0.00009792,-0.00020919,-0.00030915,-0.000
 15819,-0.00246819,-0.00125875,-0.00302550,0.00162307,-0.00157892,-0.01
 946923,-0.04054201,0.00037239,0.00180375,0.00414248,0.00094768,-0.0004
 2053,0.00794391,0.00019291,0.00015198,-0.00036297,0.00119757,-0.001155
 40,0.00735321,0.00000122,0.00009749,-0.00030168,-0.00000277,0.00000450
 ,-0.00000447,-0.00000152,-0.00000128,-0.00000269,0.00000010,-0.0000002
 7,0.00000138,0.00000047,-0.00000024,0.00000104,0.00000039,-0.00000040,
 0.00000266,0.00001361,-0.00000392,0.00001305,0.00000007,0.00001158,-0.
 00001625,-0.00008913,-0.00002556,-0.00002280,0.00004250,-0.00000109,0.
 00000885,-0.00007580,-0.00001000,-0.00001123,0.00115256,0.02148118,0.0
 2824646,-0.00000502,0.00000460,0.00000195,-0.00000072,0.00000217,0.000
 00136,0.00000154,0.00001241,0.00000118,0.00001080,-0.00002513,-0.00001
 387,-0.00001894,-0.00004702,0.00001876,0.00002123,0.00009210,0.0000248
 0,0.00005831,0.00002891,0.00000948,-0.00010981,-0.00021435,-0.00000772
 ,0.00006866,0.00165067,0.00011444,-0.00353884,-0.00401438,0.00068232,-
 0.01724431,0.01989783,0.00342284,-0.22815344,0.13388994,0.02612028,0.0
 0787438,-0.00449063,-0.00057122,0.00128740,-0.00159180,0.00048769,0.00
 002122,-0.00053841,-0.00037426,-0.00067476,-0.00023688,0.00000582,0.00
 000902,0.00001751,-0.00000472,-0.00000735,-0.00000942,-0.00000129,-0.0
 0000319,0.00000316,0.00000121,-0.00000466,0.00000124,0.00000131,0.0000
 0186,-0.00000245,0.,-0.00002677,0.00000538,-0.00001511,0.00000761,0.00
 000937,0.00000366,-0.00004561,-0.00003740,0.00000604,-0.00002289,-0.00
 001767,0.00000760,-0.00002568,-0.00001408,-0.00001426,0.00140615,-0.00
 017286,-0.00048525,0.23825631,0.00000036,0.00000062,0.00000039,0.00000
 077,-0.00000039,-0.00000022,0.00000024,-0.00000196,0.,0.00000161,0.000
 00223,0.00000287,-0.00000661,-0.00000046,-0.00000393,-0.00005243,-0.00
 000592,0.00000717,-0.00003434,-0.00001522,-0.00000272,0.00010264,0.000
 00871,-0.00000726,-0.00041557,0.00051878,0.00009093,-0.00302027,-0.000
 03469,-0.00044057,-0.01018407,0.01172375,0.00137618,0.13402593,-0.1662
 0111,-0.02102555,0.02594902,-0.01307603,-0.00361013,-0.00281790,-0.005
 19053,-0.00086024,-0.00048488,-0.00016011,0.00034148,-0.00016510,-0.00
 005400,0.00002399,-0.00000648,-0.00000077,0.00000155,0.00000218,-0.000
 00005,0.00000012,0.00000109,-0.00000131,-0.00000061,0.00000191,0.00000
 009,-0.00000054,0.00000004,0.00000125,-0.00000013,0.00000250,0.0000011
 5,-0.00000101,-0.00000098,-0.00000071,-0.00000205,0.00000111,0.0000014
 2,-0.00000007,0.00000153,0.00000141,-0.00000056,0.00000216,0.00000169,
 0.00000173,0.00058762,0.00069507,0.00034490,-0.14441635,0.17107174,0.0
 0000029,-0.00000018,-0.00000091,-0.00000004,-0.00000008,-0.00000071,0.
 00000017,-0.00000212,-0.00000138,-0.00000349,0.00000423,-0.00000013,0.
 00000642,0.00001558,-0.00000059,-0.00000659,-0.00001905,0.00004193,-0.
 00000286,-0.00000575,0.00004236,0.00000866,0.00000468,0.00001978,-0.00
 004900,-0.00006424,-0.00021469,0.00074390,-0.00033162,0.00855314,0.001
 07756,-0.00113067,0.00486722,0.02612436,-0.02102412,-0.04517733,0.0018
 4620,-0.00107193,0.00507620,0.00038656,-0.00096824,0.00854754,-0.00038
 046,0.00033308,-0.00391457,0.00003178,0.00002669,-0.00012429,0.0000026
 8,-0.00000105,-0.00000168,-0.00000010,0.00000024,-0.00000077,0.0000004
 9,-0.00000069,0.00000043,0.00000093,-0.00000025,0.00000041,-0.00000038
 ,0.00000021,0.00000092,0.00000310,-0.00000331,0.00000306,-0.00000016,0
 .00000092,-0.00000354,0.00000390,-0.00000436,-0.00000655,0.00000077,0.
 00000521,-0.00000327,0.00000144,-0.00000111,-0.00000468,-0.00042167,0.
 00041917,-0.00420063,-0.02900202,0.02342319,0.03102158,-0.00000327,0.0
 0000426,0.00000122,-0.00000166,0.00000183,0.00000083,0.00000074,0.0000
 0801,0.00000069,0.00000247,-0.00001391,-0.00001093,0.,-0.00001068,0.00
 000772,0.00008204,-0.00000362,0.00000007,0.00005429,0.00000233,0.00000
 178,-0.00016454,-0.00010417,0.00000577,0.00007947,0.00002660,-0.000164
 13,0.00090819,0.00171732,0.00005365,0.00178401,-0.00032025,0.00049289,
 0.00138272,0.00096809,0.00026099,-0.29424381,-0.10328695,0.01319081,-0
 .01543694,-0.01486002,0.00025304,-0.00377418,0.00345523,0.00117839,-0.
 00018142,-0.00003546,0.00002102,0.00002228,0.00001143,-0.00000559,-0.0
 0001020,-0.00001153,-0.00000205,-0.00000409,0.00000311,0.00000158,-0.0
 0000406,0.00000070,0.00000114,0.00000091,-0.00000193,0.00000036,-0.000
 01177,0.00000055,-0.00000482,0.00000292,0.00000525,0.00000426,-0.00001
 942,-0.00000869,0.00000683,-0.00001262,-0.00001338,0.00000265,-0.00001
 348,-0.00001065,-0.00000835,0.00002102,0.00022568,0.00003587,0.0006314
 7,-0.00030251,-0.00042834,0.30819665,-0.00000164,0.00000060,0.00000042
 ,0.00000061,0.00000064,0.00000044,-0.00000016,0.00000502,0.00000063,0.
 00000308,-0.00000917,-0.00000637,-0.00000306,-0.00000242,0.00000783,-0
 .00003139,0.00001462,-0.00000111,0.00008302,0.00007969,0.00000474,-0.0
 0013353,0.00009936,0.00001468,0.00017788,-0.00006422,0.00012286,0.0004
 6363,-0.00176971,-0.00016947,0.00041920,-0.00533175,-0.00109217,-0.029
 58432,-0.00645409,0.00167454,-0.10340315,-0.10478998,0.00330605,0.0169
 6034,0.01302150,-0.00051296,0.00430196,-0.00122196,-0.00102455,-0.0000
 8021,0.00007303,-0.00000772,-0.00000694,0.00000486,0.00000073,0.000000
 71,0.00000043,0.00000040,-0.00000030,0.00000105,0.00000017,-0.00000156
 ,0.00000037,0.00000041,0.00000115,-0.00000075,-0.00000023,-0.00000368,
 0.00000056,-0.00000213,0.00000062,0.00000084,0.00000144,-0.00000728,-0
 .00000229,0.00000233,-0.00000425,-0.00000154,0.00000392,-0.00000730,-0
 .00000237,-0.00000426,-0.00127665,-0.00014557,0.00007722,0.00052488,0.
 00137537,0.00039817,0.11229446,0.10460046,0.00000009,-0.00000074,-0.00
 000126,0.00000025,0.00000028,-0.00000142,0.00000095,-0.00000228,-0.000
 00235,-0.00000152,0.00000645,0.00000421,0.00001379,-0.00000025,-0.0000
 0778,0.00000247,-0.00002733,0.00005883,0.00000111,0.00000648,0.0000234
 7,-0.00000565,0.00000331,0.00003766,-0.00012979,0.00015392,-0.00192502
 ,-0.00007744,-0.00025878,-0.00015189,0.00056068,-0.00103968,0.00792567
 ,-0.00215461,-0.00088090,0.00366096,0.01319094,0.00331025,-0.03836661,
 0.00274113,0.00212874,0.00148069,0.00126423,-0.00094577,0.00721468,0.0
 0004407,-0.00000082,0.00022800,-0.00000490,-0.00000175,-0.00000057,0.0
 0000153,0.00000132,-0.00000263,0.00000081,-0.00000071,0.00000083,0.000
 00087,-0.00000023,0.00000053,0.00000014,-0.00000015,0.00000126,0.00000
 661,-0.00000057,0.00000375,-0.00000001,-0.00000021,-0.00000425,-0.0000
 1877,0.00000845,-0.00000529,-0.00000674,-0.00000321,-0.00000192,0.0000
 0346,0.00000517,-0.00000472,-0.00008240,-0.00005047,0.00024003,-0.0003
 6242,0.00046609,-0.00415586,-0.01462960,-0.00312482,0.02668864,-0.0000
 1024,0.00001580,0.00000631,0.00000492,0.00000488,0.00000079,0.00000496
 ,0.00001732,0.00000150,0.00002201,-0.00003766,-0.00001819,-0.00000453,
 -0.00002702,0.00001244,0.00002954,0.00000195,0.00000293,0.00008073,-0.
 00004490,-0.00000955,-0.00050825,-0.00017820,0.00000483,0.00086305,-0.
 00066873,-0.00008320,-0.00300025,-0.00314754,0.00095954,-0.00078473,-0
 .00044553,-0.00000988,-0.00407474,0.00230179,0.00107443,0.00665784,0.0
 2503234,0.00198479,-0.05541992,-0.01321887,0.00003778,-0.01162765,-0.0
 3738650,-0.00228804,-0.00020913,0.00009310,0.00001918,-0.00000716,0.00
 003505,0.00000177,-0.00000447,-0.00002720,-0.00000241,-0.00000168,0.00
 000063,-0.00000020,0.00000058,0.00000293,0.00000039,0.00000651,0.00000
 289,-0.00000018,-0.00001180,0.00000863,-0.00000859,0.00000022,0.000004
 59,0.00000427,-0.00002529,-0.00001781,0.00000710,-0.00003128,-0.000010
 17,0.00000199,-0.00003110,-0.00001132,-0.00000489,0.00021954,-0.000111
 34,-0.00017709,0.00021899,0.00123259,0.00005309,0.00069069,-0.00067996
 ,-0.00035819,0.06695673,-0.00000875,0.00001122,0.00000446,-0.00000026,
 0.00000441,0.00000194,0.00000253,0.00001831,0.00000184,0.00001363,-0.0
 0003661,-0.00002217,-0.00000179,-0.00004224,0.00002224,0.00010666,0.00
 003053,-0.00000433,0.00010281,0.00000659,0.00000688,-0.00034025,-0.000
 16904,0.00001154,0.00053644,0.00008940,-0.00007842,0.00008536,0.002407
 59,-0.00068181,0.00024520,0.00044144,0.00005145,0.00343900,-0.00033297
 ,-0.00082616,-0.00405620,-0.01307486,-0.00123261,-0.01342972,-0.325578
 40,-0.02076693,-0.01362766,-0.00873814,0.00077166,-0.00035395,-0.00006
 062,0.00000699,0.00002451,0.00002891,-0.00000793,-0.00001449,-0.000023
 56,-0.00000293,-0.00000611,0.00000468,0.00000170,-0.00000552,0.0000020
 7,0.00000158,0.00000415,-0.00000138,0.00000011,-0.00002583,0.00000594,
 -0.00001339,0.00000477,0.00000874,0.00000702,-0.00004040,-0.00003095,0
 .00001094,-0.00002378,-0.00001788,0.00000418,-0.00002209,-0.00001666,-
 0.00001180,0.00010226,-0.00012896,0.00011990,-0.00029204,-0.00066236,-
 0.00000267,0.00027317,0.00052062,0.00024782,0.02728361,0.34536045,-0.0
 0000082,0.00000142,-0.00000183,0.00000015,0.00000035,-0.00000081,0.000
 00048,0.00000014,-0.00000088,-0.00000045,0.00000052,-0.00000125,0.0000
 0068,-0.00000021,0.00000230,0.00000562,0.00000829,0.00002168,0.0000034
 8,0.00001364,-0.00007975,0.00001365,0.00001330,-0.00008540,0.00004139,
 0.00002291,0.00051085,0.00114985,-0.00050452,0.01105646,0.00001504,0.0
 0010683,-0.00046423,0.00117627,-0.00071505,0.00656403,-0.00023496,-0.0
 0369092,0.00692880,-0.00003853,-0.02078279,-0.04389226,-0.00041232,0.0
 0284270,-0.00408904,-0.00000726,-0.00001664,0.00003231,0.00000677,0.00
 000135,-0.00000367,-0.00000251,-0.00000162,-0.00000371,0.00000012,-0.0
 0000022,0.00000149,0.00000003,-0.00000002,0.00000084,0.00000003,-0.000
 00031,0.00000085,-0.00000155,0.00000100,-0.00000019,0.00000184,0.00000
 019,-0.00000063,-0.00000032,-0.00000412,-0.00000072,0.00002017,-0.0000
 0122,0.00000065,-0.00001867,-0.00000018,0.00000300,-0.00015871,0.00014
 665,-0.00176924,-0.00006979,-0.00012220,-0.00036331,-0.00028253,0.0003
 3041,-0.00293999,-0.00121839,0.02235535,0.02856581,0.00078403,0.002360
 01,0.00108984,0.00081641,0.00002295,-0.00022383,0.00079452,-0.00245839
 ,0.00016382,-0.00995043,0.00124069,0.00213558,0.00019288,0.00086036,-0
 .00015794,0.00047530,-0.00059975,-0.00002250,-0.00006580,0.00001490,-0
 .00001357,-0.00009051,0.00002730,0.00012731,-0.00014950,0.00052110,-0.
 00002360,0.00010748,0.00006387,-0.00003459,-0.00000652,-0.00001015,-0.
 00000590,0.00001046,-0.00000495,-0.00000191,0.00003000,-0.00000216,-0.
 00002518,-0.00008348,-0.00013823,-0.00000792,0.00016396,-0.00005437,0.
 00014488,-0.00263151,0.00235065,-0.00084172,-0.33611970,-0.01311435,0.
 04700480,-0.00886189,-0.00263622,0.00121208,-0.00036211,-0.00019827,0.
 00008314,-0.00007325,0.00003820,-0.00010359,-0.00041226,0.00009210,0.0
 0011900,-0.00004353,0.00011712,-0.00010861,0.00027656,-0.00044013,-0.0
 0019255,-0.00006093,-0.00000773,0.00000855,0.00000042,-0.00000138,-0.0
 0000723,0.00000674,-0.00002505,-0.00000193,0.00001469,-0.00001358,-0.0
 0000356,0.00000540,-0.00000375,0.00000295,0.00001877,-0.00000640,-0.00
 000100,0.00000456,0.00002386,0.00001108,0.35444298,0.00169773,-0.00376
 635,-0.00207722,0.00004355,-0.00099360,-0.00008309,-0.00199657,-0.0046
 6099,-0.00136593,-0.02816237,0.00326144,0.00478951,-0.00017411,0.00105
 921,0.00090561,-0.00079395,-0.00115762,0.00016967,-0.00025448,-0.00006
 473,0.00009874,-0.00000366,0.00136601,0.00036105,0.00157080,-0.0011061
 8,-0.00026592,0.00027483,0.00020961,-0.00009375,-0.00015369,-0.0000814
 9,0.00000690,0.00006648,0.00002246,0.00000738,-0.00005047,-0.00012192,
 -0.00000402,-0.00009484,0.00018275,0.00001290,-0.00006121,-0.00024745,
 0.00000123,-0.00008327,-0.00071539,-0.00044666,-0.00975985,-0.05841299
 ,-0.00299533,0.02665938,0.00506055,-0.00431075,0.00117973,0.00008627,-
 0.00024186,0.00002119,0.00006344,0.00016892,-0.00149990,-0.00006922,0.
 00026557,0.00010456,0.00024493,-0.00005929,0.00002417,-0.00024799,-0.0
 0030766,0.00000896,0.00000122,-0.00008586,0.00002173,0.00004856,-0.000
 00733,0.00002364,0.00006008,0.00004128,0.00003909,-0.00001848,-0.00000
 737,-0.00002186,0.00000094,0.00000049,-0.00001610,-0.00000388,0.000000
 93,-0.00004272,-0.00003526,-0.00000488,0.01184634,0.05893214,0.0015595
 9,-0.00260138,0.00661530,-0.00030318,-0.00014029,-0.00063861,0.0006114
 9,-0.00112285,0.00630226,-0.00155378,-0.00074552,0.00476348,-0.0010356
 0,0.00091257,-0.00293355,0.00051965,0.00067633,0.00032940,-0.00004072,
 0.00004071,-0.00009963,0.00003097,-0.00074715,-0.00009332,-0.00065702,
 0.00028859,0.00014568,-0.00002592,-0.00008290,0.00001005,0.00005543,0.
 00000977,0.00000131,-0.00001333,-0.00000634,-0.00000322,0.00003785,0.0
 0003069,0.00001146,-0.00000202,-0.00009781,0.00000694,0.00008571,0.000
 02749,-0.00015305,-0.00031255,0.00018246,-0.00031182,0.04337718,-0.002
 96527,-0.04751509,0.00775944,0.00080932,0.00323848,0.00041596,0.000018
 76,0.00007165,-0.00015874,0.00018543,-0.00103461,-0.00005263,-0.000007
 31,0.00025203,0.00003726,0.00005102,-0.00023288,0.00043997,-0.00021182
 ,-0.00036507,-0.00000648,0.00008022,-0.00000369,-0.00000781,0.00000289
 ,-0.00000115,0.00000411,-0.00007629,-0.00001430,-0.00000838,-0.0000019
 0,0.00000758,0.00001042,-0.00000252,-0.00000060,0.00001360,-0.00000156
 ,0.00000044,0.00000467,0.00002204,0.00000316,-0.04978657,0.00460453,0.
 03574236,-0.00970570,-0.02861678,-0.00242914,-0.00514015,0.00097539,0.
 00226328,-0.00061421,0.00089283,0.00015430,-0.00075092,0.00272450,0.00
 187503,0.00052793,0.00056777,0.00002176,0.00005709,-0.00003150,0.00002
 690,0.00001406,0.00000352,0.00000016,-0.00001896,-0.00006189,-0.000013
 23,-0.00003220,0.00006466,0.00001207,0.00000384,0.00002030,0.00000467,
 0.00000551,-0.00000572,-0.00000231,-0.00000069,-0.00000134,-0.00000011
 ,-0.00000020,-0.00000556,-0.00000116,-0.00001609,0.00000109,0.00000032
 ,0.00002431,-0.00002844,0.00000473,-0.00000299,-0.00005004,-0.00000250
 ,0.01143013,0.01505558,0.00124981,-0.12492112,-0.11835824,-0.00476285,
 0.00118717,0.00056696,-0.00081476,-0.00058882,-0.00131657,-0.00006217,
 0.00002781,-0.00003803,-0.00019483,-0.00008574,0.00023416,0.00002329,0
 .00001742,-0.00005220,0.00001109,-0.00000764,0.00000608,-0.00000850,-0
 .00000193,-0.00000249,-0.00000069,-0.00000089,-0.00000685,-0.00000787,
 0.00000094,-0.00000181,-0.00000036,0.00000163,-0.00000203,-0.00000012,
 0.00000282,0.00000022,-0.00000010,-0.00000867,0.00000087,0.00000016,0.
 00076625,-0.00041313,-0.00099860,0.12783001,0.00202485,0.00258050,-0.0
 0057743,-0.00025897,0.00178612,-0.00081274,0.00097749,0.00045274,-0.00
 000879,0.00360770,-0.00223832,-0.00220215,-0.00102686,-0.00054762,0.00
 007276,-0.00018212,-0.00001433,-0.00016983,-0.00002891,0.00003931,0.00
 003163,0.00014620,-0.00000590,-0.00000523,-0.00009635,-0.00003276,-0.0
 0000515,-0.00007363,-0.00004599,-0.00000488,0.00003385,0.00001569,-0.0
 0000002,-0.00001706,-0.00000566,0.00000182,0.00000995,0.00003676,0.000
 00158,0.00003331,-0.00004440,-0.00000583,0.00000406,0.00006779,0.00000
 678,0.00017698,0.00000533,0.00009117,-0.01517702,-0.01820309,-0.001124
 89,-0.11822443,-0.26711806,-0.01770451,-0.00028203,0.00060843,0.000842
 46,0.00014193,0.00001569,-0.00006719,-0.00004006,-0.00010506,0.0001680
 3,0.00016920,-0.00039164,-0.00004743,0.00004918,-0.00000464,-0.0000251
 1,0.00000541,0.00000828,0.00000811,0.00000791,-0.00001490,0.00000647,-
 0.00000282,0.00002369,0.00001134,-0.00001365,0.00000768,0.00000069,0.0
 0000258,0.00000138,-0.00000041,0.00000184,0.00000069,-0.00000055,0.000
 01739,0.00000901,-0.00000017,0.00013540,0.00110394,0.00086809,0.127878
 70,0.28200934,0.00283369,0.00493533,0.00406876,0.00209429,-0.00106037,
 0.00624644,0.00011985,0.00002380,-0.00060474,0.00207698,-0.00209827,0.
 00677551,-0.00025477,-0.00016477,0.00012917,-0.00007051,0.00003476,-0.
 00000045,-0.00000907,0.00000281,0.00000315,0.00001844,0.00000847,0.000
 00966,-0.00001139,0.00002441,0.00000986,-0.00000867,0.00000246,0.00000
 520,0.00000567,0.00000064,0.00000153,-0.00000257,-0.00000087,-0.000001
 81,0.00000174,0.00000423,0.00000097,0.00000103,-0.00000707,0.00000129,
 0.00000621,0.00000403,-0.00002837,-0.00004472,0.00005095,-0.00007488,-
 0.00406500,-0.00646996,0.00366526,-0.00488281,-0.01785036,-0.04045996,
 -0.00096643,0.00066719,-0.00376471,0.00017490,0.00019593,0.00024961,-0
 .00020040,0.00016799,-0.00098742,0.00001034,-0.00004950,-0.00016654,0.
 00004458,-0.00001426,-0.00002226,0.00001192,0.00001769,-0.00001056,0.0
 0000068,-0.00000005,0.00000143,0.00000221,-0.00000061,-0.00000117,-0.0
 0000158,0.00000057,0.00000164,0.00000078,-0.00000031,0.00000091,0.0000
 0117,-0.00000003,0.00000190,0.00000101,0.00000155,0.00000469,-0.000539
 31,0.00092223,-0.00410100,0.00365175,0.02065142,0.02904690\\-0.0000006
 5,-0.00000065,0.00000002,0.00000037,-0.00000020,0.00000008,-0.00000053
 ,0.00000187,0.00000212,0.00000200,-0.00000597,-0.00000204,0.00000113,0
 .00000652,0.00000758,-0.00000572,0.00000006,-0.00000451,0.00001090,0.0
 0000190,0.00000131,-0.00001101,-0.00001908,-0.00000069,-0.00000368,0.0
 0003527,0.00000229,0.00000360,-0.00000207,0.00000061,0.00000406,-0.000
 00127,0.00000069,-0.00000246,-0.00000200,0.00000002,-0.00000296,0.0000
 0266,0.00000087,0.00000866,0.00000014,-0.00000197,-0.00000697,-0.00000
 192,-0.00000003,0.00000752,-0.00001222,0.00000016,-0.00000215,-0.00000
 112,-0.00000228,0.00000182,0.00000047,-0.00000034,0.00000022,0.0000000
 7,-0.00000078,0.00000023,-0.00000043,-0.00000035,0.00000015,-0.0000003
 1,-0.00000032,-0.00000009,-0.00000140,-0.00000259,0.00000028,-0.000000
 81,-0.00000146,0.00000044,-0.00000052,0.00000145,-0.00000200,-0.000000
 45,0.00000021,-0.00000206,0.00000016,-0.00000054,-0.00000056,0.0000009
 1,0.00000013,0.00000025,0.00000046,0.00000030,-0.00000007,-0.00000007,
 0.00000023,-0.00000088,-0.00000046,0.00000012,0.00000026,0.00000080,0.
 00000028,-0.00000007,-0.00000033,-0.00000057\\\@
 The archive entry for this job was punched.


 ... I FELL INTO A REVERIE ... THE ATOMS WERE GAMBOLING BEFORE MY EYES
 ... I SAW HOW TWO SMALL ONES UNITED TO FORM A PAIR;
 HOW THE LARGER ONES SEIZED TWO OF THE SMALLER ONES;
 HOW STILL LARGER ONES KEPT HOLD OF THREE OR FOUR
 SMALLER ONES ... I SAW HOW THE LARGER ONES FORMED A CHAIN ...
 THIS WAS THE ORIGIN OF THE STRUCTURE THEORY.

                                   -- C.F.KEKULE VON STRADONITZ
 Job cpu time:       0 days  0 hours 43 minutes 41.2 seconds.
 Elapsed time:       0 days  0 hours  1 minutes  6.1 seconds.
 File lengths (MBytes):  RWF=    302 Int=      0 D2E=      0 Chk=      8 Scr=      1
 Normal termination of Gaussian 16 at Sun Feb 25 23:06:10 2024.
