 Entering Gaussian System, Link 0=g16
 Initial command:
 /public/apps/g16-C01//g16/l1.exe "/public/home/ljq/tmp/Gau-98934.inp" -scrdir="/public/home/ljq/tmp/"
 Entering Link 1 = /public/apps/g16-C01//g16/l1.exe PID=     98935.
  
 Copyright (c) 1988-2019, Gaussian, Inc.  All Rights Reserved.
  
 This is part of the Gaussian(R) 16 program.  It is based on
 the Gaussian(R) 09 system (copyright 2009, Gaussian, Inc.),
 the Gaussian(R) 03 system (copyright 2003, Gaussian, Inc.),
 the Gaussian(R) 98 system (copyright 1998, Gaussian, Inc.),
 the Gaussian(R) 94 system (copyright 1995, Gaussian, Inc.),
 the Gaussian 92(TM) system (copyright 1992, Gaussian, Inc.),
 the Gaussian 90(TM) system (copyright 1990, Gaussian, Inc.),
 the Gaussian 88(TM) system (copyright 1988, Gaussian, Inc.),
 the Gaussian 86(TM) system (copyright 1986, Carnegie Mellon
 University), and the Gaussian 82(TM) system (copyright 1983,
 Carnegie Mellon University). Gaussian is a federally registered
 trademark of Gaussian, Inc.
  
 This software contains proprietary and confidential information,
 including trade secrets, belonging to Gaussian, Inc.
  
 This software is provided under written license and may be
 used, copied, transmitted, or stored only in accord with that
 written license.
  
 The following legend is applicable only to US Government
 contracts under FAR:
  
                    RESTRICTED RIGHTS LEGEND
  
 Use, reproduction and disclosure by the US Government is
 subject to restrictions as set forth in subparagraphs (a)
 and (c) of the Commercial Computer Software - Restricted
 Rights clause in FAR 52.227-19.
  
 Gaussian, Inc.
 340 Quinnipiac St., Bldg. 40, Wallingford CT 06492
  
  
 ---------------------------------------------------------------
 Warning -- This program may not be used in any manner that
 competes with the business of Gaussian, Inc. or will provide
 assistance to any competitor of Gaussian, Inc.  The licensee
 of this program is prohibited from giving any competitor of
 Gaussian, Inc. access to this program.  By using this program,
 the user acknowledges that Gaussian, Inc. is engaged in the
 business of creating and licensing software in the field of
 computational chemistry and represents and warrants to the
 licensee that it is not a competitor of Gaussian, Inc. and that
 it will not use this program in any manner prohibited above.
 ---------------------------------------------------------------
  

 Cite this work as:
 Gaussian 16, Revision C.01,
 M. J. Frisch, G. W. Trucks, H. B. Schlegel, G. E. Scuseria, 
 M. A. Robb, J. R. Cheeseman, G. Scalmani, V. Barone, 
 G. A. Petersson, H. Nakatsuji, X. Li, M. Caricato, A. V. Marenich, 
 J. Bloino, B. G. Janesko, R. Gomperts, B. Mennucci, H. P. Hratchian, 
 J. V. Ortiz, A. F. Izmaylov, J. L. Sonnenberg, D. Williams-Young, 
 F. Ding, F. Lipparini, F. Egidi, J. Goings, B. Peng, A. Petrone, 
 T. Henderson, D. Ranasinghe, V. G. Zakrzewski, J. Gao, N. Rega, 
 G. Zheng, W. Liang, M. Hada, M. Ehara, K. Toyota, R. Fukuda, 
 J. Hasegawa, M. Ishida, T. Nakajima, Y. Honda, O. Kitao, H. Nakai, 
 T. Vreven, K. Throssell, J. A. Montgomery, Jr., J. E. Peralta, 
 F. Ogliaro, M. J. Bearpark, J. J. Heyd, E. N. Brothers, K. N. Kudin, 
 V. N. Staroverov, T. A. Keith, R. Kobayashi, J. Normand, 
 K. Raghavachari, A. P. Rendell, J. C. Burant, S. S. Iyengar, 
 J. Tomasi, M. Cossi, J. M. Millam, M. Klene, C. Adamo, R. Cammi, 
 J. W. Ochterski, R. L. Martin, K. Morokuma, O. Farkas, 
 J. B. Foresman, and D. J. Fox, Gaussian, Inc., Wallingford CT, 2019.
 
 ******************************************
 Gaussian 16:  ES64L-G16RevC.01  3-Jul-2019
                15-Aug-2022 
 ******************************************
 %nproc=40
 Will use up to   40 processors via shared memory.
 %mem=56GB
 ------------------------------------------
 #p opt freq b3lyp/def2svpp em=gd3bj nosymm
 ------------------------------------------
 1/18=20,19=15,26=3,38=1/1,3;
 2/9=110,12=2,15=1,17=6,18=5,40=1/2;
 3/5=43,7=202,11=2,25=1,30=1,71=1,74=-5,124=41/1,2,3;
 4//1;
 5/5=2,38=5/2;
 6/7=2,8=2,9=2,10=2,28=1/1;
 7/30=1/1,2,3,16;
 1/18=20,19=15,26=3/3(2);
 2/9=110,15=1/2;
 99//99;
 2/9=110,15=1/2;
 3/5=43,7=202,11=2,25=1,30=1,71=1,74=-5,124=41/1,2,3;
 4/5=5,16=3,69=1/1;
 5/5=2,38=5/2;
 7/30=1/1,2,3,16;
 1/18=20,19=15,26=3/3(-5);
 2/9=110,15=1/2;
 6/7=2,8=2,9=2,10=2,19=2,28=1/1;
 99/9=1/99;
 Leave Link    1 at Mon Aug 15 06:51:19 2022, MaxMem=  7516192768 cpu:               1.1 elap:               0.1
 (Enter /public/apps/g16-C01//g16/l101.exe)
 ----------------------
 $$$$Singlemol####0????
 ----------------------
 Symbolic Z-matrix:
 Charge =  0 Multiplicity = 1
 F                     4.43556   1.72778   0.16136 
 C                     4.37772   0.39062   0.00538 
 F                     5.02365   0.11685  -1.13591 
 F                     5.11256  -0.13237   0.99929 
 C                     2.96288  -0.11098   0.00994 
 C                     2.32827  -0.41474   1.21122 
 C                     1.01641  -0.84348   1.16773 
 C                     0.39119  -0.94728  -0.07764 
 C                    -1.00451  -1.37939  -0.14753 
 N                    -1.68782  -1.68951   0.87887 
 C                    -3.03465  -1.97044   0.44347 
 C                    -4.01176  -0.93613   1.04347 
 C                    -3.68751   0.45244   0.5742 
 C                    -4.42639   1.05811  -0.43433 
 C                    -4.07887   2.31147  -0.90789 
 C                    -2.98306   2.97268  -0.38194 
 C                    -2.24616   2.38157   0.63054 
 C                    -2.59901   1.13282   1.10812 
 C                    -2.93317  -1.90433  -1.10419 
 O                    -1.60608  -1.44918  -1.34671 
 N                     1.00287  -0.65579  -1.21931 
 C                     2.25194  -0.24792  -1.18004 
 H                     2.85761  -0.3195    2.14778 
 H                     0.46508  -1.09978   2.05666 
 H                    -3.32275  -2.96543   0.79721 
 H                    -3.92441  -0.99608   2.1292 
 H                    -5.02646  -1.21371   0.75342 
 H                    -5.28818   0.55043  -0.8468 
 H                    -4.66336   2.77014  -1.69206 
 H                    -2.70639   3.94692  -0.75666 
 H                    -1.39337   2.89563   1.04976 
 H                    -2.02495   0.67151   1.89815 
 H                    -3.05884  -2.88241  -1.57769 
 H                    -3.63062  -1.19005  -1.54583 
 H                     2.71038  -0.02482  -2.13397 
 
 ITRead=  0  0  0  0  0  0  0  0  0  0  0  0  0  0  0  0  0  0  0  0
 ITRead=  0  0  0  0  0  0  0  0  0  0  0  0  0  0  0
 MicOpt= -1 -1 -1 -1 -1 -1 -1 -1 -1 -1 -1 -1 -1 -1 -1 -1 -1 -1 -1 -1
 MicOpt= -1 -1 -1 -1 -1 -1 -1 -1 -1 -1 -1 -1 -1 -1 -1
 NAtoms=     35 NQM=       35 NQMF=       0 NMMI=      0 NMMIF=      0
                NMic=       0 NMicF=      0.
                    Isotopes and Nuclear Properties:
 (Nuclear quadrupole moments (NQMom) in fm**2, nuclear magnetic moments (NMagM)
  in nuclear magnetons)

  Atom         1           2           3           4           5           6           7           8           9          10
 IAtWgt=          19          12          19          19          12          12          12          12          12          14
 AtmWgt=  18.9984032  12.0000000  18.9984032  18.9984032  12.0000000  12.0000000  12.0000000  12.0000000  12.0000000  14.0030740
 NucSpn=           1           0           1           1           0           0           0           0           0           2
 AtZEff=  -0.0000000  -0.0000000  -0.0000000  -0.0000000  -0.0000000  -0.0000000  -0.0000000  -0.0000000  -0.0000000  -0.0000000
 NQMom=    0.0000000   0.0000000   0.0000000   0.0000000   0.0000000   0.0000000   0.0000000   0.0000000   0.0000000   2.0440000
 NMagM=    2.6288670   0.0000000   2.6288670   2.6288670   0.0000000   0.0000000   0.0000000   0.0000000   0.0000000   0.4037610
 AtZNuc=   9.0000000   6.0000000   9.0000000   9.0000000   6.0000000   6.0000000   6.0000000   6.0000000   6.0000000   7.0000000

  Atom        11          12          13          14          15          16          17          18          19          20
 IAtWgt=          12          12          12          12          12          12          12          12          12          16
 AtmWgt=  12.0000000  12.0000000  12.0000000  12.0000000  12.0000000  12.0000000  12.0000000  12.0000000  12.0000000  15.9949146
 NucSpn=           0           0           0           0           0           0           0           0           0           0
 AtZEff=  -0.0000000  -0.0000000  -0.0000000  -0.0000000  -0.0000000  -0.0000000  -0.0000000  -0.0000000  -0.0000000  -0.0000000
 NQMom=    0.0000000   0.0000000   0.0000000   0.0000000   0.0000000   0.0000000   0.0000000   0.0000000   0.0000000   0.0000000
 NMagM=    0.0000000   0.0000000   0.0000000   0.0000000   0.0000000   0.0000000   0.0000000   0.0000000   0.0000000   0.0000000
 AtZNuc=   6.0000000   6.0000000   6.0000000   6.0000000   6.0000000   6.0000000   6.0000000   6.0000000   6.0000000   8.0000000

  Atom        21          22          23          24          25          26          27          28          29          30
 IAtWgt=          14          12           1           1           1           1           1           1           1           1
 AtmWgt=  14.0030740  12.0000000   1.0078250   1.0078250   1.0078250   1.0078250   1.0078250   1.0078250   1.0078250   1.0078250
 NucSpn=           2           0           1           1           1           1           1           1           1           1
 AtZEff=  -0.0000000  -0.0000000  -0.0000000  -0.0000000  -0.0000000  -0.0000000  -0.0000000  -0.0000000  -0.0000000  -0.0000000
 NQMom=    2.0440000   0.0000000   0.0000000   0.0000000   0.0000000   0.0000000   0.0000000   0.0000000   0.0000000   0.0000000
 NMagM=    0.4037610   0.0000000   2.7928460   2.7928460   2.7928460   2.7928460   2.7928460   2.7928460   2.7928460   2.7928460
 AtZNuc=   7.0000000   6.0000000   1.0000000   1.0000000   1.0000000   1.0000000   1.0000000   1.0000000   1.0000000   1.0000000

  Atom        31          32          33          34          35
 IAtWgt=           1           1           1           1           1
 AtmWgt=   1.0078250   1.0078250   1.0078250   1.0078250   1.0078250
 NucSpn=           1           1           1           1           1
 AtZEff=  -0.0000000  -0.0000000  -0.0000000  -0.0000000  -0.0000000
 NQMom=    0.0000000   0.0000000   0.0000000   0.0000000   0.0000000
 NMagM=    2.7928460   2.7928460   2.7928460   2.7928460   2.7928460
 AtZNuc=   1.0000000   1.0000000   1.0000000   1.0000000   1.0000000
 Leave Link  101 at Mon Aug 15 06:51:20 2022, MaxMem=  7516192768 cpu:              19.0 elap:               1.0
 (Enter /public/apps/g16-C01//g16/l103.exe)

 GradGradGradGradGradGradGradGradGradGradGradGradGradGradGradGradGradGrad
 Berny optimization.
 Initialization pass.
                           ----------------------------
                           !    Initial Parameters    !
                           ! (Angstroms and Degrees)  !
 --------------------------                            --------------------------
 ! Name  Definition              Value          Derivative Info.                !
 --------------------------------------------------------------------------------
 ! R1    R(1,2)                  1.3475         estimate D2E/DX2                !
 ! R2    R(2,3)                  1.3397         estimate D2E/DX2                !
 ! R3    R(2,4)                  1.3421         estimate D2E/DX2                !
 ! R4    R(2,5)                  1.5011         estimate D2E/DX2                !
 ! R5    R(5,6)                  1.3922         estimate D2E/DX2                !
 ! R6    R(5,22)                 1.3929         estimate D2E/DX2                !
 ! R7    R(6,7)                  1.3808         estimate D2E/DX2                !
 ! R8    R(6,23)                 1.08           estimate D2E/DX2                !
 ! R9    R(7,8)                  1.3974         estimate D2E/DX2                !
 ! R10   R(7,24)                 1.077          estimate D2E/DX2                !
 ! R11   R(8,9)                  1.4627         estimate D2E/DX2                !
 ! R12   R(8,21)                 1.3276         estimate D2E/DX2                !
 ! R13   R(9,10)                 1.2714         estimate D2E/DX2                !
 ! R14   R(9,20)                 1.3434         estimate D2E/DX2                !
 ! R15   R(10,11)                1.4431         estimate D2E/DX2                !
 ! R16   R(11,12)                1.5442         estimate D2E/DX2                !
 ! R17   R(11,19)                1.5524         estimate D2E/DX2                !
 ! R18   R(11,25)                1.0946         estimate D2E/DX2                !
 ! R19   R(12,13)                1.5012         estimate D2E/DX2                !
 ! R20   R(12,26)                1.0909         estimate D2E/DX2                !
 ! R21   R(12,27)                1.0912         estimate D2E/DX2                !
 ! R22   R(13,14)                1.3892         estimate D2E/DX2                !
 ! R23   R(13,18)                1.3903         estimate D2E/DX2                !
 ! R24   R(14,15)                1.3842         estimate D2E/DX2                !
 ! R25   R(14,28)                1.0819         estimate D2E/DX2                !
 ! R26   R(15,16)                1.3837         estimate D2E/DX2                !
 ! R27   R(15,29)                1.0802         estimate D2E/DX2                !
 ! R28   R(16,17)                1.3848         estimate D2E/DX2                !
 ! R29   R(16,30)                1.0799         estimate D2E/DX2                !
 ! R30   R(17,18)                1.3827         estimate D2E/DX2                !
 ! R31   R(17,31)                1.0804         estimate D2E/DX2                !
 ! R32   R(18,32)                1.08           estimate D2E/DX2                !
 ! R33   R(19,20)                1.4238         estimate D2E/DX2                !
 ! R34   R(19,33)                1.0939         estimate D2E/DX2                !
 ! R35   R(19,34)                1.0916         estimate D2E/DX2                !
 ! R36   R(21,22)                1.3146         estimate D2E/DX2                !
 ! R37   R(22,35)                1.0816         estimate D2E/DX2                !
 ! A1    A(1,2,3)              106.3029         estimate D2E/DX2                !
 ! A2    A(1,2,4)              106.1086         estimate D2E/DX2                !
 ! A3    A(1,2,5)              111.8201         estimate D2E/DX2                !
 ! A4    A(3,2,4)              106.6939         estimate D2E/DX2                !
 ! A5    A(3,2,5)              112.8764         estimate D2E/DX2                !
 ! A6    A(4,2,5)              112.5557         estimate D2E/DX2                !
 ! A7    A(2,5,6)              120.343          estimate D2E/DX2                !
 ! A8    A(2,5,22)             120.7512         estimate D2E/DX2                !
 ! A9    A(6,5,22)             118.8856         estimate D2E/DX2                !
 ! A10   A(5,6,7)              118.2716         estimate D2E/DX2                !
 ! A11   A(5,6,23)             120.3722         estimate D2E/DX2                !
 ! A12   A(7,6,23)             121.3555         estimate D2E/DX2                !
 ! A13   A(6,7,8)              118.4386         estimate D2E/DX2                !
 ! A14   A(6,7,24)             122.2938         estimate D2E/DX2                !
 ! A15   A(8,7,24)             119.2676         estimate D2E/DX2                !
 ! A16   A(7,8,9)              119.436          estimate D2E/DX2                !
 ! A17   A(7,8,21)             122.9529         estimate D2E/DX2                !
 ! A18   A(9,8,21)             117.607          estimate D2E/DX2                !
 ! A19   A(8,9,10)             123.1125         estimate D2E/DX2                !
 ! A20   A(8,9,20)             119.0294         estimate D2E/DX2                !
 ! A21   A(10,9,20)            117.8571         estimate D2E/DX2                !
 ! A22   A(9,10,11)            107.7883         estimate D2E/DX2                !
 ! A23   A(10,11,12)           110.0558         estimate D2E/DX2                !
 ! A24   A(10,11,19)           103.3854         estimate D2E/DX2                !
 ! A25   A(10,11,25)           108.9721         estimate D2E/DX2                !
 ! A26   A(12,11,19)           113.5912         estimate D2E/DX2                !
 ! A27   A(12,11,25)           108.4655         estimate D2E/DX2                !
 ! A28   A(19,11,25)           112.2163         estimate D2E/DX2                !
 ! A29   A(11,12,13)           111.1877         estimate D2E/DX2                !
 ! A30   A(11,12,26)           107.4118         estimate D2E/DX2                !
 ! A31   A(11,12,27)           108.3444         estimate D2E/DX2                !
 ! A32   A(13,12,26)           110.1616         estimate D2E/DX2                !
 ! A33   A(13,12,27)           110.6741         estimate D2E/DX2                !
 ! A34   A(26,12,27)           108.9669         estimate D2E/DX2                !
 ! A35   A(12,13,14)           121.0204         estimate D2E/DX2                !
 ! A36   A(12,13,18)           120.1156         estimate D2E/DX2                !
 ! A37   A(14,13,18)           118.8073         estimate D2E/DX2                !
 ! A38   A(13,14,15)           120.6384         estimate D2E/DX2                !
 ! A39   A(13,14,28)           119.7257         estimate D2E/DX2                !
 ! A40   A(15,14,28)           119.6326         estimate D2E/DX2                !
 ! A41   A(14,15,16)           120.098          estimate D2E/DX2                !
 ! A42   A(14,15,29)           119.8005         estimate D2E/DX2                !
 ! A43   A(16,15,29)           120.101          estimate D2E/DX2                !
 ! A44   A(15,16,17)           119.6941         estimate D2E/DX2                !
 ! A45   A(15,16,30)           120.1404         estimate D2E/DX2                !
 ! A46   A(17,16,30)           120.165          estimate D2E/DX2                !
 ! A47   A(16,17,18)           120.1486         estimate D2E/DX2                !
 ! A48   A(16,17,31)           120.0428         estimate D2E/DX2                !
 ! A49   A(18,17,31)           119.8085         estimate D2E/DX2                !
 ! A50   A(13,18,17)           120.6051         estimate D2E/DX2                !
 ! A51   A(13,18,32)           119.2121         estimate D2E/DX2                !
 ! A52   A(17,18,32)           120.1814         estimate D2E/DX2                !
 ! A53   A(11,19,20)           104.1442         estimate D2E/DX2                !
 ! A54   A(11,19,33)           112.7024         estimate D2E/DX2                !
 ! A55   A(11,19,34)           112.9192         estimate D2E/DX2                !
 ! A56   A(20,19,33)           108.6133         estimate D2E/DX2                !
 ! A57   A(20,19,34)           108.5079         estimate D2E/DX2                !
 ! A58   A(33,19,34)           109.6648         estimate D2E/DX2                !
 ! A59   A(9,20,19)            106.3757         estimate D2E/DX2                !
 ! A60   A(8,21,22)            118.6998         estimate D2E/DX2                !
 ! A61   A(5,22,21)            122.7511         estimate D2E/DX2                !
 ! A62   A(5,22,35)            121.1203         estimate D2E/DX2                !
 ! A63   A(21,22,35)           116.1278         estimate D2E/DX2                !
 ! D1    D(1,2,5,6)            -86.3093         estimate D2E/DX2                !
 ! D2    D(1,2,5,22)            92.0331         estimate D2E/DX2                !
 ! D3    D(3,2,5,6)            153.8807         estimate D2E/DX2                !
 ! D4    D(3,2,5,22)           -27.7769         estimate D2E/DX2                !
 ! D5    D(4,2,5,6)             33.0264         estimate D2E/DX2                !
 ! D6    D(4,2,5,22)          -148.6312         estimate D2E/DX2                !
 ! D7    D(2,5,6,7)            178.5276         estimate D2E/DX2                !
 ! D8    D(2,5,6,23)            -1.782          estimate D2E/DX2                !
 ! D9    D(22,5,6,7)             0.1546         estimate D2E/DX2                !
 ! D10   D(22,5,6,23)          179.845          estimate D2E/DX2                !
 ! D11   D(2,5,22,21)         -178.5026         estimate D2E/DX2                !
 ! D12   D(2,5,22,35)            1.8242         estimate D2E/DX2                !
 ! D13   D(6,5,22,21)           -0.1364         estimate D2E/DX2                !
 ! D14   D(6,5,22,35)         -179.8097         estimate D2E/DX2                !
 ! D15   D(5,6,7,8)             -0.1766         estimate D2E/DX2                !
 ! D16   D(5,6,7,24)           179.7252         estimate D2E/DX2                !
 ! D17   D(23,6,7,8)          -179.8639         estimate D2E/DX2                !
 ! D18   D(23,6,7,24)            0.0379         estimate D2E/DX2                !
 ! D19   D(6,7,8,9)           -179.0593         estimate D2E/DX2                !
 ! D20   D(6,7,8,21)             0.1853         estimate D2E/DX2                !
 ! D21   D(24,7,8,9)             1.0358         estimate D2E/DX2                !
 ! D22   D(24,7,8,21)         -179.7196         estimate D2E/DX2                !
 ! D23   D(7,8,9,10)            -1.0313         estimate D2E/DX2                !
 ! D24   D(7,8,9,20)           178.6063         estimate D2E/DX2                !
 ! D25   D(21,8,9,10)          179.684          estimate D2E/DX2                !
 ! D26   D(21,8,9,20)           -0.6784         estimate D2E/DX2                !
 ! D27   D(7,8,21,22)           -0.1613         estimate D2E/DX2                !
 ! D28   D(9,8,21,22)          179.0963         estimate D2E/DX2                !
 ! D29   D(8,9,10,11)          175.9605         estimate D2E/DX2                !
 ! D30   D(20,9,10,11)          -3.681          estimate D2E/DX2                !
 ! D31   D(8,9,20,19)          179.4624         estimate D2E/DX2                !
 ! D32   D(10,9,20,19)          -0.881          estimate D2E/DX2                !
 ! D33   D(9,10,11,12)        -115.537          estimate D2E/DX2                !
 ! D34   D(9,10,11,19)           6.1188         estimate D2E/DX2                !
 ! D35   D(9,10,11,25)         125.6433         estimate D2E/DX2                !
 ! D36   D(10,11,12,13)         61.9923         estimate D2E/DX2                !
 ! D37   D(10,11,12,26)        -58.6032         estimate D2E/DX2                !
 ! D38   D(10,11,12,27)       -176.1745         estimate D2E/DX2                !
 ! D39   D(19,11,12,13)        -53.3706         estimate D2E/DX2                !
 ! D40   D(19,11,12,26)       -173.966          estimate D2E/DX2                !
 ! D41   D(19,11,12,27)         68.4627         estimate D2E/DX2                !
 ! D42   D(25,11,12,13)       -178.878          estimate D2E/DX2                !
 ! D43   D(25,11,12,26)         60.5266         estimate D2E/DX2                !
 ! D44   D(25,11,12,27)        -57.0448         estimate D2E/DX2                !
 ! D45   D(10,11,19,20)         -6.4684         estimate D2E/DX2                !
 ! D46   D(10,11,19,33)        111.0626         estimate D2E/DX2                !
 ! D47   D(10,11,19,34)       -123.9825         estimate D2E/DX2                !
 ! D48   D(12,11,19,20)        112.7789         estimate D2E/DX2                !
 ! D49   D(12,11,19,33)       -129.6901         estimate D2E/DX2                !
 ! D50   D(12,11,19,34)         -4.7352         estimate D2E/DX2                !
 ! D51   D(25,11,19,20)       -123.7377         estimate D2E/DX2                !
 ! D52   D(25,11,19,33)         -6.2067         estimate D2E/DX2                !
 ! D53   D(25,11,19,34)        118.7482         estimate D2E/DX2                !
 ! D54   D(11,12,13,14)        101.5683         estimate D2E/DX2                !
 ! D55   D(11,12,13,18)        -75.6613         estimate D2E/DX2                !
 ! D56   D(26,12,13,14)       -139.4712         estimate D2E/DX2                !
 ! D57   D(26,12,13,18)         43.2992         estimate D2E/DX2                !
 ! D58   D(27,12,13,14)        -18.8993         estimate D2E/DX2                !
 ! D59   D(27,12,13,18)        163.8712         estimate D2E/DX2                !
 ! D60   D(12,13,14,15)       -176.706          estimate D2E/DX2                !
 ! D61   D(12,13,14,28)          3.9499         estimate D2E/DX2                !
 ! D62   D(18,13,14,15)          0.5591         estimate D2E/DX2                !
 ! D63   D(18,13,14,28)       -178.785          estimate D2E/DX2                !
 ! D64   D(12,13,18,17)        176.3525         estimate D2E/DX2                !
 ! D65   D(12,13,18,32)         -3.2134         estimate D2E/DX2                !
 ! D66   D(14,13,18,17)         -0.938          estimate D2E/DX2                !
 ! D67   D(14,13,18,32)        179.4961         estimate D2E/DX2                !
 ! D68   D(13,14,15,16)          0.2885         estimate D2E/DX2                !
 ! D69   D(13,14,15,29)       -179.9574         estimate D2E/DX2                !
 ! D70   D(28,14,15,16)        179.6332         estimate D2E/DX2                !
 ! D71   D(28,14,15,29)         -0.6127         estimate D2E/DX2                !
 ! D72   D(14,15,16,17)         -0.7657         estimate D2E/DX2                !
 ! D73   D(14,15,16,30)        179.4835         estimate D2E/DX2                !
 ! D74   D(29,15,16,17)        179.481          estimate D2E/DX2                !
 ! D75   D(29,15,16,30)         -0.2698         estimate D2E/DX2                !
 ! D76   D(15,16,17,18)          0.389          estimate D2E/DX2                !
 ! D77   D(15,16,17,31)       -179.5994         estimate D2E/DX2                !
 ! D78   D(30,16,17,18)       -179.8603         estimate D2E/DX2                !
 ! D79   D(30,16,17,31)          0.1513         estimate D2E/DX2                !
 ! D80   D(16,17,18,13)          0.4706         estimate D2E/DX2                !
 ! D81   D(16,17,18,32)       -179.9678         estimate D2E/DX2                !
 ! D82   D(31,17,18,13)       -179.541          estimate D2E/DX2                !
 ! D83   D(31,17,18,32)          0.0207         estimate D2E/DX2                !
 ! D84   D(11,19,20,9)           4.6232         estimate D2E/DX2                !
 ! D85   D(33,19,20,9)        -115.6982         estimate D2E/DX2                !
 ! D86   D(34,19,20,9)         125.1452         estimate D2E/DX2                !
 ! D87   D(8,21,22,5)            0.136          estimate D2E/DX2                !
 ! D88   D(8,21,22,35)         179.8245         estimate D2E/DX2                !
 --------------------------------------------------------------------------------
 Trust Radius=3.00D-01 FncErr=1.00D-07 GrdErr=1.00D-06 EigMax=2.50D+02 EigMin=1.00D-04
 Number of steps in this run=    198 maximum allowed number of steps=    210.
 GradGradGradGradGradGradGradGradGradGradGradGradGradGradGradGradGradGrad

 Leave Link  103 at Mon Aug 15 06:51:20 2022, MaxMem=  7516192768 cpu:               0.8 elap:               0.1
 (Enter /public/apps/g16-C01//g16/l202.exe)
                          Input orientation:                          
 ---------------------------------------------------------------------
 Center     Atomic      Atomic             Coordinates (Angstroms)
 Number     Number       Type             X           Y           Z
 ---------------------------------------------------------------------
      1          9           0        4.435558    1.727782    0.161364
      2          6           0        4.377722    0.390617    0.005379
      3          9           0        5.023654    0.116848   -1.135907
      4          9           0        5.112558   -0.132370    0.999285
      5          6           0        2.962879   -0.110983    0.009938
      6          6           0        2.328265   -0.414738    1.211225
      7          6           0        1.016409   -0.843477    1.167734
      8          6           0        0.391186   -0.947278   -0.077640
      9          6           0       -1.004513   -1.379393   -0.147526
     10          7           0       -1.687824   -1.689509    0.878869
     11          6           0       -3.034646   -1.970438    0.443468
     12          6           0       -4.011759   -0.936126    1.043469
     13          6           0       -3.687508    0.452437    0.574195
     14          6           0       -4.426386    1.058108   -0.434325
     15          6           0       -4.078869    2.311474   -0.907887
     16          6           0       -2.983061    2.972681   -0.381937
     17          6           0       -2.246161    2.381570    0.630538
     18          6           0       -2.599013    1.132819    1.108121
     19          6           0       -2.933166   -1.904330   -1.104190
     20          8           0       -1.606080   -1.449183   -1.346712
     21          7           0        1.002873   -0.655785   -1.219313
     22          6           0        2.251936   -0.247915   -1.180040
     23          1           0        2.857611   -0.319495    2.147780
     24          1           0        0.465080   -1.099783    2.056655
     25          1           0       -3.322753   -2.965425    0.797212
     26          1           0       -3.924409   -0.996077    2.129199
     27          1           0       -5.026464   -1.213705    0.753416
     28          1           0       -5.288182    0.550433   -0.846800
     29          1           0       -4.663357    2.770143   -1.692062
     30          1           0       -2.706385    3.946916   -0.756660
     31          1           0       -1.393371    2.895629    1.049762
     32          1           0       -2.024946    0.671510    1.898152
     33          1           0       -3.058837   -2.882407   -1.577685
     34          1           0       -3.630621   -1.190053   -1.545833
     35          1           0        2.710379   -0.024822   -2.133972
 ---------------------------------------------------------------------
                    Distance matrix (angstroms):
                    1          2          3          4          5
     1  F    0.000000
     2  C    1.347474   0.000000
     3  F    2.150320   1.339668   0.000000
     4  F    2.149560   1.342143   2.151525   0.000000
     5  C    2.360672   1.501134   2.368895   2.366513   0.000000
     6  C    3.183282   2.510565   3.613410   2.806588   1.392154
     7  C    4.394853   3.764636   4.720911   4.160827   2.380291
     8  C    4.854896   4.205868   4.869502   4.910723   2.705673
     9  C    6.272505   5.667872   6.289231   6.347346   4.168196
    10  N    7.049007   6.471534   7.236448   6.977419   4.987567
    11  C    8.340285   7.791643   8.472744   8.370446   6.294111
    12  C    8.901218   8.556943   9.353990   9.159756   7.098917
    13  C    8.232930   8.085500   8.883772   8.829715   6.698020
    14  C    8.907152   8.840317   9.522680   9.719256   7.494357
    15  C    8.601131   8.719959   9.366125   9.700104   7.503127
    16  C    7.541940   7.810134   8.534151   8.779986   6.709452
    17  C    6.730002   6.944821   7.816617   7.785025   5.807931
    18  C    7.122887   7.102235   8.010800   7.815426   5.804110
    19  C    8.312157   7.742545   8.209577   8.502830   6.262645
    20  O    6.990622   6.404600   6.815443   7.237251   4.950421
    21  N    4.401248   3.739577   4.095192   4.699537   2.376866
    22  C    3.235884   2.516328   2.795965   3.598050   1.392924
    23  H    3.259925   2.721191   3.957870   2.537487   2.150564
    24  H    5.229909   4.662381   5.696775   4.863432   3.377244
    25  H    9.089658   8.437259   9.104936   8.900646   6.948151
    26  H    9.010041   8.680951   9.589961   9.148195   7.260124
    27  H    9.926365   9.569332  10.312361  10.199485   8.099281
    28  H    9.846505   9.704713  10.324996  10.585350   8.321747
    29  H    9.344087   9.501819  10.059198  10.546869   8.328095
    30  H    7.534897   7.963199   8.635204   8.992207   7.013898
    31  H    6.010785   6.377408   7.326458   7.176241   5.394244
    32  H    6.772758   6.682488   7.693889   7.238657   5.390366
    33  H    8.969063   8.277753   8.632344   8.998621   6.816333
    34  H    8.745943   8.308931   8.761992   9.167306   6.859960
    35  H    3.363990   2.743983   2.523380   3.949599   2.160447
                    6          7          8          9         10
     6  C    0.000000
     7  C    1.380824   0.000000
     8  C    2.386849   1.397367   0.000000
     9  C    3.726147   2.470069   1.462731   0.000000
    10  N    4.226638   2.848173   2.405847   1.271445   0.000000
    11  C    5.636530   4.266808   3.613134   2.195461   1.443061
    12  C    6.363638   5.030557   4.543450   3.264733   2.448541
    13  C    6.111246   4.915131   4.361174   3.327904   2.946098
    14  C    7.106505   5.983865   5.230468   4.211043   4.095559
    15  C    7.278340   6.342222   5.593761   4.863364   4.991739
    16  C    6.497919   5.741106   5.181141   4.786455   5.000329
    17  C    5.392765   4.618860   4.305618   4.036325   4.116685
    18  C    5.165620   4.120749   3.830682   3.229596   2.974619
    19  C    5.938239   4.678268   3.608472   2.215957   2.351499
    20  O    4.805433   3.683309   2.418992   1.343429   2.240011
    21  N    2.778900   2.394453   1.327609   2.387872   3.565221
    22  C    2.398292   2.719056   2.273056   3.598720   4.673222
    23  H    1.080006   2.150598   3.380807   4.616039   4.914067
    24  H    2.157660   1.076957   2.141012   2.663888   2.523876
    25  H    6.213808   4.844407   4.316437   2.963489   2.075481
    26  H    6.346382   5.035810   4.847358   3.722392   2.654522
    27  H    7.412151   6.068364   5.487492   4.124953   3.374707
    28  H    7.948414   6.763815   5.923678   4.750056   4.577975
    29  H    8.213119   7.314125   6.478733   5.743812   5.945753
    30  H    6.945812   6.364774   5.831736   5.624676   5.956652
    31  H    4.983490   4.449929   4.384474   4.456515   4.597760
    32  H    4.538970   3.475419   3.515953   3.071203   2.593646
    33  H    6.548914   5.319980   4.230546   2.919701   3.055706
    34  H    6.611415   5.392444   4.288294   2.981200   3.146919
    35  H    3.389453   3.800131   3.233896   4.425071   5.585032
                   11         12         13         14         15
    11  C    0.000000
    12  C    1.544200   0.000000
    13  C    2.512696   1.501154   0.000000
    14  C    3.446673   2.516498   1.389205   0.000000
    15  C    4.609917   3.789353   2.409512   1.384180   0.000000
    16  C    5.011824   4.285881   2.786048   2.398233   1.383696
    17  C    4.426813   3.780867   2.408778   2.763850   2.393843
    18  C    3.203396   2.506105   1.390258   2.392491   2.764686
    19  C    1.552390   2.590988   2.990043   3.384444   4.373119
    20  O    2.348883   3.429794   3.411508   3.882407   4.522145
    21  N    4.560122   5.508658   5.142422   5.747216   5.892853
    22  C    5.792306   6.682178   6.232562   6.845566   6.834006
    23  H    6.352085   6.984839   6.775738   7.849947   8.023332
    24  H    3.950759   4.592975   4.674512   5.898128   6.408795
    25  H    1.094596   2.157180   3.444498   4.350116   5.596851
    26  H    2.140735   1.090887   2.138306   3.323148   4.493066
    27  H    2.153149   1.091241   2.144983   2.632861   4.010580
    28  H    3.619117   2.722541   2.142659   1.081925   2.137156
    29  H    5.448513   4.652326   3.385257   2.137550   1.080247
    30  H    6.046746   5.365498   3.865897   3.377501   2.140386
    31  H    5.171072   4.640942   3.385028   3.844240   3.374245
    32  H    3.180486   2.694884   2.136578   3.369988   3.844728
    33  H    2.217506   3.400958   4.018333   4.324942   5.335306
    34  H    2.218447   2.629492   2.682448   2.631144   3.587282
    35  H    6.590442   7.490911   6.963828   7.415858   7.283917
                   16         17         18         19         20
    16  C    0.000000
    17  C    1.384752   0.000000
    18  C    2.398512   1.382740   0.000000
    19  C    4.930454   4.674419   3.772301   0.000000
    20  O    4.730724   4.358198   3.698494   1.423774   0.000000
    21  N    5.454781   4.817021   4.646465   4.130923   2.729899
    22  C    6.197935   5.515910   5.538394   5.443781   4.044145
    23  H    7.165985   5.970449   5.741503   6.827892   5.780329
    24  H    5.866973   4.637290   3.908055   4.710235   3.999336
    25  H    6.063570   5.456848   4.173256   2.212019   3.137255
    26  H    4.789883   4.058448   2.707669   3.501755   4.202608
    27  H    4.794825   4.546558   3.394777   2.882631   4.020574
    28  H    3.375939   3.845710   3.375281   3.411482   4.219745
    29  H    2.140291   3.374655   3.844915   5.018949   5.221965
    30  H    1.079861   2.141596   3.377585   5.865943   5.538657
    31  H    2.140751   1.080396   2.136464   5.481796   4.966460
    32  H    3.378192   2.140114   1.080050   4.058802   3.898965
    33  H    5.976421   5.765947   4.852528   1.093904   2.053773
    34  H    4.370623   4.405657   3.674700   1.091643   2.050747
    35  H    6.668576   6.164457   6.327791   6.036771   4.613068
                   21         22         23         24         25
    21  N    0.000000
    22  C    1.314556   0.000000
    23  H    3.858816   3.383246   0.000000
    24  H    3.349376   3.794038   2.518205   0.000000
    25  H    5.302061   6.509343   6.857250   4.406188   0.000000
    26  H    5.967113   7.046847   6.815710   4.391313   2.452450
    27  H    6.368347   7.592503   8.056209   5.645216   2.443987
    28  H    6.416471   7.589584   8.722283   6.652314   4.350511
    29  H    6.638271   7.562547   8.991952   7.438419   6.394564
    30  H    5.929376   6.508518   7.589209   6.591062   7.111602
    31  H    4.848013   5.304917   5.441830   4.520065   6.175617
    32  H    4.544006   5.349049   4.988363   3.059874   4.015429
    33  H    4.645833   5.941631   7.446608   5.366951   2.390958
    34  H    4.675610   5.968744   7.516502   5.455349   2.955772
    35  H    2.037227   1.081632   4.294404   4.874245   7.323774
                   26         27         28         29         30
    26  H    0.000000
    27  H    1.776138   0.000000
    28  H    3.620517   2.396116   0.000000
    29  H    5.415948   4.688630   2.456010   0.000000
    30  H    5.851918   5.856202   4.267306   2.467693   0.000000
    31  H    4.766205   5.493069   4.926098   4.269210   2.468273
    32  H    2.538147   3.724724   4.265927   4.924948   4.270910
    33  H    4.248346   3.477090   4.157952   5.876979   6.887522
    34  H    3.691856   2.689885   2.503088   4.095251   5.278774
    35  H    7.945966   8.343212   8.121866   7.898044   6.856604
                   31         32         33         34         35
    31  H    0.000000
    32  H    2.462795   0.000000
    33  H    6.562237   5.077470   0.000000
    34  H    5.332466   4.231388   1.786621   0.000000
    35  H    5.958688   6.258291   6.462128   6.473944   0.000000
 Symmetry turned off by external request.
 Stoichiometry    C16H13F3N2O
 Framework group  C1[X(C16H13F3N2O)]
 Deg. of freedom    99
 Full point group                 C1      NOp   1
 Rotational constants (GHZ):           0.5840865           0.1405290           0.1279722
 Leave Link  202 at Mon Aug 15 06:51:20 2022, MaxMem=  7516192768 cpu:               1.3 elap:               0.1
 (Enter /public/apps/g16-C01//g16/l301.exe)
 Standard basis: def2SVPP (5D, 7F)
 Ernie: Thresh=  0.10000D-02 Tol=  0.10000D-05 Strict=F.
   334 basis functions,   602 primitive gaussians,   356 cartesian basis functions
    79 alpha electrons       79 beta electrons
       nuclear repulsion energy      1766.6952227989 Hartrees.
 IExCor=  402 DFT=T Ex+Corr=B3LYP ExCW=0 ScaHFX=  0.200000
 ScaDFX=  0.800000  0.720000  1.000000  0.810000 ScalE2=  1.000000  1.000000
 IRadAn=      5 IRanWt=     -1 IRanGd=            0 ICorTp=0 IEmpDi=141
 NAtoms=   35 NActive=   35 NUniq=   35 SFac= 1.00D+00 NAtFMM=   60 NAOKFM=F Big=F
 Integral buffers will be    131072 words long.
 Raffenetti 2 integral format.
 Two-electron integral symmetry is turned off.
 R6Disp:  Grimme-D3(BJ) Dispersion energy=       -0.0770976125 Hartrees.
 Nuclear repulsion after empirical dispersion term =     1766.6181251864 Hartrees.
 Leave Link  301 at Mon Aug 15 06:51:20 2022, MaxMem=  7516192768 cpu:               1.6 elap:               0.1
 (Enter /public/apps/g16-C01//g16/l302.exe)
 NPDir=0 NMtPBC=     1 NCelOv=     1 NCel=       1 NClECP=     1 NCelD=      1
         NCelK=      1 NCelE2=     1 NClLst=     1 CellRange=     0.0.
 One-electron integrals computed using PRISM.
   1 Symmetry operations used in ECPInt.
 ECPInt:  NShTT=   12561 NPrTT=   50411 LenC2=   11175 LenP2D=   30373.
 LDataN:  DoStor=T MaxTD1= 4 Len=   56
 NBasis=   334 RedAO= T EigKep=  2.54D-04  NBF=   334
 NBsUse=   334 1.00D-06 EigRej= -1.00D+00 NBFU=   334
 Precomputing XC quadrature grid using
 IXCGrd= 4 IRadAn=           5 IRanWt=          -1 IRanGd=           0 AccXCQ= 0.00D+00.
 Generated NRdTot=       0 NPtTot=           0 NUsed=           0 NTot=          32
 NSgBfM=   351   351   351   351   351 MxSgAt=    35 MxSgA2=    35.
 Leave Link  302 at Mon Aug 15 06:51:23 2022, MaxMem=  7516192768 cpu:              56.5 elap:               2.9
 (Enter /public/apps/g16-C01//g16/l303.exe)
 DipDrv:  MaxL=1.
 Leave Link  303 at Mon Aug 15 06:51:23 2022, MaxMem=  7516192768 cpu:               2.9 elap:               0.2
 (Enter /public/apps/g16-C01//g16/l401.exe)
 ExpMin= 1.22D-01 ExpMax= 2.89D+03 ExpMxC= 4.35D+02 IAcc=3 IRadAn=         5 AccDes= 0.00D+00
 Harris functional with IExCor=  402 and IRadAn=       5 diagonalized for initial guess.
 HarFok:  IExCor=  402 AccDes= 0.00D+00 IRadAn=         5 IDoV= 1 UseB2=F ITyADJ=14
 ICtDFT=  3500011 ScaDFX=  1.000000  1.000000  1.000000  1.000000
 FoFCou: FMM=F IPFlag=           0 FMFlag=      100000 FMFlg1=           0
         NFxFlg=           0 DoJE=T BraDBF=F KetDBF=T FulRan=T
         wScrn=  0.000000 ICntrl=       500 IOpCl=  0 I1Cent=   200000004 NGrid=           0
         NMat0=    1 NMatS0=      1 NMatT0=    0 NMatD0=    1 NMtDS0=    0 NMtDT0=    0
 Symmetry not used in FoFCou.
 Harris En= -1100.94314675112    
 JPrj=0 DoOrth=F DoCkMO=F.
 Leave Link  401 at Mon Aug 15 06:51:27 2022, MaxMem=  7516192768 cpu:              67.6 elap:               3.6
 (Enter /public/apps/g16-C01//g16/l502.exe)
 Two-electron integral symmetry not used.
 Closed shell SCF:
 Using DIIS extrapolation, IDIIS=  1040.
 NGot=  7516192768 LenX=  7515921220 LenY=  7515794043
 Requested convergence on RMS density matrix=1.00D-08 within 128 cycles.
 Requested convergence on MAX density matrix=1.00D-06.
 Requested convergence on             energy=1.00D-06.
 No special actions if energy rises.
 Fock matrices will be formed incrementally for  20 cycles.
 Integral accuracy reduced to 1.0D-05 until final iterations.

 Cycle   1  Pass 0  IDiag  1:
 FoFJK:  IHMeth= 1 ICntrl=       0 DoSepK=F KAlg= 0 I1Cent=           0 FoldK=F
 IRaf= 830000000 NMat=       1 IRICut=       1 DoRegI=T DoRafI=F ISym2E= 0 IDoP0=0 IntGTp=1.
 FoFCou: FMM=F IPFlag=           0 FMFlag=      100000 FMFlg1=           0
         NFxFlg=           0 DoJE=F BraDBF=F KetDBF=F FulRan=T
         wScrn=  0.000000 ICntrl=         0 IOpCl=  0 I1Cent=           0 NGrid=           0
         NMat0=    1 NMatS0=      1 NMatT0=    0 NMatD0=    1 NMtDS0=    0 NMtDT0=    0
 Symmetry not used in FoFCou.
 E= -1100.63723011565    
 DIIS: error= 2.62D-02 at cycle   1 NSaved=   1.
 NSaved= 1 IEnMin= 1 EnMin= -1100.63723011565     IErMin= 1 ErrMin= 2.62D-02
 ErrMax= 2.62D-02  0.00D+00 EMaxC= 1.00D-01 BMatC= 3.74D-01 BMatP= 3.74D-01
 IDIUse=3 WtCom= 7.38D-01 WtEn= 2.62D-01
 Coeff-Com:  0.100D+01
 Coeff-En:   0.100D+01
 Coeff:      0.100D+01
 Gap=     0.146 Goal=   None    Shift=    0.000
 GapD=    0.146 DampG=1.000 DampE=0.500 DampFc=0.5000 IDamp=-1.
 Damping current iteration by 5.00D-01
 RMSDP=5.44D-03 MaxDP=1.74D-01              OVMax= 1.82D-01

 Cycle   2  Pass 0  IDiag  1:
 RMSU=  2.63D-03    CP:  9.69D-01
 E= -1100.79420387435     Delta-E=       -0.156973758699 Rises=F Damp=T
 DIIS: error= 4.32D-03 at cycle   2 NSaved=   2.
 NSaved= 2 IEnMin= 2 EnMin= -1100.79420387435     IErMin= 2 ErrMin= 4.32D-03
 ErrMax= 4.32D-03  0.00D+00 EMaxC= 1.00D-01 BMatC= 2.74D-02 BMatP= 3.74D-01
 IDIUse=3 WtCom= 9.57D-01 WtEn= 4.32D-02
 Coeff-Com:  0.102D+00 0.898D+00
 Coeff-En:   0.154D+00 0.846D+00
 Coeff:      0.104D+00 0.896D+00
 Gap=     0.190 Goal=   None    Shift=    0.000
 RMSDP=1.72D-03 MaxDP=5.07D-02 DE=-1.57D-01 OVMax= 1.39D-01

 Cycle   3  Pass 0  IDiag  1:
 RMSU=  1.66D-03    CP:  9.49D-01  9.85D-01
 E= -1100.98908840237     Delta-E=       -0.194884528027 Rises=F Damp=F
 DIIS: error= 8.36D-03 at cycle   3 NSaved=   3.
 NSaved= 3 IEnMin= 3 EnMin= -1100.98908840237     IErMin= 2 ErrMin= 4.32D-03
 ErrMax= 8.36D-03  0.00D+00 EMaxC= 1.00D-01 BMatC= 2.95D-02 BMatP= 2.74D-02
 IDIUse=3 WtCom= 9.16D-01 WtEn= 8.36D-02
 Coeff-Com:  0.353D-02 0.510D+00 0.486D+00
 Coeff-En:   0.000D+00 0.000D+00 0.100D+01
 Coeff:      0.323D-02 0.467D+00 0.529D+00
 Gap=     0.173 Goal=   None    Shift=    0.000
 RMSDP=8.88D-04 MaxDP=5.43D-02 DE=-1.95D-01 OVMax= 1.08D-01

 Cycle   4  Pass 0  IDiag  1:
 RMSU=  6.86D-04    CP:  9.53D-01  1.05D+00  6.79D-01
 E= -1101.00677264167     Delta-E=       -0.017684239293 Rises=F Damp=F
 DIIS: error= 7.68D-03 at cycle   4 NSaved=   4.
 NSaved= 4 IEnMin= 4 EnMin= -1101.00677264167     IErMin= 2 ErrMin= 4.32D-03
 ErrMax= 7.68D-03  0.00D+00 EMaxC= 1.00D-01 BMatC= 1.01D-02 BMatP= 2.74D-02
 IDIUse=3 WtCom= 9.23D-01 WtEn= 7.68D-02
 Coeff-Com: -0.132D-01 0.179D+00 0.374D+00 0.461D+00
 Coeff-En:   0.000D+00 0.000D+00 0.293D+00 0.707D+00
 Coeff:     -0.122D-01 0.165D+00 0.367D+00 0.479D+00
 Gap=     0.174 Goal=   None    Shift=    0.000
 RMSDP=4.27D-04 MaxDP=2.39D-02 DE=-1.77D-02 OVMax= 3.76D-02

 Cycle   5  Pass 0  IDiag  1:
 RMSU=  2.14D-04    CP:  9.51D-01  1.03D+00  7.84D-01  5.33D-01
 E= -1101.01542072871     Delta-E=       -0.008648087047 Rises=F Damp=F
 DIIS: error= 1.89D-03 at cycle   5 NSaved=   5.
 NSaved= 5 IEnMin= 5 EnMin= -1101.01542072871     IErMin= 5 ErrMin= 1.89D-03
 ErrMax= 1.89D-03  0.00D+00 EMaxC= 1.00D-01 BMatC= 6.61D-04 BMatP= 1.01D-02
 IDIUse=3 WtCom= 9.81D-01 WtEn= 1.89D-02
 Coeff-Com: -0.695D-02 0.457D-01 0.155D+00 0.281D+00 0.525D+00
 Coeff-En:   0.000D+00 0.000D+00 0.000D+00 0.980D-02 0.990D+00
 Coeff:     -0.682D-02 0.448D-01 0.152D+00 0.276D+00 0.533D+00
 Gap=     0.174 Goal=   None    Shift=    0.000
 RMSDP=1.08D-04 MaxDP=3.84D-03 DE=-8.65D-03 OVMax= 6.38D-03

 Cycle   6  Pass 0  IDiag  1:
 RMSU=  8.44D-05    CP:  9.50D-01  1.04D+00  7.71D-01  5.84D-01  7.77D-01
 E= -1101.01593496300     Delta-E=       -0.000514234287 Rises=F Damp=F
 DIIS: error= 4.11D-04 at cycle   6 NSaved=   6.
 NSaved= 6 IEnMin= 6 EnMin= -1101.01593496300     IErMin= 6 ErrMin= 4.11D-04
 ErrMax= 4.11D-04  0.00D+00 EMaxC= 1.00D-01 BMatC= 6.31D-05 BMatP= 6.61D-04
 IDIUse=3 WtCom= 9.96D-01 WtEn= 4.11D-03
 Coeff-Com: -0.266D-02 0.457D-02 0.391D-01 0.946D-01 0.300D+00 0.564D+00
 Coeff-En:   0.000D+00 0.000D+00 0.000D+00 0.000D+00 0.489D-01 0.951D+00
 Coeff:     -0.265D-02 0.455D-02 0.390D-01 0.942D-01 0.299D+00 0.566D+00
 Gap=     0.174 Goal=   None    Shift=    0.000
 RMSDP=3.40D-05 MaxDP=1.53D-03 DE=-5.14D-04 OVMax= 2.73D-03

 Cycle   7  Pass 0  IDiag  1:
 RMSU=  1.92D-05    CP:  9.50D-01  1.04D+00  7.75D-01  5.88D-01  7.66D-01
                    CP:  6.85D-01
 E= -1101.01598546944     Delta-E=       -0.000050506439 Rises=F Damp=F
 DIIS: error= 1.59D-04 at cycle   7 NSaved=   7.
 NSaved= 7 IEnMin= 7 EnMin= -1101.01598546944     IErMin= 7 ErrMin= 1.59D-04
 ErrMax= 1.59D-04  0.00D+00 EMaxC= 1.00D-01 BMatC= 5.69D-06 BMatP= 6.31D-05
 IDIUse=3 WtCom= 9.98D-01 WtEn= 1.59D-03
 Coeff-Com: -0.132D-02 0.647D-03 0.164D-01 0.439D-01 0.159D+00 0.347D+00
 Coeff-Com:  0.435D+00
 Coeff-En:   0.000D+00 0.000D+00 0.000D+00 0.000D+00 0.000D+00 0.000D+00
 Coeff-En:   0.100D+01
 Coeff:     -0.131D-02 0.646D-03 0.164D-01 0.438D-01 0.159D+00 0.346D+00
 Coeff:      0.436D+00
 Gap=     0.174 Goal=   None    Shift=    0.000
 RMSDP=1.10D-05 MaxDP=4.62D-04 DE=-5.05D-05 OVMax= 1.11D-03

 Cycle   8  Pass 0  IDiag  1:
 RMSU=  5.69D-06    CP:  9.50D-01  1.04D+00  7.76D-01  5.89D-01  7.67D-01
                    CP:  6.90D-01  5.31D-01
 E= -1101.01599219534     Delta-E=       -0.000006725897 Rises=F Damp=F
 DIIS: error= 3.65D-05 at cycle   8 NSaved=   8.
 NSaved= 8 IEnMin= 8 EnMin= -1101.01599219534     IErMin= 8 ErrMin= 3.65D-05
 ErrMax= 3.65D-05  0.00D+00 EMaxC= 1.00D-01 BMatC= 3.26D-07 BMatP= 5.69D-06
 IDIUse=1 WtCom= 1.00D+00 WtEn= 0.00D+00
 Coeff-Com: -0.335D-03-0.381D-03 0.321D-02 0.102D-01 0.454D-01 0.106D+00
 Coeff-Com:  0.225D+00 0.612D+00
 Coeff:     -0.335D-03-0.381D-03 0.321D-02 0.102D-01 0.454D-01 0.106D+00
 Coeff:      0.225D+00 0.612D+00
 Gap=     0.174 Goal=   None    Shift=    0.000
 RMSDP=2.80D-06 MaxDP=9.06D-05 DE=-6.73D-06 OVMax= 2.31D-04

 Initial convergence to 1.0D-05 achieved.  Increase integral accuracy.
 Cycle   9  Pass 1  IDiag  1:
 E= -1101.01605059722     Delta-E=       -0.000058401884 Rises=F Damp=F
 DIIS: error= 1.36D-04 at cycle   1 NSaved=   1.
 NSaved= 1 IEnMin= 1 EnMin= -1101.01605059722     IErMin= 1 ErrMin= 1.36D-04
 ErrMax= 1.36D-04  0.00D+00 EMaxC= 1.00D-01 BMatC= 1.79D-06 BMatP= 1.79D-06
 IDIUse=3 WtCom= 9.99D-01 WtEn= 1.36D-03
 Coeff-Com:  0.100D+01
 Coeff-En:   0.100D+01
 Coeff:      0.100D+01
 Gap=     0.174 Goal=   None    Shift=    0.000
 RMSDP=2.80D-06 MaxDP=9.06D-05 DE=-5.84D-05 OVMax= 3.02D-04

 Cycle  10  Pass 1  IDiag  1:
 RMSU=  9.24D-05    CP:  1.00D+00
 E= -1101.01605260058     Delta-E=       -0.000002003359 Rises=F Damp=F
 DIIS: error= 1.26D-05 at cycle   2 NSaved=   2.
 NSaved= 2 IEnMin= 2 EnMin= -1101.01605260058     IErMin= 2 ErrMin= 1.26D-05
 ErrMax= 1.26D-05  0.00D+00 EMaxC= 1.00D-01 BMatC= 8.18D-08 BMatP= 1.79D-06
 IDIUse=1 WtCom= 1.00D+00 WtEn= 0.00D+00
 Coeff-Com:  0.572D-01 0.943D+00
 Coeff:      0.572D-01 0.943D+00
 Gap=     0.174 Goal=   None    Shift=    0.000
 RMSDP=2.99D-06 MaxDP=9.19D-05 DE=-2.00D-06 OVMax= 1.72D-04

 Cycle  11  Pass 1  IDiag  1:
 RMSU=  2.69D-06    CP:  1.00D+00  1.01D+00
 E= -1101.01605246141     Delta-E=        0.000000139173 Rises=F Damp=F
 DIIS: error= 2.49D-05 at cycle   3 NSaved=   3.
 NSaved= 3 IEnMin= 2 EnMin= -1101.01605260058     IErMin= 2 ErrMin= 1.26D-05
 ErrMax= 2.49D-05  0.00D+00 EMaxC= 1.00D-01 BMatC= 2.20D-07 BMatP= 8.18D-08
 IDIUse=1 WtCom= 1.00D+00 WtEn= 0.00D+00
 Coeff-Com: -0.547D-02 0.625D+00 0.381D+00
 Coeff:     -0.547D-02 0.625D+00 0.381D+00
 Gap=     0.174 Goal=   None    Shift=    0.000
 RMSDP=1.74D-06 MaxDP=6.24D-05 DE= 1.39D-07 OVMax= 1.26D-04

 Cycle  12  Pass 1  IDiag  1:
 RMSU=  4.95D-07    CP:  1.00D+00  1.02D+00  3.83D-01
 E= -1101.01605267511     Delta-E=       -0.000000213708 Rises=F Damp=F
 DIIS: error= 3.45D-06 at cycle   4 NSaved=   4.
 NSaved= 4 IEnMin= 4 EnMin= -1101.01605267511     IErMin= 4 ErrMin= 3.45D-06
 ErrMax= 3.45D-06  0.00D+00 EMaxC= 1.00D-01 BMatC= 2.87D-09 BMatP= 8.18D-08
 IDIUse=1 WtCom= 1.00D+00 WtEn= 0.00D+00
 Coeff-Com: -0.428D-02 0.364D+00 0.232D+00 0.409D+00
 Coeff:     -0.428D-02 0.364D+00 0.232D+00 0.409D+00
 Gap=     0.174 Goal=   None    Shift=    0.000
 RMSDP=2.25D-07 MaxDP=1.01D-05 DE=-2.14D-07 OVMax= 1.77D-05

 Cycle  13  Pass 1  IDiag  1:
 RMSU=  1.36D-07    CP:  1.00D+00  1.02D+00  4.09D-01  6.65D-01
 E= -1101.01605267815     Delta-E=       -0.000000003036 Rises=F Damp=F
 DIIS: error= 4.63D-07 at cycle   5 NSaved=   5.
 NSaved= 5 IEnMin= 5 EnMin= -1101.01605267815     IErMin= 5 ErrMin= 4.63D-07
 ErrMax= 4.63D-07  0.00D+00 EMaxC= 1.00D-01 BMatC= 7.24D-11 BMatP= 2.87D-09
 IDIUse=1 WtCom= 1.00D+00 WtEn= 0.00D+00
 Coeff-Com: -0.199D-02 0.161D+00 0.103D+00 0.215D+00 0.522D+00
 Coeff:     -0.199D-02 0.161D+00 0.103D+00 0.215D+00 0.522D+00
 Gap=     0.174 Goal=   None    Shift=    0.000
 RMSDP=4.05D-08 MaxDP=1.36D-06 DE=-3.04D-09 OVMax= 2.53D-06

 Cycle  14  Pass 1  IDiag  1:
 RMSU=  3.64D-08    CP:  1.00D+00  1.02D+00  4.05D-01  6.64D-01  9.02D-01
 E= -1101.01605267820     Delta-E=       -0.000000000053 Rises=F Damp=F
 DIIS: error= 9.21D-08 at cycle   6 NSaved=   6.
 NSaved= 6 IEnMin= 6 EnMin= -1101.01605267820     IErMin= 6 ErrMin= 9.21D-08
 ErrMax= 9.21D-08  0.00D+00 EMaxC= 1.00D-01 BMatC= 3.97D-12 BMatP= 7.24D-11
 IDIUse=1 WtCom= 1.00D+00 WtEn= 0.00D+00
 Coeff-Com: -0.358D-03 0.270D-01 0.173D-01 0.457D-01 0.217D+00 0.693D+00
 Coeff:     -0.358D-03 0.270D-01 0.173D-01 0.457D-01 0.217D+00 0.693D+00
 Gap=     0.174 Goal=   None    Shift=    0.000
 RMSDP=9.92D-09 MaxDP=4.51D-07 DE=-5.28D-11 OVMax= 7.26D-07

 SCF Done:  E(RB3LYP) =  -1101.01605268     A.U. after   14 cycles
            NFock= 14  Conv=0.99D-08     -V/T= 2.0081
 KE= 1.092179554774D+03 PE=-6.107381768744D+03 EE= 2.147568036105D+03
 Leave Link  502 at Mon Aug 15 06:52:13 2022, MaxMem=  7516192768 cpu:             899.7 elap:              45.4
 (Enter /public/apps/g16-C01//g16/l601.exe)
 Copying SCF densities to generalized density rwf, IOpCl= 0 IROHF=0.

 **********************************************************************

            Population analysis using the SCF Density.

 **********************************************************************

 Alpha  occ. eigenvalues --  -24.72398 -24.72370 -24.71717 -19.17261 -14.33988
 Alpha  occ. eigenvalues --  -14.31187 -10.44068 -10.28115 -10.25125 -10.24225
 Alpha  occ. eigenvalues --  -10.23923 -10.23008 -10.22869 -10.22542 -10.21499
 Alpha  occ. eigenvalues --  -10.19312 -10.19033 -10.18553 -10.18503 -10.18446
 Alpha  occ. eigenvalues --  -10.18350 -10.18137  -1.30505  -1.21229  -1.20622
 Alpha  occ. eigenvalues --   -1.09643  -0.97005  -0.91377  -0.85910  -0.84037
 Alpha  occ. eigenvalues --   -0.81563  -0.78662  -0.75441  -0.74371  -0.71632
 Alpha  occ. eigenvalues --   -0.69301  -0.66445  -0.65723  -0.62183  -0.60851
 Alpha  occ. eigenvalues --   -0.59718  -0.59619  -0.58991  -0.58666  -0.57869
 Alpha  occ. eigenvalues --   -0.53464  -0.52281  -0.51334  -0.51177  -0.48162
 Alpha  occ. eigenvalues --   -0.47397  -0.47275  -0.47191  -0.46864  -0.45846
 Alpha  occ. eigenvalues --   -0.44772  -0.44410  -0.43419  -0.43038  -0.42798
 Alpha  occ. eigenvalues --   -0.42645  -0.42412  -0.41551  -0.41174  -0.40370
 Alpha  occ. eigenvalues --   -0.39400  -0.38470  -0.38188  -0.36946  -0.35571
 Alpha  occ. eigenvalues --   -0.34599  -0.33930  -0.31733  -0.29563  -0.28735
 Alpha  occ. eigenvalues --   -0.27318  -0.26051  -0.25349  -0.24884
 Alpha virt. eigenvalues --   -0.07522  -0.04469  -0.00970  -0.00817   0.03198
 Alpha virt. eigenvalues --    0.05797   0.06815   0.06983   0.08571   0.09325
 Alpha virt. eigenvalues --    0.10371   0.10991   0.11845   0.12637   0.12810
 Alpha virt. eigenvalues --    0.13409   0.13496   0.14745   0.15145   0.15670
 Alpha virt. eigenvalues --    0.16472   0.17148   0.17750   0.19798   0.20287
 Alpha virt. eigenvalues --    0.21593   0.22124   0.22696   0.23707   0.24463
 Alpha virt. eigenvalues --    0.25933   0.27163   0.29593   0.29920   0.30632
 Alpha virt. eigenvalues --    0.31393   0.32620   0.32779   0.33862   0.35045
 Alpha virt. eigenvalues --    0.35688   0.35952   0.37390   0.38985   0.39440
 Alpha virt. eigenvalues --    0.40701   0.41115   0.41956   0.42639   0.43474
 Alpha virt. eigenvalues --    0.44430   0.44518   0.46201   0.46822   0.47615
 Alpha virt. eigenvalues --    0.48211   0.49392   0.50470   0.50800   0.51078
 Alpha virt. eigenvalues --    0.51359   0.53089   0.53343   0.54584   0.55473
 Alpha virt. eigenvalues --    0.56128   0.56850   0.57792   0.59045   0.60520
 Alpha virt. eigenvalues --    0.61042   0.61531   0.62808   0.63605   0.64049
 Alpha virt. eigenvalues --    0.64461   0.64654   0.65324   0.65719   0.66381
 Alpha virt. eigenvalues --    0.67331   0.67904   0.68305   0.68849   0.69471
 Alpha virt. eigenvalues --    0.70225   0.70458   0.70614   0.71189   0.72097
 Alpha virt. eigenvalues --    0.72528   0.72873   0.73340   0.74277   0.74857
 Alpha virt. eigenvalues --    0.76193   0.76966   0.78086   0.78494   0.79061
 Alpha virt. eigenvalues --    0.80596   0.83474   0.83714   0.84124   0.85857
 Alpha virt. eigenvalues --    0.86765   0.88827   0.90992   0.92227   0.94683
 Alpha virt. eigenvalues --    0.95534   0.97775   0.99103   1.01711   1.04619
 Alpha virt. eigenvalues --    1.05698   1.07172   1.07642   1.08769   1.10020
 Alpha virt. eigenvalues --    1.10653   1.11805   1.12183   1.14394   1.14965
 Alpha virt. eigenvalues --    1.17362   1.18868   1.23079   1.23619   1.24851
 Alpha virt. eigenvalues --    1.27255   1.29419   1.30414   1.31859   1.32850
 Alpha virt. eigenvalues --    1.34628   1.36020   1.36437   1.38561   1.41034
 Alpha virt. eigenvalues --    1.42830   1.44217   1.44759   1.46399   1.46737
 Alpha virt. eigenvalues --    1.47749   1.48715   1.49401   1.50265   1.51543
 Alpha virt. eigenvalues --    1.51846   1.55640   1.58952   1.60227   1.63095
 Alpha virt. eigenvalues --    1.63368   1.67722   1.69982   1.71287   1.72619
 Alpha virt. eigenvalues --    1.75018   1.75574   1.77401   1.78560   1.79483
 Alpha virt. eigenvalues --    1.80144   1.82325   1.83823   1.85125   1.86347
 Alpha virt. eigenvalues --    1.87846   1.88550   1.88958   1.89743   1.91307
 Alpha virt. eigenvalues --    1.92971   1.94274   1.94952   1.97289   1.98308
 Alpha virt. eigenvalues --    1.98665   1.99946   2.02362   2.04896   2.05161
 Alpha virt. eigenvalues --    2.06445   2.07605   2.09701   2.10870   2.13009
 Alpha virt. eigenvalues --    2.14209   2.15472   2.18912   2.19136   2.21872
 Alpha virt. eigenvalues --    2.22532   2.22829   2.24157   2.24696   2.28034
 Alpha virt. eigenvalues --    2.29538   2.31130   2.31964   2.35088   2.35864
 Alpha virt. eigenvalues --    2.38820   2.39369   2.46419   2.47399   2.50802
 Alpha virt. eigenvalues --    2.51712   2.53394   2.54520   2.56416   2.62293
 Alpha virt. eigenvalues --    2.65871   2.66599   2.67519   2.70246   2.71670
 Alpha virt. eigenvalues --    2.72625   2.73618   2.75804   2.77235   2.79494
 Alpha virt. eigenvalues --    2.81462   2.82641   2.84780   2.87789   2.92188
 Alpha virt. eigenvalues --    2.96627   3.00114   3.00202   3.03104   3.03295
 Alpha virt. eigenvalues --    3.04072   3.04576   3.05657   3.05989   3.11401
 Alpha virt. eigenvalues --    3.13065   3.16577   3.19331   3.22708   3.29620
 Alpha virt. eigenvalues --    3.34451   3.40848   3.43344   3.51534   3.53973
 Alpha virt. eigenvalues --    3.56978   3.63396   3.65466   3.83398   3.86128
          Condensed to atoms (all electrons):
               1          2          3          4          5          6
     1  F    8.956968   0.383438  -0.048368  -0.048667  -0.066089  -0.002604
     2  C    0.383438   4.156183   0.382853   0.378114   0.228615  -0.044175
     3  F   -0.048368   0.382853   8.938602  -0.045968  -0.081558   0.004632
     4  F   -0.048667   0.378114  -0.045968   8.948967  -0.076993   0.002597
     5  C   -0.066089   0.228615  -0.081558  -0.076993   5.693858   0.223075
     6  C   -0.002604  -0.044175   0.004632   0.002597   0.223075   5.265205
     7  C   -0.000126   0.007798  -0.000117   0.001115   0.094208   0.227093
     8  C   -0.000020   0.001386   0.000016  -0.000051  -0.096353   0.053406
     9  C   -0.000000   0.000090  -0.000000  -0.000000   0.002390   0.013053
    10  N   -0.000000  -0.000000   0.000000  -0.000000  -0.000135   0.002253
    11  C   -0.000000   0.000000   0.000000   0.000000   0.000007  -0.000084
    12  C    0.000000  -0.000000  -0.000000  -0.000000  -0.000000   0.000003
    13  C   -0.000000  -0.000000  -0.000000   0.000000   0.000000  -0.000006
    14  C   -0.000000   0.000000   0.000000  -0.000000   0.000000  -0.000000
    15  C   -0.000000  -0.000000  -0.000000   0.000000  -0.000000   0.000000
    16  C   -0.000000   0.000000   0.000000  -0.000000  -0.000000   0.000000
    17  C    0.000000  -0.000000  -0.000000   0.000000  -0.000011   0.000003
    18  C   -0.000000  -0.000000   0.000000   0.000000  -0.000001  -0.000094
    19  C    0.000000  -0.000000  -0.000000  -0.000000   0.000001   0.000032
    20  O    0.000000  -0.000000   0.000000   0.000000  -0.000045  -0.000016
    21  N   -0.000011   0.004302   0.000205  -0.000008  -0.024100  -0.053795
    22  C   -0.002640  -0.031248   0.006850   0.003176   0.323505  -0.025854
    23  H    0.000215  -0.008763   0.000188   0.007442  -0.085398   0.445173
    24  H    0.000000  -0.000160   0.000000  -0.000007   0.014281  -0.081219
    25  H   -0.000000  -0.000000   0.000000   0.000000  -0.000000   0.000001
    26  H   -0.000000   0.000000  -0.000000  -0.000000  -0.000000   0.000002
    27  H   -0.000000   0.000000   0.000000   0.000000   0.000000  -0.000000
    28  H   -0.000000   0.000000   0.000000  -0.000000   0.000000   0.000000
    29  H    0.000000   0.000000  -0.000000  -0.000000   0.000000  -0.000000
    30  H   -0.000000   0.000000   0.000000   0.000000  -0.000000   0.000000
    31  H    0.000000  -0.000000   0.000000  -0.000000  -0.000002   0.000039
    32  H    0.000000  -0.000000   0.000000  -0.000000   0.000008   0.000040
    33  H   -0.000000  -0.000000   0.000000   0.000000   0.000000  -0.000001
    34  H    0.000000  -0.000000  -0.000000  -0.000000   0.000000  -0.000001
    35  H    0.000013  -0.003411   0.007418   0.000111  -0.086104   0.005313
               7          8          9         10         11         12
     1  F   -0.000126  -0.000020  -0.000000  -0.000000  -0.000000   0.000000
     2  C    0.007798   0.001386   0.000090  -0.000000   0.000000  -0.000000
     3  F   -0.000117   0.000016  -0.000000   0.000000   0.000000  -0.000000
     4  F    0.001115  -0.000051  -0.000000  -0.000000   0.000000  -0.000000
     5  C    0.094208  -0.096353   0.002390  -0.000135   0.000007  -0.000000
     6  C    0.227093   0.053406   0.013053   0.002253  -0.000084   0.000003
     7  C    5.260614   0.363857  -0.096942   0.012516  -0.002506   0.000304
     8  C    0.363857   5.427857  -0.023099  -0.143782   0.024482  -0.001828
     9  C   -0.096942  -0.023099   5.190473   0.628435  -0.069182  -0.006832
    10  N    0.012516  -0.143782   0.628435   6.515395   0.394548  -0.072247
    11  C   -0.002506   0.024482  -0.069182   0.394548   4.906705   0.348370
    12  C    0.000304  -0.001828  -0.006832  -0.072247   0.348370   4.934771
    13  C   -0.000075  -0.000453   0.006695  -0.024443  -0.033670   0.402165
    14  C   -0.000002  -0.000014   0.000026   0.000944  -0.009657  -0.093371
    15  C   -0.000002  -0.000048   0.000153   0.000048   0.000119   0.013547
    16  C    0.000002   0.000082  -0.000196   0.000018  -0.000101   0.000089
    17  C    0.000296   0.000079   0.000483  -0.000209   0.001148   0.012526
    18  C    0.000321   0.001167   0.005212   0.005989  -0.016016  -0.095883
    19  C    0.000553   0.002003  -0.109473  -0.064854   0.321863  -0.030402
    20  O    0.004469  -0.099072   0.436988  -0.100764  -0.064736   0.000709
    21  N   -0.057809   0.538687  -0.102588   0.002224  -0.000180   0.000002
    22  C   -0.077482  -0.039831   0.006910  -0.000007   0.000014  -0.000000
    23  H   -0.069433   0.013783  -0.000729  -0.000008   0.000000  -0.000000
    24  H    0.420954  -0.043794  -0.016818   0.019943  -0.000413   0.000044
    25  H    0.000050  -0.000765   0.002748  -0.023669   0.341434  -0.033422
    26  H    0.000009  -0.000201  -0.001373   0.002082  -0.014932   0.326342
    27  H   -0.000000   0.000037   0.000107   0.005670  -0.009346   0.329809
    28  H   -0.000000   0.000006   0.000053   0.000030   0.000797  -0.018901
    29  H   -0.000000  -0.000000  -0.000004   0.000001  -0.000010  -0.000383
    30  H   -0.000001  -0.000000  -0.000001   0.000001   0.000003   0.000026
    31  H    0.000122   0.000162  -0.000042  -0.000042   0.000016  -0.000389
    32  H    0.002471  -0.003680   0.003666   0.010170  -0.008109  -0.010457
    33  H    0.000002   0.000140   0.007736   0.001605  -0.001061   0.005716
    34  H   -0.000031   0.000006   0.006891   0.003535  -0.009614  -0.014483
    35  H    0.001452   0.006006  -0.000323   0.000002  -0.000000  -0.000000
              13         14         15         16         17         18
     1  F   -0.000000  -0.000000  -0.000000  -0.000000   0.000000  -0.000000
     2  C   -0.000000   0.000000  -0.000000   0.000000  -0.000000  -0.000000
     3  F   -0.000000   0.000000  -0.000000   0.000000  -0.000000   0.000000
     4  F    0.000000  -0.000000   0.000000  -0.000000   0.000000   0.000000
     5  C    0.000000   0.000000  -0.000000  -0.000000  -0.000011  -0.000001
     6  C   -0.000006  -0.000000   0.000000   0.000000   0.000003  -0.000094
     7  C   -0.000075  -0.000002  -0.000002   0.000002   0.000296   0.000321
     8  C   -0.000453  -0.000014  -0.000048   0.000082   0.000079   0.001167
     9  C    0.006695   0.000026   0.000153  -0.000196   0.000483   0.005212
    10  N   -0.024443   0.000944   0.000048   0.000018  -0.000209   0.005989
    11  C   -0.033670  -0.009657   0.000119  -0.000101   0.001148  -0.016016
    12  C    0.402165  -0.093371   0.013547   0.000089   0.012526  -0.095883
    13  C    5.256589   0.187179   0.171101  -0.208195   0.174475   0.199808
    14  C    0.187179   5.391205   0.183342   0.167088  -0.192022   0.100387
    15  C    0.171101   0.183342   5.226123   0.168975   0.169829  -0.184338
    16  C   -0.208195   0.167088   0.168975   5.288760   0.155422   0.171104
    17  C    0.174475  -0.192022   0.169829   0.155422   5.268270   0.160616
    18  C    0.199808   0.100387  -0.184338   0.171104   0.160616   5.372527
    19  C   -0.024448   0.003397  -0.001184   0.000042   0.000076  -0.000629
    20  O    0.004510  -0.000547   0.000002  -0.000015   0.000170  -0.001972
    21  N   -0.000017   0.000000   0.000002  -0.000009  -0.000023  -0.000244
    22  C   -0.000000  -0.000000   0.000000  -0.000000   0.000026   0.000006
    23  H   -0.000000   0.000000  -0.000000   0.000000  -0.000001   0.000001
    24  H   -0.000132  -0.000001  -0.000000  -0.000001   0.000078  -0.000546
    25  H    0.009266  -0.000172   0.000015  -0.000001   0.000015   0.000394
    26  H   -0.009921   0.009492  -0.000678   0.000050   0.000551  -0.009062
    27  H   -0.017012  -0.012921   0.000791  -0.000006  -0.000487   0.012382
    28  H   -0.080370   0.425776  -0.079372   0.015949  -0.002078   0.018096
    29  H    0.018629  -0.086969   0.443577  -0.088164   0.016953  -0.002312
    30  H   -0.002210   0.016989  -0.086173   0.443833  -0.086049   0.016851
    31  H    0.018357  -0.002407   0.017255  -0.088793   0.447372  -0.090380
    32  H   -0.073613   0.017921  -0.002275   0.015606  -0.084944   0.428596
    33  H    0.001404  -0.000159   0.000024  -0.000002  -0.000006  -0.000102
    34  H    0.002510   0.012035   0.000762  -0.000065  -0.000094   0.000765
    35  H   -0.000000  -0.000000  -0.000000   0.000000   0.000000   0.000000
              19         20         21         22         23         24
     1  F    0.000000   0.000000  -0.000011  -0.002640   0.000215   0.000000
     2  C   -0.000000  -0.000000   0.004302  -0.031248  -0.008763  -0.000160
     3  F   -0.000000   0.000000   0.000205   0.006850   0.000188   0.000000
     4  F   -0.000000   0.000000  -0.000008   0.003176   0.007442  -0.000007
     5  C    0.000001  -0.000045  -0.024100   0.323505  -0.085398   0.014281
     6  C    0.000032  -0.000016  -0.053795  -0.025854   0.445173  -0.081219
     7  C    0.000553   0.004469  -0.057809  -0.077482  -0.069433   0.420954
     8  C    0.002003  -0.099072   0.538687  -0.039831   0.013783  -0.043794
     9  C   -0.109473   0.436988  -0.102588   0.006910  -0.000729  -0.016818
    10  N   -0.064854  -0.100764   0.002224  -0.000007  -0.000008   0.019943
    11  C    0.321863  -0.064736  -0.000180   0.000014   0.000000  -0.000413
    12  C   -0.030402   0.000709   0.000002  -0.000000  -0.000000   0.000044
    13  C   -0.024448   0.004510  -0.000017  -0.000000  -0.000000  -0.000132
    14  C    0.003397  -0.000547   0.000000  -0.000000   0.000000  -0.000001
    15  C   -0.001184   0.000002   0.000002   0.000000  -0.000000  -0.000000
    16  C    0.000042  -0.000015  -0.000009  -0.000000   0.000000  -0.000001
    17  C    0.000076   0.000170  -0.000023   0.000026  -0.000001   0.000078
    18  C   -0.000629  -0.001972  -0.000244   0.000006   0.000001  -0.000546
    19  C    4.802248   0.327836  -0.000205   0.000016  -0.000000   0.000276
    20  O    0.327836   7.816552   0.003281   0.000098   0.000000   0.000492
    21  N   -0.000205   0.003281   6.225834   0.530110  -0.000207   0.005548
    22  C    0.000016   0.000098   0.530110   4.948015   0.010348  -0.000069
    23  H   -0.000000   0.000000  -0.000207   0.010348   0.620518  -0.009487
    24  H    0.000276   0.000492   0.005548  -0.000069  -0.009487   0.608852
    25  H   -0.023094   0.003351   0.000006  -0.000001   0.000000  -0.000065
    26  H    0.010842  -0.000099   0.000000   0.000000  -0.000000   0.000096
    27  H   -0.008543  -0.000005  -0.000000   0.000000  -0.000000   0.000001
    28  H   -0.001743  -0.000019   0.000000   0.000000   0.000000  -0.000000
    29  H    0.000014  -0.000000   0.000000  -0.000000  -0.000000   0.000000
    30  H    0.000000  -0.000001  -0.000000   0.000000   0.000000  -0.000000
    31  H   -0.000012  -0.000002  -0.000001  -0.000002   0.000000  -0.000007
    32  H    0.001851   0.000207  -0.000051  -0.000013  -0.000003   0.001462
    33  H    0.339955  -0.029670   0.000017  -0.000000   0.000000  -0.000007
    34  H    0.354009  -0.026009   0.000028  -0.000000   0.000000  -0.000010
    35  H   -0.000001   0.000013  -0.038615   0.417527  -0.000277   0.000073
              25         26         27         28         29         30
     1  F   -0.000000  -0.000000  -0.000000  -0.000000   0.000000  -0.000000
     2  C   -0.000000   0.000000   0.000000   0.000000   0.000000   0.000000
     3  F    0.000000  -0.000000   0.000000   0.000000  -0.000000   0.000000
     4  F    0.000000  -0.000000   0.000000  -0.000000  -0.000000   0.000000
     5  C   -0.000000  -0.000000   0.000000   0.000000   0.000000  -0.000000
     6  C    0.000001   0.000002  -0.000000   0.000000  -0.000000   0.000000
     7  C    0.000050   0.000009  -0.000000  -0.000000  -0.000000  -0.000001
     8  C   -0.000765  -0.000201   0.000037   0.000006  -0.000000  -0.000000
     9  C    0.002748  -0.001373   0.000107   0.000053  -0.000004  -0.000001
    10  N   -0.023669   0.002082   0.005670   0.000030   0.000001   0.000001
    11  C    0.341434  -0.014932  -0.009346   0.000797  -0.000010   0.000003
    12  C   -0.033422   0.326342   0.329809  -0.018901  -0.000383   0.000026
    13  C    0.009266  -0.009921  -0.017012  -0.080370   0.018629  -0.002210
    14  C   -0.000172   0.009492  -0.012921   0.425776  -0.086969   0.016989
    15  C    0.000015  -0.000678   0.000791  -0.079372   0.443577  -0.086173
    16  C   -0.000001   0.000050  -0.000006   0.015949  -0.088164   0.443833
    17  C    0.000015   0.000551  -0.000487  -0.002078   0.016953  -0.086049
    18  C    0.000394  -0.009062   0.012382   0.018096  -0.002312   0.016851
    19  C   -0.023094   0.010842  -0.008543  -0.001743   0.000014   0.000000
    20  O    0.003351  -0.000099  -0.000005  -0.000019  -0.000000  -0.000001
    21  N    0.000006   0.000000  -0.000000   0.000000   0.000000  -0.000000
    22  C   -0.000001   0.000000   0.000000   0.000000  -0.000000   0.000000
    23  H    0.000000  -0.000000  -0.000000   0.000000  -0.000000   0.000000
    24  H   -0.000065   0.000096   0.000001  -0.000000   0.000000  -0.000000
    25  H    0.663847  -0.005210  -0.003347  -0.000062  -0.000001   0.000000
    26  H   -0.005210   0.627294  -0.026176   0.000167   0.000012  -0.000001
    27  H   -0.003347  -0.026176   0.645866   0.009246  -0.000013  -0.000001
    28  H   -0.000062   0.000167   0.009246   0.685333  -0.013550  -0.000316
    29  H   -0.000001   0.000012  -0.000013  -0.013550   0.680832  -0.013382
    30  H    0.000000  -0.000001  -0.000001  -0.000316  -0.013382   0.676084
    31  H   -0.000001  -0.000004   0.000013   0.000044  -0.000320  -0.013390
    32  H   -0.000165   0.007070   0.000021  -0.000308   0.000037  -0.000285
    33  H   -0.012862  -0.000441   0.000177  -0.000038   0.000000  -0.000000
    34  H    0.006120   0.000413   0.001959   0.004695  -0.000016  -0.000004
    35  H    0.000000   0.000000  -0.000000   0.000000  -0.000000   0.000000
              31         32         33         34         35
     1  F    0.000000   0.000000  -0.000000   0.000000   0.000013
     2  C   -0.000000  -0.000000  -0.000000  -0.000000  -0.003411
     3  F    0.000000   0.000000   0.000000  -0.000000   0.007418
     4  F   -0.000000  -0.000000   0.000000  -0.000000   0.000111
     5  C   -0.000002   0.000008   0.000000   0.000000  -0.086104
     6  C    0.000039   0.000040  -0.000001  -0.000001   0.005313
     7  C    0.000122   0.002471   0.000002  -0.000031   0.001452
     8  C    0.000162  -0.003680   0.000140   0.000006   0.006006
     9  C   -0.000042   0.003666   0.007736   0.006891  -0.000323
    10  N   -0.000042   0.010170   0.001605   0.003535   0.000002
    11  C    0.000016  -0.008109  -0.001061  -0.009614  -0.000000
    12  C   -0.000389  -0.010457   0.005716  -0.014483  -0.000000
    13  C    0.018357  -0.073613   0.001404   0.002510  -0.000000
    14  C   -0.002407   0.017921  -0.000159   0.012035  -0.000000
    15  C    0.017255  -0.002275   0.000024   0.000762  -0.000000
    16  C   -0.088793   0.015606  -0.000002  -0.000065   0.000000
    17  C    0.447372  -0.084944  -0.000006  -0.000094   0.000000
    18  C   -0.090380   0.428596  -0.000102   0.000765   0.000000
    19  C   -0.000012   0.001851   0.339955   0.354009  -0.000001
    20  O   -0.000002   0.000207  -0.029670  -0.026009   0.000013
    21  N   -0.000001  -0.000051   0.000017   0.000028  -0.038615
    22  C   -0.000002  -0.000013  -0.000000  -0.000000   0.417527
    23  H    0.000000  -0.000003   0.000000   0.000000  -0.000277
    24  H   -0.000007   0.001462  -0.000007  -0.000010   0.000073
    25  H   -0.000001  -0.000165  -0.012862   0.006120   0.000000
    26  H   -0.000004   0.007070  -0.000441   0.000413   0.000000
    27  H    0.000013   0.000021   0.000177   0.001959  -0.000000
    28  H    0.000044  -0.000308  -0.000038   0.004695   0.000000
    29  H   -0.000320   0.000037   0.000000  -0.000016  -0.000000
    30  H   -0.013390  -0.000285  -0.000000  -0.000004   0.000000
    31  H    0.679795  -0.013008  -0.000000   0.000002  -0.000000
    32  H   -0.013008   0.658670  -0.000019  -0.000168  -0.000000
    33  H   -0.000000  -0.000019   0.632202  -0.034654  -0.000000
    34  H    0.000002  -0.000168  -0.034654   0.595634  -0.000000
    35  H   -0.000000  -0.000000  -0.000000  -0.000000   0.609477
 Mulliken charges:
               1
     1  F   -0.172110
     2  C    0.544980
     3  F   -0.164753
     4  F   -0.169827
     5  C   -0.063158
     6  C   -0.034069
     7  C   -0.093679
     8  C    0.019828
     9  C    0.115494
    10  N   -0.175248
    11  C   -0.099888
    12  C    0.004177
    13  C    0.021877
    14  C   -0.117539
    15  C   -0.041595
    16  C   -0.041472
    17  C   -0.042464
    18  C   -0.092642
    19  C    0.099573
    20  O   -0.275705
    21  N   -0.032381
    22  C   -0.069452
    23  H    0.076637
    24  H    0.080633
    25  H    0.075590
    26  H    0.083678
    27  H    0.071780
    28  H    0.036563
    29  H    0.045069
    30  H    0.048026
    31  H    0.045624
    32  H    0.049301
    33  H    0.090043
    34  H    0.095785
    35  H    0.081325
 Sum of Mulliken charges =  -0.00000
 Mulliken charges with hydrogens summed into heavy atoms:
               1
     1  F   -0.172110
     2  C    0.544980
     3  F   -0.164753
     4  F   -0.169827
     5  C   -0.063158
     6  C    0.042568
     7  C   -0.013046
     8  C    0.019828
     9  C    0.115494
    10  N   -0.175248
    11  C   -0.024299
    12  C    0.159635
    13  C    0.021877
    14  C   -0.080975
    15  C    0.003474
    16  C    0.006555
    17  C    0.003160
    18  C   -0.043342
    19  C    0.285401
    20  O   -0.275705
    21  N   -0.032381
    22  C    0.011872
 Electronic spatial extent (au):  <R**2>=           8073.7593
 Charge=              0.0000 electrons
 Dipole moment (field-independent basis, Debye):
    X=             -2.4914    Y=             -0.8759    Z=              0.9021  Tot=              2.7907
 Quadrupole moment (field-independent basis, Debye-Ang):
   XX=           -123.9911   YY=           -121.2068   ZZ=           -124.5909
   XY=              3.5815   XZ=              5.2779   YZ=             -1.6615
 Traceless Quadrupole moment (field-independent basis, Debye-Ang):
   XX=             -0.7281   YY=              2.0561   ZZ=             -1.3280
   XY=              3.5815   XZ=              5.2779   YZ=             -1.6615
 Octapole moment (field-independent basis, Debye-Ang**2):
  XXX=             43.3138  YYY=              4.7559  ZZZ=              0.9359  XYY=             31.9733
  XXY=            -37.7848  XXZ=            -27.3753  XZZ=             57.6384  YZZ=              6.0327
  YYZ=            -15.0416  XYZ=              4.7417
 Hexadecapole moment (field-independent basis, Debye-Ang**3):
 XXXX=          -7825.2956 YYYY=          -1621.7409 ZZZZ=           -751.3119 XXXY=            172.2506
 XXXZ=            109.0919 YYYX=            105.1043 YYYZ=              2.4489 ZZZX=             11.5491
 ZZZY=              2.1149 XXYY=          -1542.1422 XXZZ=          -1375.4004 YYZZ=           -412.5926
 XXYZ=            -36.6891 YYXZ=             42.8694 ZZXY=             30.2754
 N-N= 1.766618125186D+03 E-N=-6.107381762372D+03  KE= 1.092179554774D+03
 No NMR shielding tensors so no spin-rotation constants.
 Leave Link  601 at Mon Aug 15 06:52:14 2022, MaxMem=  7516192768 cpu:              24.1 elap:               1.3
 (Enter /public/apps/g16-C01//g16/l701.exe)
 ... and contract with generalized density number  0.
 Compute integral first derivatives.
 R6Disp: Adding Grimme-D3(BJ) dispersion energy 1st derivatives to the gradient.
   1 Symmetry operations used in ECPInt.
 ECPInt:  NShTT=   12561 NPrTT=   50411 LenC2=   11175 LenP2D=   30373.
 LDataN:  DoStor=T MaxTD1= 5 Len=  102
 Leave Link  701 at Mon Aug 15 06:52:15 2022, MaxMem=  7516192768 cpu:              20.2 elap:               1.0
 (Enter /public/apps/g16-C01//g16/l702.exe)
 L702 exits ... SP integral derivatives will be done elsewhere.
 Leave Link  702 at Mon Aug 15 06:52:15 2022, MaxMem=  7516192768 cpu:               0.6 elap:               0.1
 (Enter /public/apps/g16-C01//g16/l703.exe)
 Integral derivatives from FoFJK, PRISM(SPDF).
 Compute integral first derivatives, UseDBF=F ICtDFT=           0.
 Calling FoFJK, ICntrl=      2127 FMM=F ISym2X=0 I1Cent= 0 IOpClX= 0 NMat=1 NMatS=1 NMatT=0.
 FoFJK:  IHMeth= 1 ICntrl=    2127 DoSepK=F KAlg= 0 I1Cent=           0 FoldK=F
 IRaf=         0 NMat=       1 IRICut=       1 DoRegI=T DoRafI=F ISym2E= 0 IDoP0=0 IntGTp=1.
 FoFCou: FMM=F IPFlag=           0 FMFlag=      100000 FMFlg1=         800
         NFxFlg=           0 DoJE=F BraDBF=F KetDBF=F FulRan=T
         wScrn=  0.000000 ICntrl=      2127 IOpCl=  0 I1Cent=           0 NGrid=           0
         NMat0=    1 NMatS0=      1 NMatT0=    0 NMatD0=    1 NMtDS0=    0 NMtDT0=    0
 Symmetry not used in FoFCou.
 Leave Link  703 at Mon Aug 15 06:52:23 2022, MaxMem=  7516192768 cpu:             145.6 elap:               7.5
 (Enter /public/apps/g16-C01//g16/l716.exe)
 Dipole        =-9.80201518D-01-3.44625187D-01 3.54908046D-01
 -------------------------------------------------------------------
 Center     Atomic                   Forces (Hartrees/Bohr)
 Number     Number              X              Y              Z
 -------------------------------------------------------------------
[...]
 22,0.00000760,-0.00000045,-0.00001044,-0.00000028,-0.00001754,0.000017
 10,-0.00000257,0.00001272,0.00003450,0.00002065,-0.00005928,-0.0000173
 0,0.00009455,0.00005102,-0.00009069,-0.00008597,0.00006902,0.00043693,
 -0.00045044,-0.00032451,-0.00027132,-0.00042783,-0.00081972,-0.0047174
 9,0.00044579,0.00233170,-0.00375084,-0.01302424,0.00814794,0.01420435,
 0.08903640,-0.07988101,0.00742841,0.02212317,-0.00318134,-0.00556709,0
 .00264264,-0.00018430,-0.00003300,0.00000923,-0.00001370,0.00003294,-0
 .00001977,0.00001843,-0.00001379,0.00001074,-0.00000814,0.00000392,-0.
 00000121,-0.00000247,-0.00000045,0.00000165,-0.00000207,0.00001172,-0.
 00000807,0.00000704,0.00001603,-0.00002067,-0.00000550,-0.00007758,0.0
 0001202,-0.00004267,0.00007969,0.00008522,0.00004985,-0.00028809,-0.00
 055215,0.00030934,0.00239921,-0.00095589,-0.00129863,-0.01219446,-0.09
 820240,0.07602261,0.00002514,0.00002448,0.00000553,-0.00008738,-0.0000
 3376,-0.00000917,0.00002254,0.00000690,-0.00000823,0.00002883,0.000001
 05,0.00001383,0.00002654,0.00000588,-0.00001379,-0.00002769,-0.0000208
 5,-0.00000117,0.00005370,-0.00000498,-0.00000519,-0.00004774,0.0000053
 7,-0.00000032,-0.00005906,0.00001379,-0.00000052,0.00006551,0.00002087
 ,0.00000894,-0.00008307,0.00003184,0.00001807,-0.00017257,0.00017960,-
 0.00033758,0.00376990,-0.00288103,-0.00171385,0.00030747,0.00054937,0.
 00053965,0.00242161,0.00067749,-0.00477265,-0.00771985,-0.00953954,-0.
 00515870,-0.21001730,-0.10834735,-0.09886488,-0.00221921,-0.00191091,-
 0.00467174,-0.00001224,0.00000925,0.00004431,0.00004111,-0.00000950,-0
 .00000397,0.00002115,-0.00000445,0.00000245,-0.00000470,0.00000181,0.0
 0001836,0.00000327,0.00000078,-0.00000024,-0.00000995,-0.00000212,-0.0
 0000814,0.00002896,-0.00003442,-0.00000712,0.00001591,-0.00003395,0.00
 004216,-0.00005641,-0.00006527,0.00005347,-0.00046663,0.00022113,0.000
 44205,-0.00038916,-0.00047214,-0.00026348,-0.00105468,0.00140254,0.002
 05590,0.21676529,-0.00003152,0.00000712,0.00001081,0.00012429,-0.00002
 158,-0.00003670,-0.00004208,0.00000125,0.00003394,-0.00003875,0.000008
 95,-0.00000729,0.00003571,0.00001827,-0.00002339,0.00001780,0.00003792
 ,0.00002441,0.00001251,0.00008151,0.00006931,-0.00015735,-0.00005835,-
 0.00005661,-0.00021488,-0.00007409,0.00002945,0.00020633,-0.00000086,-
 0.00005245,-0.00020754,0.00002379,0.00005780,-0.00102247,-0.00005962,-
 0.00068391,-0.00187417,-0.00304621,0.00442893,0.00065491,-0.00050184,0
 .00060279,-0.00019861,0.00067868,0.00372950,0.01101822,0.01015632,0.00
 675849,-0.10813099,-0.12131179,-0.05241246,-0.02263884,-0.00921071,-0.
 01378294,-0.00006053,-0.00001396,0.00003236,0.00013785,0.00003082,-0.0
 0002896,0.00002488,0.00004668,-0.00000265,0.00003910,-0.00000995,-0.00
 000474,0.00001923,-0.00001335,0.00000368,-0.00001964,-0.00005234,0.000
 00394,0.00007466,-0.00002831,-0.00000979,0.00002512,0.00002547,0.00001
 654,-0.00009132,-0.00045697,0.00004620,0.00021159,-0.00016563,-0.00036
 732,0.00050317,0.00033799,0.00037446,0.00086332,0.00001450,-0.00176496
 ,0.11903654,0.12311513,-0.00001508,0.00004691,-0.00000104,0.00006298,-
 0.00009071,0.00002063,-0.00001390,0.00001397,0.00000261,-0.00003021,0.
 00002430,-0.00002624,0.00001200,0.00001171,-0.00001593,0.00000618,0.00
 000545,0.00002051,-0.00000190,-0.00000431,0.00004021,-0.00005564,-0.00
 005612,0.00002226,-0.00011001,-0.00005425,0.00004128,0.00005979,-0.000
 06236,-0.00005092,-0.00000571,-0.00003661,-0.00000034,0.00035270,0.000
 12140,0.00037721,-0.00200549,0.00399732,0.00297797,0.00047600,0.000677
 28,-0.00057883,-0.00431674,0.00448080,-0.00014835,-0.01802330,-0.01338
 151,-0.00527063,-0.09898584,-0.05220275,-0.10150388,0.00834802,0.00587
 441,0.00824364,-0.00004306,0.00002612,-0.00002958,0.00005106,0.0000211
 4,-0.00003006,0.00000563,0.00005842,-0.00004129,0.00003561,-0.00000405
 ,-0.00000308,-0.00000641,-0.00000160,0.00000221,-0.00001051,0.00001402
 ,-0.00000444,0.00000474,0.00000402,0.00000255,-0.00001540,-0.00002599,
 -0.00003941,0.00008666,0.00006453,-0.00006223,0.00041378,-0.00035447,-
 0.00044049,-0.00091743,-0.00056552,-0.00029575,0.00239559,-0.00124104,
 -0.00096705,0.11034179,0.05429319,0.09912513,0.00001416,-0.00000651,-0
 .00000469,-0.00006219,0.00001878,0.00000622,0.00002479,-0.00000134,-0.
 00001532,0.00002106,-0.00000692,0.00000289,-0.00003809,-0.00000296,-0.
 00002364,-0.00005456,-0.00005750,-0.00004117,-0.00006576,-0.00012989,0
 .00001127,0.00039242,0.00008152,-0.00000159,0.00003001,0.00075147,-0.0
 0050091,-0.00078000,0.00076470,0.00076666,0.00027574,-0.00016223,-0.00
 028724,-0.00068143,0.00265223,0.00052359,-0.00827091,0.01036952,-0.018
 08413,-0.00020471,-0.00469024,-0.00359771,-0.00041485,-0.00041917,0.00
 052921,0.00291552,-0.00338739,-0.00195689,0.00787941,-0.00477760,0.007
 21611,-0.12225390,0.05265565,-0.11611340,-0.00026998,0.00003543,-0.000
 01699,0.00026142,-0.00014179,0.00056285,-0.00009199,-0.00005432,0.0000
 3691,0.00003053,0.00001826,-0.00000978,-0.00000923,0.00000089,0.000004
 39,-0.00005311,0.00019243,-0.00004434,-0.00003918,0.00005820,-0.000010
 08,-0.00014405,-0.00070918,0.00080728,0.00001731,0.00003784,0.00033785
 ,-0.00041710,0.00049515,-0.00093701,-0.00040273,0.00034937,0.00043017,
 0.00030159,-0.00031459,0.00029810,-0.00117819,0.00169504,0.00187745,0.
 12320273,-0.00002950,-0.00006783,-0.00002355,0.00010644,0.00010084,0.0
 0004828,-0.00002172,-0.00001745,-0.00000336,-0.00003286,-0.00001186,-0
 .00002103,-0.00008834,-0.00004122,0.00010109,0.00008036,0.00003345,0.0
 0001389,-0.00008810,-0.00004212,-0.00014892,-0.00004514,0.00006002,0.0
 0014320,0.00058592,-0.00037531,-0.00060718,0.00017637,-0.00082871,-0.0
 0044979,-0.00054660,-0.00027356,-0.00000377,0.00086992,-0.00019560,-0.
 00144200,-0.00803703,0.00976294,-0.01216914,-0.00404074,-0.00027931,0.
 00014056,-0.00045873,-0.00065092,-0.00047531,-0.00393013,-0.00316049,0
 .00251125,0.01569927,-0.00713464,0.02175236,0.05348045,-0.10266731,0.0
 9523920,-0.00001244,-0.00004178,0.00002136,0.00008431,-0.00005050,0.00
 033590,0.00001154,0.00002069,-0.00002138,-0.00007471,-0.00002017,-0.00
 006488,-0.00001980,0.00001543,-0.00000887,0.00022828,-0.00004580,0.000
 04427,0.00003294,-0.00005872,-0.00000383,-0.00031163,0.00017207,-0.000
 00821,0.00014309,0.00017481,0.00011146,-0.00054462,0.00041489,-0.00066
 442,0.00031808,-0.00013014,-0.00023599,0.00062653,-0.00037942,0.001024
 72,0.00116753,0.00043819,-0.00164859,-0.05533055,0.10525065,-0.0000809
 5,-0.00009787,-0.00001765,0.00030848,0.00014077,0.00001033,-0.00008425
 ,-0.00002677,0.00004247,-0.00009529,-0.00000967,-0.00003666,-0.0001037
 5,-0.00002538,0.00010263,0.00015974,0.00006948,-0.00000258,-0.00002479
 ,-0.00001182,-0.00009088,0.00025306,0.00018643,-0.00003879,-0.00009328
 ,0.00026451,-0.00128008,-0.00014150,0.00103379,0.00067918,-0.00107159,
 -0.00069092,0.00015145,0.00238511,-0.00068126,-0.00087874,-0.00534657,
 0.00758098,-0.00643503,-0.00403176,-0.00047216,0.00296565,0.00056407,-
 0.00060044,0.00020444,-0.00144766,0.00348150,0.00373385,-0.00629470,0.
 00234418,-0.00346516,-0.11534694,0.09291700,-0.20880292,-0.00026263,-0
 .00007026,0.00003116,0.00059613,-0.00030178,0.00059713,-0.00002826,-0.
 00002405,0.00002998,-0.00002833,-0.00002578,-0.00007366,-0.00001319,-0
 .00000210,-0.00000638,0.00008190,-0.00011768,0.00012471,0.00019223,-0.
 00013180,-0.00006717,-0.00024467,-0.00034420,-0.00006069,0.00003341,0.
 00019585,0.00007820,-0.00040353,0.00033356,-0.00030076,0.00042080,-0.0
 0025141,-0.00051719,-0.00032954,0.00009911,-0.00023168,0.00224957,-0.0
 0129819,-0.00137050,0.12815380,-0.10355715,0.21486612,-0.00004894,-0.0
 0005527,-0.00000575,0.00018911,0.00008137,-0.00001620,-0.00005489,-0.0
 0001306,0.00003287,-0.00006307,-0.00000396,-0.00002103,-0.00006253,-0.
 00000982,-0.00002296,-0.00006992,-0.00009197,-0.00005367,-0.00017856,0
 .00001989,0.00019949,-0.00046373,0.00053473,-0.00074434,0.00018632,-0.
 00342306,0.00787267,0.00107920,0.00180869,-0.00114697,0.00172940,0.001
 97789,0.00009197,0.00040437,0.00058099,0.00095182,-0.00017311,-0.00002
 853,0.00017632,-0.00007358,0.00010969,0.00010827,-0.00007850,-0.000111
 57,0.00012098,0.00007237,-0.00000047,0.00005263,0.00004385,0.00012502,
 -0.00002544,-0.00015487,-0.00010023,-0.00009418,-0.04749251,0.00846844
 ,-0.00152324,-0.01771521,-0.03783454,-0.01610863,-0.00005119,0.0000584
 5,0.00001040,0.00003943,-0.00001508,-0.00007711,-0.00002742,-0.0000210
 3,-0.00000251,0.00000641,0.00003836,0.00001777,0.00050239,0.00031965,0
 .00054786,-0.00018803,0.00013322,0.00025015,0.00016749,-0.00010185,-0.
 00009565,0.00017996,-0.00000550,0.00002438,0.00000567,-0.00000031,-0.0
 0001246,0.00001486,0.00001097,-0.00000039,0.00000784,0.00001550,0.0000
 0700,0.00003515,0.00000451,0.00003662,0.05842434,-0.00005833,-0.000042
 30,-0.00000285,0.00023050,0.00004803,-0.00002775,-0.00006795,-0.000008
 23,0.00004597,-0.00007455,0.00000360,-0.00002424,-0.00007999,-0.000021
 59,0.00002774,-0.00000701,0.00000704,-0.00002817,-0.00010827,0.0000074
 0,0.00007829,-0.00007219,-0.00006996,-0.00031914,0.00166359,-0.0013437
 2,0.00470633,0.00055297,-0.00008147,-0.00077907,0.00085110,0.00371229,
 0.00220293,-0.00015908,0.00081184,0.00006846,0.00009067,0.00010926,-0.
 00004453,0.00004879,-0.00010050,-0.00009589,0.00005423,0.00009242,-0.0
 0009491,-0.00005622,0.00000687,-0.00003748,0.00001827,-0.00005155,0.00
 002285,0.00007899,0.00002185,-0.00000443,0.00142680,-0.27372870,-0.093
 90987,-0.01464676,-0.00600495,-0.00373513,-0.00007483,0.00004497,0.000
 03653,0.00002040,-0.00000009,-0.00008776,-0.00001176,-0.00001193,-0.00
 000317,0.00003405,0.00000031,0.00002288,0.00010351,0.00183420,0.000008
 92,-0.00003426,-0.00012959,0.00001526,0.00003820,-0.00006330,0.0000427
 8,-0.00014644,0.00000978,-0.00001915,0.00000464,-0.00001245,0.00001607
 ,-0.00001229,-0.00001732,0.00000578,-0.00001283,-0.00000613,-0.0000004
 4,-0.00000350,0.00001682,0.00003416,0.00974404,0.28965231,0.00000503,0
 .00001468,0.00000146,-0.00000900,-0.00002230,0.00000655,0.00000039,0.0
 0000355,-0.00000127,-0.00000023,0.00000681,-0.00000246,0.00000206,-0.0
 0000933,0.00003164,0.00003379,0.00001382,-0.00000817,-0.00006803,-0.00
 002567,-0.00008538,0.00019367,-0.00028335,0.00006616,-0.00043591,0.001
 76953,-0.00296230,-0.00181128,-0.00072402,-0.00078332,0.00323739,-0.02
 714481,-0.00898481,-0.00135689,0.00074977,-0.00465860,0.00003012,0.000
 93155,-0.00013657,-0.00017877,0.00007415,0.00008438,-0.00005620,-0.000
 09537,0.00008747,0.00006328,-0.00005816,0.00007890,0.00001849,0.000110
 62,-0.00005186,-0.00017328,-0.00017939,0.00005297,-0.00452850,-0.09431
 028,-0.09211168,0.00229619,0.00700116,0.00799800,-0.00001475,0.0000106
 9,0.00003172,-0.00002787,-0.00000297,0.00000597,0.00000507,0.00000076,
 -0.00000040,0.00000847,-0.00000149,0.00002517,0.00014618,-0.00005316,0
 .00144463,0.00091117,-0.00090347,-0.00067533,0.00004987,0.00009165,0.0
 0010142,0.00013629,0.00002789,0.00001236,0.00000334,-0.00002131,0.0000
 0624,0.00001051,-0.00000459,0.00000193,-0.00000944,-0.00001340,0.00000
 284,0.00003749,0.00002827,0.00001007,0.00097218,0.09970424,0.09291596,
 -0.00005957,-0.00007753,-0.00000929,0.00022559,0.00011270,-0.00002114,
 -0.00006528,-0.00002004,0.00003908,-0.00007243,-0.00001099,-0.00001964
 ,-0.00007422,-0.00001686,0.00001271,-0.00005869,0.00001684,-0.00011781
 ,-0.00032342,-0.00020561,0.00017829,-0.00000316,-0.00038925,-0.0012663
 8,-0.00318724,0.00129683,0.00712749,0.00095143,0.00026443,0.00045614,0
 .00658905,-0.00291251,0.00058075,0.00054680,0.00073790,0.00046637,-0.0
 0024824,0.00000834,0.00044386,-0.00016054,0.00067963,0.00018628,-0.000
 07219,-0.00001639,0.00006020,-0.00004673,-0.00008750,-0.00003296,0.000
 05276,0.00001687,0.00006209,-0.00009023,0.00000441,-0.00015507,-0.1525
 4177,0.10254963,-0.07852660,-0.03382435,0.00895546,-0.01702417,0.00001
 030,-0.00001432,0.00006577,0.00002091,0.00003454,-0.00008786,-0.000042
 71,-0.00000296,-0.00000001,0.00001199,-0.00000300,0.00001016,-0.000060
 10,-0.00030789,0.00031111,-0.00004160,0.00001218,0.00006717,0.00029650
 ,-0.00034762,-0.00012876,-0.00020014,0.00059788,0.00030356,0.00002623,
 -0.00002696,-0.00001651,-0.00000393,0.00000934,0.00000391,-0.00000057,
 0.00001109,0.00001374,0.00003373,0.00000299,0.00005137,0.00382721,0.00
 068362,0.00050722,0.17860741,-0.00000737,-0.00001910,-0.00000459,0.000
 02743,0.00002556,0.00000734,-0.00000608,-0.00000437,-0.00000054,-0.000
 00950,-0.00000304,-0.00000348,-0.00001010,-0.00000237,-0.00000051,-0.0
 0003857,0.00002338,-0.00005571,-0.00019207,-0.00007008,0.00005028,0.00
 009673,-0.00031226,-0.00066261,-0.00282930,-0.00027045,0.00073937,-0.0
 0064408,-0.00032167,-0.00124764,-0.00267291,0.00285204,-0.00043331,0.0
 0069833,-0.00035722,-0.00044656,0.00009017,0.00043803,-0.00116918,0.00
 060383,-0.00050577,0.00004941,-0.00023562,-0.00046564,0.00015868,0.000
 23041,0.00005513,0.00017475,-0.00000484,0.00016769,-0.00016161,-0.0001
 8656,-0.00015290,-0.00000240,0.11383611,-0.15648571,0.07965525,-0.0151
 6811,0.01199075,-0.00873374,0.00002742,-0.00000179,0.00001923,-0.00000
 592,0.00000755,-0.00000178,-0.00001963,-0.00000169,-0.00000078,0.00000
 592,-0.00001216,0.00000238,0.00025277,0.00034796,-0.00004847,-0.000160
 76,-0.00004510,0.00009749,-0.00029574,0.00005485,0.00007434,0.00034972
 ,-0.00058503,-0.00042266,-0.00002094,0.00002601,-0.00001769,0.00001518
 ,0.00001912,0.00000336,0.00001661,0.00000915,0.00000067,0.00001971,0.0
 0001518,0.00006392,0.01778782,-0.01467761,0.01331575,-0.11154557,0.158
 26329,-0.00004156,-0.00006792,-0.00001518,0.00015306,0.00009560,0.0000
 1781,-0.00003951,-0.00001741,0.00001596,-0.00004436,-0.00000967,-0.000
 01866,-0.00009266,-0.00002424,0.00009890,0.00009691,0.00002710,0.00001
 061,-0.00016976,-0.00004470,-0.00016488,0.00016755,0.00034471,0.000304
 99,0.00100292,-0.00019990,-0.00425842,-0.00306329,-0.00054418,-0.00318
 534,-0.01677599,0.01649153,-0.00957273,-0.00130934,0.00090280,0.001528
 84,0.00024790,-0.00038165,-0.00013592,-0.00033100,-0.00010062,-0.00012
 766,-0.00013076,-0.00028916,0.00029485,0.00025854,0.00005480,0.0001294
 8,0.00006448,0.00023720,-0.00014771,-0.00031334,-0.00012840,-0.0000475
 6,-0.08355625,0.07623063,-0.10978199,0.00795980,-0.00390515,0.00732326
 ,-0.00009105,-0.00004118,0.00005009,-0.00005475,-0.00002343,-0.0000517
 4,0.00000030,0.00000248,-0.00000508,0.00004879,0.00002164,0.00008066,-
 0.00001385,0.00002748,-0.00322836,0.00002113,0.00026615,0.00039292,0.0
 0063136,-0.00008832,-0.00021377,0.00040855,-0.00013882,0.00012732,-0.0
 0002654,0.00003849,-0.00001939,0.00002572,0.00003393,0.00000566,0.0000
 1719,0.00002975,0.00000832,0.00004190,0.00003792,0.00004148,0.00846744
 ,-0.00783322,0.00749626,0.08644875,-0.08100269,0.11303972,0.00002899,0
 .00031551,0.00038638,0.00087820,0.00068813,-0.00198634,-0.00256325,-0.
 00040726,0.00023522,0.00007052,-0.00004252,0.00048264,0.01043773,0.002
 44530,-0.01348295,-0.00147383,-0.00236384,-0.00290091,-0.00061733,0.00
 001888,0.00011787,-0.00200341,-0.00428969,0.00033802,0.00060052,-0.000
 08040,0.00090183,-0.00046209,-0.00010471,-0.00000840,0.00001918,0.0000
 0910,0.00005130,-0.00003027,-0.00002280,-0.00002496,-0.00000792,-0.000
 01955,0.00001396,0.00000454,0.00000665,-0.00000009,0.00000118,-0.00000
 267,-0.00000704,0.00000816,0.00000023,-0.00000536,-0.00000331,-0.00000
 774,-0.00000549,0.00000573,0.00000345,0.00000894,0.00003897,0.00002530
 ,0.00002052,-0.00017426,-0.00005072,-0.00013913,-0.02392643,-0.0091664
 7,0.02743075,-0.09374063,-0.02532847,0.09637914,0.00048167,0.00025209,
 -0.00081955,-0.00007104,0.00051737,0.00025817,-0.00003201,-0.00000532,
 -0.00000586,0.00000696,0.00000421,-0.00000135,-0.00001541,0.00001846,0
 .00000422,0.00000144,-0.00000125,0.00000253,-0.00000608,0.00000443,-0.
 00000135,-0.00000403,0.00001145,0.00000144,0.00000161,0.00000182,0.000
 00587,-0.00000360,-0.00000590,-0.00001309,-0.00001929,-0.00001810,0.00
 000194,-0.00002280,-0.00000447,-0.00000829,0.11259159,-0.00033399,-0.0
 0058693,-0.00018669,0.00044070,-0.00180078,-0.00010647,-0.00024130,-0.
 00030162,-0.00063419,0.00019276,0.00002054,0.00022538,0.00073629,0.007
 86469,-0.00234839,-0.00228221,0.00539291,-0.00020298,0.00005593,-0.000
 66222,-0.00007589,-0.00425481,0.00925549,0.00075172,0.00003536,0.00048
 570,0.00036273,-0.00015413,-0.00006425,-0.00000464,0.00002974,-0.00011
 077,0.00000533,0.00001514,0.00000277,0.00000020,-0.00000234,-0.0000039
 2,0.00000339,0.00000150,-0.00000062,0.00000116,0.00000097,0.00000048,0
 .00000160,-0.00000239,0.00000564,-0.00000269,0.00000049,0.00000087,0.0
 0000553,-0.00000106,0.00000212,0.00000008,0.00000113,0.00003184,0.0000
 1019,-0.00006861,0.00000964,-0.00003518,-0.00717515,-0.00672833,0.0086
 0246,-0.02522052,-0.05512657,0.05024756,0.00012431,-0.00001819,-0.0002
 3620,0.00054544,-0.00149732,-0.00006827,-0.00003277,-0.00000622,-0.000
 01177,0.00000195,0.00000032,0.00000086,-0.00000123,0.00000046,-0.00000
 222,-0.00000132,-0.00000198,0.00000006,0.00000021,0.00000126,-0.000001
 04,0.00000339,-0.00000353,0.00000002,0.00000024,-0.00000004,-0.0000053
 5,-0.00000050,-0.00000314,-0.00000453,-0.00000298,-0.00000761,-0.00000
 180,-0.00000969,-0.00000171,-0.00000155,0.03759947,0.04385102,-0.00034
 414,-0.00016377,0.00031726,0.00271808,0.00055024,-0.00388285,0.0003715
 8,0.00019659,0.00303108,-0.00020249,-0.00020671,0.00065225,0.01080987,
 0.00550100,-0.01755655,-0.00385667,-0.00071721,-0.00260311,-0.00052394
 ,-0.00026056,0.00034915,-0.00250796,-0.00030968,0.00255223,-0.00013297
 ,-0.00002925,0.00024923,0.00003814,0.00001082,-0.00004284,-0.00003519,
 -0.00001132,-0.00000544,0.00000595,0.00001410,0.00001074,0.00000585,0.
 00000687,-0.00000664,-0.00000310,-0.00000940,-0.00000423,0.00000208,0.
 00000087,0.00000006,-0.00000278,0.00000291,-0.00000205,0.00000975,0.00
 000610,0.00000920,-0.00000513,-0.00000005,-0.00001015,-0.00007842,-0.0
 0003523,-0.00001875,0.00014689,0.00005222,-0.00005004,0.00409644,0.000
 44794,0.00946469,0.09593965,0.05102536,-0.28270927,0.00068002,0.000305
 61,-0.00077716,0.00006429,-0.00008903,-0.00004674,0.00001406,0.0000025
 8,-0.00000266,-0.00000364,-0.00000401,-0.00000127,0.00000777,-0.000008
 46,0.00000040,-0.00000397,0.00000069,0.00000051,-0.00000001,-0.0000000
 9,0.00000215,0.00000305,-0.00000631,0.00000306,-0.00000309,0.00000022,
 -0.00000734,0.00000075,0.00000364,0.00000766,0.00000970,0.00000801,0.0
 0000003,0.00001014,0.00000376,0.00000727,-0.10723056,-0.05628844,0.291
 07012\\-0.00000313,0.00000173,-0.00000542,-0.00000202,0.00000442,0.000
 00663,-0.00000408,0.00000104,-0.00000553,0.00000444,-0.00000804,0.0000
 0659,0.00000283,0.00000294,-0.00000605,-0.00000338,-0.00000219,0.00000
 297,0.00000523,0.00000258,0.00000310,-0.00000767,0.00000093,-0.0000033
 5,-0.00000105,-0.00001058,-0.00002491,0.00000039,0.00000511,0.00001415
 ,-0.00000399,-0.00000336,0.00000016,-0.00000423,-0.00001031,0.00000434
 ,0.00000008,0.00000877,-0.00000010,-0.00000094,-0.00000610,-0.00000033
 ,0.00000091,0.00000172,-0.00000164,-0.00000248,0.00000108,-0.00000066,
 0.00000108,0.00000015,0.00000158,0.00000011,-0.00000459,0.00000034,-0.
 00000654,-0.00000018,0.00000164,0.00000952,0.00000641,0.00000570,0.000
 00153,0.00000072,0.00000651,0.00000109,0.00000114,-0.00000288,0.000000
 97,0.00000167,-0.00000122,-0.00000018,0.00000003,0.00000042,0.00000152
 ,0.00000077,0.00000107,0.00000412,0.00000283,-0.00000143,0.00000118,0.
 00000060,-0.00000126,-0.00000032,0.00000050,0.00000022,-0.00000102,0.0
 0000011,0.00000006,0.00000006,0.,-0.00000057,0.00000033,0.00000036,-0.
 00000045,0.00000075,-0.00000080,0.00000068,0.00000274,0.00000041,0.000
 00049,0.00000258,0.00000016,0.00000052,-0.00000043,0.,-0.00000138\\\@
 The archive entry for this job was punched.


 CHEMISTRY BEGAN BY SAYING IT WOULD CHANGE THE BASER
 METALS INTO GOLD.  BY NOT DOING THAT IT HAS DONE MUCH
 GREATER THINGS.  --  RALPH WALDO EMERSON
 Job cpu time:       0 days  1 hours 47 minutes 53.2 seconds.
 Elapsed time:       0 days  0 hours  6 minutes  2.2 seconds.
 File lengths (MBytes):  RWF=    482 Int=      0 D2E=      0 Chk=     11 Scr=      1
 Normal termination of Gaussian 16 at Mon Aug 15 07:19:33 2022.
