 Entering Gaussian System, Link 0=g16
 Initial command:
 /public/apps/g16-C01//g16/l1.exe "/public/home/ljq/tmp/Gau-101691.inp" -scrdir="/public/home/ljq/tmp/"
 Entering Link 1 = /public/apps/g16-C01//g16/l1.exe PID=    101692.
  
 Copyright (c) 1988-2019, Gaussian, Inc.  All Rights Reserved.
  
 This is part of the Gaussian(R) 16 program.  It is based on
 the Gaussian(R) 09 system (copyright 2009, Gaussian, Inc.),
 the Gaussian(R) 03 system (copyright 2003, Gaussian, Inc.),
 the Gaussian(R) 98 system (copyright 1998, Gaussian, Inc.),
 the Gaussian(R) 94 system (copyright 1995, Gaussian, Inc.),
 the Gaussian 92(TM) system (copyright 1992, Gaussian, Inc.),
 the Gaussian 90(TM) system (copyright 1990, Gaussian, Inc.),
 the Gaussian 88(TM) system (copyright 1988, Gaussian, Inc.),
 the Gaussian 86(TM) system (copyright 1986, Carnegie Mellon
 University), and the Gaussian 82(TM) system (copyright 1983,
 Carnegie Mellon University). Gaussian is a federally registered
 trademark of Gaussian, Inc.
  
 This software contains proprietary and confidential information,
 including trade secrets, belonging to Gaussian, Inc.
  
 This software is provided under written license and may be
 used, copied, transmitted, or stored only in accord with that
 written license.
  
 The following legend is applicable only to US Government
 contracts under FAR:
  
                    RESTRICTED RIGHTS LEGEND
  
 Use, reproduction and disclosure by the US Government is
 subject to restrictions as set forth in subparagraphs (a)
 and (c) of the Commercial Computer Software - Restricted
 Rights clause in FAR 52.227-19.
  
 Gaussian, Inc.
 340 Quinnipiac St., Bldg. 40, Wallingford CT 06492
  
  
 ---------------------------------------------------------------
 Warning -- This program may not be used in any manner that
 competes with the business of Gaussian, Inc. or will provide
 assistance to any competitor of Gaussian, Inc.  The licensee
 of this program is prohibited from giving any competitor of
 Gaussian, Inc. access to this program.  By using this program,
 the user acknowledges that Gaussian, Inc. is engaged in the
 business of creating and licensing software in the field of
 computational chemistry and represents and warrants to the
 licensee that it is not a competitor of Gaussian, Inc. and that
 it will not use this program in any manner prohibited above.
 ---------------------------------------------------------------
  

 Cite this work as:
 Gaussian 16, Revision C.01,
 M. J. Frisch, G. W. Trucks, H. B. Schlegel, G. E. Scuseria, 
 M. A. Robb, J. R. Cheeseman, G. Scalmani, V. Barone, 
 G. A. Petersson, H. Nakatsuji, X. Li, M. Caricato, A. V. Marenich, 
 J. Bloino, B. G. Janesko, R. Gomperts, B. Mennucci, H. P. Hratchian, 
 J. V. Ortiz, A. F. Izmaylov, J. L. Sonnenberg, D. Williams-Young, 
 F. Ding, F. Lipparini, F. Egidi, J. Goings, B. Peng, A. Petrone, 
 T. Henderson, D. Ranasinghe, V. G. Zakrzewski, J. Gao, N. Rega, 
 G. Zheng, W. Liang, M. Hada, M. Ehara, K. Toyota, R. Fukuda, 
 J. Hasegawa, M. Ishida, T. Nakajima, Y. Honda, O. Kitao, H. Nakai, 
 T. Vreven, K. Throssell, J. A. Montgomery, Jr., J. E. Peralta, 
 F. Ogliaro, M. J. Bearpark, J. J. Heyd, E. N. Brothers, K. N. Kudin, 
 V. N. Staroverov, T. A. Keith, R. Kobayashi, J. Normand, 
 K. Raghavachari, A. P. Rendell, J. C. Burant, S. S. Iyengar, 
 J. Tomasi, M. Cossi, J. M. Millam, M. Klene, C. Adamo, R. Cammi, 
 J. W. Ochterski, R. L. Martin, K. Morokuma, O. Farkas, 
 J. B. Foresman, and D. J. Fox, Gaussian, Inc., Wallingford CT, 2019.
 
 ******************************************
 Gaussian 16:  ES64L-G16RevC.01  3-Jul-2019
                25-Feb-2024 
 ******************************************
 %nproc=40
 Will use up to   40 processors via shared memory.
 %mem=56GB
 ------------------------------------------
 #p opt freq b3lyp/def2svpp em=gd3bj nosymm
 ------------------------------------------
 1/18=20,19=15,26=3,38=1/1,3;
 2/9=110,12=2,15=1,17=6,18=5,40=1/2;
 3/5=43,7=202,11=2,25=1,30=1,71=1,74=-5,124=41/1,2,3;
 4//1;
 5/5=2,38=5/2;
 6/7=2,8=2,9=2,10=2,28=1/1;
 7/30=1/1,2,3,16;
 1/18=20,19=15,26=3/3(2);
 2/9=110,15=1/2;
 99//99;
 2/9=110,15=1/2;
 3/5=43,7=202,11=2,25=1,30=1,71=1,74=-5,124=41/1,2,3;
 4/5=5,16=3,69=1/1;
 5/5=2,38=5/2;
 7/30=1/1,2,3,16;
 1/18=20,19=15,26=3/3(-5);
 2/9=110,15=1/2;
 6/7=2,8=2,9=2,10=2,19=2,28=1/1;
 99/9=1/99;
 Leave Link    1 at Sun Feb 25 22:01:46 2024, MaxMem=  7516192768 cpu:               1.8 elap:               0.1
 (Enter /public/apps/g16-C01//g16/l101.exe)
 ----------------------
 $$$$Singlemol####0????
 ----------------------
 Symbolic Z-matrix:
 Charge =  0 Multiplicity = 1
 C                     1.82712  -2.97958  -0.19239 
 C                     2.94381  -2.66661   0.56189 
 C                     3.56184  -1.43767   0.40726 
 C                     3.07668  -0.51141  -0.50735 
 C                     3.72577   0.83455  -0.65578 
 C                     2.88748   1.95232  -0.00439 
 C                     2.48455   1.66294   1.46725 
 O                     1.06282   1.56714   1.4288 
 C                     0.70519   1.83643   0.15777 
 C                    -0.71979   1.83338  -0.15783 
 N                    -1.63459   2.07783   0.68142 
 C                    -2.90249   1.93801   0.0058 
 C                    -3.73292   0.81319   0.6552 
 C                    -3.07277  -0.52737   0.50661 
 C                    -3.54562  -1.45493  -0.41312 
 C                    -2.91729  -2.67868  -0.56731 
 C                    -1.80273  -2.98519   0.1928 
 C                    -1.32015  -2.06479   1.10819 
 C                    -1.95304  -0.84581   1.26735 
 C                    -2.49894   1.65469  -1.46683 
 O                    -1.07686   1.56462  -1.42915 
 N                     1.61928   2.08651  -0.68062 
 C                     1.95535  -0.83665  -1.26283 
 C                     1.33255  -2.06071  -1.10293 
 H                     1.34641  -3.93924  -0.07273 
 H                     3.33582  -3.3794    1.27325 
 H                     4.4389   -1.20174   0.99548 
 H                     4.71515   0.83342  -0.19441 
 H                     3.82874   1.08354  -1.71303 
 H                     3.43563   2.8953   -0.10165 
 H                     2.88503   0.71576   1.83584 
 H                     2.76106   2.47122   2.14971 
 H                    -3.45644   2.87727   0.10582 
 H                    -4.72169   0.80466   0.19267 
 H                    -3.839     1.06048   1.71252 
 H                    -4.42126  -1.22431  -1.00554 
 H                    -3.29979  -3.3927   -1.28255 
 H                    -1.31448  -3.94115   0.07397 
 H                    -0.44702  -2.29686   1.70001 
 H                    -1.57578  -0.12723   1.97963 
 H                    -2.77908   2.46407  -2.14656 
 H                    -2.8957    0.70714  -1.83835 
 H                     1.56892  -0.11953  -1.97165 
 H                     0.45781  -2.29784  -1.69034 
 
 ITRead=  0  0  0  0  0  0  0  0  0  0  0  0  0  0  0  0  0  0  0  0
 ITRead=  0  0  0  0  0  0  0  0  0  0  0  0  0  0  0  0  0  0  0  0
 ITRead=  0  0  0  0
 MicOpt= -1 -1 -1 -1 -1 -1 -1 -1 -1 -1 -1 -1 -1 -1 -1 -1 -1 -1 -1 -1
 MicOpt= -1 -1 -1 -1 -1 -1 -1 -1 -1 -1 -1 -1 -1 -1 -1 -1 -1 -1 -1 -1
 MicOpt= -1 -1 -1 -1
 NAtoms=     44 NQM=       44 NQMF=       0 NMMI=      0 NMMIF=      0
                NMic=       0 NMicF=      0.
                    Isotopes and Nuclear Properties:
 (Nuclear quadrupole moments (NQMom) in fm**2, nuclear magnetic moments (NMagM)
  in nuclear magnetons)

  Atom         1           2           3           4           5           6           7           8           9          10
 IAtWgt=          12          12          12          12          12          12          12          16          12          12
 AtmWgt=  12.0000000  12.0000000  12.0000000  12.0000000  12.0000000  12.0000000  12.0000000  15.9949146  12.0000000  12.0000000
 NucSpn=           0           0           0           0           0           0           0           0           0           0
 AtZEff=  -0.0000000  -0.0000000  -0.0000000  -0.0000000  -0.0000000  -0.0000000  -0.0000000  -0.0000000  -0.0000000  -0.0000000
 NQMom=    0.0000000   0.0000000   0.0000000   0.0000000   0.0000000   0.0000000   0.0000000   0.0000000   0.0000000   0.0000000
 NMagM=    0.0000000   0.0000000   0.0000000   0.0000000   0.0000000   0.0000000   0.0000000   0.0000000   0.0000000   0.0000000
 AtZNuc=   6.0000000   6.0000000   6.0000000   6.0000000   6.0000000   6.0000000   6.0000000   8.0000000   6.0000000   6.0000000

  Atom        11          12          13          14          15          16          17          18          19          20
 IAtWgt=          14          12          12          12          12          12          12          12          12          12
 AtmWgt=  14.0030740  12.0000000  12.0000000  12.0000000  12.0000000  12.0000000  12.0000000  12.0000000  12.0000000  12.0000000
 NucSpn=           2           0           0           0           0           0           0           0           0           0
 AtZEff=  -0.0000000  -0.0000000  -0.0000000  -0.0000000  -0.0000000  -0.0000000  -0.0000000  -0.0000000  -0.0000000  -0.0000000
 NQMom=    2.0440000   0.0000000   0.0000000   0.0000000   0.0000000   0.0000000   0.0000000   0.0000000   0.0000000   0.0000000
 NMagM=    0.4037610   0.0000000   0.0000000   0.0000000   0.0000000   0.0000000   0.0000000   0.0000000   0.0000000   0.0000000
 AtZNuc=   7.0000000   6.0000000   6.0000000   6.0000000   6.0000000   6.0000000   6.0000000   6.0000000   6.0000000   6.0000000

  Atom        21          22          23          24          25          26          27          28          29          30
 IAtWgt=          16          14          12          12           1           1           1           1           1           1
 AtmWgt=  15.9949146  14.0030740  12.0000000  12.0000000   1.0078250   1.0078250   1.0078250   1.0078250   1.0078250   1.0078250
 NucSpn=           0           2           0           0           1           1           1           1           1           1
 AtZEff=  -0.0000000  -0.0000000  -0.0000000  -0.0000000  -0.0000000  -0.0000000  -0.0000000  -0.0000000  -0.0000000  -0.0000000
 NQMom=    0.0000000   2.0440000   0.0000000   0.0000000   0.0000000   0.0000000   0.0000000   0.0000000   0.0000000   0.0000000
 NMagM=    0.0000000   0.4037610   0.0000000   0.0000000   2.7928460   2.7928460   2.7928460   2.7928460   2.7928460   2.7928460
 AtZNuc=   8.0000000   7.0000000   6.0000000   6.0000000   1.0000000   1.0000000   1.0000000   1.0000000   1.0000000   1.0000000

  Atom        31          32          33          34          35          36          37          38          39          40
 IAtWgt=           1           1           1           1           1           1           1           1           1           1
 AtmWgt=   1.0078250   1.0078250   1.0078250   1.0078250   1.0078250   1.0078250   1.0078250   1.0078250   1.0078250   1.0078250
 NucSpn=           1           1           1           1           1           1           1           1           1           1
 AtZEff=  -0.0000000  -0.0000000  -0.0000000  -0.0000000  -0.0000000  -0.0000000  -0.0000000  -0.0000000  -0.0000000  -0.0000000
 NQMom=    0.0000000   0.0000000   0.0000000   0.0000000   0.0000000   0.0000000   0.0000000   0.0000000   0.0000000   0.0000000
 NMagM=    2.7928460   2.7928460   2.7928460   2.7928460   2.7928460   2.7928460   2.7928460   2.7928460   2.7928460   2.7928460
 AtZNuc=   1.0000000   1.0000000   1.0000000   1.0000000   1.0000000   1.0000000   1.0000000   1.0000000   1.0000000   1.0000000

  Atom        41          42          43          44
 IAtWgt=           1           1           1           1
 AtmWgt=   1.0078250   1.0078250   1.0078250   1.0078250
 NucSpn=           1           1           1           1
 AtZEff=  -0.0000000  -0.0000000  -0.0000000  -0.0000000
 NQMom=    0.0000000   0.0000000   0.0000000   0.0000000
 NMagM=    2.7928460   2.7928460   2.7928460   2.7928460
 AtZNuc=   1.0000000   1.0000000   1.0000000   1.0000000
 Leave Link  101 at Sun Feb 25 22:01:47 2024, MaxMem=  7516192768 cpu:               5.4 elap:               0.4
 (Enter /public/apps/g16-C01//g16/l103.exe)

 GradGradGradGradGradGradGradGradGradGradGradGradGradGradGradGradGradGrad
 Berny optimization.
 Initialization pass.
                           ----------------------------
                           !    Initial Parameters    !
                           ! (Angstroms and Degrees)  !
 --------------------------                            --------------------------
 ! Name  Definition              Value          Derivative Info.                !
 --------------------------------------------------------------------------------
 ! R1    R(1,2)                  1.3834         estimate D2E/DX2                !
 ! R2    R(1,24)                 1.3849         estimate D2E/DX2                !
 ! R3    R(1,25)                 1.08           estimate D2E/DX2                !
 ! R4    R(2,3)                  1.3843         estimate D2E/DX2                !
 ! R5    R(2,26)                 1.0806         estimate D2E/DX2                !
 ! R6    R(3,4)                  1.3892         estimate D2E/DX2                !
 ! R7    R(3,27)                 1.0821         estimate D2E/DX2                !
 ! R8    R(4,5)                  1.5016         estimate D2E/DX2                !
 ! R9    R(4,23)                 1.3906         estimate D2E/DX2                !
 ! R10   R(5,6)                  1.5416         estimate D2E/DX2                !
 ! R11   R(5,28)                 1.0917         estimate D2E/DX2                !
 ! R12   R(5,29)                 1.091          estimate D2E/DX2                !
 ! R13   R(6,7)                  1.553          estimate D2E/DX2                !
 ! R14   R(6,22)                 1.4435         estimate D2E/DX2                !
 ! R15   R(6,30)                 1.095          estimate D2E/DX2                !
 ! R16   R(7,8)                  1.4255         estimate D2E/DX2                !
 ! R17   R(7,31)                 1.0924         estimate D2E/DX2                !
 ! R18   R(7,32)                 1.0934         estimate D2E/DX2                !
 ! R19   R(8,9)                  1.3476         estimate D2E/DX2                !
 ! R20   R(9,10)                 1.4595         estimate D2E/DX2                !
 ! R21   R(9,22)                 1.2653         estimate D2E/DX2                !
 ! R22   R(10,11)                1.2653         estimate D2E/DX2                !
 ! R23   R(10,21)                1.3476         estimate D2E/DX2                !
 ! R24   R(11,12)                1.4435         estimate D2E/DX2                !
 ! R25   R(12,13)                1.5416         estimate D2E/DX2                !
 ! R26   R(12,20)                1.553          estimate D2E/DX2                !
 ! R27   R(12,33)                1.095          estimate D2E/DX2                !
 ! R28   R(13,14)                1.5017         estimate D2E/DX2                !
 ! R29   R(13,34)                1.0916         estimate D2E/DX2                !
 ! R30   R(13,35)                1.091          estimate D2E/DX2                !
 ! R31   R(14,15)                1.3892         estimate D2E/DX2                !
 ! R32   R(14,19)                1.3906         estimate D2E/DX2                !
 ! R33   R(15,16)                1.3843         estimate D2E/DX2                !
 ! R34   R(15,36)                1.0821         estimate D2E/DX2                !
 ! R35   R(16,17)                1.3835         estimate D2E/DX2                !
 ! R36   R(16,37)                1.0806         estimate D2E/DX2                !
 ! R37   R(17,18)                1.3849         estimate D2E/DX2                !
 ! R38   R(17,38)                1.08           estimate D2E/DX2                !
 ! R39   R(18,19)                1.3827         estimate D2E/DX2                !
 ! R40   R(18,39)                1.08           estimate D2E/DX2                !
 ! R41   R(19,40)                1.0798         estimate D2E/DX2                !
 ! R42   R(20,21)                1.4254         estimate D2E/DX2                !
 ! R43   R(20,41)                1.0934         estimate D2E/DX2                !
 ! R44   R(20,42)                1.0924         estimate D2E/DX2                !
 ! R45   R(23,24)                1.3827         estimate D2E/DX2                !
 ! R46   R(23,43)                1.0798         estimate D2E/DX2                !
 ! R47   R(24,44)                1.08           estimate D2E/DX2                !
 ! A1    A(2,1,24)             119.7766         estimate D2E/DX2                !
 ! A2    A(2,1,25)             119.9935         estimate D2E/DX2                !
 ! A3    A(24,1,25)            120.2295         estimate D2E/DX2                !
 ! A4    A(1,2,3)              120.0214         estimate D2E/DX2                !
 ! A5    A(1,2,26)             120.1657         estimate D2E/DX2                !
 ! A6    A(3,2,26)             119.8129         estimate D2E/DX2                !
 ! A7    A(2,3,4)              120.6354         estimate D2E/DX2                !
 ! A8    A(2,3,27)             119.6512         estimate D2E/DX2                !
 ! A9    A(4,3,27)             119.7086         estimate D2E/DX2                !
 ! A10   A(3,4,5)              120.7809         estimate D2E/DX2                !
 ! A11   A(3,4,23)             118.9033         estimate D2E/DX2                !
 ! A12   A(5,4,23)             120.2956         estimate D2E/DX2                !
 ! A13   A(4,5,6)              111.9067         estimate D2E/DX2                !
 ! A14   A(4,5,28)             110.4287         estimate D2E/DX2                !
 ! A15   A(4,5,29)             109.9459         estimate D2E/DX2                !
 ! A16   A(6,5,28)             108.3612         estimate D2E/DX2                !
 ! A17   A(6,5,29)             107.1758         estimate D2E/DX2                !
 ! A18   A(28,5,29)            108.9194         estimate D2E/DX2                !
 ! A19   A(5,6,7)              113.978          estimate D2E/DX2                !
 ! A20   A(5,6,22)             110.3168         estimate D2E/DX2                !
 ! A21   A(5,6,30)             108.3403         estimate D2E/DX2                !
 ! A22   A(7,6,22)             103.4914         estimate D2E/DX2                !
 ! A23   A(7,6,30)             111.9933         estimate D2E/DX2                !
 ! A24   A(22,6,30)            108.5498         estimate D2E/DX2                !
 ! A25   A(6,7,8)              104.2252         estimate D2E/DX2                !
 ! A26   A(6,7,31)             112.7169         estimate D2E/DX2                !
 ! A27   A(6,7,32)             112.8366         estimate D2E/DX2                !
 ! A28   A(8,7,31)             108.4492         estimate D2E/DX2                !
 ! A29   A(8,7,32)             108.587          estimate D2E/DX2                !
 ! A30   A(31,7,32)            109.733          estimate D2E/DX2                !
 ! A31   A(7,8,9)              106.0638         estimate D2E/DX2                !
 ! A32   A(8,9,10)             117.5581         estimate D2E/DX2                !
 ! A33   A(8,9,22)             118.2118         estimate D2E/DX2                !
 ! A34   A(10,9,22)            124.227          estimate D2E/DX2                !
 ! A35   A(9,10,11)            124.1986         estimate D2E/DX2                !
 ! A36   A(9,10,21)            117.5886         estimate D2E/DX2                !
 ! A37   A(11,10,21)           118.2096         estimate D2E/DX2                !
 ! A38   A(10,11,12)           107.8121         estimate D2E/DX2                !
 ! A39   A(11,12,13)           110.2835         estimate D2E/DX2                !
 ! A40   A(11,12,20)           103.4889         estimate D2E/DX2                !
 ! A41   A(11,12,33)           108.5732         estimate D2E/DX2                !
 ! A42   A(13,12,20)           113.9739         estimate D2E/DX2                !
 ! A43   A(13,12,33)           108.353          estimate D2E/DX2                !
 ! A44   A(20,12,33)           111.9969         estimate D2E/DX2                !
 ! A45   A(12,13,14)           111.8932         estimate D2E/DX2                !
 ! A46   A(12,13,34)           108.3687         estimate D2E/DX2                !
 ! A47   A(12,13,35)           107.1715         estimate D2E/DX2                !
 ! A48   A(14,13,34)           110.4437         estimate D2E/DX2                !
 ! A49   A(14,13,35)           109.9364         estimate D2E/DX2                !
 ! A50   A(34,13,35)           108.9242         estimate D2E/DX2                !
 ! A51   A(13,14,15)           120.7931         estimate D2E/DX2                !
 ! A52   A(13,14,19)           120.2821         estimate D2E/DX2                !
 ! A53   A(15,14,19)           118.9043         estimate D2E/DX2                !
 ! A54   A(14,15,16)           120.6321         estimate D2E/DX2                !
 ! A55   A(14,15,36)           119.71           estimate D2E/DX2                !
 ! A56   A(16,15,36)           119.6529         estimate D2E/DX2                !
 ! A57   A(15,16,17)           120.0234         estimate D2E/DX2                !
 ! A58   A(15,16,37)           119.8152         estimate D2E/DX2                !
 ! A59   A(17,16,37)           120.1614         estimate D2E/DX2                !
 ! A60   A(16,17,18)           119.7779         estimate D2E/DX2                !
 ! A61   A(16,17,38)           119.9917         estimate D2E/DX2                !
 ! A62   A(18,17,38)           120.2299         estimate D2E/DX2                !
 ! A63   A(17,18,19)           120.1658         estimate D2E/DX2                !
 ! A64   A(17,18,39)           120.0717         estimate D2E/DX2                !
 ! A65   A(19,18,39)           119.7625         estimate D2E/DX2                !
 ! A66   A(14,19,18)           120.4947         estimate D2E/DX2                !
 ! A67   A(14,19,40)           119.3256         estimate D2E/DX2                !
 ! A68   A(18,19,40)           120.1776         estimate D2E/DX2                !
 ! A69   A(12,20,21)           104.2239         estimate D2E/DX2                !
 ! A70   A(12,20,41)           112.8217         estimate D2E/DX2                !
 ! A71   A(12,20,42)           112.7287         estimate D2E/DX2                !
 ! A72   A(21,20,41)           108.5906         estimate D2E/DX2                !
 ! A73   A(21,20,42)           108.4535         estimate D2E/DX2                !
 ! A74   A(41,20,42)           109.7304         estimate D2E/DX2                !
 ! A75   A(10,21,20)           106.0626         estimate D2E/DX2                !
 ! A76   A(6,22,9)             107.814          estimate D2E/DX2                !
 ! A77   A(4,23,24)            120.4923         estimate D2E/DX2                !
 ! A78   A(4,23,43)            119.331          estimate D2E/DX2                !
 ! A79   A(24,23,43)           120.1747         estimate D2E/DX2                !
 ! A80   A(1,24,23)            120.1691         estimate D2E/DX2                !
 ! A81   A(1,24,44)            120.0757         estimate D2E/DX2                !
 ! A82   A(23,24,44)           119.7552         estimate D2E/DX2                !
 ! D1    D(24,1,2,3)             0.117          estimate D2E/DX2                !
 ! D2    D(24,1,2,26)         -179.9177         estimate D2E/DX2                !
 ! D3    D(25,1,2,3)           179.8842         estimate D2E/DX2                !
 ! D4    D(25,1,2,26)           -0.1505         estimate D2E/DX2                !
 ! D5    D(2,1,24,23)            0.2872         estimate D2E/DX2                !
 ! D6    D(2,1,24,44)         -179.6595         estimate D2E/DX2                !
 ! D7    D(25,1,24,23)        -179.4794         estimate D2E/DX2                !
 ! D8    D(25,1,24,44)           0.5739         estimate D2E/DX2                !
 ! D9    D(1,2,3,4)             -0.3855         estimate D2E/DX2                !
 ! D10   D(1,2,3,27)          -179.5861         estimate D2E/DX2                !
 ! D11   D(26,2,3,4)           179.6491         estimate D2E/DX2                !
 ! D12   D(26,2,3,27)            0.4485         estimate D2E/DX2                !
 ! D13   D(2,3,4,5)            178.612          estimate D2E/DX2                !
 ! D14   D(2,3,4,23)             0.2455         estimate D2E/DX2                !
 ! D15   D(27,3,4,5)            -2.1879         estimate D2E/DX2                !
 ! D16   D(27,3,4,23)          179.4456         estimate D2E/DX2                !
 ! D17   D(3,4,5,6)           -104.8464         estimate D2E/DX2                !
 ! D18   D(3,4,5,28)            15.9567         estimate D2E/DX2                !
 ! D19   D(3,4,5,29)           136.1717         estimate D2E/DX2                !
 ! D20   D(23,4,5,6)            73.4973         estimate D2E/DX2                !
 ! D21   D(23,4,5,28)         -165.6995         estimate D2E/DX2                !
 ! D22   D(23,4,5,29)          -45.4846         estimate D2E/DX2                !
 ! D23   D(3,4,23,24)            0.1607         estimate D2E/DX2                !
 ! D24   D(3,4,23,43)          179.6425         estimate D2E/DX2                !
 ! D25   D(5,4,23,24)         -178.2139         estimate D2E/DX2                !
 ! D26   D(5,4,23,43)            1.2679         estimate D2E/DX2                !
 ! D27   D(4,5,6,7)             51.7817         estimate D2E/DX2                !
 ! D28   D(4,5,6,22)           -64.1275         estimate D2E/DX2                !
 ! D29   D(4,5,6,30)           177.179          estimate D2E/DX2                !
 ! D30   D(28,5,6,7)           -70.214          estimate D2E/DX2                !
 ! D31   D(28,5,6,22)          173.8768         estimate D2E/DX2                !
 ! D32   D(28,5,6,30)           55.1833         estimate D2E/DX2                !
 ! D33   D(29,5,6,7)           172.3883         estimate D2E/DX2                !
 ! D34   D(29,5,6,22)           56.479          estimate D2E/DX2                !
 ! D35   D(29,5,6,30)          -62.2144         estimate D2E/DX2                !
 ! D36   D(5,6,7,8)           -115.5767         estimate D2E/DX2                !
 ! D37   D(5,6,7,31)             1.8146         estimate D2E/DX2                !
 ! D38   D(5,6,7,32)           126.8069         estimate D2E/DX2                !
 ! D39   D(22,6,7,8)             4.2579         estimate D2E/DX2                !
 ! D40   D(22,6,7,31)          121.6492         estimate D2E/DX2                !
 ! D41   D(22,6,7,32)         -113.3585         estimate D2E/DX2                !
 ! D42   D(30,6,7,8)           120.9846         estimate D2E/DX2                !
 ! D43   D(30,6,7,31)         -121.6242         estimate D2E/DX2                !
 ! D44   D(30,6,7,32)            3.3681         estimate D2E/DX2                !
 ! D45   D(5,6,22,9)           118.3015         estimate D2E/DX2                !
 ! D46   D(7,6,22,9)            -4.0067         estimate D2E/DX2                !
 ! D47   D(30,6,22,9)         -123.1331         estimate D2E/DX2                !
 ! D48   D(6,7,8,9)             -3.0561         estimate D2E/DX2                !
 ! D49   D(31,7,8,9)          -123.3577         estimate D2E/DX2                !
 ! D50   D(32,7,8,9)           117.4523         estimate D2E/DX2                !
 ! D51   D(7,8,9,10)          -178.773          estimate D2E/DX2                !
 ! D52   D(7,8,9,22)             0.6132         estimate D2E/DX2                !
 ! D53   D(8,9,10,11)           26.6836         estimate D2E/DX2                !
 ! D54   D(8,9,10,21)         -153.9687         estimate D2E/DX2                !
 ! D55   D(22,9,10,11)        -152.6622         estimate D2E/DX2                !
 ! D56   D(22,9,10,21)          26.6855         estimate D2E/DX2                !
 ! D57   D(8,9,22,6)             2.3862         estimate D2E/DX2                !
 ! D58   D(10,9,22,6)         -178.272          estimate D2E/DX2                !
 ! D59   D(9,10,11,12)        -178.228          estimate D2E/DX2                !
 ! D60   D(21,10,11,12)          2.4281         estimate D2E/DX2                !
 ! D61   D(9,10,21,20)        -178.7446         estimate D2E/DX2                !
 ! D62   D(11,10,21,20)          0.6432         estimate D2E/DX2                !
 ! D63   D(10,11,12,13)        118.19           estimate D2E/DX2                !
 ! D64   D(10,11,12,20)         -4.0945         estimate D2E/DX2                !
 ! D65   D(10,11,12,33)       -123.2345         estimate D2E/DX2                !
 ! D66   D(11,12,13,14)        -63.9201         estimate D2E/DX2                !
 ! D67   D(11,12,13,34)        174.0689         estimate D2E/DX2                !
 ! D68   D(11,12,13,35)         56.6639         estimate D2E/DX2                !
 ! D69   D(20,12,13,14)         51.9608         estimate D2E/DX2                !
 ! D70   D(20,12,13,34)        -70.0502         estimate D2E/DX2                !
 ! D71   D(20,12,13,35)        172.5448         estimate D2E/DX2                !
 ! D72   D(33,12,13,14)        177.3697         estimate D2E/DX2                !
 ! D73   D(33,12,13,34)         55.3587         estimate D2E/DX2                !
 ! D74   D(33,12,13,35)        -62.0463         estimate D2E/DX2                !
 ! D75   D(11,12,20,21)          4.3602         estimate D2E/DX2                !
 ! D76   D(11,12,20,41)       -113.2521         estimate D2E/DX2                !
 ! D77   D(11,12,20,42)        121.7616         estimate D2E/DX2                !
 ! D78   D(13,12,20,21)       -115.4299         estimate D2E/DX2                !
 ! D79   D(13,12,20,41)        126.9577         estimate D2E/DX2                !
 ! D80   D(13,12,20,42)          1.9715         estimate D2E/DX2                !
 ! D81   D(33,12,20,21)        121.1147         estimate D2E/DX2                !
 ! D82   D(33,12,20,41)          3.5023         estimate D2E/DX2                !
 ! D83   D(33,12,20,42)       -121.4839         estimate D2E/DX2                !
 ! D84   D(12,13,14,15)       -104.5873         estimate D2E/DX2                !
 ! D85   D(12,13,14,19)         73.7481         estimate D2E/DX2                !
 ! D86   D(34,13,14,15)         16.2267         estimate D2E/DX2                !
 ! D87   D(34,13,14,19)       -165.4379         estimate D2E/DX2                !
 ! D88   D(35,13,14,15)        136.4511         estimate D2E/DX2                !
 ! D89   D(35,13,14,19)        -45.2134         estimate D2E/DX2                !
 ! D90   D(13,14,15,16)        178.6237         estimate D2E/DX2                !
 ! D91   D(13,14,15,36)         -2.1931         estimate D2E/DX2                !
 ! D92   D(19,14,15,16)          0.2657         estimate D2E/DX2                !
 ! D93   D(19,14,15,36)        179.4489         estimate D2E/DX2                !
 ! D94   D(13,14,19,18)       -178.2439         estimate D2E/DX2                !
 ! D95   D(13,14,19,40)          1.2303         estimate D2E/DX2                !
 ! D96   D(15,14,19,18)          0.1227         estimate D2E/DX2                !
 ! D97   D(15,14,19,40)        179.5969         estimate D2E/DX2                !
 ! D98   D(14,15,16,17)         -0.3688         estimate D2E/DX2                !
 ! D99   D(14,15,16,37)        179.6393         estimate D2E/DX2                !
 ! D100  D(36,15,16,17)       -179.5525         estimate D2E/DX2                !
 ! D101  D(36,15,16,37)          0.4556         estimate D2E/DX2                !
 ! D102  D(15,16,17,18)          0.081          estimate D2E/DX2                !
 ! D103  D(15,16,17,38)        179.8364         estimate D2E/DX2                !
 ! D104  D(37,16,17,18)       -179.9272         estimate D2E/DX2                !
 ! D105  D(37,16,17,38)         -0.1717         estimate D2E/DX2                !
 ! D106  D(16,17,18,19)          0.3055         estimate D2E/DX2                !
 ! D107  D(16,17,18,39)       -179.6489         estimate D2E/DX2                !
 ! D108  D(38,17,18,19)       -179.4493         estimate D2E/DX2                !
 ! D109  D(38,17,18,39)          0.5963         estimate D2E/DX2                !
 ! D110  D(17,18,19,14)         -0.4088         estimate D2E/DX2                !
 ! D111  D(17,18,19,40)       -179.8785         estimate D2E/DX2                !
 ! D112  D(39,18,19,14)        179.5458         estimate D2E/DX2                !
 ! D113  D(39,18,19,40)          0.076          estimate D2E/DX2                !
 ! D114  D(12,20,21,10)         -3.1373         estimate D2E/DX2                !
 ! D115  D(41,20,21,10)        117.3547         estimate D2E/DX2                !
 ! D116  D(42,20,21,10)       -123.454          estimate D2E/DX2                !
 ! D117  D(4,23,24,1)           -0.4278         estimate D2E/DX2                !
 ! D118  D(4,23,24,44)         179.5191         estimate D2E/DX2                !
 ! D119  D(43,23,24,1)        -179.9053         estimate D2E/DX2                !
 ! D120  D(43,23,24,44)          0.0416         estimate D2E/DX2                !
 --------------------------------------------------------------------------------
 Trust Radius=3.00D-01 FncErr=1.00D-07 GrdErr=1.00D-06 EigMax=2.50D+02 EigMin=1.00D-04
 Number of steps in this run=    259 maximum allowed number of steps=    264.
 GradGradGradGradGradGradGradGradGradGradGradGradGradGradGradGradGradGrad

 Leave Link  103 at Sun Feb 25 22:01:47 2024, MaxMem=  7516192768 cpu:               0.2 elap:               0.0
 (Enter /public/apps/g16-C01//g16/l202.exe)
                          Input orientation:                          
 ---------------------------------------------------------------------
 Center     Atomic      Atomic             Coordinates (Angstroms)
 Number     Number       Type             X           Y           Z
 ---------------------------------------------------------------------
      1          6           0        1.827116   -2.979583   -0.192389
      2          6           0        2.943810   -2.666611    0.561892
      3          6           0        3.561836   -1.437666    0.407263
      4          6           0        3.076684   -0.511412   -0.507347
      5          6           0        3.725765    0.834550   -0.655779
      6          6           0        2.887482    1.952321   -0.004394
      7          6           0        2.484551    1.662940    1.467245
      8          8           0        1.062823    1.567138    1.428795
      9          6           0        0.705188    1.836434    0.157766
     10          6           0       -0.719786    1.833378   -0.157830
     11          7           0       -1.634591    2.077828    0.681417
     12          6           0       -2.902490    1.938010    0.005796
     13          6           0       -3.732915    0.813189    0.655198
     14          6           0       -3.072769   -0.527371    0.506614
     15          6           0       -3.545618   -1.454925   -0.413117
     16          6           0       -2.917288   -2.678684   -0.567307
     17          6           0       -1.802727   -2.985192    0.192797
     18          6           0       -1.320154   -2.064788    1.108191
     19          6           0       -1.953041   -0.845805    1.267348
     20          6           0       -2.498937    1.654692   -1.466826
     21          8           0       -1.076863    1.564622   -1.429150
     22          7           0        1.619279    2.086508   -0.680620
     23          6           0        1.955354   -0.836646   -1.262825
     24          6           0        1.332551   -2.060708   -1.102929
     25          1           0        1.346410   -3.939244   -0.072730
     26          1           0        3.335817   -3.379399    1.273252
     27          1           0        4.438897   -1.201741    0.995484
     28          1           0        4.715149    0.833419   -0.194410
     29          1           0        3.828736    1.083542   -1.713029
     30          1           0        3.435631    2.895298   -0.101653
     31          1           0        2.885032    0.715759    1.835840
     32          1           0        2.761062    2.471216    2.149706
     33          1           0       -3.456443    2.877271    0.105816
     34          1           0       -4.721693    0.804659    0.192665
     35          1           0       -3.838995    1.060480    1.712521
     36          1           0       -4.421256   -1.224312   -1.005535
     37          1           0       -3.299790   -3.392704   -1.282553
     38          1           0       -1.314484   -3.941151    0.073971
     39          1           0       -0.447024   -2.296864    1.700005
     40          1           0       -1.575781   -0.127234    1.979631
     41          1           0       -2.779077    2.464065   -2.146555
     42          1           0       -2.895700    0.707142   -1.838346
     43          1           0        1.568917   -0.119527   -1.971650
     44          1           0        0.457806   -2.297837   -1.690341
 ---------------------------------------------------------------------
                    Distance matrix (angstroms):
                    1          2          3          4          5
     1  C    0.000000
     2  C    1.383437   0.000000
     3  C    2.397153   1.384259   0.000000
     4  C    2.784329   2.409525   1.389183   0.000000
     5  C    4.285698   3.788444   2.513940   1.501650   0.000000
     6  C    5.048108   4.653857   3.480837   2.521654   1.541568
     7  C    4.973894   4.446976   3.449328   2.996238   2.595009
     8  O    4.887234   4.713201   4.039485   3.482047   3.460259
     9  C    4.957353   5.045013   4.352289   3.402756   3.284739
    10  C    5.445411   5.847208   5.417688   4.475867   4.583507
    11  N    6.190667   6.594372   6.279866   5.505764   5.662795
    12  C    6.825773   7.462640   7.303689   6.481783   6.751968
    13  C    6.783618   7.529699   7.638142   7.033969   7.573046
    14  C    5.523660   6.385814   6.697499   6.232507   7.030366
    15  C    5.589237   6.673193   7.154664   6.689842   7.627161
    16  C    4.768697   5.968895   6.668505   6.374038   7.515370
    17  C    3.650227   4.771513   5.587430   5.515292   6.773089
    18  C    3.526140   4.340740   4.971761   4.935091   6.081040
    19  C    4.579675   5.271826   5.612835   5.344108   6.226624
    20  C    6.466485   7.239672   7.057468   6.058065   6.330667
    21  O    5.532854   6.167122   5.822686   4.734088   4.918978
    22  N    5.093804   5.088257   4.168551   2.983830   2.450571
    23  C    2.398845   2.766841   2.393993   1.390649   2.509135
    24  C    1.384922   2.394766   2.763797   2.407703   3.782848
    25  H    1.079975   2.138697   3.375855   3.864295   5.365667
    26  H    2.141059   1.080634   2.138071   3.385710   4.650869
    27  H    3.375376   2.137553   1.082082   2.142587   2.716930
    28  H    4.783275   3.994977   2.617244   2.142678   1.091670
    29  H    4.777846   4.474596   3.305051   2.136148   1.091044
    30  H    6.091780   5.622901   4.364573   3.449508   2.153582
    31  H    4.346085   3.614806   2.671355   2.652019   2.632320
    32  H    6.005737   5.380689   4.353930   4.006946   3.388226
    33  H    7.893520   8.479733   8.244137   7.385180   7.505788
    34  H    7.573352   8.422944   8.584342   7.939568   8.490012
    35  H    7.214957   7.824423   7.919390   7.431371   7.930037
    36  H    6.540974   7.666893   8.109949   7.548213   8.410422
    37  H    5.257784   6.550704   7.332091   7.040043   8.223196
    38  H    3.296242   4.471643   5.491541   5.602089   6.981688
    39  H    3.036276   3.595799   4.298879   4.525125   5.724303
    40  H    4.943002   5.374488   5.530342   5.289431   5.998067
    41  H    7.393854   8.149292   7.871002   6.769816   6.869549
    42  H    6.213381   7.158438   7.165384   6.239055   6.727444
    43  H    3.378218   3.846661   3.371712   2.138017   2.700699
    44  H    2.140946   3.374724   3.843805   3.383683   4.643460
                    6          7          8          9         10
     6  C    0.000000
     7  C    1.553002   0.000000
     8  O    2.351973   1.425471   0.000000
     9  C    2.191377   2.216070   1.347567   0.000000
    10  C    3.612488   3.596901   2.401241   1.459507   0.000000
    11  N    4.575504   4.213904   2.845245   2.409782   1.265290
    12  C    5.789999   5.588534   4.229206   3.612306   2.191328
    13  C    6.749988   6.327589   4.915892   4.581618   3.283405
    14  C    6.475693   6.050131   4.726575   4.470149   3.398698
    15  C    7.291170   7.044131   5.810614   5.406321   4.343206
    16  C    7.447042   7.222809   6.152456   5.833897   5.035414
    17  C    6.812927   6.450589   5.519309   5.434974   4.951194
    18  C    5.922771   5.338601   4.355715   4.497205   4.142336
    19  C    5.733890   5.101567   3.865720   3.935957   3.275679
    20  C    5.589347   5.783078   4.591124   3.597047   2.216027
    21  O    4.230398   4.591562   3.570170   2.401643   1.347586
    22  N    1.443477   2.354024   2.242548   1.265303   2.410106
    23  C    3.198570   3.739153   3.717473   3.275111   3.937819
    24  C    4.441733   4.668881   4.432115   4.143749   4.502133
    25  H    6.090165   5.920418   5.714476   5.815733   6.131849
    26  H    5.500966   5.117369   5.446001   5.947221   6.757881
    27  H    3.654415   3.499775   4.387747   4.885986   6.095416
    28  H    2.151375   2.902545   4.063573   4.148476   5.526280
    29  H    2.135455   3.500954   4.213692   3.717966   4.865177
    30  H    1.095049   2.210136   3.120336   2.940036   4.289326
    31  H    2.217105   1.092428   2.052067   2.970449   4.268314
    32  H    2.219320   1.093399   2.054528   2.932131   4.224673
    33  H    6.411947   6.214781   4.887790   4.290130   2.940835
    34  H    7.697760   7.368253   5.964060   5.524203   4.146851
    35  H    6.999191   6.356914   4.936094   4.865076   3.718205
    36  H    8.031870   7.882959   6.617649   6.082916   4.875341
    37  H    8.275586   8.159628   7.140296   6.742273   5.935769
    38  H    7.238485   6.912287   6.150478   6.120995   5.809697
    39  H    5.663875   4.932378   4.157367   4.559632   4.537053
    40  H    5.308636   4.466941   3.183795   3.518239   3.024147
    41  H    6.079525   6.434837   5.324265   4.224206   2.931463
    42  H    6.193468   6.386516   5.204201   4.269210   2.971051
    43  H    3.146627   3.980147   3.829360   3.017652   3.513110
    44  H    5.177797   5.455804   5.003308   4.535294   4.560948
                   11         12         13         14         15
    11  N    0.000000
    12  C    1.443461   0.000000
    13  C    2.450094   1.541607   0.000000
    14  C    2.980935   2.521491   1.501656   0.000000
    15  C    4.162976   3.478665   2.514104   1.389190   0.000000
    16  C    5.082227   4.652153   3.788528   2.409487   1.384254
    17  C    5.089321   5.048006   4.285690   2.784308   2.397190
    18  C    4.176395   4.443136   3.782773   2.407739   2.763874
    19  C    2.998726   3.200405   2.508972   1.390650   2.394012
    20  C    2.353951   1.552978   2.594960   2.997524   3.446094
    21  O    2.242528   2.351893   3.458868   3.479548   4.030476
    22  N    3.527448   4.575982   5.661425   5.500655   6.268131
    23  C    5.016168   5.736442   6.225526   5.339343   5.600443
    24  C    5.395860   5.929131   6.083522   4.934430   4.963804
    25  H    6.757238   7.252684   6.993929   5.612990   5.497240
    26  H    7.405171   8.294441   8.241769   7.056329   7.341770
    27  H    6.909520   8.045712   8.423435   7.557704   8.111765
    28  H    6.529535   7.699911   8.490702   7.936930   8.574650
    29  H    6.047307   6.999563   7.928440   7.426481   7.906623
    30  H    5.195056   6.410907   7.503070   7.378612   8.231603
    31  H    4.859518   6.191799   6.723141   6.229575   7.150030
    32  H    4.651064   6.079184   6.866902   6.762016   7.858553
    33  H    2.071128   1.095025   2.153762   3.449555   4.364077
    34  H    3.374913   2.151489   1.091646   2.142853   2.618367
    35  H    2.637720   2.135418   1.091026   2.136021   3.306308
    36  H    4.638474   3.650989   2.717215   2.142601   1.082074
    37  H    6.046221   5.498564   4.651023   3.385674   2.138069
    38  H    6.058017   6.090234   5.365667   3.864277   3.375875
    39  H    4.646049   5.180137   4.643396   3.383759   3.843882
    40  H    2.559515   3.149828   2.700323   2.137957   3.371686
    41  H    3.075135   2.219139   3.388955   4.009271   4.353260
    42  H    3.133430   2.217192   2.632477   2.655977   2.669870
    43  H    4.704211   5.304454   5.989968   5.277630   5.510969
    44  H    5.399056   5.666645   5.722078   4.519527   4.285931
                   16         17         18         19         20
    16  C    0.000000
    17  C    1.383456   0.000000
    18  C    2.394786   1.384907   0.000000
    19  C    2.766799   2.398798   1.382677   0.000000
    20  C    4.445481   4.976704   4.674909   3.745156   0.000000
    21  O    4.704847   4.884506   4.435077   3.721417   1.425422
    22  N    6.580299   6.180220   5.391973   5.015427   4.214770
    23  C    5.255425   4.567084   4.225991   4.655901   5.107748
    24  C    4.327807   3.516183   3.453391   4.229576   5.349478
    25  H    4.473560   3.301179   3.466803   4.717155   6.929814
    26  H    6.555912   5.265683   4.840817   5.864397   8.178903
    27  H    7.664016   6.540862   5.824450   6.407610   7.896564
    28  H    8.409995   7.564022   6.820649   7.030028   7.371334
    29  H    7.808704   7.204175   6.662007   6.784834   6.358166
    30  H    8.464378   7.880816   6.977368   6.701328   6.214652
    31  H    7.138927   6.194491   5.093575   5.115527   6.385634
    32  H    8.133098   7.377672   6.190025   5.831291   6.435340
    33  H    5.622492   6.091865   5.476535   4.179793   2.210140
    34  H    3.995887   4.783653   4.543389   3.397706   2.901226
    35  H    4.475322   4.777385   4.059196   2.718258   3.501013
    36  H    2.137560   3.375410   3.845916   3.376589   3.492387
    37  H    1.080606   2.141009   3.376089   3.847392   5.113857
    38  H    2.138701   1.079981   2.142518   3.378324   5.923719
    39  H    3.374714   2.140888   1.080027   2.135615   5.463878
    40  H    3.846613   3.378195   2.139829   1.079822   3.988175
    41  H    5.381542   6.010011   5.764750   4.826211   1.093432
    42  H    3.616604   4.353557   4.341431   3.597997   1.092382
    43  H    5.352336   4.925936   4.649322   4.839708   4.466558
    44  H    3.577361   3.021370   3.323738   4.082708   4.941131
                   21         22         23         24         25
    21  O    0.000000
    22  N    2.846374   0.000000
    23  C    3.871446   2.999456   0.000000
    24  C    4.365171   4.178512   1.382671   0.000000
    25  H    6.164793   6.062481   3.378351   2.142522   0.000000
    26  H    7.156680   6.053120   3.847461   3.376130   2.466340
    27  H    6.629874   4.644583   3.376572   3.845848   4.265968
    28  H    5.967130   3.375062   3.398102   4.543495   5.843075
    29  H    4.937300   2.636951   2.720178   4.060723   5.837885
    30  H    4.888307   2.070864   4.179348   5.476084   7.146793
    31  H    5.203589   3.132675   3.588313   4.330742   5.261088
    32  H    5.325391   3.076104   4.820424   5.758352   6.930690
    33  H    3.121149   5.196801   6.704767   6.984208   8.340513
    34  H    4.061110   6.527916   7.028178   6.822226   7.706940
    35  H    4.213506   6.047529   6.784265   6.664343   7.421104
    36  H    4.375222   6.896025   6.393562   5.815096   6.442589
    37  H    5.434885   7.387918   5.843831   4.823387   4.832137
    38  H    5.712213   6.746039   4.702852   3.453687   2.664936
    39  H    5.009928   5.399160   4.084363   3.328528   3.009386
    40  H    3.838109   4.710201   4.846205   4.658207   5.223295
    41  H    2.054556   4.651564   5.838708   6.202275   7.894477
    42  H    2.052043   4.860866   5.123205   5.106852   6.534661
    43  H    3.182894   2.556538   1.079827   2.139796   4.271492
    44  H    4.164375   4.646616   2.135533   1.080029   2.469919
                   26         27         28         29         30
    26  H    0.000000
    27  H    2.456855   0.000000
    28  H    4.669521   2.373613   0.000000
    29  H    5.392466   3.595950   1.776089   0.000000
    30  H    6.424340   4.358438   2.428398   2.456323   0.000000
    31  H    4.158128   2.607202   2.735889   3.690571   2.967731
    32  H    5.943754   4.199759   3.463483   4.241024   2.388201
    33  H    9.308256   8.931195   8.428664   7.720071   6.895220
    34  H    9.143166   9.412044   9.444821   8.764661   8.426110
    35  H    8.448870   8.611346   8.767059   8.398156   7.718677
    36  H    8.367165   9.083331   9.400323   8.595877   8.917335
    37  H    7.110808   8.359249   9.125975   8.428403   9.289746
    38  H    4.835198   6.438552   7.695779   7.409023   8.326552
    39  H    3.957763   5.056468   6.327362   6.431024   6.729006
    40  H    5.932903   6.188656   6.724962   6.656615   6.211416
    41  H    9.123217   8.683875   7.914120   6.764391   6.556690
    42  H    8.075498   8.091399   7.787393   6.736128   6.920252
    43  H    4.927280   4.267535   3.737039   2.573139   4.008825
    44  H    4.270317   4.925867   5.492499   4.774663   6.193547
                   31         32         33         34         35
    31  H    0.000000
    32  H    1.787599   0.000000
    33  H    6.919496   6.557418   0.000000
    34  H    7.782685   7.911956   2.429840   0.000000
    35  H    6.733987   6.763288   2.455316   1.776109   0.000000
    36  H    8.075836   8.671688   4.357631   2.375430   3.598212
    37  H    8.053314   9.104937   6.423760   4.670753   5.393705
    38  H    6.513596   7.876370   7.147019   5.843447   5.837321
    39  H    4.494101   5.764428   6.194329   5.492205   4.772566
    40  H    4.542044   5.058565   4.009379   3.736099   2.569854
    41  H    7.141301   7.010781   2.388041   3.464006   4.240984
    42  H    6.849568   7.142512   2.967096   2.732904   3.690977
    43  H    4.114224   5.011859   6.208938   6.716409   6.649139
    44  H    5.235183   6.541775   6.732701   6.324429   6.428084
                   36         37         38         39         40
    36  H    0.000000
    37  H    2.456898   0.000000
    38  H    4.265979   2.466250   0.000000
    39  H    4.925935   4.270221   2.469849   0.000000
    40  H    4.267496   4.927205   4.271508   2.461621   0.000000
    41  H    4.195569   5.943011   6.935601   6.549881   5.018781
    42  H    2.598348   4.157034   5.269139   5.247856   4.124963
    43  H    6.167341   5.907017   5.206090   4.720791   5.049931
    44  H    5.042486   3.935042   2.992372   3.509012   4.723948
                   41         42         43         44
    41  H    0.000000
    42  H    1.787560   0.000000
    43  H    5.060691   4.542462   0.000000
    44  H    5.775920   4.505309   2.461450   0.000000
 Symmetry turned off by external request.
 Stoichiometry    C20H20N2O2
 Framework group  C1[X(C20H20N2O2)]
 Deg. of freedom   126
 Full point group                 C1      NOp   1
 Rotational constants (GHZ):           0.3649608           0.2270507           0.1644221
 Leave Link  202 at Sun Feb 25 22:01:47 2024, MaxMem=  7516192768 cpu:               2.1 elap:               0.1
 (Enter /public/apps/g16-C01//g16/l301.exe)
 Standard basis: def2SVPP (5D, 7F)
 Ernie: Thresh=  0.10000D-02 Tol=  0.10000D-05 Strict=F.
   376 basis functions,   680 primitive gaussians,   400 cartesian basis functions
    85 alpha electrons       85 beta electrons
       nuclear repulsion energy      2094.3756212896 Hartrees.
 IExCor=  402 DFT=T Ex+Corr=B3LYP ExCW=0 ScaHFX=  0.200000
 ScaDFX=  0.800000  0.720000  1.000000  0.810000 ScalE2=  1.000000  1.000000
 IRadAn=      5 IRanWt=     -1 IRanGd=            0 ICorTp=0 IEmpDi=141
 NAtoms=   44 NActive=   44 NUniq=   44 SFac= 1.00D+00 NAtFMM=   60 NAOKFM=F Big=F
 Integral buffers will be    131072 words long.
 Raffenetti 2 integral format.
 Two-electron integral symmetry is turned off.
 R6Disp:  Grimme-D3(BJ) Dispersion energy=       -0.1042724315 Hartrees.
 Nuclear repulsion after empirical dispersion term =     2094.2713488581 Hartrees.
 Leave Link  301 at Sun Feb 25 22:01:47 2024, MaxMem=  7516192768 cpu:               2.3 elap:               0.1
 (Enter /public/apps/g16-C01//g16/l302.exe)
 NPDir=0 NMtPBC=     1 NCelOv=     1 NCel=       1 NClECP=     1 NCelD=      1
         NCelK=      1 NCelE2=     1 NClLst=     1 CellRange=     0.0.
 One-electron integrals computed using PRISM.
   1 Symmetry operations used in ECPInt.
 ECPInt:  NShTT=   17020 NPrTT=   68268 LenC2=   16080 LenP2D=   43365.
 LDataN:  DoStor=T MaxTD1= 4 Len=   56
 NBasis=   376 RedAO= T EigKep=  2.25D-04  NBF=   376
 NBsUse=   376 1.00D-06 EigRej= -1.00D+00 NBFU=   376
 Precomputing XC quadrature grid using
 IXCGrd= 4 IRadAn=           5 IRanWt=          -1 IRanGd=           0 AccXCQ= 0.00D+00.
 Generated NRdTot=       0 NPtTot=           0 NUsed=           0 NTot=          32
 NSgBfM=   398   398   398   398   398 MxSgAt=    44 MxSgA2=    44.
 Leave Link  302 at Sun Feb 25 22:01:48 2024, MaxMem=  7516192768 cpu:              12.1 elap:               0.3
 (Enter /public/apps/g16-C01//g16/l303.exe)
 DipDrv:  MaxL=1.
 Leave Link  303 at Sun Feb 25 22:01:48 2024, MaxMem=  7516192768 cpu:               1.2 elap:               0.0
 (Enter /public/apps/g16-C01//g16/l401.exe)
 ExpMin= 1.22D-01 ExpMax= 2.27D+03 ExpMxC= 3.41D+02 IAcc=3 IRadAn=         5 AccDes= 0.00D+00
 Harris functional with IExCor=  402 and IRadAn=       5 diagonalized for initial guess.
 HarFok:  IExCor=  402 AccDes= 0.00D+00 IRadAn=         5 IDoV= 1 UseB2=F ITyADJ=14
 ICtDFT=  3500011 ScaDFX=  1.000000  1.000000  1.000000  1.000000
 FoFCou: FMM=F IPFlag=           0 FMFlag=      100000 FMFlg1=           0
         NFxFlg=           0 DoJE=T BraDBF=F KetDBF=T FulRan=T
         wScrn=  0.000000 ICntrl=       500 IOpCl=  0 I1Cent=   200000004 NGrid=           0
         NMat0=    1 NMatS0=      1 NMatT0=    0 NMatD0=    1 NMtDS0=    0 NMtDT0=    0
 Symmetry not used in FoFCou.
 Harris En= -1033.35463108898    
 JPrj=0 DoOrth=F DoCkMO=F.
 Leave Link  401 at Sun Feb 25 22:01:48 2024, MaxMem=  7516192768 cpu:              24.2 elap:               0.6
 (Enter /public/apps/g16-C01//g16/l502.exe)
 Two-electron integral symmetry not used.
 Closed shell SCF:
 Using DIIS extrapolation, IDIIS=  1040.
 NGot=  7516192768 LenX=  7515852226 LenY=  7515691785
 Requested convergence on RMS density matrix=1.00D-08 within 128 cycles.
 Requested convergence on MAX density matrix=1.00D-06.
 Requested convergence on             energy=1.00D-06.
 No special actions if energy rises.
 Fock matrices will be formed incrementally for  20 cycles.
 Integral accuracy reduced to 1.0D-05 until final iterations.

 Cycle   1  Pass 0  IDiag  1:
 FoFJK:  IHMeth= 1 ICntrl=       0 DoSepK=F KAlg= 0 I1Cent=           0 FoldK=F
 IRaf= 890000000 NMat=       1 IRICut=       1 DoRegI=T DoRafI=F ISym2E= 0 IDoP0=0 IntGTp=1.
 FoFCou: FMM=F IPFlag=           0 FMFlag=      100000 FMFlg1=           0
         NFxFlg=           0 DoJE=F BraDBF=F KetDBF=F FulRan=T
         wScrn=  0.000000 ICntrl=         0 IOpCl=  0 I1Cent=           0 NGrid=           0
         NMat0=    1 NMatS0=      1 NMatT0=    0 NMatD0=    1 NMtDS0=    0 NMtDT0=    0
 Symmetry not used in FoFCou.
 E= -1032.92106403677    
 DIIS: error= 3.04D-02 at cycle   1 NSaved=   1.
 NSaved= 1 IEnMin= 1 EnMin= -1032.92106403677     IErMin= 1 ErrMin= 3.04D-02
 ErrMax= 3.04D-02  0.00D+00 EMaxC= 1.00D-01 BMatC= 4.26D-01 BMatP= 4.26D-01
 IDIUse=3 WtCom= 6.96D-01 WtEn= 3.04D-01
 Coeff-Com:  0.100D+01
 Coeff-En:   0.100D+01
 Coeff:      0.100D+01
 Gap=     0.267 Goal=   None    Shift=    0.000
 GapD=    0.267 DampG=1.000 DampE=0.500 DampFc=0.5000 IDamp=-1.
 Damping current iteration by 5.00D-01
 RMSDP=5.67D-03 MaxDP=1.44D-01              OVMax= 2.19D-01

 Cycle   2  Pass 0  IDiag  1:
 RMSU=  2.65D-03    CP:  9.52D-01
 E= -1033.12064348524     Delta-E=       -0.199579448475 Rises=F Damp=T
 DIIS: error= 6.76D-03 at cycle   2 NSaved=   2.
 NSaved= 2 IEnMin= 2 EnMin= -1033.12064348524     IErMin= 2 ErrMin= 6.76D-03
 ErrMax= 6.76D-03  0.00D+00 EMaxC= 1.00D-01 BMatC= 3.51D-02 BMatP= 4.26D-01
 IDIUse=3 WtCom= 9.32D-01 WtEn= 6.76D-02
 Coeff-Com:  0.960D-01 0.904D+00
 Coeff-En:   0.142D+00 0.858D+00
 Coeff:      0.991D-01 0.901D+00
 Gap=     0.196 Goal=   None    Shift=    0.000
 RMSDP=1.78D-03 MaxDP=6.12D-02 DE=-2.00D-01 OVMax= 1.72D-01

 Cycle   3  Pass 0  IDiag  1:
 RMSU=  1.70D-03    CP:  9.27D-01  1.01D+00
 E= -1033.35794125396     Delta-E=       -0.237297768712 Rises=F Damp=F
 DIIS: error= 8.80D-03 at cycle   3 NSaved=   3.
 NSaved= 3 IEnMin= 3 EnMin= -1033.35794125396     IErMin= 2 ErrMin= 6.76D-03
 ErrMax= 8.80D-03  0.00D+00 EMaxC= 1.00D-01 BMatC= 4.39D-02 BMatP= 3.51D-02
 IDIUse=3 WtCom= 9.63D-02 WtEn= 9.04D-01
 Coeff-Com: -0.231D-02 0.533D+00 0.470D+00
 Coeff-En:   0.000D+00 0.000D+00 0.100D+01
 Coeff:     -0.222D-03 0.513D-01 0.949D+00
 Gap=     0.188 Goal=   None    Shift=    0.000
 RMSDP=1.67D-03 MaxDP=9.76D-02 DE=-2.37D-01 OVMax= 2.02D-01

 Cycle   4  Pass 0  IDiag  1:
 RMSU=  1.26D-03    CP:  9.30D-01  1.17D+00  4.08D-01
 E= -1033.23802392269     Delta-E=        0.119917331262 Rises=F Damp=F
 DIIS: error= 2.00D-02 at cycle   4 NSaved=   4.
 NSaved= 4 IEnMin= 3 EnMin= -1033.35794125396     IErMin= 2 ErrMin= 6.76D-03
 ErrMax= 2.00D-02  0.00D+00 EMaxC= 1.00D-01 BMatC= 1.79D-01 BMatP= 3.51D-02
 IDIUse=2 WtCom= 0.00D+00 WtEn= 1.00D+00
 Coeff-En:   0.000D+00 0.000D+00 0.746D+00 0.254D+00
 Coeff:      0.000D+00 0.000D+00 0.746D+00 0.254D+00
 Gap=     0.196 Goal=   None    Shift=    0.000
 RMSDP=8.72D-04 MaxDP=5.07D-02 DE= 1.20D-01 OVMax= 9.50D-02

 Cycle   5  Pass 0  IDiag  1:
 RMSU=  2.18D-04    CP:  9.27D-01  1.09D+00  6.93D-01  4.82D-01
 E= -1033.38916689181     Delta-E=       -0.151142969120 Rises=F Damp=F
 DIIS: error= 4.14D-03 at cycle   5 NSaved=   5.
 NSaved= 5 IEnMin= 5 EnMin= -1033.38916689181     IErMin= 5 ErrMin= 4.14D-03
 ErrMax= 4.14D-03  0.00D+00 EMaxC= 1.00D-01 BMatC= 9.90D-03 BMatP= 3.51D-02
 IDIUse=3 WtCom= 9.59D-01 WtEn= 4.14D-02
 Coeff-Com:  0.464D-02 0.263D-02 0.287D+00-0.309D-01 0.737D+00
 Coeff-En:   0.000D+00 0.000D+00 0.229D+00 0.000D+00 0.771D+00
 Coeff:      0.445D-02 0.252D-02 0.284D+00-0.296D-01 0.738D+00
 Gap=     0.201 Goal=   None    Shift=    0.000
 RMSDP=2.73D-04 MaxDP=1.63D-02 DE=-1.51D-01 OVMax= 2.58D-02

 Cycle   6  Pass 0  IDiag  1:
 RMSU=  6.60D-05    CP:  9.27D-01  1.06D+00  7.91D-01  3.30D-01  8.79D-01
 E= -1033.39800907273     Delta-E=       -0.008842180913 Rises=F Damp=F
 DIIS: error= 3.96D-04 at cycle   6 NSaved=   6.
 NSaved= 6 IEnMin= 6 EnMin= -1033.39800907273     IErMin= 6 ErrMin= 3.96D-04
 ErrMax= 3.96D-04  0.00D+00 EMaxC= 1.00D-01 BMatC= 8.88D-05 BMatP= 9.90D-03
 IDIUse=3 WtCom= 9.96D-01 WtEn= 3.96D-03
 Coeff-Com:  0.109D-02-0.426D-02 0.120D+00-0.431D-01 0.449D+00 0.477D+00
 Coeff-En:   0.000D+00 0.000D+00 0.000D+00 0.000D+00 0.000D+00 0.100D+01
 Coeff:      0.109D-02-0.425D-02 0.120D+00-0.430D-01 0.448D+00 0.479D+00
 Gap=     0.202 Goal=   None    Shift=    0.000
 RMSDP=3.16D-05 MaxDP=8.88D-04 DE=-8.84D-03 OVMax= 2.16D-03

 Cycle   7  Pass 0  IDiag  1:
 RMSU=  1.93D-05    CP:  9.27D-01  1.06D+00  7.91D-01  3.34D-01  8.75D-01
                    CP:  6.34D-01
 E= -1033.39809179764     Delta-E=       -0.000082724912 Rises=F Damp=F
 DIIS: error= 6.48D-05 at cycle   7 NSaved=   7.
 NSaved= 7 IEnMin= 7 EnMin= -1033.39809179764     IErMin= 7 ErrMin= 6.48D-05
 ErrMax= 6.48D-05  0.00D+00 EMaxC= 1.00D-01 BMatC= 3.08D-06 BMatP= 8.88D-05
 IDIUse=1 WtCom= 1.00D+00 WtEn= 0.00D+00
 Coeff-Com:  0.413D-03-0.222D-02 0.480D-01-0.221D-01 0.198D+00 0.245D+00
 Coeff-Com:  0.533D+00
 Coeff:      0.413D-03-0.222D-02 0.480D-01-0.221D-01 0.198D+00 0.245D+00
 Coeff:      0.533D+00
 Gap=     0.202 Goal=   None    Shift=    0.000
 RMSDP=8.12D-06 MaxDP=1.76D-04 DE=-8.27D-05 OVMax= 6.10D-04

 Initial convergence to 1.0D-05 achieved.  Increase integral accuracy.
 Cycle   8  Pass 1  IDiag  1:
 E= -1033.39809691271     Delta-E=       -0.000005115071 Rises=F Damp=F
 DIIS: error= 2.34D-04 at cycle   1 NSaved=   1.
 NSaved= 1 IEnMin= 1 EnMin= -1033.39809691271     IErMin= 1 ErrMin= 2.34D-04
 ErrMax= 2.34D-04  0.00D+00 EMaxC= 1.00D-01 BMatC= 4.53D-06 BMatP= 4.53D-06
 IDIUse=3 WtCom= 9.98D-01 WtEn= 2.34D-03
 Coeff-Com:  0.100D+01
 Coeff-En:   0.100D+01
 Coeff:      0.100D+01
 Gap=     0.202 Goal=   None    Shift=    0.000
 RMSDP=8.12D-06 MaxDP=1.76D-04 DE=-5.12D-06 OVMax= 5.51D-04

 Cycle   9  Pass 1  IDiag  1:
 RMSU=  1.59D-04    CP:  1.00D+00
 E= -1033.39809985547     Delta-E=       -0.000002942758 Rises=F Damp=F
 DIIS: error= 5.19D-05 at cycle   2 NSaved=   2.
 NSaved= 2 IEnMin= 2 EnMin= -1033.39809985547     IErMin= 2 ErrMin= 5.19D-05
 ErrMax= 5.19D-05  0.00D+00 EMaxC= 1.00D-01 BMatC= 1.68D-06 BMatP= 4.53D-06
 IDIUse=1 WtCom= 1.00D+00 WtEn= 0.00D+00
 Coeff-Com:  0.317D+00 0.683D+00
 Coeff:      0.317D+00 0.683D+00
 Gap=     0.202 Goal=   None    Shift=    0.000
 RMSDP=8.67D-06 MaxDP=2.56D-04 DE=-2.94D-06 OVMax= 7.53D-04

 Cycle  10  Pass 1  IDiag  1:
 RMSU=  8.59D-06    CP:  1.00D+00  1.01D+00
 E= -1033.39809958547     Delta-E=        0.000000270000 Rises=F Damp=F
 DIIS: error= 5.69D-05 at cycle   3 NSaved=   3.
 NSaved= 3 IEnMin= 2 EnMin= -1033.39809985547     IErMin= 2 ErrMin= 5.19D-05
 ErrMax= 5.69D-05  0.00D+00 EMaxC= 1.00D-01 BMatC= 1.90D-06 BMatP= 1.68D-06
 IDIUse=1 WtCom= 1.00D+00 WtEn= 0.00D+00
 Coeff-Com: -0.841D-03 0.516D+00 0.485D+00
 Coeff:     -0.841D-03 0.516D+00 0.485D+00
 Gap=     0.202 Goal=   None    Shift=    0.000
 RMSDP=4.65D-06 MaxDP=1.37D-04 DE= 2.70D-07 OVMax= 3.92D-04

 Cycle  11  Pass 1  IDiag  1:
 RMSU=  8.37D-07    CP:  1.00D+00  1.01D+00  4.77D-01
 E= -1033.39810163149     Delta-E=       -0.000002046017 Rises=F Damp=F
 DIIS: error= 1.34D-05 at cycle   4 NSaved=   4.
 NSaved= 4 IEnMin= 4 EnMin= -1033.39810163149     IErMin= 4 ErrMin= 1.34D-05
 ErrMax= 1.34D-05  0.00D+00 EMaxC= 1.00D-01 BMatC= 3.32D-08 BMatP= 1.68D-06
 IDIUse=1 WtCom= 1.00D+00 WtEn= 0.00D+00
 Coeff-Com: -0.406D-02 0.329D+00 0.317D+00 0.358D+00
 Coeff:     -0.406D-02 0.329D+00 0.317D+00 0.358D+00
 Gap=     0.202 Goal=   None    Shift=    0.000
 RMSDP=4.88D-07 MaxDP=2.80D-05 DE=-2.05D-06 OVMax= 4.70D-05

 Cycle  12  Pass 1  IDiag  1:
 RMSU=  2.45D-07    CP:  1.00D+00  1.01D+00  4.88D-01  5.07D-01
 E= -1033.39810165825     Delta-E=       -0.000000026765 Rises=F Damp=F
 DIIS: error= 8.77D-07 at cycle   5 NSaved=   5.
 NSaved= 5 IEnMin= 5 EnMin= -1033.39810165825     IErMin= 5 ErrMin= 8.77D-07
 ErrMax= 8.77D-07  0.00D+00 EMaxC= 1.00D-01 BMatC= 4.11D-10 BMatP= 3.32D-08
 IDIUse=1 WtCom= 1.00D+00 WtEn= 0.00D+00
 Coeff-Com: -0.222D-02 0.168D+00 0.162D+00 0.200D+00 0.472D+00
 Coeff:     -0.222D-02 0.168D+00 0.162D+00 0.200D+00 0.472D+00
 Gap=     0.202 Goal=   None    Shift=    0.000
 RMSDP=7.77D-08 MaxDP=3.71D-06 DE=-2.68D-08 OVMax= 5.68D-06

 Cycle  13  Pass 1  IDiag  1:
 RMSU=  6.54D-08    CP:  1.00D+00  1.01D+00  4.90D-01  5.22D-01  8.62D-01
 E= -1033.39810165861     Delta-E=       -0.000000000359 Rises=F Damp=F
 DIIS: error= 1.92D-07 at cycle   6 NSaved=   6.
 NSaved= 6 IEnMin= 6 EnMin= -1033.39810165861     IErMin= 6 ErrMin= 1.92D-07
 ErrMax= 1.92D-07  0.00D+00 EMaxC= 1.00D-01 BMatC= 3.97D-11 BMatP= 4.11D-10
 IDIUse=1 WtCom= 1.00D+00 WtEn= 0.00D+00
 Coeff-Com: -0.758D-03 0.544D-01 0.526D-01 0.708D-01 0.266D+00 0.557D+00
 Coeff:     -0.758D-03 0.544D-01 0.526D-01 0.708D-01 0.266D+00 0.557D+00
 Gap=     0.202 Goal=   None    Shift=    0.000
 RMSDP=2.21D-08 MaxDP=1.28D-06 DE=-3.59D-10 OVMax= 1.52D-06

 Cycle  14  Pass 1  IDiag  1:
 RMSU=  1.79D-08    CP:  1.00D+00  1.01D+00  4.89D-01  5.21D-01  8.87D-01
                    CP:  8.45D-01
 E= -1033.39810165864     Delta-E=       -0.000000000032 Rises=F Damp=F
 DIIS: error= 6.31D-08 at cycle   7 NSaved=   7.
 NSaved= 7 IEnMin= 7 EnMin= -1033.39810165864     IErMin= 7 ErrMin= 6.31D-08
 ErrMax= 6.31D-08  0.00D+00 EMaxC= 1.00D-01 BMatC= 3.96D-12 BMatP= 3.97D-11
 IDIUse=1 WtCom= 1.00D+00 WtEn= 0.00D+00
 Coeff-Com: -0.173D-03 0.115D-01 0.112D-01 0.175D-01 0.883D-01 0.297D+00
 Coeff-Com:  0.575D+00
 Coeff:     -0.173D-03 0.115D-01 0.112D-01 0.175D-01 0.883D-01 0.297D+00
 Coeff:      0.575D+00
 Gap=     0.202 Goal=   None    Shift=    0.000
 RMSDP=7.54D-09 MaxDP=3.76D-07 DE=-3.18D-11 OVMax= 5.54D-07

 SCF Done:  E(RB3LYP) =  -1033.39810166     A.U. after   14 cycles
            NFock= 14  Conv=0.75D-08     -V/T= 2.0090
 KE= 1.024142731841D+03 PE=-6.588882961828D+03 EE= 2.437070779470D+03
 Leave Link  502 at Sun Feb 25 22:02:04 2024, MaxMem=  7516192768 cpu:             619.1 elap:              15.7
 (Enter /public/apps/g16-C01//g16/l601.exe)
 Copying SCF densities to generalized density rwf, IOpCl= 0 IROHF=0.

 **********************************************************************

            Population analysis using the SCF Density.

 **********************************************************************

 Alpha  occ. eigenvalues --  -19.17150 -19.17145 -14.31003 -14.31002 -10.28150
 Alpha  occ. eigenvalues --  -10.28135 -10.23688 -10.23682 -10.22214 -10.22211
 Alpha  occ. eigenvalues --  -10.18864 -10.18863 -10.18620 -10.18617 -10.18194
 Alpha  occ. eigenvalues --  -10.18194 -10.18124 -10.18122 -10.17979 -10.17975
 Alpha  occ. eigenvalues --  -10.17833 -10.17824 -10.17428 -10.17425  -1.09950
 Alpha  occ. eigenvalues --   -1.08730  -0.91374  -0.90938  -0.85554  -0.85363
 Alpha  occ. eigenvalues --   -0.81118  -0.78657  -0.75958  -0.73914  -0.73905
 Alpha  occ. eigenvalues --   -0.73645  -0.69320  -0.69139  -0.64060  -0.62648
 Alpha  occ. eigenvalues --   -0.61051  -0.60263  -0.60255  -0.57707  -0.57185
 Alpha  occ. eigenvalues --   -0.55192  -0.53008  -0.51534  -0.51245  -0.51067
 Alpha  occ. eigenvalues --   -0.50439  -0.47380  -0.47122  -0.46879  -0.45647
 Alpha  occ. eigenvalues --   -0.45242  -0.44735  -0.44427  -0.42656  -0.42292
 Alpha  occ. eigenvalues --   -0.42247  -0.41843  -0.41533  -0.40139  -0.39919
 Alpha  occ. eigenvalues --   -0.39847  -0.38814  -0.37899  -0.36844  -0.36586
 Alpha  occ. eigenvalues --   -0.35900  -0.35152  -0.35146  -0.34099  -0.34012
 Alpha  occ. eigenvalues --   -0.33686  -0.33406  -0.28346  -0.27511  -0.26169
 Alpha  occ. eigenvalues --   -0.25751  -0.25402  -0.24966  -0.24927  -0.24126
 Alpha virt. eigenvalues --   -0.03959  -0.00895  -0.00580  -0.00563   0.00105
 Alpha virt. eigenvalues --    0.05355   0.05823   0.06706   0.07285   0.08546
 Alpha virt. eigenvalues --    0.08744   0.09251   0.09678   0.10062   0.11003
 Alpha virt. eigenvalues --    0.11636   0.12123   0.12231   0.12750   0.13137
 Alpha virt. eigenvalues --    0.14233   0.15456   0.15523   0.15739   0.16204
 Alpha virt. eigenvalues --    0.16366   0.16440   0.17065   0.17449   0.17768
 Alpha virt. eigenvalues --    0.19655   0.19845   0.21280   0.22407   0.22606
 Alpha virt. eigenvalues --    0.22959   0.25320   0.25546   0.28758   0.29513
 Alpha virt. eigenvalues --    0.30068   0.30642   0.31678   0.32083   0.32420
 Alpha virt. eigenvalues --    0.32471   0.33535   0.34165   0.34898   0.35389
 Alpha virt. eigenvalues --    0.37659   0.38638   0.38698   0.40286   0.41605
 Alpha virt. eigenvalues --    0.42121   0.42544   0.42725   0.43548   0.43985
 Alpha virt. eigenvalues --    0.44579   0.45273   0.45666   0.45951   0.47540
 Alpha virt. eigenvalues --    0.47698   0.48510   0.49494   0.49875   0.50508
 Alpha virt. eigenvalues --    0.51254   0.51636   0.52497   0.53134   0.53803
 Alpha virt. eigenvalues --    0.54272   0.54725   0.54753   0.55498   0.55834
 Alpha virt. eigenvalues --    0.56400   0.56874   0.57762   0.58855   0.60463
 Alpha virt. eigenvalues --    0.61801   0.61860   0.62424   0.63122   0.63148
 Alpha virt. eigenvalues --    0.64272   0.64906   0.65299   0.65950   0.66467
 Alpha virt. eigenvalues --    0.67040   0.67367   0.67899   0.68300   0.68320
 Alpha virt. eigenvalues --    0.68698   0.68835   0.69893   0.70479   0.71041
 Alpha virt. eigenvalues --    0.71108   0.71169   0.71756   0.72109   0.72284
 Alpha virt. eigenvalues --    0.72736   0.73339   0.73441   0.73663   0.74907
 Alpha virt. eigenvalues --    0.74967   0.76766   0.76916   0.77317   0.77697
 Alpha virt. eigenvalues --    0.78058   0.78926   0.79486   0.79941   0.80651
 Alpha virt. eigenvalues --    0.80838   0.82238   0.83329   0.83466   0.84647
 Alpha virt. eigenvalues --    0.84920   0.86328   0.86781   0.87948   0.89837
 Alpha virt. eigenvalues --    0.91099   0.92010   0.93227   0.94109   0.94438
 Alpha virt. eigenvalues --    0.97379   0.97534   0.98396   1.00252   1.01097
 Alpha virt. eigenvalues --    1.03970   1.07169   1.07628   1.07923   1.10475
 Alpha virt. eigenvalues --    1.11680   1.11927   1.14017   1.14662   1.15933
 Alpha virt. eigenvalues --    1.15996   1.18963   1.22508   1.27294   1.27680
 Alpha virt. eigenvalues --    1.27946   1.32200   1.33545   1.33818   1.34872
 Alpha virt. eigenvalues --    1.37646   1.37727   1.40256   1.42411   1.42701
 Alpha virt. eigenvalues --    1.47188   1.47828   1.48739   1.49627   1.49913
 Alpha virt. eigenvalues --    1.50065   1.51138   1.52349   1.52524   1.53864
 Alpha virt. eigenvalues --    1.55157   1.57444   1.59052   1.60791   1.62460
 Alpha virt. eigenvalues --    1.63308   1.67423   1.67913   1.73515   1.75801
 Alpha virt. eigenvalues --    1.76151   1.76191   1.76631   1.77983   1.79246
 Alpha virt. eigenvalues --    1.79927   1.81086   1.81116   1.81823   1.84793
 Alpha virt. eigenvalues --    1.85278   1.86651   1.87296   1.87942   1.88848
 Alpha virt. eigenvalues --    1.90169   1.90892   1.92063   1.92699   1.95283
 Alpha virt. eigenvalues --    1.95434   1.98360   1.98436   2.00490   2.00492
 Alpha virt. eigenvalues --    2.01609   2.04655   2.05235   2.07075   2.07668
 Alpha virt. eigenvalues --    2.07962   2.08562   2.10305   2.10525   2.11712
 Alpha virt. eigenvalues --    2.12006   2.13413   2.15612   2.15621   2.17870
 Alpha virt. eigenvalues --    2.19874   2.22433   2.23314   2.24008   2.24591
 Alpha virt. eigenvalues --    2.25075   2.26009   2.30706   2.31536   2.32302
 Alpha virt. eigenvalues --    2.33016   2.35006   2.35088   2.36743   2.37471
 Alpha virt. eigenvalues --    2.41802   2.46878   2.46907   2.48753   2.50273
 Alpha virt. eigenvalues --    2.50406   2.51263   2.53027   2.53902   2.55162
 Alpha virt. eigenvalues --    2.63048   2.63110   2.66768   2.67224   2.67789
 Alpha virt. eigenvalues --    2.67840   2.69508   2.71419   2.72855   2.73225
 Alpha virt. eigenvalues --    2.74006   2.75118   2.77333   2.77699   2.78221
 Alpha virt. eigenvalues --    2.80206   2.82126   2.85792   2.86709   2.89617
 Alpha virt. eigenvalues --    2.94820   2.95974   2.96828   3.01788   3.03709
 Alpha virt. eigenvalues --    3.04054   3.08632   3.18291   3.20676   3.24936
 Alpha virt. eigenvalues --    3.30809   3.40558   3.41288   3.41840   3.57768
 Alpha virt. eigenvalues --    3.67494
          Condensed to atoms (all electrons):
               1          2          3          4          5          6
     1  C    5.345479   0.144830   0.177939  -0.219762   0.000245  -0.000173
     2  C    0.144830   5.257998   0.166525   0.180069   0.013667   0.000147
     3  C    0.177939   0.166525   5.416083   0.167752  -0.092503  -0.009342
     4  C   -0.219762   0.180069   0.167752   5.290459   0.400869  -0.033996
     5  C    0.000245   0.013667  -0.092503   0.400869   4.928628   0.358517
     6  C   -0.000173   0.000147  -0.009342  -0.033996   0.358517   4.888525
     7  C    0.000124  -0.001246   0.003287  -0.022340  -0.037960   0.328124
     8  O   -0.000021   0.000037  -0.000590   0.002961   0.001827  -0.065764
     9  C   -0.000177   0.000096   0.000046   0.006709  -0.005673  -0.061855
    10  C    0.000047  -0.000014  -0.000012  -0.000618  -0.001101   0.020353
    11  N    0.000001  -0.000000   0.000000  -0.000012  -0.000010  -0.000222
    12  C    0.000000   0.000000   0.000000   0.000001  -0.000001   0.000051
    13  C   -0.000000  -0.000000   0.000000  -0.000000  -0.000000  -0.000001
    14  C   -0.000006  -0.000004   0.000002  -0.000003  -0.000000   0.000001
    15  C   -0.000029   0.000003  -0.000001   0.000002   0.000000   0.000000
    16  C    0.000279  -0.000027   0.000003  -0.000004  -0.000000   0.000000
    17  C   -0.000850   0.000275  -0.000029  -0.000006  -0.000000   0.000000
    18  C   -0.000511  -0.001438   0.000131  -0.000325  -0.000006  -0.000007
    19  C   -0.000091   0.000085  -0.000032  -0.000009   0.000002  -0.000012
    20  C    0.000000  -0.000000   0.000000  -0.000003  -0.000004   0.000012
    21  O   -0.000000  -0.000000   0.000002   0.000008   0.000007  -0.000115
    22  N    0.000009   0.000028   0.000891  -0.020385  -0.073472   0.396227
    23  C    0.182687  -0.189232   0.110615   0.175843  -0.095249  -0.015479
    24  C    0.128649   0.180255  -0.199566   0.186044   0.011999   0.001366
    25  H    0.442549  -0.087757   0.017112  -0.002264   0.000027   0.000001
    26  H   -0.090735   0.445512  -0.088427   0.019058  -0.000394  -0.000003
    27  H    0.016412  -0.081136   0.427730  -0.081528  -0.019543   0.000798
    28  H   -0.000016   0.000846  -0.013112  -0.018403   0.330105  -0.009157
    29  H    0.000064  -0.000705   0.009002  -0.007990   0.325083  -0.014716
    30  H   -0.000001   0.000015  -0.000190   0.009368  -0.031674   0.340293
    31  H   -0.000209   0.001006   0.010686   0.006682  -0.016559  -0.008402
    32  H   -0.000002   0.000027  -0.000179   0.001127   0.006068  -0.001338
    33  H   -0.000000   0.000000  -0.000000  -0.000000   0.000000  -0.000001
    34  H    0.000000  -0.000000  -0.000000   0.000000   0.000000   0.000000
    35  H    0.000000  -0.000000   0.000000  -0.000000  -0.000000  -0.000000
    36  H    0.000000   0.000000  -0.000000   0.000000  -0.000000   0.000000
    37  H   -0.000009  -0.000000   0.000000  -0.000000  -0.000000  -0.000000
    38  H    0.000214   0.000195  -0.000008  -0.000000   0.000000   0.000000
    39  H    0.005870   0.000952   0.000233  -0.000070  -0.000003   0.000006
    40  H   -0.000027   0.000004  -0.000007   0.000019   0.000004   0.000010
    41  H   -0.000000   0.000000  -0.000000   0.000000   0.000000  -0.000004
    42  H   -0.000000   0.000000  -0.000000   0.000001  -0.000000   0.000003
    43  H    0.015981  -0.002574   0.017954  -0.077078  -0.011263  -0.008605
    44  H   -0.090863   0.017294  -0.002492   0.018209  -0.000411   0.000019
               7          8          9         10         11         12
     1  C    0.000124  -0.000021  -0.000177   0.000047   0.000001   0.000000
     2  C   -0.001246   0.000037   0.000096  -0.000014  -0.000000   0.000000
     3  C    0.003287  -0.000590   0.000046  -0.000012   0.000000   0.000000
     4  C   -0.022340   0.002961   0.006709  -0.000618  -0.000012   0.000001
     5  C   -0.037960   0.001827  -0.005673  -0.001101  -0.000010  -0.000001
     6  C    0.328124  -0.065764  -0.061855   0.020353  -0.000222   0.000051
     7  C    4.803479   0.329419  -0.118012   0.002745  -0.000133   0.000012
     8  O    0.329419   7.828855   0.431999  -0.104630   0.004348  -0.000115
     9  C   -0.118012   0.431999   5.219423   0.003171  -0.105340   0.020378
    10  C    0.002745  -0.104630   0.003171   5.219340   0.574075  -0.061834
    11  N   -0.000133   0.004348  -0.105340   0.574075   6.525185   0.396308
    12  C    0.000012  -0.000115   0.020378  -0.061834   0.396308   4.888773
    13  C   -0.000004   0.000007  -0.001107  -0.005752  -0.073603   0.358191
    14  C   -0.000003   0.000005  -0.000657   0.006773  -0.020477  -0.034171
    15  C    0.000000   0.000002  -0.000011   0.000043   0.000897  -0.009342
    16  C   -0.000000  -0.000000  -0.000015   0.000099   0.000029   0.000147
    17  C    0.000000  -0.000000   0.000051  -0.000182   0.000009  -0.000170
    18  C   -0.000000  -0.000405  -0.000379   0.001027   0.000396   0.001357
    19  C   -0.000007  -0.000587   0.000470   0.004432   0.002847  -0.015491
    20  C    0.000016  -0.000104   0.002749  -0.118007  -0.060767   0.328077
    21  O   -0.000104   0.000429  -0.104528   0.431864  -0.090689  -0.065765
    22  N   -0.060731  -0.090678   0.573789  -0.105377   0.001573  -0.000221
    23  C   -0.000638  -0.001369   0.004563   0.000409  -0.000025  -0.000012
    24  C    0.000013  -0.000010   0.001025  -0.000380   0.000002  -0.000006
    25  H    0.000001  -0.000001  -0.000000  -0.000001   0.000000   0.000000
    26  H   -0.000001   0.000000  -0.000002   0.000000   0.000000  -0.000000
    27  H   -0.001060  -0.000014   0.000039   0.000005   0.000000   0.000000
    28  H   -0.007641  -0.000006   0.000069   0.000038   0.000000   0.000000
    29  H    0.010881  -0.000091  -0.001740  -0.000180   0.000001  -0.000000
    30  H   -0.023279   0.003306   0.002032  -0.001136   0.000025  -0.000001
    31  H    0.354016  -0.026145   0.006969  -0.000443   0.000028   0.000003
    32  H    0.339515  -0.029007   0.007965   0.000720  -0.000044  -0.000004
    33  H    0.000001  -0.000002  -0.001135   0.002037  -0.023286   0.340428
    34  H    0.000000  -0.000000   0.000038   0.000071   0.005548  -0.009230
    35  H   -0.000000  -0.000007  -0.000178  -0.001743   0.002729  -0.014571
    36  H    0.000000   0.000000   0.000005   0.000041   0.000018   0.000792
    37  H   -0.000000   0.000000   0.000000  -0.000002   0.000000  -0.000004
    38  H   -0.000000  -0.000000  -0.000001  -0.000000   0.000000   0.000001
    39  H   -0.000004   0.000185   0.000059  -0.000016  -0.000031   0.000019
    40  H   -0.000011   0.004879  -0.002216   0.001252   0.016013  -0.008538
    41  H   -0.000000   0.000003   0.000721   0.007982   0.001266  -0.001408
    42  H   -0.000001  -0.000000  -0.000443   0.006962   0.003483  -0.008326
    43  H    0.002230   0.000328   0.001314  -0.002266   0.000067   0.000010
    44  H   -0.000014  -0.000001  -0.000018   0.000062  -0.000002   0.000006
              13         14         15         16         17         18
     1  C   -0.000000  -0.000006  -0.000029   0.000279  -0.000850  -0.000511
     2  C   -0.000000  -0.000004   0.000003  -0.000027   0.000275  -0.001438
     3  C    0.000000   0.000002  -0.000001   0.000003  -0.000029   0.000131
     4  C   -0.000000  -0.000003   0.000002  -0.000004  -0.000006  -0.000325
     5  C   -0.000000  -0.000000   0.000000  -0.000000  -0.000000  -0.000006
     6  C   -0.000001   0.000001   0.000000   0.000000   0.000000  -0.000007
     7  C   -0.000004  -0.000003   0.000000  -0.000000   0.000000  -0.000000
     8  O    0.000007   0.000005   0.000002  -0.000000  -0.000000  -0.000405
     9  C   -0.001107  -0.000657  -0.000011  -0.000015   0.000051  -0.000379
    10  C   -0.005752   0.006773   0.000043   0.000099  -0.000182   0.001027
    11  N   -0.073603  -0.020477   0.000897   0.000029   0.000009   0.000396
    12  C    0.358191  -0.034171  -0.009342   0.000147  -0.000170   0.001357
    13  C    4.928719   0.400918  -0.092553   0.013636   0.000246   0.012007
    14  C    0.400918   5.290583   0.167989   0.179923  -0.219733   0.186047
    15  C   -0.092553   0.167989   5.415455   0.166931   0.177811  -0.199480
    16  C    0.013636   0.179923   0.166931   5.257651   0.144907   0.180202
    17  C    0.000246  -0.219733   0.177811   0.144907   5.345288   0.128664
    18  C    0.012007   0.186047  -0.199480   0.180202   0.128664   5.281774
    19  C   -0.095092   0.175944   0.110584  -0.189175   0.182711   0.149259
    20  C   -0.037686  -0.022475   0.003346  -0.001238   0.000120   0.000010
    21  O    0.001811   0.003038  -0.000590   0.000034  -0.000021   0.000000
    22  N   -0.000010  -0.000012   0.000000  -0.000000   0.000001   0.000002
    23  C    0.000002  -0.000009  -0.000033   0.000087  -0.000090   0.001421
[...]
 5167,0.00001207,0.00000517,0.00217530,0.00124565,-0.00188351,0.0828032
 0,0.13971401,0.16740072,0.00001436,0.00000270,0.00000096,-0.00000483,0
 .00000024,-0.00001008,0.00000928,0.00001006,0.00000578,-0.00001068,-0.
 00000345,0.00002187,-0.00003072,-0.00002758,-0.00007505,0.00003692,0.0
 0007001,0.00005709,0.00001805,0.00008657,-0.00000547,-0.00036406,-0.00
 000473,-0.00010643,-0.00004093,-0.00083907,-0.00038783,-0.00280484,0.0
 0483670,0.00768451,0.00195801,-0.00132717,-0.00016469,0.00377310,-0.00
 692290,0.00448822,0.00027358,-0.00009265,0.00172538,-0.00016544,0.0000
 8669,0.00014656,0.00004999,-0.00001090,0.00011100,-0.00007642,0.000071
 35,0.00003455,0.00004501,0.00000996,0.00003301,0.00003957,-0.00006737,
 0.00000174,-0.00014951,0.00004093,-0.00011442,-0.05449738,0.03505337,-
 0.02927538,-0.02712310,0.02568886,-0.02859210,-0.00007350,-0.00010694,
 -0.00018031,-0.00000189,-0.00002480,0.00004313,-0.00003433,-0.00000750
 ,-0.00001661,-0.00000166,0.00001411,-0.00000229,-0.00000121,0.00000449
 ,-0.00000242,0.00000243,-0.00000194,-0.00000136,-0.00002105,0.00002885
 ,0.00001009,0.00000984,0.00000254,0.00000662,-0.00003980,-0.00000132,-
 0.00002487,-0.00003173,-0.00000414,-0.00001467,-0.00001217,-0.00000824
 ,-0.00001331,0.00066600,-0.00052896,0.00040755,0.00008269,0.00009898,-
 0.00007317,-0.00035952,-0.00021460,0.00031031,0.00005660,0.00002457,-0
 .00000644,0.00000674,-0.00000244,-0.00000725,0.00000580,-0.00000699,0.
 00000180,0.00000663,-0.00001007,0.00000898,0.00001780,-0.00000336,0.00
 003671,0.07318044,0.00001696,0.00000371,-0.00000869,-0.00000206,0.0000
 0105,-0.00001017,0.00000171,0.00000133,-0.00000062,-0.00000108,-0.0000
 0794,-0.00000708,-0.00000451,0.00000306,0.00002430,-0.00002140,-0.0000
 1382,-0.00000280,-0.00004242,-0.00000681,-0.00000345,0.00009094,0.0000
 2387,0.00000297,0.00002971,-0.00011854,0.00001529,-0.00087868,-0.00128
 049,-0.00252253,-0.00065703,-0.00063899,-0.00024646,-0.00107620,0.0064
 9550,-0.00538813,0.00008568,0.00024275,-0.00055419,-0.00015614,-0.0001
 3838,0.00015735,0.00000674,-0.00006595,0.00025572,-0.00013849,0.000147
 70,0.00006433,0.00008422,0.00004234,0.00006887,0.00000434,-0.00011533,
 -0.00003102,-0.00021911,0.00005048,-0.00007290,0.04166183,-0.21663103,
 0.12236201,0.00536352,0.00800693,-0.00061757,0.00004634,0.00003942,0.0
 0001519,0.00001768,-0.00001123,-0.00000741,-0.00000501,-0.00000830,-0.
 00001852,-0.00000923,0.00001060,0.00000382,-0.00000034,-0.00000094,0.0
 0000526,0.00000312,0.00000334,0.00000386,0.00000953,-0.00000520,0.0000
 0046,-0.00000006,0.00000358,-0.00000577,0.00001485,0.00000751,0.000008
 21,0.00000171,-0.00000206,0.00000277,0.00000815,0.00000531,0.00000526,
 -0.00046430,0.00167460,-0.00002846,-0.00000028,-0.00004428,-0.00002107
 ,0.00010301,0.00001600,-0.00003356,0.00013220,0.00005009,-0.00000320,0
 .00000282,-0.00001516,-0.00001646,0.00001709,-0.00001814,-0.00000154,0
 .00001209,-0.00000449,0.00000548,0.00001328,0.00000953,-0.00002610,-0.
 04913392,0.22022221,0.00000032,0.00000301,0.00000266,-0.00000027,-0.00
 000151,0.00000435,0.00000046,0.00000057,0.00000244,-0.00000021,0.00000
 487,0.00000116,0.00000333,-0.00000164,-0.00000475,0.00000124,-0.000027
 07,-0.00001007,0.00004566,0.00001930,0.00001505,-0.00016662,-0.0000231
 1,-0.00001200,0.00016046,0.00033784,-0.00017040,0.00044807,-0.00105513
 ,-0.00104449,-0.00144440,-0.00000023,-0.00185992,-0.00283967,0.0219934
 4,-0.01273981,-0.00017771,-0.00179711,-0.00380605,0.00020338,-0.000877
 44,0.00007221,-0.00010383,-0.00005825,0.00012904,-0.00009024,0.0000975
 4,0.00004693,0.00004566,0.00007524,0.00006327,0.00004049,-0.00011180,-
 0.00002954,-0.00020069,0.00012028,-0.00001149,-0.03396051,0.12031516,-
 0.14427700,-0.00360060,-0.00073515,0.00403010,-0.00007354,-0.00006109,
 0.00004878,-0.00000363,-0.00000461,0.00001352,-0.00001190,-0.00000281,
 -0.00000295,0.00000298,-0.00000274,-0.00000187,0.00000092,0.00000070,-
 0.00000171,-0.00000040,-0.00000134,-0.00000215,-0.00000381,0.00000302,
 -0.00000151,0.00000197,0.00000095,0.00000346,-0.00002287,-0.00000192,-
 0.00000359,-0.00000984,-0.00000090,-0.00000303,-0.00001327,-0.00000533
 ,-0.00000736,-0.00003117,-0.00007845,0.00156000,0.00010346,0.00001624,
 0.00009237,0.00070311,0.00083637,-0.00059453,0.00008642,0.00000888,-0.
 00000174,0.00000199,0.00002156,0.00000015,0.00000587,0.00001001,0.0000
 0141,-0.00000884,0.00000841,-0.00000122,0.00003860,-0.00003655,0.00003
 926,0.03745427,-0.12959404,0.14926827,0.00002659,0.00003257,-0.0000063
 1,0.00000702,-0.00000218,0.00001050,0.00001821,0.00000544,0.00002171,-
 0.00003349,-0.00003845,0.00000745,-0.00000882,-0.00002086,-0.00002709,
 0.00011815,-0.00003729,-0.00003496,0.00008130,0.00006798,-0.00007826,-
 0.00063770,0.00008354,-0.00016238,0.00042611,0.00032535,-0.00099891,-0
 .00466209,-0.00156469,0.00746636,0.00133458,0.00052512,0.00058392,0.00
 585690,0.00795410,0.00234402,0.00101140,-0.00010692,0.00033694,-0.0002
 5259,-0.00022426,0.00034947,0.00014976,-0.00032157,0.00028643,-0.00003
 207,-0.00001864,0.00000581,-0.00009625,0.00002732,-0.00007840,-0.00000
 896,0.00007074,0.00004504,-0.00007997,-0.00001890,-0.00014345,-0.06890
 983,-0.06498862,-0.03034249,-0.02818051,-0.02755092,-0.02154051,-0.000
 13793,0.00000009,0.00000928,0.00002861,0.00001878,0.00003383,-0.000059
 82,-0.00004316,-0.00003738,-0.00000068,0.00000330,-0.00000171,0.000004
 43,0.00000251,0.00000217,0.00000932,-0.00000398,0.00000387,-0.00000783
 ,0.00002305,0.00000431,0.00000837,0.00000597,0.00000412,-0.00003965,0.
 00000588,-0.00000911,-0.00005003,-0.00000442,-0.00002983,-0.00003175,-
 0.00000187,-0.00000986,-0.00009325,0.00036931,0.00119928,0.00004073,0.
 00028776,-0.00014835,-0.00011339,0.00000411,-0.00002005,-0.00017051,-0
 .00027262,0.00014959,0.00002641,0.00002303,-0.00002068,-0.00000830,-0.
 00000406,0.00000355,0.00000011,-0.00000259,0.00000860,0.00001106,-0.00
 000349,0.00005306,0.00553235,0.00511092,0.00339518,0.08891073,-0.00000
 304,0.00000384,0.00000962,0.00000110,-0.00000377,0.00000718,0.00000192
 ,0.00000248,0.00000204,-0.00000279,-0.00000445,0.00000748,-0.00000279,
 0.00000094,-0.00001123,0.00001215,0.00000067,0.00000980,0.00001942,0.0
 0000361,0.00002012,0.00007364,-0.00000030,0.00002686,-0.00006585,-0.00
 020350,0.00023016,0.00150593,-0.00004863,0.00109259,0.00013533,-0.0001
 7287,0.00078520,0.00205269,0.00085533,-0.00125266,-0.00085197,-0.00064
 671,0.00085502,-0.00040931,0.00038082,0.00124614,-0.00046270,-0.000462
 85,-0.00004980,0.00017805,-0.00028064,0.00007640,-0.00014733,-0.000014
 68,-0.00013622,-0.00000355,0.00010626,0.00008392,0.00003325,-0.0000683
 2,-0.00001971,-0.07617277,-0.25633796,-0.09203904,0.00040362,0.0107979
 6,0.00224890,-0.00004706,0.00002792,0.00000114,-0.00001383,0.00002114,
 0.00000980,-0.00002712,-0.00000020,0.00001005,0.00000533,-0.00000667,-
 0.00000258,0.00000155,0.00000031,-0.00000209,0.00000059,-0.00000251,-0
 .00000151,-0.00000471,0.00000475,0.00000106,0.00000116,-0.00000259,0.0
 0000167,-0.00000326,-0.00000181,-0.00000347,0.00000414,0.00000054,-0.0
 0000135,0.00000398,-0.00000204,0.00000084,-0.00033980,0.00034851,-0.00
 059591,0.00041223,0.00018973,-0.00012749,0.00014943,-0.00003575,0.0000
 2377,-0.00002673,-0.00023550,0.00031953,0.00002063,0.00003323,0.000001
 51,-0.00000226,0.00001401,-0.00000970,-0.00000830,-0.00000146,0.000001
 95,0.00001991,0.00000519,-0.00004166,-0.00675256,-0.01794808,-0.009389
 80,0.08028996,0.26368695,0.00002998,-0.00000015,-0.00001638,-0.0000095
 7,0.00000282,-0.00002502,0.00001060,0.00001568,0.00000611,-0.00002178,
 -0.00001921,0.00000627,-0.00002249,-0.00002276,-0.00002009,0.00005522,
 -0.00001676,0.00003265,0.00007589,0.00001111,0.00001297,-0.00026748,0.
 00008484,-0.00009312,0.00039423,-0.00030549,0.00005813,0.00046538,-0.0
 0013759,-0.00281628,-0.00226624,-0.00072586,-0.00323175,-0.00726705,-0
 .02266596,-0.00740086,-0.00090227,-0.00091619,0.00149607,0.00022479,0.
 00032631,-0.00032652,-0.00002350,0.00014997,0.00004007,-0.00028358,0.0
 0039479,0.00014133,0.00028654,0.00003923,0.00018007,0.00009180,-0.0002
 7251,-0.00011478,-0.00045966,0.00008640,-0.00014351,-0.03373181,-0.088
 28741,-0.09229349,-0.00140651,-0.00004849,0.00306590,-0.00023893,0.000
 05041,0.00000019,0.00002324,-0.00004387,0.00003729,-0.00001053,-0.0000
 0314,-0.00003801,-0.00001366,0.00003231,0.00000330,-0.00000348,0.00000
 420,0.00000153,0.00000669,0.00000126,0.00000300,-0.00000903,0.00002173
 ,0.00000306,0.00001178,0.00000947,-0.00000025,-0.00002986,0.00000733,-
 0.00001272,-0.00002984,0.00000119,-0.00001939,-0.00001465,-0.00000286,
 -0.00000304,0.00069416,-0.00059437,-0.00337440,0.00049426,0.00018991,-
 0.00012910,-0.00009590,-0.00016502,0.00041646,0.00021932,0.00014001,0.
 00001861,-0.00001248,-0.00004727,-0.00002403,0.00002330,-0.00004082,0.
 00001780,0.00002236,-0.00001941,0.00001767,0.00003146,-0.00004894,0.00
 006149,0.00654538,0.01617005,0.00921379,0.03738790,0.09666574,0.095223
 16,0.00157445,-0.00421819,-0.00252639,-0.00076828,-0.00055627,0.000238
 45,-0.00104938,-0.00321080,-0.00477961,-0.00472276,0.01699318,-0.01586
 565,-0.00013181,0.00231394,0.00105387,0.00019183,-0.00022487,-0.000382
 36,-0.00021649,0.00007773,-0.00004608,0.00002583,-0.00030143,0.0006266
 7,0.00054991,0.00074749,-0.00049089,0.00061345,0.00045214,0.00125166,-
 0.00004495,-0.00012842,-0.00042137,-0.00001413,-0.00002836,0.00004833,
 -0.00001759,-0.00001952,-0.00002155,-0.00000664,0.00001939,-0.00002086
 ,-0.00000880,0.00002765,-0.00002751,0.00001451,-0.00001933,-0.00000275
 ,-0.00000968,-0.00003076,-0.00000800,0.00001552,-0.00001022,0.00002218
 ,0.00000823,0.00001620,0.00001638,-0.00041059,-0.00006017,-0.00018506,
 -0.00002692,-0.00026551,-0.00057850,-0.00082164,0.00088447,0.00064519,
 -0.08913914,0.06354760,-0.07515349,0.00904942,-0.01086418,0.01001765,0
 .00033475,-0.00061935,0.00045538,-0.00034085,0.00028823,0.00047662,-0.
 00025033,0.00080086,-0.00088350,0.00001482,0.00004866,0.00035485,-0.00
 043257,-0.00065793,0.00051624,-0.00004167,0.00008127,0.00000502,0.0000
 1116,-0.00001999,0.00003103,0.00001785,-0.00001328,0.00003836,0.000022
 82,-0.00000315,-0.00004609,-0.00000030,0.00000104,0.00000754,0.0000051
 3,0.00001269,-0.00001069,-0.00000919,-0.00000273,0.00000319,-0.0000008
 2,-0.00000151,0.00000594,0.00000533,0.00002516,-0.00000222,-0.00000410
 ,0.00000289,-0.00001408,0.00001015,-0.00000433,0.00000659,0.00005461,-
 0.00002085,0.00001783,-0.00000055,0.00002030,0.00001852,0.08674738,-0.
 00450380,-0.00250608,0.00095900,-0.00045873,-0.00007126,-0.00069414,-0
 .00277774,0.00107919,0.00015554,-0.00330056,0.00840734,-0.00579444,0.0
 0053178,-0.00025025,-0.00105689,-0.00059303,0.00006413,-0.00000460,-0.
 00000259,-0.00008725,0.00005976,0.00002178,-0.00001668,0.00049479,0.00
 062516,-0.00099760,-0.00081470,0.00004779,0.00006701,0.00005028,-0.000
 08183,0.00003351,-0.00004428,-0.00000293,-0.00001697,0.00003059,-0.000
 01433,0.00002736,-0.00002098,-0.00001448,0.00003395,0.00000368,-0.0000
 0711,0.00000651,-0.00002022,0.00000269,0.00000492,-0.00001781,0.000030
 48,-0.00004272,-0.00002004,0.00003090,0.00000158,0.00001737,0.00000725
 ,0.00000856,0.00000750,0.00010518,0.00008599,0.00009301,-0.00010007,-0
 .00029737,-0.00014279,0.00036441,-0.00157451,-0.00113312,0.06401281,-0
 .18351059,0.13018629,0.01122058,-0.01365443,0.01806583,0.00043713,-0.0
 0064462,0.00081476,0.00026654,-0.00012895,-0.00020874,-0.00029372,0.00
 038298,-0.00040237,0.00014657,0.00002814,0.00004900,-0.00008575,0.0003
 9665,-0.00006722,0.00001905,-0.00005368,0.00001640,0.00000348,0.000005
 10,0.00004922,0.00000336,0.00000943,0.00003674,-0.00001134,-0.00000208
 ,-0.00000486,-0.00000859,-0.00001296,0.00000284,0.00000614,-0.00000820
 ,0.00000196,-0.00000523,0.00000433,0.00000417,-0.00000769,-0.00001103,
 0.00000173,0.00001597,0.00001528,0.00000856,-0.00000472,-0.00000883,-0
 .00002004,0.00000437,0.00000450,-0.00001013,-0.00002183,0.00000131,-0.
 00000539,-0.00004602,-0.00000915,-0.00000919,-0.06660920,0.19267965,-0
 .00237134,0.00193757,0.00445039,0.00039590,-0.00067483,-0.00000820,-0.
 00514722,-0.00035289,0.00251923,-0.00486692,0.01303016,-0.00729037,0.0
 0224950,-0.00092373,-0.00111681,-0.00124751,-0.00044079,-0.00025042,-0
 .00032399,-0.00001412,-0.00006159,0.00030027,-0.00046301,0.00068861,0.
 00061760,0.00016487,-0.00138165,0.00041819,-0.00022552,-0.00033525,-0.
 00025075,0.00005845,0.00010028,0.00008258,-0.00001265,0.00005363,-0.00
 002090,0.00002607,-0.00004602,-0.00000594,0.00000963,0.00004492,0.0000
 1778,-0.00002404,0.00000274,-0.00002137,0.00001696,-0.00003362,0.00005
 126,0.00001241,-0.00000089,-0.00003718,0.00001118,-0.00002191,-0.00000
 740,-0.00000110,0.00001750,0.00028932,0.00007737,0.00012975,-0.0003249
 5,0.00011221,-0.00002760,-0.00006658,0.00065100,0.00058509,-0.07346735
 ,0.12722795,-0.16513027,-0.00193260,-0.00000410,0.00274451,-0.00015116
 ,-0.00001363,0.00000580,0.00048270,-0.00022300,-0.00058220,-0.00037635
 ,0.00060492,-0.00036222,0.00010738,0.00015400,0.00007304,-0.00026455,-
 0.00011597,-0.00017708,0.00017525,-0.00016013,-0.00003472,0.00005295,0
 .00004185,0.00006153,0.00003655,0.00002628,0.00003934,-0.00004536,-0.0
 0000103,0.00000359,-0.00002115,-0.00002948,0.00000183,0.00001241,-0.00
 000749,0.00000280,0.00000069,0.00000313,0.00000124,-0.00000853,-0.0000
 1157,-0.00000356,-0.00000486,-0.00003565,0.00000661,-0.00000216,-0.000
 00214,0.00002342,0.00000655,0.00001017,-0.00003910,-0.00006588,0.00002
 605,-0.00001513,-0.00003826,-0.00002862,-0.00001923,0.08359079,-0.1392
 0482,0.16726606,-0.00483493,-0.00419628,-0.00466528,0.00292519,0.00074
 074,-0.00337382,0.00037245,0.00014009,0.00075432,0.00277803,-0.0038003
 3,-0.00181490,-0.00030715,0.00031271,-0.00039961,-0.00007323,0.0000738
 0,0.00001284,-0.00002539,0.00000322,0.00003957,0.00004901,-0.00002042,
 -0.00000167,-0.00004542,0.00003091,-0.00002056,-0.00005780,-0.00000364
 ,-0.00006366,0.00002279,0.00000054,0.00002763,0.00000407,0.00000727,-0
 .00001750,-0.00000386,-0.00001057,0.00000233,-0.00007753,0.00002776,-0
 .00013143,0.00003595,0.00017287,-0.00000839,0.00005169,-0.00014843,0.0
 0003399,-0.00041444,-0.00010018,0.00042508,-0.00030898,-0.00004088,0.0
 0018345,0.00013351,-0.00017430,0.00004168,-0.00001699,0.00000041,-0.00
 000971,0.00004458,-0.00002134,0.00003197,0.00005294,0.00000893,0.00002
 607,-0.00679881,-0.00077922,-0.00851309,-0.23281659,-0.05105227,-0.134
 91889,-0.00091066,0.00101372,0.00196448,-0.00020434,-0.00026096,-0.000
 25216,-0.00041465,0.00019152,0.00039565,-0.00012211,-0.00012567,0.0000
 4630,0.00000315,-0.00004663,0.00003335,0.00002320,-0.00003326,-0.00000
 830,0.00000006,0.00000828,0.00002223,0.00000664,-0.00001202,-0.0000087
 8,0.00000208,-0.00000610,0.00000510,0.00000667,0.00000025,0.00000140,-
 0.00000003,-0.00000458,0.00000082,0.00000577,-0.00000292,0.00000578,-0
 .00000588,-0.00000744,0.00000561,0.00001130,0.00003340,0.00000942,0.00
 000659,-0.00000235,-0.00000093,-0.00000421,0.00000477,-0.00000196,0.00
 000498,-0.00000730,0.00000235,0.00001385,0.00000139,0.00000750,-0.0007
 9796,0.00104788,0.00218258,0.24168645,0.01805111,0.00865147,0.01260384
 ,-0.00023249,-0.00168632,0.00427319,0.00024553,-0.00093528,0.00042628,
 -0.00312301,-0.00356807,0.00293168,-0.00094595,0.00025033,-0.00079438,
 -0.00015292,0.00005994,0.00003563,-0.00005058,-0.00001616,0.00001868,0
 .00009641,0.00000782,-0.00001492,-0.00010529,-0.00001338,0.00001939,-0
 .00016179,-0.00013935,-0.00044043,-0.00001334,0.00002222,0.00016474,0.
 00003922,0.00000370,-0.00003237,0.00000439,-0.00000076,-0.00000521,-0.
 00005202,-0.00009936,-0.00006484,0.00000726,0.00000484,0.00006194,0.00
 000583,-0.00002452,0.00005659,-0.00023337,0.00017120,0.00004908,-0.000
 04154,0.00005526,0.00004559,0.00008683,-0.00018174,-0.00003262,0.00011
 079,-0.00007820,0.00000788,-0.00000610,0.00031977,0.00029900,0.0001353
 5,-0.00002980,-0.00001299,-0.02328752,-0.00133389,-0.01666758,-0.05045
 394,-0.06817232,-0.02661124,0.00063053,0.00035644,-0.00175906,0.000805
 37,0.00025795,0.00066069,0.00020452,-0.00008045,-0.00034074,-0.0001950
 6,-0.00041047,-0.00006225,0.00002511,0.00003293,0.00002616,0.00005505,
 -0.00003131,-0.00000322,0.00000265,-0.00000142,0.00001955,0.00001013,-
 0.00000449,-0.00000845,-0.00001196,0.00000115,0.00001438,0.00000057,-0
 .00000257,-0.00000415,0.00000157,-0.00000613,0.00000835,0.00001449,-0.
 00000663,-0.00000361,-0.00003751,0.00000140,-0.00001313,-0.00002682,-0
 .00015497,0.00009780,0.00000217,0.00001606,-0.00000734,-0.00000289,-0.
 00000888,0.00000211,-0.00000557,0.00001293,0.00000002,0.00003869,0.000
 00622,-0.00001151,0.00152947,0.00055780,-0.00123191,0.05703663,0.06619
 704,-0.01643533,-0.00605948,-0.00663143,-0.00328186,0.00498280,0.00152
 224,0.00074247,0.00043352,-0.00017610,-0.00211778,0.00247503,0.0044906
 7,0.00010197,0.00005124,0.00016933,-0.00007750,-0.00003118,0.00000351,
 -0.00005778,0.00003712,-0.00001427,0.00009771,0.00004066,-0.00006797,-
 0.00018321,-0.00005665,0.00010172,-0.00017007,-0.00006521,0.00001645,0
 .00011882,0.00005928,-0.00003886,-0.00007444,-0.00003186,0.00000519,0.
 00006086,-0.00004132,0.00001195,0.00000584,-0.00002845,-0.00003770,0.0
 0004016,0.00002226,0.00001668,0.00017943,-0.00006274,0.00034097,-0.000
 18459,0.00010592,0.00008101,-0.00028452,-0.00012860,-0.00018481,0.0000
 1225,-0.00010809,-0.00002377,-0.00000212,-0.00003358,0.00001950,0.0000
 5923,0.00010030,-0.00002982,0.00012239,-0.00008687,-0.00008169,0.00258
 835,0.00169658,0.00546517,-0.13322189,-0.02649571,-0.13487726,0.002351
 56,-0.00130388,-0.00146668,-0.00082874,-0.00024230,-0.00036266,0.00040
 357,-0.00033243,-0.00055671,0.00006341,-0.00005740,-0.00007086,-0.0000
 0728,-0.00000796,-0.00003286,0.00002699,-0.00001782,0.00000208,0.00000
 864,-0.00000194,0.00001766,0.00000902,-0.00000543,-0.00000123,0.000020
 03,0.00003554,-0.00000493,-0.00001478,0.00002532,-0.00001092,-0.000020
 20,0.00003718,0.00000605,-0.00004212,0.00002810,-0.00001191,-0.0000057
 6,-0.00002489,-0.00002061,0.00002474,0.00017960,-0.00012436,-0.0000009
 4,0.00000746,-0.00000648,-0.00001416,0.00001986,0.00002327,0.00000451,
 0.00002449,-0.00000595,0.00001558,-0.00002566,0.00004505,0.00201841,-0
 .00141225,-0.00188409,0.14794913,0.02629941,0.13438543\\0.00000193,-0.
 00000462,0.00001399,-0.00000491,-0.00000401,-0.00000216,0.00000149,0.0
 0000368,-0.00000961,0.00000980,0.00000730,0.00000896,-0.00001216,-0.00
 000464,0.00000459,-0.00000158,-0.00000434,0.00000150,0.00000130,-0.000
 00141,-0.00001016,-0.00000457,-0.00001094,0.00000201,0.00000087,0.0000
 0891,-0.00000743,-0.00000117,0.00000798,0.00000802,-0.00000306,-0.0000
 0151,0.00000372,0.00000189,-0.00000473,-0.00000412,0.00001039,-0.00000
 555,-0.00000282,-0.00001024,0.00000738,-0.00000950,-0.00000057,0.00000
 441,0.00000881,0.00000507,-0.00000418,0.00000222,-0.00000247,-0.000004
 92,-0.00001357,0.00000048,0.00001392,0.00000382,0.00001006,-0.00000869
 ,0.00000107,-0.00000162,-0.00000034,0.00001049,0.00000521,-0.00001037,
 -0.00000217,0.00000321,-0.00000029,-0.00000281,-0.00001048,-0.00000834
 ,-0.00000077,-0.00000013,0.00001347,-0.00000405,-0.00000419,-0.0000042
 6,-0.00000123,0.00000146,-0.00000032,0.00000270,0.00000142,0.00000101,
 0.00000319,0.00000336,0.00000200,0.00000062,0.00000712,0.00000123,-0.0
 0000385,0.00000235,0.00000163,-0.00000029,0.00000040,-0.00000073,0.000
 00480,0.00000126,0.00000405,0.00000103,-0.00000234,0.00000187,-0.00000
 005,-0.00000355,0.00000174,0.00000011,-0.00000576,0.00000198,0.0000032
 9,-0.00000169,0.00000070,-0.00000292,-0.00000141,-0.00000042,-0.000002
 63,0.00000418,-0.00000401,0.00000135,0.00000334,-0.00000211,0.00000311
 ,0.00000020,0.00000374,0.00000148,-0.00000136,0.00000348,-0.00000107,-
 0.00000028,-0.00000098,-0.00000477,-0.00000018,0.00000304,-0.00000180,
 -0.00000306,-0.00000184,-0.00000308\\\@
 The archive entry for this job was punched.


 SACRED COWS MAKE GREAT HAMBURGERS -- ROBERT REISNER
 Job cpu time:       0 days  2 hours  2 minutes 54.4 seconds.
 Elapsed time:       0 days  0 hours  3 minutes  6.0 seconds.
 File lengths (MBytes):  RWF=    732 Int=      0 D2E=      0 Chk=     14 Scr=      1
 Normal termination of Gaussian 16 at Sun Feb 25 22:11:33 2024.
