 Entering Gaussian System, Link 0=g16
 Initial command:
 /public/apps/g16-C01//g16/l1.exe "/public/home/ljq/tmp/Gau-35867.inp" -scrdir="/public/home/ljq/tmp/"
 Entering Link 1 = /public/apps/g16-C01//g16/l1.exe PID=     35868.
  
 Copyright (c) 1988-2019, Gaussian, Inc.  All Rights Reserved.
  
 This is part of the Gaussian(R) 16 program.  It is based on
 the Gaussian(R) 09 system (copyright 2009, Gaussian, Inc.),
 the Gaussian(R) 03 system (copyright 2003, Gaussian, Inc.),
 the Gaussian(R) 98 system (copyright 1998, Gaussian, Inc.),
 the Gaussian(R) 94 system (copyright 1995, Gaussian, Inc.),
 the Gaussian 92(TM) system (copyright 1992, Gaussian, Inc.),
 the Gaussian 90(TM) system (copyright 1990, Gaussian, Inc.),
 the Gaussian 88(TM) system (copyright 1988, Gaussian, Inc.),
 the Gaussian 86(TM) system (copyright 1986, Carnegie Mellon
 University), and the Gaussian 82(TM) system (copyright 1983,
 Carnegie Mellon University). Gaussian is a federally registered
 trademark of Gaussian, Inc.
  
 This software contains proprietary and confidential information,
 including trade secrets, belonging to Gaussian, Inc.
  
 This software is provided under written license and may be
 used, copied, transmitted, or stored only in accord with that
 written license.
  
 The following legend is applicable only to US Government
 contracts under FAR:
  
                    RESTRICTED RIGHTS LEGEND
  
 Use, reproduction and disclosure by the US Government is
 subject to restrictions as set forth in subparagraphs (a)
 and (c) of the Commercial Computer Software - Restricted
 Rights clause in FAR 52.227-19.
  
 Gaussian, Inc.
 340 Quinnipiac St., Bldg. 40, Wallingford CT 06492
  
  
 ---------------------------------------------------------------
 Warning -- This program may not be used in any manner that
 competes with the business of Gaussian, Inc. or will provide
 assistance to any competitor of Gaussian, Inc.  The licensee
 of this program is prohibited from giving any competitor of
 Gaussian, Inc. access to this program.  By using this program,
 the user acknowledges that Gaussian, Inc. is engaged in the
 business of creating and licensing software in the field of
 computational chemistry and represents and warrants to the
 licensee that it is not a competitor of Gaussian, Inc. and that
 it will not use this program in any manner prohibited above.
 ---------------------------------------------------------------
  

 Cite this work as:
 Gaussian 16, Revision C.01,
 M. J. Frisch, G. W. Trucks, H. B. Schlegel, G. E. Scuseria, 
 M. A. Robb, J. R. Cheeseman, G. Scalmani, V. Barone, 
 G. A. Petersson, H. Nakatsuji, X. Li, M. Caricato, A. V. Marenich, 
 J. Bloino, B. G. Janesko, R. Gomperts, B. Mennucci, H. P. Hratchian, 
 J. V. Ortiz, A. F. Izmaylov, J. L. Sonnenberg, D. Williams-Young, 
 F. Ding, F. Lipparini, F. Egidi, J. Goings, B. Peng, A. Petrone, 
 T. Henderson, D. Ranasinghe, V. G. Zakrzewski, J. Gao, N. Rega, 
 G. Zheng, W. Liang, M. Hada, M. Ehara, K. Toyota, R. Fukuda, 
 J. Hasegawa, M. Ishida, T. Nakajima, Y. Honda, O. Kitao, H. Nakai, 
 T. Vreven, K. Throssell, J. A. Montgomery, Jr., J. E. Peralta, 
 F. Ogliaro, M. J. Bearpark, J. J. Heyd, E. N. Brothers, K. N. Kudin, 
 V. N. Staroverov, T. A. Keith, R. Kobayashi, J. Normand, 
 K. Raghavachari, A. P. Rendell, J. C. Burant, S. S. Iyengar, 
 J. Tomasi, M. Cossi, J. M. Millam, M. Klene, C. Adamo, R. Cammi, 
 J. W. Ochterski, R. L. Martin, K. Morokuma, O. Farkas, 
 J. B. Foresman, and D. J. Fox, Gaussian, Inc., Wallingford CT, 2019.
 
 ******************************************
 Gaussian 16:  ES64L-G16RevC.01  3-Jul-2019
                26-Feb-2024 
 ******************************************
 %nproc=40
 Will use up to   40 processors via shared memory.
 %mem=56GB
 ------------------------------------------
 #p opt freq b3lyp/def2svpp em=gd3bj nosymm
 ------------------------------------------
 1/18=20,19=15,26=3,38=1/1,3;
 2/9=110,12=2,15=1,17=6,18=5,40=1/2;
 3/5=43,7=202,11=2,25=1,30=1,71=1,74=-5,124=41/1,2,3;
 4//1;
 5/5=2,38=5/2;
 6/7=2,8=2,9=2,10=2,28=1/1;
 7/30=1/1,2,3,16;
 1/18=20,19=15,26=3/3(2);
 2/9=110,15=1/2;
 99//99;
 2/9=110,15=1/2;
 3/5=43,7=202,11=2,25=1,30=1,71=1,74=-5,124=41/1,2,3;
 4/5=5,16=3,69=1/1;
 5/5=2,38=5/2;
 7/30=1/1,2,3,16;
 1/18=20,19=15,26=3/3(-5);
 2/9=110,15=1/2;
 6/7=2,8=2,9=2,10=2,19=2,28=1/1;
 99/9=1/99;
 Leave Link    1 at Mon Feb 26 00:39:08 2024, MaxMem=  7516192768 cpu:               1.4 elap:               0.0
 (Enter /public/apps/g16-C01//g16/l101.exe)
 ----------------------
 $$$$Singlemol####0????
 ----------------------
 Symbolic Z-matrix:
 Charge =  0 Multiplicity = 1
 C                    -1.50703   2.42377  -1.36382 
 C                    -2.38011   2.94755  -0.42625 
 C                    -3.49221   2.22428  -0.03224 
 C                    -3.75588   0.97362  -0.5783 
 C                    -4.9083    0.14626  -0.08743 
 C                    -4.41791  -0.96706   0.86845 
 C                    -3.48009  -0.43662   1.98289 
 O                    -2.19008  -0.88145   1.58429 
 C                    -2.38539  -1.72439   0.54117 
 C                    -1.21779  -2.34693  -0.06942 
 C                    -1.37084  -3.46135  -0.89452 
 C                    -0.26712  -4.01798  -1.5135 
 C                     0.98886  -3.46159  -1.33733 
 C                     1.14271  -2.34009  -0.52618 
 C                     2.43776  -1.69247  -0.37282 
 N                     2.6318   -0.65397   0.32647 
 C                     3.99919  -0.23486   0.15699 
 C                     4.04262   1.15225  -0.50964 
 C                     3.32634   2.1625    0.34058 
 C                     4.03036   3.00517   1.18968 
 C                     3.36246   3.90979   1.99684 
 C                     1.98029   3.97422   1.9704 
 C                     1.27009   3.13232   1.13105 
 C                     1.93916   2.236     0.31829 
 C                     4.61136  -1.35589  -0.73066 
 O                     3.50941  -2.19847  -1.04272 
 C                     0.03885  -1.7893    0.11849 
 N                    -3.57878  -1.88642   0.13871 
 C                    -2.88871   0.46937  -1.5415 
 C                    -1.76754   1.18422  -1.92278 
 H                    -0.63159   2.98285  -1.66005 
 H                    -2.19362   3.92177   0.00308 
 H                    -4.16876   2.64169   0.70204 
 H                    -5.62889   0.76876   0.44601 
 H                    -5.40963  -0.34129  -0.92467 
 H                    -5.28648  -1.49704   1.2696 
 H                    -3.46829   0.65162   2.05515 
 H                    -3.71209  -0.86783   2.96269 
 H                    -2.35922  -3.86944  -1.03488 
 H                    -0.38487  -4.88573  -2.14544 
 H                     1.85376  -3.88108  -1.8281 
 H                     4.48023  -0.17318   1.13858 
 H                     5.08692   1.43817  -0.65083 
 H                     3.55949   1.07956  -1.48713 
 H                     5.11036   2.95605   1.21829 
 H                     3.92288   4.5633    2.64997 
 H                     1.45898   4.67736   2.60372 
 H                     0.19077   3.16976   1.10924 
 H                     1.38212   1.57466  -0.32805 
 H                     5.36789  -1.94586  -0.20562 
 H                     5.03418  -0.9701   -1.66226 
 H                     0.17069  -0.92069   0.74326 
 H                    -3.09225  -0.49418  -1.98473 
 H                    -1.09494   0.76997  -2.6601 
 
 ITRead=  0  0  0  0  0  0  0  0  0  0  0  0  0  0  0  0  0  0  0  0
 ITRead=  0  0  0  0  0  0  0  0  0  0  0  0  0  0  0  0  0  0  0  0
 ITRead=  0  0  0  0  0  0  0  0  0  0  0  0  0  0
 MicOpt= -1 -1 -1 -1 -1 -1 -1 -1 -1 -1 -1 -1 -1 -1 -1 -1 -1 -1 -1 -1
 MicOpt= -1 -1 -1 -1 -1 -1 -1 -1 -1 -1 -1 -1 -1 -1 -1 -1 -1 -1 -1 -1
 MicOpt= -1 -1 -1 -1 -1 -1 -1 -1 -1 -1 -1 -1 -1 -1
 NAtoms=     54 NQM=       54 NQMF=       0 NMMI=      0 NMMIF=      0
                NMic=       0 NMicF=      0.
                    Isotopes and Nuclear Properties:
 (Nuclear quadrupole moments (NQMom) in fm**2, nuclear magnetic moments (NMagM)
  in nuclear magnetons)

  Atom         1           2           3           4           5           6           7           8           9          10
 IAtWgt=          12          12          12          12          12          12          12          16          12          12
 AtmWgt=  12.0000000  12.0000000  12.0000000  12.0000000  12.0000000  12.0000000  12.0000000  15.9949146  12.0000000  12.0000000
 NucSpn=           0           0           0           0           0           0           0           0           0           0
 AtZEff=  -0.0000000  -0.0000000  -0.0000000  -0.0000000  -0.0000000  -0.0000000  -0.0000000  -0.0000000  -0.0000000  -0.0000000
 NQMom=    0.0000000   0.0000000   0.0000000   0.0000000   0.0000000   0.0000000   0.0000000   0.0000000   0.0000000   0.0000000
 NMagM=    0.0000000   0.0000000   0.0000000   0.0000000   0.0000000   0.0000000   0.0000000   0.0000000   0.0000000   0.0000000
 AtZNuc=   6.0000000   6.0000000   6.0000000   6.0000000   6.0000000   6.0000000   6.0000000   8.0000000   6.0000000   6.0000000

  Atom        11          12          13          14          15          16          17          18          19          20
 IAtWgt=          12          12          12          12          12          14          12          12          12          12
 AtmWgt=  12.0000000  12.0000000  12.0000000  12.0000000  12.0000000  14.0030740  12.0000000  12.0000000  12.0000000  12.0000000
 NucSpn=           0           0           0           0           0           2           0           0           0           0
 AtZEff=  -0.0000000  -0.0000000  -0.0000000  -0.0000000  -0.0000000  -0.0000000  -0.0000000  -0.0000000  -0.0000000  -0.0000000
 NQMom=    0.0000000   0.0000000   0.0000000   0.0000000   0.0000000   2.0440000   0.0000000   0.0000000   0.0000000   0.0000000
 NMagM=    0.0000000   0.0000000   0.0000000   0.0000000   0.0000000   0.4037610   0.0000000   0.0000000   0.0000000   0.0000000
 AtZNuc=   6.0000000   6.0000000   6.0000000   6.0000000   6.0000000   7.0000000   6.0000000   6.0000000   6.0000000   6.0000000

  Atom        21          22          23          24          25          26          27          28          29          30
 IAtWgt=          12          12          12          12          12          16          12          14          12          12
 AtmWgt=  12.0000000  12.0000000  12.0000000  12.0000000  12.0000000  15.9949146  12.0000000  14.0030740  12.0000000  12.0000000
 NucSpn=           0           0           0           0           0           0           0           2           0           0
 AtZEff=  -0.0000000  -0.0000000  -0.0000000  -0.0000000  -0.0000000  -0.0000000  -0.0000000  -0.0000000  -0.0000000  -0.0000000
 NQMom=    0.0000000   0.0000000   0.0000000   0.0000000   0.0000000   0.0000000   0.0000000   2.0440000   0.0000000   0.0000000
 NMagM=    0.0000000   0.0000000   0.0000000   0.0000000   0.0000000   0.0000000   0.0000000   0.4037610   0.0000000   0.0000000
 AtZNuc=   6.0000000   6.0000000   6.0000000   6.0000000   6.0000000   8.0000000   6.0000000   7.0000000   6.0000000   6.0000000

  Atom        31          32          33          34          35          36          37          38          39          40
 IAtWgt=           1           1           1           1           1           1           1           1           1           1
 AtmWgt=   1.0078250   1.0078250   1.0078250   1.0078250   1.0078250   1.0078250   1.0078250   1.0078250   1.0078250   1.0078250
 NucSpn=           1           1           1           1           1           1           1           1           1           1
 AtZEff=  -0.0000000  -0.0000000  -0.0000000  -0.0000000  -0.0000000  -0.0000000  -0.0000000  -0.0000000  -0.0000000  -0.0000000
 NQMom=    0.0000000   0.0000000   0.0000000   0.0000000   0.0000000   0.0000000   0.0000000   0.0000000   0.0000000   0.0000000
 NMagM=    2.7928460   2.7928460   2.7928460   2.7928460   2.7928460   2.7928460   2.7928460   2.7928460   2.7928460   2.7928460
 AtZNuc=   1.0000000   1.0000000   1.0000000   1.0000000   1.0000000   1.0000000   1.0000000   1.0000000   1.0000000   1.0000000

  Atom        41          42          43          44          45          46          47          48          49          50
 IAtWgt=           1           1           1           1           1           1           1           1           1           1
 AtmWgt=   1.0078250   1.0078250   1.0078250   1.0078250   1.0078250   1.0078250   1.0078250   1.0078250   1.0078250   1.0078250
 NucSpn=           1           1           1           1           1           1           1           1           1           1
 AtZEff=  -0.0000000  -0.0000000  -0.0000000  -0.0000000  -0.0000000  -0.0000000  -0.0000000  -0.0000000  -0.0000000  -0.0000000
 NQMom=    0.0000000   0.0000000   0.0000000   0.0000000   0.0000000   0.0000000   0.0000000   0.0000000   0.0000000   0.0000000
 NMagM=    2.7928460   2.7928460   2.7928460   2.7928460   2.7928460   2.7928460   2.7928460   2.7928460   2.7928460   2.7928460
 AtZNuc=   1.0000000   1.0000000   1.0000000   1.0000000   1.0000000   1.0000000   1.0000000   1.0000000   1.0000000   1.0000000

  Atom        51          52          53          54
 IAtWgt=           1           1           1           1
 AtmWgt=   1.0078250   1.0078250   1.0078250   1.0078250
 NucSpn=           1           1           1           1
 AtZEff=  -0.0000000  -0.0000000  -0.0000000  -0.0000000
 NQMom=    0.0000000   0.0000000   0.0000000   0.0000000
 NMagM=    2.7928460   2.7928460   2.7928460   2.7928460
 AtZNuc=   1.0000000   1.0000000   1.0000000   1.0000000
 Leave Link  101 at Mon Feb 26 00:39:08 2024, MaxMem=  7516192768 cpu:               7.7 elap:               0.2
 (Enter /public/apps/g16-C01//g16/l103.exe)

 GradGradGradGradGradGradGradGradGradGradGradGradGradGradGradGradGradGrad
 Berny optimization.
 Initialization pass.
                           ----------------------------
                           !    Initial Parameters    !
                           ! (Angstroms and Degrees)  !
 --------------------------                            --------------------------
 ! Name  Definition              Value          Derivative Info.                !
 --------------------------------------------------------------------------------
 ! R1    R(1,2)                  1.3841         estimate D2E/DX2                !
 ! R2    R(1,30)                 1.3845         estimate D2E/DX2                !
 ! R3    R(1,31)                 1.0801         estimate D2E/DX2                !
 ! R4    R(2,3)                  1.3839         estimate D2E/DX2                !
 ! R5    R(2,32)                 1.0808         estimate D2E/DX2                !
 ! R6    R(3,4)                  1.3899         estimate D2E/DX2                !
 ! R7    R(3,33)                 1.0822         estimate D2E/DX2                !
 ! R8    R(4,5)                  1.5012         estimate D2E/DX2                !
 ! R9    R(4,29)                 1.3907         estimate D2E/DX2                !
 ! R10   R(5,6)                  1.5472         estimate D2E/DX2                !
 ! R11   R(5,34)                 1.0915         estimate D2E/DX2                !
 ! R12   R(5,35)                 1.0909         estimate D2E/DX2                !
 ! R13   R(6,7)                  1.5501         estimate D2E/DX2                !
 ! R14   R(6,28)                 1.4429         estimate D2E/DX2                !
 ! R15   R(6,36)                 1.0937         estimate D2E/DX2                !
 ! R16   R(7,8)                  1.4216         estimate D2E/DX2                !
 ! R17   R(7,37)                 1.0907         estimate D2E/DX2                !
 ! R18   R(7,38)                 1.0953         estimate D2E/DX2                !
 ! R19   R(8,9)                  1.3553         estimate D2E/DX2                !
 ! R20   R(9,10)                 1.4573         estimate D2E/DX2                !
 ! R21   R(9,28)                 1.2698         estimate D2E/DX2                !
 ! R22   R(10,11)                1.395          estimate D2E/DX2                !
 ! R23   R(10,27)                1.3876         estimate D2E/DX2                !
 ! R24   R(11,12)                1.3825         estimate D2E/DX2                !
 ! R25   R(11,39)                1.0785         estimate D2E/DX2                !
 ! R26   R(12,13)                1.3849         estimate D2E/DX2                !
 ! R27   R(12,40)                1.0799         estimate D2E/DX2                !
 ! R28   R(13,14)                1.3926         estimate D2E/DX2                !
 ! R29   R(13,41)                1.0793         estimate D2E/DX2                !
 ! R30   R(14,15)                1.456          estimate D2E/DX2                !
 ! R31   R(14,27)                1.3919         estimate D2E/DX2                !
 ! R32   R(15,16)                1.2669         estimate D2E/DX2                !
 ! R33   R(15,26)                1.3613         estimate D2E/DX2                !
 ! R34   R(16,17)                1.4402         estimate D2E/DX2                !
 ! R35   R(17,18)                1.5396         estimate D2E/DX2                !
 ! R36   R(17,25)                1.5554         estimate D2E/DX2                !
 ! R37   R(17,42)                1.0949         estimate D2E/DX2                !
 ! R38   R(18,19)                1.5022         estimate D2E/DX2                !
 ! R39   R(18,43)                1.0919         estimate D2E/DX2                !
 ! R40   R(18,44)                1.0928         estimate D2E/DX2                !
 ! R41   R(19,20)                1.3881         estimate D2E/DX2                !
 ! R42   R(19,24)                1.3893         estimate D2E/DX2                !
 ! R43   R(20,21)                1.3842         estimate D2E/DX2                !
 ! R44   R(20,45)                1.0815         estimate D2E/DX2                !
 ! R45   R(21,22)                1.3839         estimate D2E/DX2                !
 ! R46   R(21,46)                1.0806         estimate D2E/DX2                !
 ! R47   R(22,23)                1.3848         estimate D2E/DX2                !
 ! R48   R(22,47)                1.0804         estimate D2E/DX2                !
 ! R49   R(23,24)                1.3826         estimate D2E/DX2                !
 ! R50   R(23,48)                1.0802         estimate D2E/DX2                !
 ! R51   R(24,49)                1.0795         estimate D2E/DX2                !
 ! R52   R(25,26)                1.4218         estimate D2E/DX2                !
 ! R53   R(25,50)                1.0937         estimate D2E/DX2                !
 ! R54   R(25,51)                1.0934         estimate D2E/DX2                !
 ! R55   R(27,52)                1.0781         estimate D2E/DX2                !
 ! R56   R(29,30)                1.3833         estimate D2E/DX2                !
 ! R57   R(29,53)                1.0799         estimate D2E/DX2                !
 ! R58   R(30,54)                1.0806         estimate D2E/DX2                !
 ! A1    A(2,1,30)             119.578          estimate D2E/DX2                !
 ! A2    A(2,1,31)             120.0765         estimate D2E/DX2                !
 ! A3    A(30,1,31)            120.3446         estimate D2E/DX2                !
 ! A4    A(1,2,3)              120.1324         estimate D2E/DX2                !
 ! A5    A(1,2,32)             120.0884         estimate D2E/DX2                !
 ! A6    A(3,2,32)             119.7789         estimate D2E/DX2                !
 ! A7    A(2,3,4)              120.7218         estimate D2E/DX2                !
 ! A8    A(2,3,33)             119.6028         estimate D2E/DX2                !
 ! A9    A(4,3,33)             119.6728         estimate D2E/DX2                !
 ! A10   A(3,4,5)              120.8694         estimate D2E/DX2                !
 ! A11   A(3,4,29)             118.691          estimate D2E/DX2                !
 ! A12   A(5,4,29)             120.3529         estimate D2E/DX2                !
 ! A13   A(4,5,6)              110.8116         estimate D2E/DX2                !
 ! A14   A(4,5,34)             110.6283         estimate D2E/DX2                !
 ! A15   A(4,5,35)             110.3743         estimate D2E/DX2                !
 ! A16   A(6,5,34)             108.5244         estimate D2E/DX2                !
 ! A17   A(6,5,35)             107.3515         estimate D2E/DX2                !
 ! A18   A(34,5,35)            109.0625         estimate D2E/DX2                !
 ! A19   A(5,6,7)              112.9361         estimate D2E/DX2                !
 ! A20   A(5,6,28)             109.2911         estimate D2E/DX2                !
 ! A21   A(5,6,36)             108.8798         estimate D2E/DX2                !
 ! A22   A(7,6,28)             103.2853         estimate D2E/DX2                !
 ! A23   A(7,6,36)             112.4939         estimate D2E/DX2                !
 ! A24   A(28,6,36)            109.7915         estimate D2E/DX2                !
 ! A25   A(6,7,8)              103.9067         estimate D2E/DX2                !
 ! A26   A(6,7,37)             113.3033         estimate D2E/DX2                !
 ! A27   A(6,7,38)             112.349          estimate D2E/DX2                !
 ! A28   A(8,7,37)             108.7214         estimate D2E/DX2                !
 ! A29   A(8,7,38)             108.6529         estimate D2E/DX2                !
 ! A30   A(37,7,38)            109.6223         estimate D2E/DX2                !
 ! A31   A(7,8,9)              106.2396         estimate D2E/DX2                !
 ! A32   A(8,9,10)             118.2109         estimate D2E/DX2                !
 ! A33   A(8,9,28)             117.3064         estimate D2E/DX2                !
 ! A34   A(10,9,28)            124.4504         estimate D2E/DX2                !
 ! A35   A(9,10,11)            120.0774         estimate D2E/DX2                !
 ! A36   A(9,10,27)            119.8141         estimate D2E/DX2                !
 ! A37   A(11,10,27)           120.0323         estimate D2E/DX2                !
 ! A38   A(10,11,12)           119.9249         estimate D2E/DX2                !
 ! A39   A(10,11,39)           118.6722         estimate D2E/DX2                !
 ! A40   A(12,11,39)           121.4029         estimate D2E/DX2                !
 ! A41   A(11,12,13)           120.3529         estimate D2E/DX2                !
 ! A42   A(11,12,40)           119.8998         estimate D2E/DX2                !
 ! A43   A(13,12,40)           119.7448         estimate D2E/DX2                !
 ! A44   A(12,13,14)           119.855          estimate D2E/DX2                !
 ! A45   A(12,13,41)           120.8467         estimate D2E/DX2                !
 ! A46   A(14,13,41)           119.2963         estimate D2E/DX2                !
 ! A47   A(13,14,15)           121.1845         estimate D2E/DX2                !
 ! A48   A(13,14,27)           120.0539         estimate D2E/DX2                !
 ! A49   A(15,14,27)           118.7229         estimate D2E/DX2                !
 ! A50   A(14,15,16)           123.9827         estimate D2E/DX2                !
 ! A51   A(14,15,26)           118.882          estimate D2E/DX2                !
 ! A52   A(16,15,26)           117.1109         estimate D2E/DX2                !
 ! A53   A(15,16,17)           108.6028         estimate D2E/DX2                !
 ! A54   A(16,17,18)           109.8724         estimate D2E/DX2                !
 ! A55   A(16,17,25)           103.3618         estimate D2E/DX2                !
 ! A56   A(16,17,42)           109.1501         estimate D2E/DX2                !
 ! A57   A(18,17,25)           113.0253         estimate D2E/DX2                !
 ! A58   A(18,17,42)           108.9677         estimate D2E/DX2                !
 ! A59   A(25,17,42)           112.2917         estimate D2E/DX2                !
 ! A60   A(17,18,19)           110.3286         estimate D2E/DX2                !
 ! A61   A(17,18,43)           108.5961         estimate D2E/DX2                !
 ! A62   A(17,18,44)           108.355          estimate D2E/DX2                !
 ! A63   A(19,18,43)           110.6784         estimate D2E/DX2                !
 ! A64   A(19,18,44)           109.8887         estimate D2E/DX2                !
 ! A65   A(43,18,44)           108.9403         estimate D2E/DX2                !
 ! A66   A(18,19,20)           120.8414         estimate D2E/DX2                !
 ! A67   A(18,19,24)           120.172          estimate D2E/DX2                !
 ! A68   A(20,19,24)           118.9545         estimate D2E/DX2                !
 ! A69   A(19,20,21)           120.58           estimate D2E/DX2                !
 ! A70   A(19,20,45)           119.6763         estimate D2E/DX2                !
 ! A71   A(21,20,45)           119.7434         estimate D2E/DX2                !
 ! A72   A(20,21,22)           120.0797         estimate D2E/DX2                !
 ! A73   A(20,21,46)           119.8315         estimate D2E/DX2                !
 ! A74   A(22,21,46)           120.0885         estimate D2E/DX2                !
 ! A75   A(21,22,23)           119.7008         estimate D2E/DX2                !
 ! A76   A(21,22,47)           120.0671         estimate D2E/DX2                !
 ! A77   A(23,22,47)           120.2319         estimate D2E/DX2                !
 ! A78   A(22,23,24)           120.149          estimate D2E/DX2                !
 ! A79   A(22,23,48)           120.2391         estimate D2E/DX2                !
 ! A80   A(24,23,48)           119.6118         estimate D2E/DX2                !
 ! A81   A(19,24,23)           120.5333         estimate D2E/DX2                !
 ! A82   A(19,24,49)           119.499          estimate D2E/DX2                !
 ! A83   A(23,24,49)           119.9596         estimate D2E/DX2                !
 ! A84   A(17,25,26)           104.319          estimate D2E/DX2                !
 ! A85   A(17,25,50)           112.7723         estimate D2E/DX2                !
 ! A86   A(17,25,51)           112.5899         estimate D2E/DX2                !
 ! A87   A(26,25,50)           108.7719         estimate D2E/DX2                !
 ! A88   A(26,25,51)           108.7717         estimate D2E/DX2                !
 ! A89   A(50,25,51)           109.3834         estimate D2E/DX2                !
 ! A90   A(15,26,25)           106.3695         estimate D2E/DX2                !
 ! A91   A(10,27,14)           119.7661         estimate D2E/DX2                !
 ! A92   A(10,27,52)           120.866          estimate D2E/DX2                !
 ! A93   A(14,27,52)           119.3567         estimate D2E/DX2                !
 ! A94   A(6,28,9)             107.7563         estimate D2E/DX2                !
 ! A95   A(4,29,30)            120.5926         estimate D2E/DX2                !
 ! A96   A(4,29,53)            119.3567         estimate D2E/DX2                !
 ! A97   A(30,29,53)           120.0476         estimate D2E/DX2                !
 ! A98   A(1,30,29)            120.2599         estimate D2E/DX2                !
 ! A99   A(1,30,54)            120.1051         estimate D2E/DX2                !
 ! A100  A(29,30,54)           119.635          estimate D2E/DX2                !
 ! D1    D(30,1,2,3)             1.2336         estimate D2E/DX2                !
 ! D2    D(30,1,2,32)         -178.969          estimate D2E/DX2                !
 ! D3    D(31,1,2,3)          -179.1084         estimate D2E/DX2                !
 ! D4    D(31,1,2,32)            0.689          estimate D2E/DX2                !
 ! D5    D(2,1,30,29)           -0.3846         estimate D2E/DX2                !
 ! D6    D(2,1,30,54)          179.6151         estimate D2E/DX2                !
 ! D7    D(31,1,30,29)         179.9583         estimate D2E/DX2                !
 ! D8    D(31,1,30,54)          -0.042          estimate D2E/DX2                !
 ! D9    D(1,2,3,4)             -0.6462         estimate D2E/DX2                !
 ! D10   D(1,2,3,33)           179.9504         estimate D2E/DX2                !
 ! D11   D(32,2,3,4)           179.5557         estimate D2E/DX2                !
 ! D12   D(32,2,3,33)            0.1523         estimate D2E/DX2                !
 ! D13   D(2,3,4,5)            175.8421         estimate D2E/DX2                !
 ! D14   D(2,3,4,29)            -0.7831         estimate D2E/DX2                !
 ! D15   D(33,3,4,5)            -4.7549         estimate D2E/DX2                !
 ! D16   D(33,3,4,29)          178.6199         estimate D2E/DX2                !
 ! D17   D(3,4,5,6)           -101.6739         estimate D2E/DX2                !
 ! D18   D(3,4,5,34)            18.7406         estimate D2E/DX2                !
 ! D19   D(3,4,5,35)           139.5423         estimate D2E/DX2                !
 ! D20   D(29,4,5,6)            74.8954         estimate D2E/DX2                !
 ! D21   D(29,4,5,34)         -164.6901         estimate D2E/DX2                !
 ! D22   D(29,4,5,35)          -43.8884         estimate D2E/DX2                !
 ! D23   D(3,4,29,30)            1.6358         estimate D2E/DX2                !
 ! D24   D(3,4,29,53)         -179.0024         estimate D2E/DX2                !
 ! D25   D(5,4,29,30)         -175.0075         estimate D2E/DX2                !
 ! D26   D(5,4,29,53)            4.3543         estimate D2E/DX2                !
 ! D27   D(4,5,6,7)             49.733          estimate D2E/DX2                !
 ! D28   D(4,5,6,28)           -64.6281         estimate D2E/DX2                !
 ! D29   D(4,5,6,36)           175.4486         estimate D2E/DX2                !
 ! D30   D(34,5,6,7)           -71.925          estimate D2E/DX2                !
 ! D31   D(34,5,6,28)          173.7139         estimate D2E/DX2                !
 ! D32   D(34,5,6,36)           53.7906         estimate D2E/DX2                !
 ! D33   D(35,5,6,7)           170.3284         estimate D2E/DX2                !
 ! D34   D(35,5,6,28)           55.9673         estimate D2E/DX2                !
 ! D35   D(35,5,6,36)          -63.9559         estimate D2E/DX2                !
 ! D36   D(5,6,7,8)           -105.9664         estimate D2E/DX2                !
 ! D37   D(5,6,7,37)            11.8526         estimate D2E/DX2                !
 ! D38   D(5,6,7,38)           136.7725         estimate D2E/DX2                !
 ! D39   D(28,6,7,8)            11.9712         estimate D2E/DX2                !
 ! D40   D(28,6,7,37)          129.7902         estimate D2E/DX2                !
 ! D41   D(28,6,7,38)         -105.2899         estimate D2E/DX2                !
 ! D42   D(36,6,7,8)           130.287          estimate D2E/DX2                !
 ! D43   D(36,6,7,37)         -111.8941         estimate D2E/DX2                !
 ! D44   D(36,6,7,38)           13.0259         estimate D2E/DX2                !
 ! D45   D(5,6,28,9)           109.5734         estimate D2E/DX2                !
 ! D46   D(7,6,28,9)           -10.8833         estimate D2E/DX2                !
 ! D47   D(36,6,28,9)         -131.0655         estimate D2E/DX2                !
 ! D48   D(6,7,8,9)             -8.9613         estimate D2E/DX2                !
 ! D49   D(37,7,8,9)          -129.9068         estimate D2E/DX2                !
 ! D50   D(38,7,8,9)           110.8422         estimate D2E/DX2                !
 ! D51   D(7,8,9,10)          -179.5249         estimate D2E/DX2                !
 ! D52   D(7,8,9,28)             2.4497         estimate D2E/DX2                !
 ! D53   D(8,9,10,11)          163.452          estimate D2E/DX2                !
 ! D54   D(8,9,10,27)          -19.723          estimate D2E/DX2                !
 ! D55   D(28,9,10,11)         -18.6758         estimate D2E/DX2                !
 ! D56   D(28,9,10,27)         158.1492         estimate D2E/DX2                !
 ! D57   D(8,9,28,6)             5.9638         estimate D2E/DX2                !
 ! D58   D(10,9,28,6)         -171.926          estimate D2E/DX2                !
 ! D59   D(9,10,11,12)         177.4978         estimate D2E/DX2                !
 ! D60   D(9,10,11,39)          -2.4242         estimate D2E/DX2                !
 ! D61   D(27,10,11,12)          0.6798         estimate D2E/DX2                !
 ! D62   D(27,10,11,39)       -179.2422         estimate D2E/DX2                !
 ! D63   D(9,10,27,14)        -176.3789         estimate D2E/DX2                !
 ! D64   D(9,10,27,52)           2.3986         estimate D2E/DX2                !
 ! D65   D(11,10,27,14)          0.4476         estimate D2E/DX2                !
 ! D66   D(11,10,27,52)        179.225          estimate D2E/DX2                !
 ! D67   D(10,11,12,13)         -1.0947         estimate D2E/DX2                !
 ! D68   D(10,11,12,40)        179.4814         estimate D2E/DX2                !
 ! D69   D(39,11,12,13)        178.8251         estimate D2E/DX2                !
 ! D70   D(39,11,12,40)         -0.5988         estimate D2E/DX2                !
 ! D71   D(11,12,13,14)          0.3777         estimate D2E/DX2                !
 ! D72   D(11,12,13,41)       -179.111          estimate D2E/DX2                !
 ! D73   D(40,12,13,14)        179.8025         estimate D2E/DX2                !
 ! D74   D(40,12,13,41)          0.3138         estimate D2E/DX2                !
 ! D75   D(12,13,14,15)       -176.9536         estimate D2E/DX2                !
 ! D76   D(12,13,14,27)          0.756          estimate D2E/DX2                !
 ! D77   D(41,13,14,15)          2.543          estimate D2E/DX2                !
 ! D78   D(41,13,14,27)       -179.7474         estimate D2E/DX2                !
 ! D79   D(13,14,15,16)        178.3689         estimate D2E/DX2                !
 ! D80   D(13,14,15,26)          0.2209         estimate D2E/DX2                !
 ! D81   D(27,14,15,16)          0.6294         estimate D2E/DX2                !
 ! D82   D(27,14,15,26)       -177.5186         estimate D2E/DX2                !
 ! D83   D(13,14,27,10)         -1.1643         estimate D2E/DX2                !
 ! D84   D(13,14,27,52)       -179.9603         estimate D2E/DX2                !
 ! D85   D(15,14,27,10)        176.6014         estimate D2E/DX2                !
 ! D86   D(15,14,27,52)         -2.1946         estimate D2E/DX2                !
 ! D87   D(14,15,16,17)       -175.2681         estimate D2E/DX2                !
 ! D88   D(26,15,16,17)          2.9101         estimate D2E/DX2                !
 ! D89   D(14,15,26,25)        178.6487         estimate D2E/DX2                !
 ! D90   D(16,15,26,25)          0.3739         estimate D2E/DX2                !
 ! D91   D(15,16,17,18)        116.3347         estimate D2E/DX2                !
 ! D92   D(15,16,17,25)         -4.5511         estimate D2E/DX2                !
 ! D93   D(15,16,17,42)       -124.234          estimate D2E/DX2                !
 ! D94   D(16,17,18,19)         59.9419         estimate D2E/DX2                !
 ! D95   D(16,17,18,43)       -178.5934         estimate D2E/DX2                !
 ! D96   D(16,17,18,44)        -60.3998         estimate D2E/DX2                !
 ! D97   D(25,17,18,19)        174.8155         estimate D2E/DX2                !
 ! D98   D(25,17,18,43)        -63.7198         estimate D2E/DX2                !
 ! D99   D(25,17,18,44)         54.4738         estimate D2E/DX2                !
 ! D100  D(42,17,18,19)        -59.6008         estimate D2E/DX2                !
 ! D101  D(42,17,18,43)         61.8639         estimate D2E/DX2                !
 ! D102  D(42,17,18,44)       -179.9425         estimate D2E/DX2                !
 ! D103  D(16,17,25,26)          4.6314         estimate D2E/DX2                !
 ! D104  D(16,17,25,50)       -113.2309         estimate D2E/DX2                !
 ! D105  D(16,17,25,51)        122.4006         estimate D2E/DX2                !
 ! D106  D(18,17,25,26)       -114.0917         estimate D2E/DX2                !
 ! D107  D(18,17,25,50)        128.046          estimate D2E/DX2                !
 ! D108  D(18,17,25,51)          3.6776         estimate D2E/DX2                !
 ! D109  D(42,17,25,26)        122.1337         estimate D2E/DX2                !
 ! D110  D(42,17,25,50)          4.2713         estimate D2E/DX2                !
 ! D111  D(42,17,25,51)       -120.0971         estimate D2E/DX2                !
 ! D112  D(17,18,19,20)         98.4494         estimate D2E/DX2                !
 ! D113  D(17,18,19,24)        -79.4693         estimate D2E/DX2                !
 ! D114  D(43,18,19,20)        -21.771          estimate D2E/DX2                !
 ! D115  D(43,18,19,24)        160.3104         estimate D2E/DX2                !
 ! D116  D(44,18,19,20)       -142.1345         estimate D2E/DX2                !
 ! D117  D(44,18,19,24)         39.9469         estimate D2E/DX2                !
 ! D118  D(18,19,20,21)       -178.28           estimate D2E/DX2                !
 ! D119  D(18,19,20,45)          1.9003         estimate D2E/DX2                !
 ! D120  D(24,19,20,21)         -0.3364         estimate D2E/DX2                !
 ! D121  D(24,19,20,45)        179.8439         estimate D2E/DX2                !
 ! D122  D(18,19,24,23)        177.8217         estimate D2E/DX2                !
 ! D123  D(18,19,24,49)         -1.1444         estimate D2E/DX2                !
 ! D124  D(20,19,24,23)         -0.136          estimate D2E/DX2                !
 ! D125  D(20,19,24,49)       -179.1021         estimate D2E/DX2                !
 ! D126  D(19,20,21,22)          0.4824         estimate D2E/DX2                !
 ! D127  D(19,20,21,46)       -179.7152         estimate D2E/DX2                !
 ! D128  D(45,20,21,22)       -179.698          estimate D2E/DX2                !
 ! D129  D(45,20,21,46)          0.1044         estimate D2E/DX2                !
 ! D130  D(20,21,22,23)         -0.1524         estimate D2E/DX2                !
 ! D131  D(20,21,22,47)        179.7291         estimate D2E/DX2                !
 ! D132  D(46,21,22,23)       -179.9543         estimate D2E/DX2                !
 ! D133  D(46,21,22,47)         -0.0728         estimate D2E/DX2                !
 ! D134  D(21,22,23,24)         -0.3175         estimate D2E/DX2                !
 ! D135  D(21,22,23,48)        179.5101         estimate D2E/DX2                !
 ! D136  D(47,22,23,24)        179.8011         estimate D2E/DX2                !
 ! D137  D(47,22,23,48)         -0.3712         estimate D2E/DX2                !
 ! D138  D(22,23,24,19)          0.4637         estimate D2E/DX2                !
 ! D139  D(22,23,24,49)        179.425          estimate D2E/DX2                !
 ! D140  D(48,23,24,19)       -179.3651         estimate D2E/DX2                !
 ! D141  D(48,23,24,49)         -0.4037         estimate D2E/DX2                !
 ! D142  D(17,25,26,15)         -3.1714         estimate D2E/DX2                !
 ! D143  D(50,25,26,15)        117.4045         estimate D2E/DX2                !
 ! D144  D(51,25,26,15)       -123.5342         estimate D2E/DX2                !
 ! D145  D(4,29,30,1)           -1.0652         estimate D2E/DX2                !
 ! D146  D(4,29,30,54)         178.9351         estimate D2E/DX2                !
 ! D147  D(53,29,30,1)         179.5774         estimate D2E/DX2                !
 ! D148  D(53,29,30,54)         -0.4223         estimate D2E/DX2                !
 --------------------------------------------------------------------------------
 Trust Radius=3.00D-01 FncErr=1.00D-07 GrdErr=1.00D-06 EigMax=2.50D+02 EigMin=1.00D-04
 Number of steps in this run=    316 maximum allowed number of steps=    324.
 GradGradGradGradGradGradGradGradGradGradGradGradGradGradGradGradGradGrad

 Leave Link  103 at Mon Feb 26 00:39:08 2024, MaxMem=  7516192768 cpu:               0.9 elap:               0.0
 (Enter /public/apps/g16-C01//g16/l202.exe)
 Symmetry turned off by external request.
 Stoichiometry    C26H24N2O2
 Framework group  C1[X(C26H24N2O2)]
 Deg. of freedom   156
 Full point group                 C1      NOp   1
                          Input orientation:                          
 ---------------------------------------------------------------------
 Center     Atomic      Atomic             Coordinates (Angstroms)
 Number     Number       Type             X           Y           Z
 ---------------------------------------------------------------------
      1          6           0       -1.507025    2.423765   -1.363823
      2          6           0       -2.380113    2.947547   -0.426248
      3          6           0       -3.492206    2.224277   -0.032243
      4          6           0       -3.755877    0.973623   -0.578303
      5          6           0       -4.908301    0.146264   -0.087428
      6          6           0       -4.417910   -0.967062    0.868451
      7          6           0       -3.480092   -0.436619    1.982893
      8          8           0       -2.190078   -0.881449    1.584290
      9          6           0       -2.385394   -1.724392    0.541174
     10          6           0       -1.217786   -2.346934   -0.069422
     11          6           0       -1.370840   -3.461353   -0.894519
     12          6           0       -0.267115   -4.017977   -1.513495
     13          6           0        0.988859   -3.461588   -1.337325
     14          6           0        1.142709   -2.340085   -0.526179
     15          6           0        2.437756   -1.692465   -0.372819
     16          7           0        2.631804   -0.653972    0.326468
     17          6           0        3.999191   -0.234864    0.156987
     18          6           0        4.042622    1.152246   -0.509636
     19          6           0        3.326341    2.162499    0.340575
     20          6           0        4.030357    3.005174    1.189683
     21          6           0        3.362464    3.909785    1.996839
     22          6           0        1.980289    3.974222    1.970403
     23          6           0        1.270091    3.132321    1.131053
     24          6           0        1.939163    2.235996    0.318285
     25          6           0        4.611363   -1.355887   -0.730661
     26          8           0        3.509409   -2.198471   -1.042718
     27          6           0        0.038848   -1.789301    0.118488
     28          7           0       -3.578783   -1.886415    0.138708
     29          6           0       -2.888709    0.469367   -1.541502
     30          6           0       -1.767537    1.184218   -1.922775
     31          1           0       -0.631590    2.982845   -1.660049
     32          1           0       -2.193621    3.921773    0.003076
     33          1           0       -4.168760    2.641694    0.702035
     34          1           0       -5.628891    0.768759    0.446014
     35          1           0       -5.409625   -0.341287   -0.924670
     36          1           0       -5.286481   -1.497043    1.269600
     37          1           0       -3.468294    0.651622    2.055152
     38          1           0       -3.712091   -0.867828    2.962688
     39          1           0       -2.359216   -3.869442   -1.034880
     40          1           0       -0.384870   -4.885726   -2.145443
     41          1           0        1.853764   -3.881079   -1.828104
     42          1           0        4.480232   -0.173177    1.138578
     43          1           0        5.086924    1.438173   -0.650832
     44          1           0        3.559488    1.079559   -1.487134
     45          1           0        5.110361    2.956054    1.218290
     46          1           0        3.922877    4.563295    2.649972
     47          1           0        1.458975    4.677356    2.603720
     48          1           0        0.190773    3.169758    1.109236
     49          1           0        1.382115    1.574655   -0.328053
     50          1           0        5.367892   -1.945861   -0.205617
     51          1           0        5.034178   -0.970096   -1.662260
     52          1           0        0.170688   -0.920685    0.743255
     53          1           0       -3.092245   -0.494176   -1.984725
     54          1           0       -1.094938    0.769970   -2.660096
 ---------------------------------------------------------------------
 Rotational constants (GHZ):           0.2048451           0.1268478           0.0890776
 Leave Link  202 at Mon Feb 26 00:39:08 2024, MaxMem=  7516192768 cpu:               0.6 elap:               0.0
 (Enter /public/apps/g16-C01//g16/l301.exe)
 Standard basis: def2SVPP (5D, 7F)
 Ernie: Thresh=  0.10000D-02 Tol=  0.10000D-05 Strict=F.
   468 basis functions,   846 primitive gaussians,   498 cartesian basis functions
   105 alpha electrons      105 beta electrons
       nuclear repulsion energy      2818.8220628935 Hartrees.
 IExCor=  402 DFT=T Ex+Corr=B3LYP ExCW=0 ScaHFX=  0.200000
 ScaDFX=  0.800000  0.720000  1.000000  0.810000 ScalE2=  1.000000  1.000000
 IRadAn=      5 IRanWt=     -1 IRanGd=            0 ICorTp=0 IEmpDi=141
 NAtoms=   54 NActive=   54 NUniq=   54 SFac= 1.00D+00 NAtFMM=   60 NAOKFM=F Big=F
 Integral buffers will be    131072 words long.
 Raffenetti 2 integral format.
 Two-electron integral symmetry is turned off.
 R6Disp:  Grimme-D3(BJ) Dispersion energy=       -0.1288371349 Hartrees.
 Nuclear repulsion after empirical dispersion term =     2818.6932257586 Hartrees.
 Leave Link  301 at Mon Feb 26 00:39:08 2024, MaxMem=  7516192768 cpu:               1.4 elap:               0.0
 (Enter /public/apps/g16-C01//g16/l302.exe)
 NPDir=0 NMtPBC=     1 NCelOv=     1 NCel=       1 NClECP=     1 NCelD=      1
         NCelK=      1 NCelE2=     1 NClLst=     1 CellRange=     0.0.
 One-electron integrals computed using PRISM.
   1 Symmetry operations used in ECPInt.
 ECPInt:  NShTT=   26106 NPrTT=  104658 LenC2=   23169 LenP2D=   60119.
 LDataN:  DoStor=T MaxTD1= 4 Len=   56
 NBasis=   468 RedAO= T EigKep=  2.39D-04  NBF=   468
 NBsUse=   468 1.00D-06 EigRej= -1.00D+00 NBFU=   468
 Precomputing XC quadrature grid using
 IXCGrd= 4 IRadAn=           5 IRanWt=          -1 IRanGd=           0 AccXCQ= 0.00D+00.
 Generated NRdTot=       0 NPtTot=           0 NUsed=           0 NTot=          32
 NSgBfM=   496   496   496   496   496 MxSgAt=    54 MxSgA2=    54.
 Leave Link  302 at Mon Feb 26 00:39:09 2024, MaxMem=  7516192768 cpu:              19.6 elap:               0.5
 (Enter /public/apps/g16-C01//g16/l303.exe)
 DipDrv:  MaxL=1.
 Leave Link  303 at Mon Feb 26 00:39:09 2024, MaxMem=  7516192768 cpu:               2.2 elap:               0.1
 (Enter /public/apps/g16-C01//g16/l401.exe)
 ExpMin= 1.22D-01 ExpMax= 2.27D+03 ExpMxC= 3.41D+02 IAcc=3 IRadAn=         5 AccDes= 0.00D+00
 Harris functional with IExCor=  402 and IRadAn=       5 diagonalized for initial guess.
 HarFok:  IExCor=  402 AccDes= 0.00D+00 IRadAn=         5 IDoV= 1 UseB2=F ITyADJ=14
 ICtDFT=  3500011 ScaDFX=  1.000000  1.000000  1.000000  1.000000
 FoFCou: FMM=F IPFlag=           0 FMFlag=      100000 FMFlg1=           0
         NFxFlg=           0 DoJE=T BraDBF=F KetDBF=T FulRan=T
         wScrn=  0.000000 ICntrl=       500 IOpCl=  0 I1Cent=   200000004 NGrid=           0
         NMat0=    1 NMatS0=      1 NMatT0=    0 NMatD0=    1 NMtDS0=    0 NMtDT0=    0
 Symmetry not used in FoFCou.
 Harris En= -1264.26457247432    
 JPrj=0 DoOrth=F DoCkMO=F.
 Leave Link  401 at Mon Feb 26 00:39:10 2024, MaxMem=  7516192768 cpu:              38.4 elap:               1.0
 (Enter /public/apps/g16-C01//g16/l502.exe)
 Two-electron integral symmetry not used.
 Closed shell SCF:
 Using DIIS extrapolation, IDIIS=  1040.
 NGot=  7516192768 LenX=  7515671268 LenY=  7515422766
 Requested convergence on RMS density matrix=1.00D-08 within 128 cycles.
 Requested convergence on MAX density matrix=1.00D-06.
 Requested convergence on             energy=1.00D-06.
 No special actions if energy rises.
 Fock matrices will be formed incrementally for  20 cycles.
 Integral accuracy reduced to 1.0D-05 until final iterations.

 Cycle   1  Pass 0  IDiag  1:
 FoFJK:  IHMeth= 1 ICntrl=       0 DoSepK=F KAlg= 0 I1Cent=           0 FoldK=F
 IRaf= 810000000 NMat=       1 IRICut=       1 DoRegI=T DoRafI=F ISym2E= 0 IDoP0=0 IntGTp=1.
 FoFCou: FMM=F IPFlag=           0 FMFlag=      100000 FMFlg1=           0
         NFxFlg=           0 DoJE=F BraDBF=F KetDBF=F FulRan=T
         wScrn=  0.000000 ICntrl=         0 IOpCl=  0 I1Cent=           0 NGrid=           0
         NMat0=    1 NMatS0=      1 NMatT0=    0 NMatD0=    1 NMtDS0=    0 NMtDT0=    0
 Symmetry not used in FoFCou.
 E= -1263.73265447280    
 DIIS: error= 2.36D-02 at cycle   1 NSaved=   1.
 NSaved= 1 IEnMin= 1 EnMin= -1263.73265447280     IErMin= 1 ErrMin= 2.36D-02
 ErrMax= 2.36D-02  0.00D+00 EMaxC= 1.00D-01 BMatC= 5.16D-01 BMatP= 5.16D-01
 IDIUse=3 WtCom= 7.64D-01 WtEn= 2.36D-01
 Coeff-Com:  0.100D+01
 Coeff-En:   0.100D+01
 Coeff:      0.100D+01
 Gap=     0.180 Goal=   None    Shift=    0.000
 GapD=    0.180 DampG=1.000 DampE=0.500 DampFc=0.5000 IDamp=-1.
 Damping current iteration by 5.00D-01
 RMSDP=5.24D-03 MaxDP=1.41D-01              OVMax= 1.59D-01

 Cycle   2  Pass 0  IDiag  1:
 RMSU=  2.45D-03    CP:  9.51D-01
 E= -1263.98744248699     Delta-E=       -0.254788014192 Rises=F Damp=T
 DIIS: error= 4.92D-03 at cycle   2 NSaved=   2.
 NSaved= 2 IEnMin= 2 EnMin= -1263.98744248699     IErMin= 2 ErrMin= 4.92D-03
 ErrMax= 4.92D-03  0.00D+00 EMaxC= 1.00D-01 BMatC= 3.83D-02 BMatP= 5.16D-01
 IDIUse=3 WtCom= 9.51D-01 WtEn= 4.92D-02
 Coeff-Com:  0.744D-01 0.926D+00
 Coeff-En:   0.104D+00 0.896D+00
 Coeff:      0.758D-01 0.924D+00
 Gap=     0.197 Goal=   None    Shift=    0.000
 RMSDP=1.71D-03 MaxDP=6.46D-02 DE=-2.55D-01 OVMax= 1.50D-01

 Cycle   3  Pass 0  IDiag  1:
 RMSU=  1.62D-03    CP:  9.22D-01  9.61D-01
 E= -1264.26674858010     Delta-E=       -0.279306093108 Rises=F Damp=F
 DIIS: error= 1.01D-02 at cycle   3 NSaved=   3.
 NSaved= 3 IEnMin= 3 EnMin= -1264.26674858010     IErMin= 2 ErrMin= 4.92D-03
 ErrMax= 1.01D-02  0.00D+00 EMaxC= 1.00D-01 BMatC= 5.65D-02 BMatP= 3.83D-02
 IDIUse=2 WtCom= 0.00D+00 WtEn= 1.00D+00
 Coeff-En:   0.000D+00 0.000D+00 0.100D+01
 Coeff:      0.000D+00 0.000D+00 0.100D+01
 Gap=     0.160 Goal=   None    Shift=    0.000
 RMSDP=2.01D-03 MaxDP=1.12D-01 DE=-2.79D-01 OVMax= 1.75D-01

 Cycle   4  Pass 0  IDiag  1:
 RMSU=  1.38D-03    CP:  9.26D-01  1.26D+00  2.15D-01
 E= -1264.03482799434     Delta-E=        0.231920585761 Rises=F Damp=F
 DIIS: error= 2.64D-02 at cycle   4 NSaved=   4.
 NSaved= 4 IEnMin= 3 EnMin= -1264.26674858010     IErMin= 2 ErrMin= 4.92D-03
 ErrMax= 2.64D-02  0.00D+00 EMaxC= 1.00D-01 BMatC= 3.06D-01 BMatP= 3.83D-02
 IDIUse=2 WtCom= 0.00D+00 WtEn= 1.00D+00
 Coeff-En:   0.000D+00 0.000D+00 0.789D+00 0.211D+00
 Coeff:      0.000D+00 0.000D+00 0.789D+00 0.211D+00
 Gap=     0.194 Goal=   None    Shift=    0.000
 RMSDP=1.07D-03 MaxDP=5.92D-02 DE= 2.32D-01 OVMax= 9.43D-02

 Cycle   5  Pass 0  IDiag  1:
 RMSU=  2.12D-04    CP:  9.23D-01  1.10D+00  6.16D-01  4.71D-01
 E= -1264.29770936076     Delta-E=       -0.262881366417 Rises=F Damp=F
 DIIS: error= 7.09D-03 at cycle   5 NSaved=   5.
 NSaved= 5 IEnMin= 5 EnMin= -1264.29770936076     IErMin= 2 ErrMin= 4.92D-03
 ErrMax= 7.09D-03  0.00D+00 EMaxC= 1.00D-01 BMatC= 2.33D-02 BMatP= 3.83D-02
 IDIUse=3 WtCom= 9.29D-01 WtEn= 7.09D-02
 Coeff-Com:  0.394D-02 0.841D-02 0.297D+00-0.901D-01 0.780D+00
 Coeff-En:   0.000D+00 0.000D+00 0.337D+00 0.000D+00 0.663D+00
 Coeff:      0.366D-02 0.782D-02 0.300D+00-0.837D-01 0.772D+00
 Gap=     0.182 Goal=   None    Shift=    0.000
 RMSDP=3.82D-04 MaxDP=2.21D-02 DE=-2.63D-01 OVMax= 3.43D-02

 Cycle   6  Pass 0  IDiag  1:
 RMSU=  6.23D-05    CP:  9.22D-01  1.05D+00  7.66D-01  2.86D-01  9.01D-01
 E= -1264.31896355059     Delta-E=       -0.021254189830 Rises=F Damp=F
 DIIS: error= 2.17D-04 at cycle   6 NSaved=   6.
 NSaved= 6 IEnMin= 6 EnMin= -1264.31896355059     IErMin= 6 ErrMin= 2.17D-04
 ErrMax= 2.17D-04  0.00D+00 EMaxC= 1.00D-01 BMatC= 7.72D-05 BMatP= 2.33D-02
 IDIUse=3 WtCom= 9.98D-01 WtEn= 2.17D-03
 Coeff-Com:  0.137D-02-0.697D-04 0.133D+00-0.632D-01 0.440D+00 0.489D+00
 Coeff-En:   0.000D+00 0.000D+00 0.000D+00 0.000D+00 0.000D+00 0.100D+01
 Coeff:      0.137D-02-0.696D-04 0.133D+00-0.631D-01 0.439D+00 0.490D+00
 Gap=     0.183 Goal=   None    Shift=    0.000
 RMSDP=2.69D-05 MaxDP=1.38D-03 DE=-2.13D-02 OVMax= 2.09D-03

 Cycle   7  Pass 0  IDiag  1:
 RMSU=  1.67D-05    CP:  9.22D-01  1.05D+00  7.65D-01  2.89D-01  9.04D-01
                    CP:  6.73D-01
 E= -1264.31904507843     Delta-E=       -0.000081527839 Rises=F Damp=F
 DIIS: error= 5.78D-05 at cycle   7 NSaved=   7.
 NSaved= 7 IEnMin= 7 EnMin= -1264.31904507843     IErMin= 7 ErrMin= 5.78D-05
 ErrMax= 5.78D-05  0.00D+00 EMaxC= 1.00D-01 BMatC= 4.58D-06 BMatP= 7.72D-05
 IDIUse=1 WtCom= 1.00D+00 WtEn= 0.00D+00
 Coeff-Com:  0.569D-03-0.963D-03 0.459D-01-0.244D-01 0.159D+00 0.239D+00
 Coeff-Com:  0.581D+00
 Coeff:      0.569D-03-0.963D-03 0.459D-01-0.244D-01 0.159D+00 0.239D+00
 Coeff:      0.581D+00
 Gap=     0.183 Goal=   None    Shift=    0.000
 RMSDP=7.62D-06 MaxDP=2.81D-04 DE=-8.15D-05 OVMax= 6.99D-04

 Initial convergence to 1.0D-05 achieved.  Increase integral accuracy.
 Cycle   8  Pass 1  IDiag  1:
 E= -1264.31905280861     Delta-E=       -0.000007730185 Rises=F Damp=F
 DIIS: error= 1.50D-04 at cycle   1 NSaved=   1.
 NSaved= 1 IEnMin= 1 EnMin= -1264.31905280861     IErMin= 1 ErrMin= 1.50D-04
 ErrMax= 1.50D-04  0.00D+00 EMaxC= 1.00D-01 BMatC= 9.98D-06 BMatP= 9.98D-06
 IDIUse=3 WtCom= 9.99D-01 WtEn= 1.50D-03
 Coeff-Com:  0.100D+01
 Coeff-En:   0.100D+01
 Coeff:      0.100D+01
 Gap=     0.183 Goal=   None    Shift=    0.000
 RMSDP=7.62D-06 MaxDP=2.81D-04 DE=-7.73D-06 OVMax= 8.14D-04

 Cycle   9  Pass 1  IDiag  1:
 RMSU=  1.83D-04    CP:  1.00D+00
 E= -1264.31906128709     Delta-E=       -0.000008478482 Rises=F Damp=F
 DIIS: error= 6.35D-05 at cycle   2 NSaved=   2.
 NSaved= 2 IEnMin= 2 EnMin= -1264.31906128709     IErMin= 2 ErrMin= 6.35D-05
 ErrMax= 6.35D-05  0.00D+00 EMaxC= 1.00D-01 BMatC= 3.12D-06 BMatP= 9.98D-06
 IDIUse=1 WtCom= 1.00D+00 WtEn= 0.00D+00
 Coeff-Com:  0.287D+00 0.713D+00
 Coeff:      0.287D+00 0.713D+00
 Gap=     0.183 Goal=   None    Shift=    0.000
 RMSDP=1.04D-05 MaxDP=4.30D-04 DE=-8.48D-06 OVMax= 1.14D-03

 Cycle  10  Pass 1  IDiag  1:
 RMSU=  1.03D-05    CP:  1.00D+00  1.01D+00
 E= -1264.31905990967     Delta-E=        0.000001377429 Rises=F Damp=F
 DIIS: error= 8.09D-05 at cycle   3 NSaved=   3.
 NSaved= 3 IEnMin= 2 EnMin= -1264.31906128709     IErMin= 2 ErrMin= 6.35D-05
 ErrMax= 8.09D-05  0.00D+00 EMaxC= 1.00D-01 BMatC= 4.43D-06 BMatP= 3.12D-06
 IDIUse=1 WtCom= 1.00D+00 WtEn= 0.00D+00
 Coeff-Com:  0.453D-02 0.543D+00 0.453D+00
 Coeff:      0.453D-02 0.543D+00 0.453D+00
 Gap=     0.183 Goal=   None    Shift=    0.000
 RMSDP=5.97D-06 MaxDP=2.69D-04 DE= 1.38D-06 OVMax= 6.45D-04

 Cycle  11  Pass 1  IDiag  1:
 RMSU=  1.51D-06    CP:  1.00D+00  1.01D+00  4.49D-01
 E= -1264.31906453075     Delta-E=       -0.000004621083 Rises=F Damp=F
 DIIS: error= 2.46D-05 at cycle   4 NSaved=   4.
 NSaved= 4 IEnMin= 4 EnMin= -1264.31906453075     IErMin= 4 ErrMin= 2.46D-05
 ErrMax= 2.46D-05  0.00D+00 EMaxC= 1.00D-01 BMatC= 1.45D-07 BMatP= 3.12D-06
 IDIUse=1 WtCom= 1.00D+00 WtEn= 0.00D+00
 Coeff-Com: -0.439D-02 0.341D+00 0.299D+00 0.364D+00
 Coeff:     -0.439D-02 0.341D+00 0.299D+00 0.364D+00
 Gap=     0.183 Goal=   None    Shift=    0.000
 RMSDP=9.51D-07 MaxDP=5.66D-05 DE=-4.62D-06 OVMax= 9.84D-05

 Cycle  12  Pass 1  IDiag  1:
 RMSU=  3.73D-07    CP:  1.00D+00  1.01D+00  4.63D-01  4.29D-01
 E= -1264.31906466023     Delta-E=       -0.000000129483 Rises=F Damp=F
 DIIS: error= 2.89D-06 at cycle   5 NSaved=   5.
 NSaved= 5 IEnMin= 5 EnMin= -1264.31906466023     IErMin= 5 ErrMin= 2.89D-06
 ErrMax= 2.89D-06  0.00D+00 EMaxC= 1.00D-01 BMatC= 2.28D-09 BMatP= 1.45D-07
 IDIUse=1 WtCom= 1.00D+00 WtEn= 0.00D+00
 Coeff-Com: -0.282D-02 0.201D+00 0.177D+00 0.226D+00 0.398D+00
 Coeff:     -0.282D-02 0.201D+00 0.177D+00 0.226D+00 0.398D+00
 Gap=     0.183 Goal=   None    Shift=    0.000
 RMSDP=1.45D-07 MaxDP=5.58D-06 DE=-1.29D-07 OVMax= 1.13D-05

 Cycle  13  Pass 1  IDiag  1:
 RMSU=  1.17D-07    CP:  1.00D+00  1.01D+00  4.64D-01  4.39D-01  7.75D-01
 E= -1264.31906466247     Delta-E=       -0.000000002241 Rises=F Damp=F
 DIIS: error= 2.54D-07 at cycle   6 NSaved=   6.
 NSaved= 6 IEnMin= 6 EnMin= -1264.31906466247     IErMin= 6 ErrMin= 2.54D-07
 ErrMax= 2.54D-07  0.00D+00 EMaxC= 1.00D-01 BMatC= 6.14D-11 BMatP= 2.28D-09
 IDIUse=1 WtCom= 1.00D+00 WtEn= 0.00D+00
 Coeff-Com: -0.103D-02 0.711D-01 0.627D-01 0.808D-01 0.194D+00 0.592D+00
 Coeff:     -0.103D-02 0.711D-01 0.627D-01 0.808D-01 0.194D+00 0.592D+00
 Gap=     0.183 Goal=   None    Shift=    0.000
 RMSDP=3.18D-08 MaxDP=1.13D-06 DE=-2.24D-09 OVMax= 2.48D-06

 Cycle  14  Pass 1  IDiag  1:
 RMSU=  2.76D-08    CP:  1.00D+00  1.01D+00  4.64D-01  4.36D-01  7.99D-01
                    CP:  9.06D-01
 E= -1264.31906466250     Delta-E=       -0.000000000031 Rises=F Damp=F
 DIIS: error= 1.35D-07 at cycle   7 NSaved=   7.
 NSaved= 7 IEnMin= 7 EnMin= -1264.31906466250     IErMin= 7 ErrMin= 1.35D-07
 ErrMax= 1.35D-07  0.00D+00 EMaxC= 1.00D-01 BMatC= 1.34D-11 BMatP= 6.14D-11
 IDIUse=1 WtCom= 1.00D+00 WtEn= 0.00D+00
 Coeff-Com: -0.124D-03 0.771D-02 0.687D-02 0.898D-02 0.491D-01 0.353D+00
 Coeff-Com:  0.575D+00
 Coeff:     -0.124D-03 0.771D-02 0.687D-02 0.898D-02 0.491D-01 0.353D+00
 Coeff:      0.575D+00
 Gap=     0.183 Goal=   None    Shift=    0.000
 RMSDP=1.30D-08 MaxDP=3.98D-07 DE=-3.14D-11 OVMax= 1.24D-06

 Cycle  15  Pass 1  IDiag  1:
 RMSU=  8.41D-09    CP:  1.00D+00  1.01D+00  4.64D-01  4.38D-01  8.03D-01
                    CP:  9.26D-01  6.76D-01
 E= -1264.31906466251     Delta-E=       -0.000000000005 Rises=F Damp=F
 DIIS: error= 4.81D-08 at cycle   8 NSaved=   8.
 NSaved= 8 IEnMin= 8 EnMin= -1264.31906466251     IErMin= 8 ErrMin= 4.81D-08
 ErrMax= 4.81D-08  0.00D+00 EMaxC= 1.00D-01 BMatC= 1.71D-12 BMatP= 1.34D-11
 IDIUse=1 WtCom= 1.00D+00 WtEn= 0.00D+00
 Coeff-Com:  0.795D-05-0.111D-02-0.919D-03-0.126D-02 0.151D-01 0.169D+00
 Coeff-Com:  0.354D+00 0.465D+00
 Coeff:      0.795D-05-0.111D-02-0.919D-03-0.126D-02 0.151D-01 0.169D+00
 Coeff:      0.354D+00 0.465D+00
 Gap=     0.183 Goal=   None    Shift=    0.000
 RMSDP=4.21D-09 MaxDP=1.66D-07 DE=-4.55D-12 OVMax= 3.46D-07

 SCF Done:  E(RB3LYP) =  -1264.31906466     A.U. after   15 cycles
            NFock= 15  Conv=0.42D-08     -V/T= 2.0092
 KE= 1.252789468461D+03 PE=-8.572254160554D+03 EE= 3.236452401672D+03
 Leave Link  502 at Mon Feb 26 00:39:39 2024, MaxMem=  7516192768 cpu:            1177.1 elap:              29.6
 (Enter /public/apps/g16-C01//g16/l601.exe)
 Copying SCF densities to generalized density rwf, IOpCl= 0 IROHF=0.

 **********************************************************************

            Population analysis using the SCF Density.

 **********************************************************************

 Alpha  occ. eigenvalues --  -19.17069 -19.16725 -14.30080 -14.29998 -10.27482
 Alpha  occ. eigenvalues --  -10.27273 -10.23904 -10.23388 -10.21899 -10.21852
 Alpha  occ. eigenvalues --  -10.20392 -10.20310 -10.19648 -10.19490 -10.19303
 Alpha  occ. eigenvalues --  -10.19268 -10.18911 -10.18502 -10.18441 -10.18283
 Alpha  occ. eigenvalues --  -10.18220 -10.18176 -10.18049 -10.17993 -10.17661
 Alpha  occ. eigenvalues --  -10.17541 -10.17488 -10.17376 -10.17255 -10.16958
 Alpha  occ. eigenvalues --   -1.08915  -1.08774  -0.90806  -0.90528  -0.87093
 Alpha  occ. eigenvalues --   -0.85462  -0.84825  -0.80821  -0.79361  -0.76905
 Alpha  occ. eigenvalues --   -0.76200  -0.73997  -0.73729  -0.73267  -0.73073
 Alpha  occ. eigenvalues --   -0.68858  -0.68489  -0.64166  -0.63620  -0.61438
 Alpha  occ. eigenvalues --   -0.61054  -0.60355  -0.59731  -0.58486  -0.57475
 Alpha  occ. eigenvalues --   -0.57110  -0.54915  -0.53361  -0.51890  -0.51354
 Alpha  occ. eigenvalues --   -0.50638  -0.50098  -0.49165  -0.48899  -0.47859
 Alpha  occ. eigenvalues --   -0.46973  -0.46588  -0.45481  -0.45216  -0.44647
 Alpha  occ. eigenvalues --   -0.44507  -0.43621  -0.42617  -0.42488  -0.42323
 Alpha  occ. eigenvalues --   -0.41588  -0.41478  -0.41079  -0.40642  -0.40313
 Alpha  occ. eigenvalues --   -0.39888  -0.38804  -0.38405  -0.37945  -0.36802
 Alpha  occ. eigenvalues --   -0.36528  -0.36052  -0.35873  -0.35609  -0.35286
 Alpha  occ. eigenvalues --   -0.35039  -0.34148  -0.33616  -0.33273  -0.33091
 Alpha  occ. eigenvalues --   -0.28049  -0.27489  -0.27477  -0.27360  -0.25521
 Alpha  occ. eigenvalues --   -0.24975  -0.24945  -0.24415  -0.23904  -0.23470
 Alpha virt. eigenvalues --   -0.05204  -0.03516  -0.00663  -0.00546   0.00097
 Alpha virt. eigenvalues --    0.00370   0.03221   0.05704   0.06062   0.06959
 Alpha virt. eigenvalues --    0.07496   0.07750   0.08202   0.08704   0.09091
 Alpha virt. eigenvalues --    0.09585   0.10132   0.10630   0.11222   0.11815
 Alpha virt. eigenvalues --    0.12290   0.12775   0.13112   0.13486   0.13748
 Alpha virt. eigenvalues --    0.14522   0.15176   0.15246   0.15565   0.15865
 Alpha virt. eigenvalues --    0.16151   0.16337   0.16741   0.17107   0.17488
 Alpha virt. eigenvalues --    0.17687   0.18603   0.19338   0.19708   0.22216
 Alpha virt. eigenvalues --    0.22635   0.23245   0.23520   0.25620   0.26078
 Alpha virt. eigenvalues --    0.26593   0.27626   0.28281   0.28702   0.29279
 Alpha virt. eigenvalues --    0.29573   0.30150   0.30844   0.31104   0.31951
 Alpha virt. eigenvalues --    0.32522   0.32806   0.33179   0.33450   0.34315
 Alpha virt. eigenvalues --    0.34862   0.35849   0.36049   0.37372   0.37812
 Alpha virt. eigenvalues --    0.38425   0.40347   0.40930   0.41668   0.42107
 Alpha virt. eigenvalues --    0.42382   0.43029   0.43530   0.43807   0.44262
 Alpha virt. eigenvalues --    0.44677   0.45029   0.45435   0.46090   0.46308
 Alpha virt. eigenvalues --    0.46793   0.47510   0.47580   0.47946   0.48085
 Alpha virt. eigenvalues --    0.48995   0.49228   0.49816   0.50041   0.50584
 Alpha virt. eigenvalues --    0.51546   0.52448   0.52615   0.53342   0.53796
 Alpha virt. eigenvalues --    0.54759   0.55040   0.55480   0.55605   0.56215
 Alpha virt. eigenvalues --    0.56496   0.57128   0.57890   0.57988   0.58586
 Alpha virt. eigenvalues --    0.59224   0.59873   0.60559   0.61447   0.61878
 Alpha virt. eigenvalues --    0.62292   0.62561   0.63316   0.64013   0.64874
 Alpha virt. eigenvalues --    0.65377   0.65712   0.66027   0.66913   0.66947
 Alpha virt. eigenvalues --    0.67207   0.67509   0.67760   0.68002   0.68288
 Alpha virt. eigenvalues --    0.68475   0.68703   0.69216   0.69426   0.70038
 Alpha virt. eigenvalues --    0.70206   0.70262   0.70842   0.71048   0.71309
 Alpha virt. eigenvalues --    0.71766   0.72145   0.72447   0.72769   0.72897
 Alpha virt. eigenvalues --    0.73366   0.73876   0.73917   0.74537   0.74954
 Alpha virt. eigenvalues --    0.75240   0.75365   0.76642   0.76743   0.77287
 Alpha virt. eigenvalues --    0.77965   0.78114   0.78470   0.79064   0.79926
 Alpha virt. eigenvalues --    0.80450   0.81297   0.82493   0.83176   0.83863
 Alpha virt. eigenvalues --    0.84383   0.85226   0.85571   0.86513   0.87179
 Alpha virt. eigenvalues --    0.87511   0.87946   0.90401   0.90850   0.91268
 Alpha virt. eigenvalues --    0.92829   0.93232   0.94824   0.96086   0.97120
 Alpha virt. eigenvalues --    0.98035   0.98658   1.00514   1.01945   1.03340
 Alpha virt. eigenvalues --    1.04978   1.05821   1.07646   1.08765   1.10389
 Alpha virt. eigenvalues --    1.11182   1.11774   1.12542   1.13465   1.14074
 Alpha virt. eigenvalues --    1.14169   1.14695   1.16499   1.17440   1.19461
 Alpha virt. eigenvalues --    1.22255   1.23945   1.24444   1.27312   1.27912
 Alpha virt. eigenvalues --    1.28596   1.29486   1.30815   1.32388   1.33183
 Alpha virt. eigenvalues --    1.34886   1.36922   1.37175   1.38117   1.40633
 Alpha virt. eigenvalues --    1.42642   1.43688   1.44555   1.44919   1.45550
 Alpha virt. eigenvalues --    1.46784   1.47603   1.48137   1.48909   1.49080
 Alpha virt. eigenvalues --    1.49469   1.50259   1.50455   1.51703   1.52346
 Alpha virt. eigenvalues --    1.52959   1.53702   1.54249   1.59003   1.60400
 Alpha virt. eigenvalues --    1.60849   1.62702   1.63602   1.68381   1.69215
 Alpha virt. eigenvalues --    1.72443   1.73518   1.74232   1.75157   1.76430
 Alpha virt. eigenvalues --    1.76541   1.77952   1.78258   1.78872   1.79134
 Alpha virt. eigenvalues --    1.79736   1.80824   1.81490   1.82129   1.84277
 Alpha virt. eigenvalues --    1.85373   1.86351   1.86628   1.87129   1.87984
 Alpha virt. eigenvalues --    1.88493   1.89578   1.89729   1.90456   1.91653
 Alpha virt. eigenvalues --    1.93075   1.94750   1.95310   1.96223   1.98329
 Alpha virt. eigenvalues --    1.99385   1.99916   2.00567   2.01186   2.01972
 Alpha virt. eigenvalues --    2.03418   2.03908   2.05919   2.06318   2.07162
 Alpha virt. eigenvalues --    2.07660   2.08810   2.09615   2.10327   2.10680
 Alpha virt. eigenvalues --    2.12346   2.13533   2.14030   2.14592   2.14926
 Alpha virt. eigenvalues --    2.15946   2.17222   2.19360   2.20679   2.21633
 Alpha virt. eigenvalues --    2.23425   2.23787   2.24577   2.24843   2.25739
 Alpha virt. eigenvalues --    2.26777   2.29041   2.30375   2.30538   2.31676
 Alpha virt. eigenvalues --    2.32365   2.32757   2.33530   2.35283   2.35776
 Alpha virt. eigenvalues --    2.36407   2.37782   2.41299   2.42014   2.44247
 Alpha virt. eigenvalues --    2.47381   2.47587   2.48694   2.50259   2.50641
 Alpha virt. eigenvalues --    2.52225   2.53261   2.54493   2.58027   2.59782
 Alpha virt. eigenvalues --    2.62407   2.64027   2.64243   2.66791   2.67788
 Alpha virt. eigenvalues --    2.68676   2.69135   2.70010   2.71287   2.72094
 Alpha virt. eigenvalues --    2.72902   2.73041   2.73731   2.74184   2.75147
 Alpha virt. eigenvalues --    2.76639   2.77395   2.77922   2.78625   2.80582
 Alpha virt. eigenvalues --    2.82047   2.86471   2.86996   2.88807   2.89820
 Alpha virt. eigenvalues --    2.91479   2.97853   2.99123   3.01632   3.03515
 Alpha virt. eigenvalues --    3.04560   3.08533   3.12770   3.14182   3.23608
 Alpha virt. eigenvalues --    3.25529   3.31070   3.39165   3.41308   3.41904
 Alpha virt. eigenvalues --    3.49620   3.60348   3.62186
          Condensed to atoms (all electrons):
 Mulliken charges:
               1
     1  C   -0.047720
     2  C   -0.038131
     3  C   -0.124004
     4  C    0.013446
     5  C    0.012518
     6  C   -0.108186
     7  C    0.105269
     8  O   -0.305862
     9  C    0.111812
    10  C    0.140744
    11  C   -0.090457
    12  C   -0.025039
    13  C   -0.098741
    14  C    0.131964
    15  C    0.084667
    16  N   -0.151994
    17  C   -0.100877
    18  C   -0.022522
    19  C    0.088594
    20  C   -0.126768
    21  C   -0.041369
    22  C   -0.040781
    23  C   -0.062083
    24  C   -0.089565
    25  C    0.128709
    26  O   -0.314117
    27  C   -0.196263
    28  N   -0.177005
    29  C   -0.083536
    30  C   -0.049201
    31  H    0.053820
    32  H    0.049740
    33  H    0.034857
    34  H    0.068802
    35  H    0.082976
    36  H    0.071716
    37  H    0.092609
    38  H    0.086118
    39  H    0.060115
    40  H    0.052796
    41  H    0.059629
    42  H    0.070086
    43  H    0.067009
    44  H    0.063170
    45  H    0.026225
    46  H    0.040153
    47  H    0.040116
    48  H    0.049933
    49  H    0.047247
    50  H    0.086992
    51  H    0.081897
    52  H    0.087206
    53  H    0.055699
    54  H    0.047583
 Sum of Mulliken charges =  -0.00000
 Mulliken charges with hydrogens summed into heavy atoms:
               1
     1  C    0.006100
     2  C    0.011609
     3  C   -0.089147
     4  C    0.013446
     5  C    0.164296
     6  C   -0.036469
     7  C    0.283997
     8  O   -0.305862
     9  C    0.111812
    10  C    0.140744
    11  C   -0.030342
    12  C    0.027758
    13  C   -0.039112
    14  C    0.131964
    15  C    0.084667
    16  N   -0.151994
    17  C   -0.030791
    18  C    0.107658
    19  C    0.088594
    20  C   -0.100543
    21  C   -0.001216
    22  C   -0.000665
    23  C   -0.012150
    24  C   -0.042318
    25  C    0.297598
    26  O   -0.314117
    27  C   -0.109057
    28  N   -0.177005
    29  C   -0.027837
    30  C   -0.001619
 Electronic spatial extent (au):  <R**2>=          12154.5885
 Charge=             -0.0000 electrons
 Dipole moment (field-independent basis, Debye):
    X=              0.5722    Y=             -0.1317    Z=              0.0376  Tot=              0.5884
 Quadrupole moment (field-independent basis, Debye-Ang):
   XX=           -152.9941   YY=           -173.0450   ZZ=           -172.7551
   XY=             -3.1281   XZ=             -9.1860   YZ=              6.1267
 Traceless Quadrupole moment (field-independent basis, Debye-Ang):
   XX=             13.2706   YY=             -6.7803   ZZ=             -6.4904
   XY=             -3.1281   XZ=             -9.1860   YZ=              6.1267
 Octapole moment (field-independent basis, Debye-Ang**2):
  XXX=             59.0819  YYY=            -45.3617  ZZZ=              6.0365  XYY=             -2.2971
  XXY=             -3.2763  XXZ=             41.8637  XZZ=             -5.3945  YZZ=            -13.3592
  YYZ=              8.2722  XYZ=             -4.6841
 Hexadecapole moment (field-independent basis, Debye-Ang**3):
 XXXX=          -8804.0414 YYYY=          -5649.7783 ZZZZ=          -1516.3665 XXXY=           -504.1966
 XXXZ=           -241.0766 YYYX=           -516.5984 YYYZ=           -364.9502 ZZZX=           -144.8754
 ZZZY=           -534.8728 XXYY=          -2608.3590 XXZZ=          -1803.6616 YYZZ=          -1143.8804
 XXYZ=           -147.9875 YYXZ=            -10.5833 ZZXY=           -116.5714
 N-N= 2.818693225759D+03 E-N=-8.572254161229D+03  KE= 1.252789468461D+03
 No NMR shielding tensors so no spin-rotation constants.
 Leave Link  601 at Mon Feb 26 00:39:40 2024, MaxMem=  7516192768 cpu:               7.5 elap:               0.2
 (Enter /public/apps/g16-C01//g16/l701.exe)
 ... and contract with generalized density number  0.
 Compute integral first derivatives.
 R6Disp: Adding Grimme-D3(BJ) dispersion energy 1st derivatives to the gradient.
   1 Symmetry operations used in ECPInt.
 ECPInt:  NShTT=   26106 NPrTT=  104658 LenC2=   23169 LenP2D=   60119.
 LDataN:  DoStor=T MaxTD1= 5 Len=  102
 Leave Link  701 at Mon Feb 26 00:39:40 2024, MaxMem=  7516192768 cpu:              16.4 elap:               0.5
 (Enter /public/apps/g16-C01//g16/l702.exe)
 L702 exits ... SP integral derivatives will be done elsewhere.
 Leave Link  702 at Mon Feb 26 00:39:40 2024, MaxMem=  7516192768 cpu:               0.5 elap:               0.0
 (Enter /public/apps/g16-C01//g16/l703.exe)
 Integral derivatives from FoFJK, PRISM(SPDF).
 Compute integral first derivatives, UseDBF=F ICtDFT=           0.
 Calling FoFJK, ICntrl=      2127 FMM=F ISym2X=0 I1Cent= 0 IOpClX= 0 NMat=1 NMatS=1 NMatT=0.
 FoFJK:  IHMeth= 1 ICntrl=    2127 DoSepK=F KAlg= 0 I1Cent=           0 FoldK=F
 IRaf=         0 NMat=       1 IRICut=       1 DoRegI=T DoRafI=F ISym2E= 0 IDoP0=0 IntGTp=1.
 FoFCou: FMM=F IPFlag=           0 FMFlag=      100000 FMFlg1=         800
         NFxFlg=           0 DoJE=F BraDBF=F KetDBF=F FulRan=T
         wScrn=  0.000000 ICntrl=      2127 IOpCl=  0 I1Cent=           0 NGrid=           0
         NMat0=    1 NMatS0=      1 NMatT0=    0 NMatD0=    1 NMtDS0=    0 NMtDT0=    0
 Symmetry not used in FoFCou.
 Leave Link  703 at Mon Feb 26 00:39:47 2024, MaxMem=  7516192768 cpu:             255.6 elap:               6.4
 (Enter /public/apps/g16-C01//g16/l716.exe)
 Dipole        = 2.25122160D-01-5.18197547D-02 1.48027265D-02
 -------------------------------------------------------------------
 Center     Atomic                   Forces (Hartrees/Bohr)
 Number     Number              X              Y              Z
 -------------------------------------------------------------------
      1        6           0.004220804    0.002865058   -0.001161195
      2        6           0.001453349    0.004607616    0.002567502
      3        6          -0.002074969    0.001389654    0.001179952
      4        6          -0.010759581   -0.002137132    0.000480421
      5        6           0.007226050   -0.002842509    0.002728798
      6        6           0.000940513    0.005897960    0.001776805
      7        6          -0.008301171   -0.001395842    0.002567297
      8        8           0.010699464    0.000531139   -0.002306538
      9        6          -0.002438243   -0.001719725    0.003577333
     10        6           0.001467259    0.004107601    0.004192735
     11        6          -0.001828134   -0.000196810    0.000109832
     12        6          -0.001775873   -0.002740098   -0.001758933
     13        6           0.003302572    0.000996252    0.000319958
     14        6           0.004106609   -0.002837908   -0.003490637
     15        6           0.004450675    0.000590047    0.000585664
     16        7          -0.008076052    0.004664429    0.009948479
     17        6           0.003317644   -0.001427527   -0.010031950
     18        6          -0.003597378   -0.002185538    0.011585768
     19        6           0.006892185   -0.002565374   -0.008843472
     20        6           0.002460662   -0.000332798   -0.000427567
     21        6           0.001959766    0.003006116    0.003883026
     22        6          -0.001494150    0.003285337    0.003297985
     23        6          -0.004704899    0.000097780   -0.000771301
     24        6          -0.003111624   -0.000688397   -0.001955396
     25        6           0.003936961    0.004623562    0.005060749
     26        8          -0.008022812   -0.008026458   -0.004816260
     27        6          -0.000244254   -0.000720082    0.000945140
     28        7          -0.005323318   -0.011183875   -0.008451677
     29        6          -0.000225849   -0.002528402   -0.003358503
     30        6           0.002761351   -0.002085607   -0.003317040
     31        1           0.008109137    0.005016732   -0.002636791
     32        1           0.001915189    0.008785519    0.003806450
     33        1          -0.005847478    0.003305927    0.006219009
     34        1          -0.006290935    0.004681507    0.002812426
     35        1          -0.005545591   -0.002976234   -0.005051025
     36        1          -0.005508825   -0.001758992    0.003094516
     37        1           0.000887466    0.005749240    0.001952681
     38        1          -0.000580263   -0.002040484    0.005542224
     39        1          -0.008988599   -0.003678471   -0.001371814
     40        1          -0.001292429   -0.008079570   -0.005741789
     41        1           0.007332165   -0.003529256   -0.004254769
     42        1           0.004100352    0.001158258    0.004543174
     43        1           0.007415913    0.002485884   -0.002525322
     44        1          -0.001313899   -0.001520467   -0.007548250
     45        1           0.009867539   -0.000414817   -0.000074096
     46        1           0.005174877    0.006147346    0.005988629
     47        1          -0.004936419    0.006543387    0.005853272
     48        1          -0.010044386    0.000164378   -0.000522031
     49        1          -0.005003278   -0.004975768   -0.005370280
     50        1           0.004798463   -0.003730769    0.002106094
     51        1           0.003092317    0.001451239   -0.005641007
     52        1           0.000827205    0.007120940    0.005105244
     53        1          -0.001475352   -0.007352209   -0.003548533
     54        1           0.006089273   -0.003601790   -0.006854985
 -------------------------------------------------------------------
 Cartesian Forces:  Max     0.011585768 RMS     0.004699375
 Leave Link  716 at Mon Feb 26 00:39:47 2024, MaxMem=  7516192768 cpu:               1.0 elap:               0.0
 (Enter /public/apps/g16-C01//g16/l103.exe)

 GradGradGradGradGradGradGradGradGradGradGradGradGradGradGradGradGradGrad
 Berny optimization.
 FormGI is forming the generalized inverse of G from B-inverse, IUseBI=4.
 GSVD:  received Info=                   1 from GESDD.
 Internal  Forces:  Max     0.015706812 RMS     0.004866018
 Search for a local minimum.
 Step number   1 out of a maximum of  316
 All quantities printed in internal units (Hartrees-Bohrs-Radians)
 RMS Force = .48660D-02 SwitMx=.10000D-02 MixMth= 1
 Mixed Optimization -- RFO/linear search
 Second derivative matrix not updated -- first step.
 ITU=  0
     Eigenvalues ---    0.00230   0.00242   0.00616   0.00630   0.00737
     Eigenvalues ---    0.00750   0.01331   0.01347   0.01631   0.01634
     Eigenvalues ---    0.01885   0.01892   0.01929   0.01956   0.02195
     Eigenvalues ---    0.02203   0.02227   0.02228   0.02237   0.02246
     Eigenvalues ---    0.02248   0.02258   0.02265   0.02270   0.02276
     Eigenvalues ---    0.02282   0.02286   0.02291   0.02295   0.02297
     Eigenvalues ---    0.02300   0.02300   0.02300   0.02301   0.02303
     Eigenvalues ---    0.02305   0.02306   0.02491   0.02507   0.04032
     Eigenvalues ---    0.04046   0.04357   0.04397   0.04846   0.04902
     Eigenvalues ---    0.05231   0.05330   0.05552   0.05573   0.05716
     Eigenvalues ---    0.05762   0.07601   0.07663   0.08900   0.08937
     Eigenvalues ---    0.10737   0.10786   0.11198   0.11209   0.12545
     Eigenvalues ---    0.12590   0.15315   0.15343   0.15996   0.15998
     Eigenvalues ---    0.15999   0.15999   0.15999   0.16000   0.16000
     Eigenvalues ---    0.16000   0.16000   0.16000   0.16000   0.16000
     Eigenvalues ---    0.16000   0.16000   0.19555   0.19824   0.21986
     Eigenvalues ---    0.21998   0.21999   0.21999   0.22000   0.22000
     Eigenvalues ---    0.22003   0.23456   0.23467   0.23472   0.23483
     Eigenvalues ---    0.24491   0.24613   0.24954   0.24961   0.24981
     Eigenvalues ---    0.24983   0.24990   0.24993   0.26642   0.26979
     Eigenvalues ---    0.27895   0.28555   0.32150   0.32253   0.34203
     Eigenvalues ---    0.34257   0.34387   0.34394   0.34425   0.34491
     Eigenvalues ---    0.34593   0.34643   0.34712   0.34732   0.35731
     Eigenvalues ---    0.35814   0.35893   0.35921   0.35925   0.35946
     Eigenvalues ---    0.35972   0.35977   0.36001   0.36005   0.36049
     Eigenvalues ---    0.36079   0.36178   0.36230   0.37306   0.37401
     Eigenvalues ---    0.37463   0.37741   0.41125   0.41207   0.42778
     Eigenvalues ---    0.43307   0.43361   0.43424   0.43477   0.43511
     Eigenvalues ---    0.46649   0.47183   0.47501   0.47712   0.47849
     Eigenvalues ---    0.47959   0.47981   0.48277   0.48331   0.48350
     Eigenvalues ---    0.48463   0.48520   0.49637   0.50629   0.72036
     Eigenvalues ---    0.72975
 RFO step:  Lambda=-1.93102032D-02 EMin= 2.30000000D-03
 Linear search not attempted -- first point.
 Iteration  1 RMS(Cart)=  0.10616629 RMS(Int)=  0.00142663
 Iteration  2 RMS(Cart)=  0.00619086 RMS(Int)=  0.00009634
 Iteration  3 RMS(Cart)=  0.00001554 RMS(Int)=  0.00009618
 Iteration  4 RMS(Cart)=  0.00000000 RMS(Int)=  0.00009618
 ITry= 1 IFail=0 DXMaxC= 5.55D-01 DCOld= 1.00D+10 DXMaxT= 3.00D-01 DXLimC= 3.00D+00 Rises=F
 Variable       Old X    -DE/DX   Delta X   Delta X   Delta X     New X
                                 (Linear)    (Quad)   (Total)
    R1        2.61553   0.01395   0.00000   0.02778   0.02778   2.64331
    R2        2.61628   0.01436   0.00000   0.02865   0.02865   2.64493
    R3        2.04117   0.00989   0.00000   0.02609   0.02609   2.06727
    R4        2.61514   0.01526   0.00000   0.03031   0.03031   2.64546
    R5        2.04249   0.00976   0.00000   0.02581   0.02581   2.06830
    R6        2.62654   0.01441   0.00000   0.02917   0.02918   2.65572
[...]
 16,0.00000248,-0.00000369,0.00000183,0.00000021,-0.00001012,0.00001649
 ,0.00000797,-0.00002212,0.00002161,-0.00002919,0.00687866,0.00439107,-
 0.01105145,-0.10342547,-0.07943154,0.24654730,0.00004120,0.00004987,-0
 .00001695,0.00000227,0.00004159,0.00001719,-0.00001579,-0.00000336,0.0
 0005708,0.00001848,-0.00001218,0.00002331,0.00001566,0.00001002,-0.000
 02449,0.00002894,-0.00004442,-0.00000652,-0.00066062,0.00066806,0.0006
 1879,-0.00024458,0.00073631,0.00077877,0.00024984,-0.00174406,-0.00262
 265,0.00186323,-0.02082556,-0.01741710,-0.00477028,-0.00176694,0.00065
 047,-0.00075541,0.00013079,0.00013482,-0.00406228,0.00033165,0.0025527
 3,0.00747845,0.01932590,0.01580368,-0.00026715,0.00176658,0.00097977,-
 0.00057335,0.00048662,0.00022958,-0.00026746,-0.00082279,-0.00042442,-
 0.00000194,0.00000487,0.00002870,0.00001604,-0.00003539,-0.00004907,-0
 .00005113,-0.00000313,-0.00001633,-0.00001926,0.00001603,0.00001017,-0
 .00001005,0.00003023,0.00003606,0.00013039,-0.00003112,-0.00003785,-0.
 00012511,-0.00000083,-0.00003532,0.00008390,-0.00005912,-0.00015072,0.
 00118115,-0.00060508,-0.00090882,-0.06004276,-0.02565620,-0.01813940,0
 .00060205,0.00038660,0.00054986,-0.00002973,-0.00009127,0.00001642,0.0
 0005986,-0.00000836,-0.00005488,-0.00001146,-0.00002629,0.00002506,0.0
 0000477,-0.00002427,-0.00001007,-0.00000718,0.00001592,-0.00000301,0.0
 0000172,-0.00002848,0.00000166,-0.00000068,-0.00001109,0.00003139,0.00
 006483,0.00001469,0.00006901,0.00004299,-0.00006747,-0.00002957,0.0001
 8644,-0.00001478,-0.00012029,0.00004685,-0.00107781,-0.00088573,0.0000
 2546,0.00008457,-0.00012340,0.00027013,0.00104655,0.00083289,0.0000180
 2,0.00002471,0.00004380,0.00001447,0.00003767,-0.00000879,-0.00001744,
 0.00000307,0.00000908,0.00000033,-0.00000969,0.00000059,-0.00000012,0.
 00000945,0.00000844,0.00000141,0.00001742,0.00001604,-0.00001764,0.000
 03747,0.00001853,0.00012520,-0.00010852,0.00011372,0.00004152,-0.00001
 345,0.00001300,0.00004750,-0.00003624,-0.00006083,0.05928753,-0.000074
 31,0.00003355,-0.00000295,-0.00000048,-0.00001239,-0.00005513,-0.00000
 170,0.00000311,-0.00002920,0.00003876,0.00003799,-0.00000848,-0.000022
 49,0.00002135,0.00001888,0.00020787,0.00032143,-0.00016259,-0.00005544
 ,0.00024060,0.00033572,0.00151733,-0.00008791,-0.00040319,0.00014680,-
 0.00215342,0.00150362,-0.00024462,-0.00319305,-0.00752324,-0.00197705,
 0.00307277,-0.00253547,-0.00008539,-0.00001099,0.00056557,0.00085504,0
 .00318543,-0.00277229,-0.00136796,-0.00341503,-0.00703467,-0.00003270,
 -0.00222356,0.00157686,-0.00145501,-0.00010038,0.00007706,0.00010560,0
 .00014685,0.00022455,-0.00003875,0.00003094,0.00003560,-0.00010328,0.0
 0010372,0.00004047,0.00003218,0.00000887,0.00003276,0.00004481,0.00000
 756,0.00000105,-0.00000775,-0.00003018,-0.00004283,0.00006784,0.000021
 00,-0.00002111,-0.00001556,-0.00004338,-0.00010946,-0.00011678,0.00004
 129,-0.00004656,0.00010583,-0.00004847,-0.00008865,-0.02595686,-0.2234
 8456,-0.14859846,0.00043619,-0.00002729,0.00005873,-0.00001823,-0.0000
 0995,0.00001659,0.00003628,-0.00001631,0.00004633,0.00000427,-0.000016
 53,0.00002064,0.00000501,-0.00001639,0.00000526,-0.00000033,0.00000325
 ,0.00000855,-0.00000615,-0.00000405,-0.00000483,-0.00001214,-0.0000103
 5,0.00000587,0.00008575,-0.00006205,0.00000729,0.00002837,-0.00002766,
 -0.00001793,-0.00000195,0.00000164,0.00000489,0.00012472,-0.00018177,-
 0.00027185,0.00007656,-0.00041638,0.00042157,-0.00018007,-0.00006061,-
 0.00025526,-0.00001678,0.00000817,-0.00001006,0.00001469,-0.00002384,-
 0.00000047,-0.00000452,-0.00001126,-0.00000296,0.00002290,0.00000903,0
 .00000564,0.00001006,0.00000420,0.00000456,0.00000132,0.00000977,0.000
 01249,0.00000746,-0.00005349,0.00000821,0.00000323,-0.00004687,0.00015
 233,-0.00001741,-0.00000994,0.00000928,-0.00000898,0.00002035,0.000026
 31,0.02785324,0.22846521,0.00009948,0.00001884,0.00008423,-0.00002916,
 0.00002607,0.00002491,0.00001491,0.00001412,-0.00003132,-0.00005817,-0
 .00001443,0.00004448,0.00003853,-0.00001697,-0.00004929,-0.00002844,-0
 .00034164,0.00025836,0.00012954,0.00017217,-0.00007532,0.00166850,-0.0
 0030541,-0.00062684,0.00002251,0.00165307,-0.00243890,-0.00042274,-0.0
 0282806,0.00250352,0.00025426,-0.00266074,0.00446193,0.00026879,0.0007
 1984,-0.00013856,0.00299562,-0.00300034,0.00308288,-0.00190103,-0.0109
 4094,-0.00390090,-0.00113296,0.00091298,-0.00275231,-0.00096138,-0.000
 23553,0.00026091,-0.00002317,0.00036971,0.00000504,0.00001183,0.000010
 94,0.00000745,-0.00000353,-0.00003840,-0.00003297,-0.00001435,0.000013
 62,-0.00000931,-0.00000407,-0.00002071,-0.00000887,0.00000076,-0.00001
 426,-0.00003989,-0.00007043,0.00001186,-0.00004233,0.00009312,0.000115
 26,0.00015934,-0.00009725,-0.00010439,0.00014428,-0.00004602,0.0000646
 6,0.00012266,-0.01761522,-0.14826896,-0.16465252,-0.00054161,0.0000111
 8,-0.00019489,0.00000316,-0.00012171,0.00003513,0.00007791,-0.00003902
 ,-0.00001755,-0.00001116,0.00002191,-0.00001383,0.00000303,-0.00001506
 ,-0.00000410,0.00002023,-0.00001145,-0.00000986,0.00002003,-0.00000579
 ,0.00000687,0.00001186,0.00001008,-0.00000489,-0.00005374,0.00005121,-
 0.00001305,-0.00000586,-0.00002516,0.00003310,0.00004204,0.00000698,-0
 .00002144,0.00009650,-0.00003642,0.00006682,-0.00011546,0.00041851,-0.
 00054519,-0.00017304,-0.00052086,-0.00018420,-0.00004296,0.00000228,-0
 .00000380,-0.00001654,-0.00001132,-0.00000253,0.00001588,-0.00000151,-
 0.00002440,-0.00001093,-0.00000690,-0.00000190,-0.00000336,-0.00000732
 ,-0.00000339,-0.00000358,-0.00001901,-0.00000614,0.00002229,-0.0000133
 9,0.00003092,0.00004098,0.00013750,-0.00012151,0.00000414,0.00002499,-
 0.00000504,-0.00003204,0.00002584,0.00001535,0.01748224,0.16480189,0.1
 6469674,-0.00171332,-0.00342759,0.00473429,-0.00071986,0.00041015,0.00
 026504,0.00009082,-0.00058004,0.00502562,0.00715374,0.01610468,0.00900
 124,0.00021795,0.00209101,-0.00113991,0.00049134,-0.00020340,0.0000840
 2,-0.00003108,0.00007084,-0.00000577,-0.00024549,-0.00013351,-0.000192
 68,0.00067850,0.00006103,-0.00034663,-0.00004923,-0.00011115,0.0000331
 5,0.00008000,0.00007136,0.00010674,-0.00005955,0.00000005,0.00008073,-
 0.00004267,0.00000964,0.00001161,0.00002634,0.00001118,0.00000797,-0.0
 0014576,-0.00007968,-0.00003590,0.00007517,0.00007264,0.00003683,-0.00
 004128,-0.00001954,0.00000691,0.00001675,-0.00000529,-0.00000781,0.000
 02405,-0.00001728,-0.00002117,-0.00001043,-0.00000070,-0.00000058,-0.0
 0000779,0.00000103,-0.00000026,-0.00000060,0.00001488,0.00000880,0.000
 00657,0.00000614,-0.00000417,-0.00001426,0.00001844,-0.00000609,-0.000
 03377,-0.00001322,-0.00001588,0.00006986,0.00003741,0.00001857,-0.0000
 9323,-0.00004492,0.00000190,-0.00056255,0.00007192,0.00029271,-0.06738
 127,-0.06059779,-0.02070687,-0.00137786,-0.02314173,-0.01207232,-0.000
 15877,-0.00106385,-0.00052364,-0.00027141,0.00026059,-0.00048305,0.000
 32892,0.00082056,0.00048796,-0.00006738,-0.00011124,-0.00023684,-0.000
 54151,-0.00026423,-0.00028816,-0.00005011,0.00011043,-0.00005332,-0.00
 001772,-0.00001180,-0.00002522,-0.00002391,-0.00002277,-0.00002598,0.0
 0003242,0.00001889,-0.00003875,0.00000116,0.00000621,-0.00001203,0.000
 00208,-0.00000109,-0.00000531,0.00001509,0.00000406,0.00000187,0.00000
 058,0.00001134,-0.00000121,-0.00000107,-0.00000236,0.00000438,-0.00000
 350,-0.00000296,-0.00000043,-0.00000152,0.00000051,0.00000100,-0.00000
 054,-0.00000082,0.00000194,-0.00000207,0.00000166,0.00001805,0.0000146
 8,-0.00003437,0.00000581,0.00000543,0.00000330,0.00000504,0.00000620,0
 .00000032,-0.00000346,0.00001137,-0.00000507,-0.00001378,0.06468788,-0
 .00396614,0.00172518,-0.00051724,0.00027470,0.00037685,0.00061061,0.00
 005154,0.00228242,-0.00298709,-0.00337641,-0.00629789,-0.00400430,-0.0
 0012127,-0.00095372,0.00181181,-0.00028186,0.00024456,-0.00024660,0.00
 013731,-0.00020929,-0.00005770,0.00003964,0.00038921,0.00006346,-0.000
 35106,-0.00138198,0.00084929,-0.00028829,0.00015153,0.00008596,0.00003
 161,0.00010431,-0.00001248,0.00003099,-0.00001782,-0.00004589,-0.00002
 299,-0.00002226,-0.00001069,-0.00003049,0.00000778,0.00002666,0.000030
 82,-0.00001274,-0.00002582,-0.00001206,0.00001488,0.00000290,0.0000045
 6,-0.00000523,0.00000469,0.00000260,-0.00000133,-0.00000541,0.00001189
 ,-0.00001180,-0.00000980,-0.00000745,-0.00000273,-0.00000153,-0.000006
 90,-0.00000113,-0.00000013,-0.00000542,0.00001405,0.00000541,0.0000149
 4,-0.00000230,-0.00001695,-0.00000297,0.00001666,0.00000359,0.00000893
 ,0.00000223,-0.00000290,-0.00002376,0.00000744,0.00001752,0.00002869,-
 0.00000458,-0.00003414,0.00058133,-0.00100906,0.00160755,-0.06125578,-
 0.26578177,-0.11627179,-0.00117725,-0.00879922,-0.00744815,-0.00004715
 ,-0.00037628,-0.00039980,0.00023912,-0.00028638,0.00031443,-0.00019141
 ,-0.00027123,-0.00013545,0.00014087,0.00001361,0.00012979,0.00059237,0
 .00063763,-0.00001213,-0.00003296,-0.00002892,0.00003583,-0.00002394,0
 .00000838,0.00003516,-0.00000757,0.00001535,0.00000352,0.00001171,-0.0
 0009581,0.00003848,0.00000647,0.00000611,-0.00000132,-0.00000686,-0.00
 000247,-0.00000050,-0.00000095,-0.00000079,-0.00000034,-0.00000507,0.0
 0000093,0.00000003,0.00000198,0.00000081,0.00000012,-0.00000514,-0.000
 00070,-0.00000048,-0.00000385,-0.00000217,-0.00000103,0.00000194,-0.00
 000120,-0.00000050,-0.00001289,0.00000479,0.00001918,0.00001572,-0.000
 02123,0.00000165,-0.00000275,0.00000202,-0.00000075,-0.00000136,-0.000
 00198,0.00000107,-0.00001129,-0.00000336,0.00000237,0.06779120,0.27979
 625,0.00384588,-0.00105080,0.00342403,0.00040116,0.00072826,-0.0005694
 1,0.00553522,-0.00259905,0.00016113,-0.00688783,-0.01997711,-0.0053708
 0,-0.00217165,0.00138212,-0.00105903,0.00129154,-0.00038940,-0.0005294
 9,0.00018732,-0.00007355,-0.00006887,0.00015075,0.00081195,0.00046805,
 -0.00127721,-0.00004817,-0.00140118,-0.00002898,-0.00012389,0.00017196
 ,0.00002448,0.00009990,0.00002481,0.00002028,0.00004506,0.00001009,0.0
 0007760,-0.00001668,-0.00004324,0.00004391,-0.00001744,-0.00004067,-0.
 00018492,-0.00009811,-0.00001898,0.00009742,0.00008670,0.00002364,-0.0
 0004575,-0.00002541,0.00000779,0.00001899,-0.00000579,0.00000377,0.000
 00703,-0.00000950,-0.00001599,-0.00000779,0.00000486,0.00000188,0.0000
 0024,0.00000110,-0.00000175,-0.00000658,0.00000188,0.00000308,0.000020
 89,0.00000387,0.00000416,-0.00001488,0.00000751,-0.00000266,-0.0000378
 3,-0.00002090,-0.00001044,0.00011477,0.00004481,-0.00000624,-0.0001147
 5,-0.00007251,-0.00004923,0.00008738,-0.00010881,0.00055232,-0.0197354
 4,-0.11328951,-0.10220749,0.00308898,0.00869794,0.00767775,0.00020350,
 0.00034782,0.00026183,-0.00044319,0.00029890,-0.00047867,-0.00018624,-
 0.00109280,-0.00038083,-0.00012410,-0.00003720,0.00029766,0.00041644,-
 0.00009356,-0.00018555,-0.00009372,0.00018201,-0.00010540,-0.00001937,
 0.00001265,0.00008867,-0.00002935,0.00000529,0.00005221,-0.00004001,0.
 00009661,0.00002141,0.00001378,-0.00002857,-0.00001175,0.00000767,-0.0
 0000950,0.00000085,0.00001562,0.00000498,0.00000078,0.00000264,0.00001
 232,-0.00000296,-0.00000289,-0.00000181,0.00000129,-0.00000174,-0.0000
 0242,0.00000059,-0.00000050,0.00000087,0.00000142,0.00000110,0.0000016
 3,0.00000458,0.00001466,-0.00000069,0.00000583,0.00000591,-0.00001249,
 0.00000843,0.00000718,0.00000427,0.00000472,0.00001145,0.00000257,-0.0
 0000564,-0.00002012,-0.00002365,0.00000188,0.01794262,0.12492309,0.100
 78661,0.00790086,-0.00393348,-0.00620100,0.00250553,-0.00301379,0.0013
 1876,-0.00037308,-0.00073362,-0.00072360,-0.00096774,-0.00520782,0.003
 07543,-0.00019382,0.00088381,0.00071600,-0.00011836,0.00014643,-0.0000
 3357,-0.00004680,-0.00002549,-0.00003918,0.00005759,-0.00006478,-0.000
 00696,-0.00008654,0.00009842,0.00005150,-0.00003291,0.00002511,0.00000
 097,-0.00000931,-0.00000737,-0.00002286,0.00000201,0.00000516,-0.00002
 076,0.00003376,0.00000499,0.00001242,0.00001235,-0.00003456,0.00000297
 ,0.00002607,0.00005709,0.00002645,-0.00000733,-0.00005254,-0.00000253,
 0.00000180,0.00001075,-0.00000615,-0.00001842,0.00000085,-0.00002576,0
 .00000242,0.00001857,0.00002233,0.00000330,-0.00000099,-0.00000264,0.0
 0000341,0.00000513,0.00000309,-0.00000013,0.00000461,-0.00000377,0.000
 02655,0.00000502,0.00001016,-0.00003478,-0.00005014,-0.00001654,-0.000
 00852,0.00000264,-0.00000149,0.00000887,-0.00002208,-0.00001384,0.0000
 1933,0.00003449,-0.00002481,0.00011930,-0.00005059,-0.00007490,-0.0099
 8669,0.01152080,0.01920812,-0.14688520,0.05406750,0.12413806,-0.000622
 92,0.00169381,-0.00148241,0.00031719,-0.00029150,-0.00025352,-0.000322
 80,0.00032698,-0.00034253,-0.00030451,-0.00014928,0.00013554,-0.000005
 16,-0.00003562,-0.00004994,0.00002805,-0.00006030,0.00002390,-0.000008
 01,0.00000529,-0.00002644,0.00001382,-0.00000930,0.00002056,-0.0000106
 0,-0.00000420,0.00001750,0.00000278,-0.00001536,0.00000059,0.00000335,
 0.00000172,0.00000259,-0.00000248,-0.00000451,0.00000365,0.00000975,-0
 .00000306,0.00000984,-0.00000492,0.00000356,0.00001268,0.00000595,0.00
 000160,0.00000153,0.00000267,0.00000217,0.00000337,0.00000059,0.000004
 65,0.00000488,-0.00000720,-0.00000576,0.00000016,-0.00000285,0.0000221
 6,-0.00000700,0.00000235,-0.00000461,0.00000212,-0.00000305,0.00000279
 ,0.00000031,-0.00001062,-0.00000435,-0.00000618,-0.00036740,0.00123234
 ,-0.00218155,0.14933251,0.01735512,-0.00517607,-0.02015813,-0.00387228
 ,-0.00259006,-0.00371489,-0.00053681,-0.00062363,0.00037533,-0.0042810
 5,0.00044085,-0.00127478,-0.00038178,0.00040350,0.00046131,-0.00005782
 ,0.00005134,-0.00000916,-0.00002858,0.00000065,0.00002331,0.00005434,-
 0.00001656,-0.00002395,-0.00013689,-0.00000163,0.00006230,-0.00002206,
 0.00006545,-0.00003100,-0.00004279,-0.00002297,-0.00003669,-0.00002022
 ,-0.00000595,-0.00003908,0.00004034,0.00000984,-0.00001585,0.00000143,
 0.00002942,-0.00002990,0.00014238,0.00007605,0.00002802,-0.00007064,-0
 .00007339,-0.00001858,0.00003576,0.00002920,-0.00000119,-0.00002970,-0
 .00000338,-0.00003765,-0.00000166,0.00000419,0.00002365,-0.00000682,-0
 .00000130,-0.00000027,0.00000149,0.00000135,0.00000206,-0.00001835,0.0
 0000814,0.00000617,0.00007549,-0.00000566,0.00001436,-0.00004680,-0.00
 003588,-0.00000560,0.00003009,0.00002004,0.00000394,-0.00007287,-0.000
 03410,-0.00000438,0.00001219,-0.00000920,0.00004061,0.00009316,-0.0000
 3484,0.00000765,-0.01034988,0.00945728,0.01216516,0.05461065,-0.092075
 85,-0.08190844,0.00111840,0.00005489,0.00208406,0.00074695,-0.00035157
 ,-0.00095314,0.00034659,-0.00018498,0.00036285,-0.00017051,-0.00013439
 ,0.00015225,0.00003431,0.00002531,-0.00002538,0.00002092,-0.00001496,-
 0.00000536,-0.00000145,-0.00000826,-0.00000239,0.00000844,0.00000183,-
 0.00000177,-0.00000389,-0.00000622,0.00001052,0.00000125,-0.00000458,0
 .00000610,0.00000183,0.00000406,0.00000575,-0.00001107,-0.00001065,0.0
 0000345,-0.00000044,-0.00000741,0.00000979,-0.00000221,0.00001693,0.00
 001266,-0.00000033,0.00000367,-0.00000062,-0.00000305,0.00000087,-0.00
 000084,0.00000501,0.00000660,0.00000411,0.00001692,0.00000934,0.000020
 43,0.00001119,0.00001796,-0.00003079,-0.00000501,-0.00000499,-0.000001
 71,-0.00001023,0.00000017,0.00000481,0.00000930,0.00000333,0.00000785,
 0.00181492,-0.00021565,0.00142036,-0.05640331,0.09091188,0.00921904,-0
 .00290467,-0.00556287,0.00086586,-0.00447225,0.00304130,-0.00079477,0.
 00029759,0.00022255,0.00326345,-0.00072108,0.00419299,0.00009551,-0.00
 029313,-0.00008418,0.00011911,-0.00008060,-0.00000223,0.00004731,-0.00
 006444,-0.00000897,-0.00015594,0.00008030,0.00002997,0.00039294,-0.000
 10861,-0.00013111,0.00008633,-0.00006137,0.00006890,0.00001045,0.00003
 843,0.00002743,-0.00000652,0.00000687,0.00000639,-0.00003916,0.0000375
 3,0.00005170,-0.00004309,-0.00001678,0.00007091,-0.00014811,0.00002437
 ,-0.00000213,0.00007310,-0.00001210,0.00004871,-0.00005095,-0.00001224
 ,-0.00000266,-0.00001318,-0.00000511,-0.00005903,0.00003633,0.00002220
 ,0.00002341,-0.00000730,-0.00000584,-0.00000668,-0.00000468,0.00000886
 ,0.00000612,-0.00002437,0.00003649,0.00001466,0.00011086,0.00001221,0.
 00001272,-0.00012218,-0.00008892,-0.00008461,-0.00004900,-0.00001008,-
 0.00002247,0.00008386,0.00001297,-0.00000341,0.00000538,-0.00005534,-0
 .00002359,-0.00021048,0.00014290,-0.00006445,0.00420643,-0.00459904,-0
 .00270092,0.12383266,-0.08186079,-0.19417422,-0.00186954,0.00167101,-0
 .00142920,0.00052190,-0.00018548,-0.00029681,-0.00034137,0.00032798,-0
 .00056443,0.00008401,0.00013551,-0.00013902,-0.00000410,0.00000287,-0.
 00001762,-0.00003036,0.00004651,-0.00000586,-0.00000552,0.00001613,0.0
 0003389,-0.00001704,0.00001381,-0.00000494,0.00000199,-0.00001836,-0.0
 0001158,-0.00000277,-0.00000671,-0.00000448,0.00000015,0.00000201,-0.0
 0000634,0.00001543,-0.00000188,0.00000785,0.00001420,0.00000902,0.0000
 1515,-0.00001339,0.00000297,0.00003138,0.00000346,0.00000150,0.0000035
 6,-0.00000139,0.00000349,0.00000534,0.00000647,0.00001255,0.00001285,-
 0.00001228,0.00000319,0.00002366,0.00001869,-0.00004795,-0.00002914,0.
 00000922,-0.00000218,0.00000786,0.00000294,0.00000349,-0.00000294,0.00
 001350,-0.00000727,-0.00006978,-0.00191758,0.00165675,-0.00150695,-0.1
 3725555,0.09101270,0.19906332\\0.00000018,0.00000222,0.00000524,0.0000
 0270,0.00000238,-0.00000210,-0.00000316,-0.00000117,-0.00000031,0.0000
 0235,0.00000201,-0.00000097,-0.00000037,-0.00000348,0.00000617,-0.0000
 0197,0.00000465,-0.00000071,-0.00001552,0.00000677,0.00000965,0.000006
 55,-0.00000917,-0.00000330,-0.00000131,0.00000909,-0.00000328,-0.00000
 064,-0.00000338,-0.00000311,-0.00000333,-0.00000006,0.00000171,0.00000
 299,-0.00000192,-0.00000074,-0.00000069,-0.00000491,-0.00000009,-0.000
 00191,0.00000456,-0.00000039,-0.00000410,0.00000155,0.00001317,-0.0000
 1766,-0.00001203,-0.00000521,0.00002984,0.00000727,-0.00001286,-0.0000
 0019,-0.00000496,0.00000202,-0.00000170,-0.00000062,-0.00000050,0.0000
 0254,0.00000469,0.00000284,0.00000371,-0.00000075,-0.00000109,-0.00000
 448,0.00000152,0.00000030,0.00000117,-0.00000157,-0.00000028,-0.000004
 49,-0.00000158,0.00000076,0.00000275,0.00001121,0.00000956,-0.00000051
 ,-0.00000222,-0.00000998,0.00000139,0.00000172,-0.00000155,0.00000526,
 -0.00000534,0.00000275,0.00000168,-0.00000063,-0.00000294,-0.00000102,
 -0.00000343,-0.00000174,-0.00000134,-0.00000105,-0.00000144,0.00000047
 ,-0.00000260,0.00000137,0.00000087,0.00000014,-0.00000199,-0.00000106,
 -0.00000044,-0.00000152,0.00000050,0.00000382,-0.00000033,0.00000513,-
 0.00000393,-0.00000009,0.00000150,-0.00000527,-0.00000089,0.00000099,0
 .00000129,-0.00000118,0.00000270,0.00000005,0.00000013,0.00000007,0.00
 000181,0.00000059,-0.00000086,0.00000173,0.00000042,-0.00000460,-0.000
 00174,-0.00000020,-0.00000107,-0.00000038,-0.00000037,0.00000099,0.000
 00172,0.00000139,-0.00000232,-0.00000019,-0.00000039,-0.00000134,-0.00
 000122,-0.00000070,0.00000047,-0.00000164,-0.00000101,-0.00000030,0.00
 000227,0.00000070,0.00000254,0.00000102,-0.00000005,-0.00000088,0.0000
 0262,0.00000039,-0.00000108,-0.00000172,0.00000046,-0.00000069,-0.0000
 0086,-0.00000210,-0.00000028,0.00000081,0.00000196,-0.00000050,0.00000
 137,0.00000183\\\@
 The archive entry for this job was punched.


 LORD, MAN... WERE YE BUT WHYLES WHERE I AM, 
 THE GENTILES YE WAD NE'ER ENVY 'EM.        
 IT'S TRUE, THEY NEEDNA STARVE OR SWEAT,     
 THRO' WINTER'S CAULD OR SIMMER'S HEAT...  
 THEY'VE NAE SAIR WARK TO CRAZE THEIR BANES, 
 AND FILL AULD AGE WITH GRIPS AN' GRANES...  
                                             
 BUT HUMAN BODIES ARE SIC FOOLS              
 FOR A' THEIR COLLEGES AND SCHOOLS,           
 THAT WHEN NAE REAL ILLS PERPLEX THEM,       
 THEY MAK ENOW THEMSELVES TO VEX THEM,       
 AN' AYE THE LESS THEY HAE TO STURT THEM,    
 IN LIKE PROPORTION LESS WILL HURT THEM....  
                                             
                (ROBERT BURNS 'THE TWA DOGS')
 Job cpu time:       0 days  4 hours 11 minutes  6.8 seconds.
 Elapsed time:       0 days  0 hours  6 minutes 18.6 seconds.
 File lengths (MBytes):  RWF=   1396 Int=      0 D2E=      0 Chk=     21 Scr=      1
 Normal termination of Gaussian 16 at Mon Feb 26 00:55:19 2024.
