 Entering Gaussian System, Link 0=g16
 Initial command:
 /public/apps/g16-C01//g16/l1.exe "/public/home/ljq/tmp/Gau-35013.inp" -scrdir="/public/home/ljq/tmp/"
 Entering Link 1 = /public/apps/g16-C01//g16/l1.exe PID=     35014.
  
 Copyright (c) 1988-2019, Gaussian, Inc.  All Rights Reserved.
  
 This is part of the Gaussian(R) 16 program.  It is based on
 the Gaussian(R) 09 system (copyright 2009, Gaussian, Inc.),
 the Gaussian(R) 03 system (copyright 2003, Gaussian, Inc.),
 the Gaussian(R) 98 system (copyright 1998, Gaussian, Inc.),
 the Gaussian(R) 94 system (copyright 1995, Gaussian, Inc.),
 the Gaussian 92(TM) system (copyright 1992, Gaussian, Inc.),
 the Gaussian 90(TM) system (copyright 1990, Gaussian, Inc.),
 the Gaussian 88(TM) system (copyright 1988, Gaussian, Inc.),
 the Gaussian 86(TM) system (copyright 1986, Carnegie Mellon
 University), and the Gaussian 82(TM) system (copyright 1983,
 Carnegie Mellon University). Gaussian is a federally registered
 trademark of Gaussian, Inc.
  
 This software contains proprietary and confidential information,
 including trade secrets, belonging to Gaussian, Inc.
  
 This software is provided under written license and may be
 used, copied, transmitted, or stored only in accord with that
 written license.
  
 The following legend is applicable only to US Government
 contracts under FAR:
  
                    RESTRICTED RIGHTS LEGEND
  
 Use, reproduction and disclosure by the US Government is
 subject to restrictions as set forth in subparagraphs (a)
 and (c) of the Commercial Computer Software - Restricted
 Rights clause in FAR 52.227-19.
  
 Gaussian, Inc.
 340 Quinnipiac St., Bldg. 40, Wallingford CT 06492
  
  
 ---------------------------------------------------------------
 Warning -- This program may not be used in any manner that
 competes with the business of Gaussian, Inc. or will provide
 assistance to any competitor of Gaussian, Inc.  The licensee
 of this program is prohibited from giving any competitor of
 Gaussian, Inc. access to this program.  By using this program,
 the user acknowledges that Gaussian, Inc. is engaged in the
 business of creating and licensing software in the field of
 computational chemistry and represents and warrants to the
 licensee that it is not a competitor of Gaussian, Inc. and that
 it will not use this program in any manner prohibited above.
 ---------------------------------------------------------------
  

 Cite this work as:
 Gaussian 16, Revision C.01,
 M. J. Frisch, G. W. Trucks, H. B. Schlegel, G. E. Scuseria, 
 M. A. Robb, J. R. Cheeseman, G. Scalmani, V. Barone, 
 G. A. Petersson, H. Nakatsuji, X. Li, M. Caricato, A. V. Marenich, 
 J. Bloino, B. G. Janesko, R. Gomperts, B. Mennucci, H. P. Hratchian, 
 J. V. Ortiz, A. F. Izmaylov, J. L. Sonnenberg, D. Williams-Young, 
 F. Ding, F. Lipparini, F. Egidi, J. Goings, B. Peng, A. Petrone, 
 T. Henderson, D. Ranasinghe, V. G. Zakrzewski, J. Gao, N. Rega, 
 G. Zheng, W. Liang, M. Hada, M. Ehara, K. Toyota, R. Fukuda, 
 J. Hasegawa, M. Ishida, T. Nakajima, Y. Honda, O. Kitao, H. Nakai, 
 T. Vreven, K. Throssell, J. A. Montgomery, Jr., J. E. Peralta, 
 F. Ogliaro, M. J. Bearpark, J. J. Heyd, E. N. Brothers, K. N. Kudin, 
 V. N. Staroverov, T. A. Keith, R. Kobayashi, J. Normand, 
 K. Raghavachari, A. P. Rendell, J. C. Burant, S. S. Iyengar, 
 J. Tomasi, M. Cossi, J. M. Millam, M. Klene, C. Adamo, R. Cammi, 
 J. W. Ochterski, R. L. Martin, K. Morokuma, O. Farkas, 
 J. B. Foresman, and D. J. Fox, Gaussian, Inc., Wallingford CT, 2019.
 
 ******************************************
 Gaussian 16:  ES64L-G16RevC.01  3-Jul-2019
                25-Feb-2024 
 ******************************************
 %nproc=40
 Will use up to   40 processors via shared memory.
 %mem=56GB
 ------------------------------------------
 #p opt freq b3lyp/def2svpp em=gd3bj nosymm
 ------------------------------------------
 1/18=20,19=15,26=3,38=1/1,3;
 2/9=110,12=2,15=1,17=6,18=5,40=1/2;
 3/5=43,7=202,11=2,25=1,30=1,71=1,74=-5,124=41/1,2,3;
 4//1;
 5/5=2,38=5/2;
 6/7=2,8=2,9=2,10=2,28=1/1;
 7/30=1/1,2,3,16;
 1/18=20,19=15,26=3/3(2);
 2/9=110,15=1/2;
 99//99;
 2/9=110,15=1/2;
 3/5=43,7=202,11=2,25=1,30=1,71=1,74=-5,124=41/1,2,3;
 4/5=5,16=3,69=1/1;
 5/5=2,38=5/2;
 7/30=1/1,2,3,16;
 1/18=20,19=15,26=3/3(-5);
 2/9=110,15=1/2;
 6/7=2,8=2,9=2,10=2,19=2,28=1/1;
 99/9=1/99;
 Leave Link    1 at Sun Feb 25 22:54:31 2024, MaxMem=  7516192768 cpu:               2.1 elap:               0.1
 (Enter /public/apps/g16-C01//g16/l101.exe)
 ----------------------
 $$$$Singlemol####0????
 ----------------------
 Symbolic Z-matrix:
 Charge =  0 Multiplicity = 1
 F                     4.62043  -1.31819   0.18372 
 C                     3.77001  -0.57645  -0.54048 
 F                     4.51937   0.33912  -1.18201 
 F                     3.26434  -1.38122  -1.48442 
 C                     2.70131   0.07089   0.30173 
 C                     2.93384   0.34424   1.64484 
 C                     1.91661   0.96599   2.35746 
 N                     0.75919   1.30445   1.82844 
 C                     0.54267   1.04303   0.54671 
 C                    -0.75551   1.40958  -0.0185 
 N                    -1.05246   1.24328  -1.24287 
 C                    -2.43266   1.62578  -1.41834 
 C                    -3.2722    0.39986  -1.83832 
 C                    -3.23786  -0.66775  -0.78363 
 C                    -4.29917  -0.84054   0.09589 
 C                    -4.23048  -1.78248   1.10785 
 C                    -3.09576  -2.56035   1.25587 
 C                    -2.03662  -2.40268   0.37777 
 C                    -2.10928  -1.46636  -0.63708 
 C                    -2.82473   2.20268  -0.03126 
 O                    -1.68968   1.94197   0.78806 
 C                     1.4911    0.42374  -0.27125 
 H                     3.86745   0.07794   2.11391 
 H                     2.0384    1.20389   3.40518 
 H                    -2.49564   2.3775   -2.21145 
 H                    -4.29625   0.7305   -2.01961 
 H                    -2.85162   0.02016  -2.77042 
 H                    -5.19289  -0.24129  -0.01717 
 H                    -5.06406  -1.90607   1.7838 
 H                    -3.03875  -3.29033   2.0497 
 H                    -1.1509   -3.01232   0.48296 
 H                    -1.28379  -1.34397  -1.32253 
 H                    -2.99655   3.28268  -0.05642 
 H                    -3.69052   1.70301   0.40745 
 H                     1.2639    0.23528  -1.30745 
 
 ITRead=  0  0  0  0  0  0  0  0  0  0  0  0  0  0  0  0  0  0  0  0
 ITRead=  0  0  0  0  0  0  0  0  0  0  0  0  0  0  0
 MicOpt= -1 -1 -1 -1 -1 -1 -1 -1 -1 -1 -1 -1 -1 -1 -1 -1 -1 -1 -1 -1
 MicOpt= -1 -1 -1 -1 -1 -1 -1 -1 -1 -1 -1 -1 -1 -1 -1
 NAtoms=     35 NQM=       35 NQMF=       0 NMMI=      0 NMMIF=      0
                NMic=       0 NMicF=      0.
                    Isotopes and Nuclear Properties:
 (Nuclear quadrupole moments (NQMom) in fm**2, nuclear magnetic moments (NMagM)
  in nuclear magnetons)

  Atom         1           2           3           4           5           6           7           8           9          10
 IAtWgt=          19          12          19          19          12          12          12          14          12          12
 AtmWgt=  18.9984032  12.0000000  18.9984032  18.9984032  12.0000000  12.0000000  12.0000000  14.0030740  12.0000000  12.0000000
 NucSpn=           1           0           1           1           0           0           0           2           0           0
 AtZEff=  -0.0000000  -0.0000000  -0.0000000  -0.0000000  -0.0000000  -0.0000000  -0.0000000  -0.0000000  -0.0000000  -0.0000000
 NQMom=    0.0000000   0.0000000   0.0000000   0.0000000   0.0000000   0.0000000   0.0000000   2.0440000   0.0000000   0.0000000
 NMagM=    2.6288670   0.0000000   2.6288670   2.6288670   0.0000000   0.0000000   0.0000000   0.4037610   0.0000000   0.0000000
 AtZNuc=   9.0000000   6.0000000   9.0000000   9.0000000   6.0000000   6.0000000   6.0000000   7.0000000   6.0000000   6.0000000

  Atom        11          12          13          14          15          16          17          18          19          20
 IAtWgt=          14          12          12          12          12          12          12          12          12          12
 AtmWgt=  14.0030740  12.0000000  12.0000000  12.0000000  12.0000000  12.0000000  12.0000000  12.0000000  12.0000000  12.0000000
 NucSpn=           2           0           0           0           0           0           0           0           0           0
 AtZEff=  -0.0000000  -0.0000000  -0.0000000  -0.0000000  -0.0000000  -0.0000000  -0.0000000  -0.0000000  -0.0000000  -0.0000000
 NQMom=    2.0440000   0.0000000   0.0000000   0.0000000   0.0000000   0.0000000   0.0000000   0.0000000   0.0000000   0.0000000
 NMagM=    0.4037610   0.0000000   0.0000000   0.0000000   0.0000000   0.0000000   0.0000000   0.0000000   0.0000000   0.0000000
 AtZNuc=   7.0000000   6.0000000   6.0000000   6.0000000   6.0000000   6.0000000   6.0000000   6.0000000   6.0000000   6.0000000

  Atom        21          22          23          24          25          26          27          28          29          30
 IAtWgt=          16          12           1           1           1           1           1           1           1           1
 AtmWgt=  15.9949146  12.0000000   1.0078250   1.0078250   1.0078250   1.0078250   1.0078250   1.0078250   1.0078250   1.0078250
 NucSpn=           0           0           1           1           1           1           1           1           1           1
 AtZEff=  -0.0000000  -0.0000000  -0.0000000  -0.0000000  -0.0000000  -0.0000000  -0.0000000  -0.0000000  -0.0000000  -0.0000000
 NQMom=    0.0000000   0.0000000   0.0000000   0.0000000   0.0000000   0.0000000   0.0000000   0.0000000   0.0000000   0.0000000
 NMagM=    0.0000000   0.0000000   2.7928460   2.7928460   2.7928460   2.7928460   2.7928460   2.7928460   2.7928460   2.7928460
 AtZNuc=   8.0000000   6.0000000   1.0000000   1.0000000   1.0000000   1.0000000   1.0000000   1.0000000   1.0000000   1.0000000

  Atom        31          32          33          34          35
 IAtWgt=           1           1           1           1           1
 AtmWgt=   1.0078250   1.0078250   1.0078250   1.0078250   1.0078250
 NucSpn=           1           1           1           1           1
 AtZEff=  -0.0000000  -0.0000000  -0.0000000  -0.0000000  -0.0000000
 NQMom=    0.0000000   0.0000000   0.0000000   0.0000000   0.0000000
 NMagM=    2.7928460   2.7928460   2.7928460   2.7928460   2.7928460
 AtZNuc=   1.0000000   1.0000000   1.0000000   1.0000000   1.0000000
 Leave Link  101 at Sun Feb 25 22:54:32 2024, MaxMem=  7516192768 cpu:               7.1 elap:               0.3
 (Enter /public/apps/g16-C01//g16/l103.exe)

 GradGradGradGradGradGradGradGradGradGradGradGradGradGradGradGradGradGrad
 Berny optimization.
 Initialization pass.
                           ----------------------------
                           !    Initial Parameters    !
                           ! (Angstroms and Degrees)  !
 --------------------------                            --------------------------
 ! Name  Definition              Value          Derivative Info.                !
 --------------------------------------------------------------------------------
 ! R1    R(1,2)                  1.3408         estimate D2E/DX2                !
 ! R2    R(2,3)                  1.3459         estimate D2E/DX2                !
 ! R3    R(2,4)                  1.3395         estimate D2E/DX2                !
 ! R4    R(2,5)                  1.5068         estimate D2E/DX2                !
 ! R5    R(5,6)                  1.3902         estimate D2E/DX2                !
 ! R6    R(5,22)                 1.3847         estimate D2E/DX2                !
 ! R7    R(6,7)                  1.3889         estimate D2E/DX2                !
 ! R8    R(6,23)                 1.0782         estimate D2E/DX2                !
 ! R9    R(7,8)                  1.3168         estimate D2E/DX2                !
 ! R10   R(7,24)                 1.0813         estimate D2E/DX2                !
 ! R11   R(8,9)                  1.3259         estimate D2E/DX2                !
 ! R12   R(9,10)                 1.4626         estimate D2E/DX2                !
 ! R13   R(9,22)                 1.3972         estimate D2E/DX2                !
 ! R14   R(10,11)                1.2708         estimate D2E/DX2                !
 ! R15   R(10,21)                1.3441         estimate D2E/DX2                !
 ! R16   R(11,12)                1.4429         estimate D2E/DX2                !
 ! R17   R(12,13)                1.544          estimate D2E/DX2                !
 ! R18   R(12,20)                1.5526         estimate D2E/DX2                !
 ! R19   R(12,25)                1.0946         estimate D2E/DX2                !
 ! R20   R(13,14)                1.5011         estimate D2E/DX2                !
 ! R21   R(13,26)                1.0913         estimate D2E/DX2                !
 ! R22   R(13,27)                1.0908         estimate D2E/DX2                !
 ! R23   R(14,15)                1.3892         estimate D2E/DX2                !
 ! R24   R(14,19)                1.3903         estimate D2E/DX2                !
 ! R25   R(15,16)                1.3842         estimate D2E/DX2                !
 ! R26   R(15,28)                1.0819         estimate D2E/DX2                !
 ! R27   R(16,17)                1.3837         estimate D2E/DX2                !
 ! R28   R(16,29)                1.0803         estimate D2E/DX2                !
 ! R29   R(17,18)                1.3848         estimate D2E/DX2                !
 ! R30   R(17,30)                1.08           estimate D2E/DX2                !
 ! R31   R(18,19)                1.3827         estimate D2E/DX2                !
 ! R32   R(18,31)                1.0804         estimate D2E/DX2                !
 ! R33   R(19,32)                1.0799         estimate D2E/DX2                !
 ! R34   R(20,21)                1.4239         estimate D2E/DX2                !
 ! R35   R(20,33)                1.0939         estimate D2E/DX2                !
 ! R36   R(20,34)                1.0917         estimate D2E/DX2                !
 ! R37   R(22,35)                1.0774         estimate D2E/DX2                !
 ! A1    A(1,2,3)              106.2983         estimate D2E/DX2                !
 ! A2    A(1,2,4)              106.7188         estimate D2E/DX2                !
 ! A3    A(1,2,5)              112.6814         estimate D2E/DX2                !
 ! A4    A(3,2,4)              106.4382         estimate D2E/DX2                !
 ! A5    A(3,2,5)              111.6585         estimate D2E/DX2                !
 ! A6    A(4,2,5)              112.5958         estimate D2E/DX2                !
 ! A7    A(2,5,6)              120.3864         estimate D2E/DX2                !
 ! A8    A(2,5,22)             119.8715         estimate D2E/DX2                !
 ! A9    A(6,5,22)             119.7258         estimate D2E/DX2                !
 ! A10   A(5,6,7)              117.4643         estimate D2E/DX2                !
 ! A11   A(5,6,23)             121.1019         estimate D2E/DX2                !
 ! A12   A(7,6,23)             121.4331         estimate D2E/DX2                !
 ! A13   A(6,7,8)              123.5496         estimate D2E/DX2                !
 ! A14   A(6,7,24)             120.8734         estimate D2E/DX2                !
 ! A15   A(8,7,24)             115.577          estimate D2E/DX2                !
 ! A16   A(7,8,9)              118.7643         estimate D2E/DX2                !
 ! A17   A(8,9,10)             117.9767         estimate D2E/DX2                !
 ! A18   A(8,9,22)             122.8519         estimate D2E/DX2                !
 ! A19   A(10,9,22)            119.1672         estimate D2E/DX2                !
 ! A20   A(9,10,11)            123.158          estimate D2E/DX2                !
 ! A21   A(9,10,21)            118.964          estimate D2E/DX2                !
 ! A22   A(11,10,21)           117.877          estimate D2E/DX2                !
 ! A23   A(10,11,12)           107.8174         estimate D2E/DX2                !
 ! A24   A(11,12,13)           110.041          estimate D2E/DX2                !
 ! A25   A(11,12,20)           103.3801         estimate D2E/DX2                !
 ! A26   A(11,12,25)           108.978          estimate D2E/DX2                !
 ! A27   A(13,12,20)           113.6228         estimate D2E/DX2                !
 ! A28   A(13,12,25)           108.4753         estimate D2E/DX2                !
 ! A29   A(20,12,25)           112.1873         estimate D2E/DX2                !
 ! A30   A(12,13,14)           111.1696         estimate D2E/DX2                !
 ! A31   A(12,13,26)           108.3524         estimate D2E/DX2                !
 ! A32   A(12,13,27)           107.4068         estimate D2E/DX2                !
 ! A33   A(14,13,26)           110.7126         estimate D2E/DX2                !
 ! A34   A(14,13,27)           110.12           estimate D2E/DX2                !
 ! A35   A(26,13,27)           108.9852         estimate D2E/DX2                !
 ! A36   A(13,14,15)           121.0521         estimate D2E/DX2                !
 ! A37   A(13,14,19)           120.0768         estimate D2E/DX2                !
 ! A38   A(15,14,19)           118.8155         estimate D2E/DX2                !
 ! A39   A(14,15,16)           120.6363         estimate D2E/DX2                !
 ! A40   A(14,15,28)           119.7374         estimate D2E/DX2                !
 ! A41   A(16,15,28)           119.6227         estimate D2E/DX2                !
 ! A42   A(15,16,17)           120.0965         estimate D2E/DX2                !
 ! A43   A(15,16,29)           119.802          estimate D2E/DX2                !
 ! A44   A(17,16,29)           120.1012         estimate D2E/DX2                !
 ! A45   A(16,17,18)           119.6941         estimate D2E/DX2                !
 ! A46   A(16,17,30)           120.1272         estimate D2E/DX2                !
 ! A47   A(18,17,30)           120.178          estimate D2E/DX2                !
 ! A48   A(17,18,19)           120.1533         estimate D2E/DX2                !
 ! A49   A(17,18,31)           120.0686         estimate D2E/DX2                !
 ! A50   A(19,18,31)           119.7781         estimate D2E/DX2                !
 ! A51   A(14,19,18)           120.5962         estimate D2E/DX2                !
 ! A52   A(14,19,32)           119.2414         estimate D2E/DX2                !
 ! A53   A(18,19,32)           120.1614         estimate D2E/DX2                !
 ! A54   A(12,20,21)           104.1659         estimate D2E/DX2                !
 ! A55   A(12,20,33)           112.7045         estimate D2E/DX2                !
 ! A56   A(12,20,34)           112.9072         estimate D2E/DX2                !
 ! A57   A(21,20,33)           108.6147         estimate D2E/DX2                !
 ! A58   A(21,20,34)           108.4909         estimate D2E/DX2                !
 ! A59   A(33,20,34)           109.6687         estimate D2E/DX2                !
 ! A60   A(10,21,20)           106.3347         estimate D2E/DX2                !
 ! A61   A(5,22,9)             117.6434         estimate D2E/DX2                !
 ! A62   A(5,22,35)            122.5262         estimate D2E/DX2                !
 ! A63   A(9,22,35)            119.8301         estimate D2E/DX2                !
 ! D1    D(1,2,5,6)             26.1966         estimate D2E/DX2                !
 ! D2    D(1,2,5,22)          -155.2719         estimate D2E/DX2                !
 ! D3    D(3,2,5,6)            -93.3564         estimate D2E/DX2                !
 ! D4    D(3,2,5,22)            85.175          estimate D2E/DX2                !
 ! D5    D(4,2,5,6)            146.9699         estimate D2E/DX2                !
 ! D6    D(4,2,5,22)           -34.4986         estimate D2E/DX2                !
 ! D7    D(2,5,6,7)            178.7515         estimate D2E/DX2                !
 ! D8    D(2,5,6,23)            -1.5537         estimate D2E/DX2                !
 ! D9    D(22,5,6,7)             0.2179         estimate D2E/DX2                !
 ! D10   D(22,5,6,23)          179.9127         estimate D2E/DX2                !
 ! D11   D(2,5,22,9)          -178.8628         estimate D2E/DX2                !
 ! D12   D(2,5,22,35)            1.3334         estimate D2E/DX2                !
 ! D13   D(6,5,22,9)            -0.3216         estimate D2E/DX2                !
 ! D14   D(6,5,22,35)          179.8746         estimate D2E/DX2                !
 ! D15   D(5,6,7,8)             -0.031          estimate D2E/DX2                !
 ! D16   D(5,6,7,24)           179.9867         estimate D2E/DX2                !
 ! D17   D(23,6,7,8)          -179.7247         estimate D2E/DX2                !
 ! D18   D(23,6,7,24)            0.293          estimate D2E/DX2                !
 ! D19   D(6,7,8,9)             -0.043          estimate D2E/DX2                !
 ! D20   D(24,7,8,9)           179.9401         estimate D2E/DX2                !
 ! D21   D(7,8,9,10)           179.1746         estimate D2E/DX2                !
 ! D22   D(7,8,9,22)            -0.0723         estimate D2E/DX2                !
 ! D23   D(8,9,10,11)          177.7059         estimate D2E/DX2                !
 ! D24   D(8,9,10,21)           -2.6742         estimate D2E/DX2                !
 ! D25   D(22,9,10,11)          -3.0187         estimate D2E/DX2                !
 ! D26   D(22,9,10,21)         176.6013         estimate D2E/DX2                !
 ! D27   D(8,9,22,5)             0.2546         estimate D2E/DX2                !
 ! D28   D(8,9,22,35)         -179.9361         estimate D2E/DX2                !
 ! D29   D(10,9,22,5)         -178.9837         estimate D2E/DX2                !
 ! D30   D(10,9,22,35)           0.8256         estimate D2E/DX2                !
 ! D31   D(9,10,11,12)         176.0187         estimate D2E/DX2                !
 ! D32   D(21,10,11,12)         -3.6052         estimate D2E/DX2                !
 ! D33   D(9,10,21,20)         179.5316         estimate D2E/DX2                !
 ! D34   D(11,10,21,20)         -0.8283         estimate D2E/DX2                !
 ! D35   D(10,11,12,13)       -115.7215         estimate D2E/DX2                !
 ! D36   D(10,11,12,20)          5.9609         estimate D2E/DX2                !
 ! D37   D(10,11,12,25)        125.4519         estimate D2E/DX2                !
 ! D38   D(11,12,13,14)         61.381          estimate D2E/DX2                !
 ! D39   D(11,12,13,26)       -176.744          estimate D2E/DX2                !
 ! D40   D(11,12,13,27)        -59.1496         estimate D2E/DX2                !
 ! D41   D(20,12,13,14)        -53.9848         estimate D2E/DX2                !
 ! D42   D(20,12,13,26)         67.8902         estimate D2E/DX2                !
 ! D43   D(20,12,13,27)       -174.5153         estimate D2E/DX2                !
 ! D44   D(25,12,13,14)       -179.4848         estimate D2E/DX2                !
 ! D45   D(25,12,13,26)        -57.6098         estimate D2E/DX2                !
 ! D46   D(25,12,13,27)         59.9847         estimate D2E/DX2                !
 ! D47   D(11,12,20,21)         -6.2853         estimate D2E/DX2                !
 ! D48   D(11,12,20,33)        111.2616         estimate D2E/DX2                !
 ! D49   D(11,12,20,34)       -123.7863         estimate D2E/DX2                !
 ! D50   D(13,12,20,21)        112.957          estimate D2E/DX2                !
 ! D51   D(13,12,20,33)       -129.4961         estimate D2E/DX2                !
 ! D52   D(13,12,20,34)         -4.5439         estimate D2E/DX2                !
 ! D53   D(25,12,20,21)       -123.5448         estimate D2E/DX2                !
 ! D54   D(25,12,20,33)         -5.9979         estimate D2E/DX2                !
 ! D55   D(25,12,20,34)        118.9543         estimate D2E/DX2                !
 ! D56   D(12,13,14,15)        101.2365         estimate D2E/DX2                !
 ! D57   D(12,13,14,19)        -76.0192         estimate D2E/DX2                !
 ! D58   D(26,13,14,15)        -19.255          estimate D2E/DX2                !
 ! D59   D(26,13,14,19)        163.4893         estimate D2E/DX2                !
 ! D60   D(27,13,14,15)       -139.8477         estimate D2E/DX2                !
 ! D61   D(27,13,14,19)         42.8967         estimate D2E/DX2                !
 ! D62   D(13,14,15,16)       -176.7187         estimate D2E/DX2                !
 ! D63   D(13,14,15,28)          3.9706         estimate D2E/DX2                !
 ! D64   D(19,14,15,16)          0.5709         estimate D2E/DX2                !
 ! D65   D(19,14,15,28)       -178.7398         estimate D2E/DX2                !
 ! D66   D(13,14,19,18)        176.3994         estimate D2E/DX2                !
 ! D67   D(13,14,19,32)         -3.2298         estimate D2E/DX2                !
 ! D68   D(15,14,19,18)         -0.9173         estimate D2E/DX2                !
 ! D69   D(15,14,19,32)        179.4535         estimate D2E/DX2                !
 ! D70   D(14,15,16,17)          0.2594         estimate D2E/DX2                !
 ! D71   D(14,15,16,29)       -179.9538         estimate D2E/DX2                !
 ! D72   D(28,15,16,17)        179.571          estimate D2E/DX2                !
 ! D73   D(28,15,16,29)         -0.6422         estimate D2E/DX2                !
 ! D74   D(15,16,17,18)         -0.7517         estimate D2E/DX2                !
 ! D75   D(15,16,17,30)        179.5491         estimate D2E/DX2                !
 ! D76   D(29,16,17,18)        179.4621         estimate D2E/DX2                !
 ! D77   D(29,16,17,30)         -0.2371         estimate D2E/DX2                !
 ! D78   D(16,17,18,19)          0.4073         estimate D2E/DX2                !
 ! D79   D(16,17,18,31)       -179.5127         estimate D2E/DX2                !
 ! D80   D(30,17,18,19)       -179.8937         estimate D2E/DX2                !
 ! D81   D(30,17,18,31)          0.1863         estimate D2E/DX2                !
 ! D82   D(17,18,19,14)          0.4347         estimate D2E/DX2                !
 ! D83   D(17,18,19,32)       -179.9396         estimate D2E/DX2                !
 ! D84   D(31,18,19,14)       -179.6451         estimate D2E/DX2                !
 ! D85   D(31,18,19,32)         -0.0193         estimate D2E/DX2                !
 ! D86   D(12,20,21,10)          4.4775         estimate D2E/DX2                !
 ! D87   D(33,20,21,10)       -115.8587         estimate D2E/DX2                !
 ! D88   D(34,20,21,10)        124.9889         estimate D2E/DX2                !
 --------------------------------------------------------------------------------
 Trust Radius=3.00D-01 FncErr=1.00D-07 GrdErr=1.00D-06 EigMax=2.50D+02 EigMin=1.00D-04
 Number of steps in this run=    198 maximum allowed number of steps=    210.
 GradGradGradGradGradGradGradGradGradGradGradGradGradGradGradGradGradGrad

 Leave Link  103 at Sun Feb 25 22:54:32 2024, MaxMem=  7516192768 cpu:               1.3 elap:               0.1
 (Enter /public/apps/g16-C01//g16/l202.exe)
                          Input orientation:                          
 ---------------------------------------------------------------------
 Center     Atomic      Atomic             Coordinates (Angstroms)
 Number     Number       Type             X           Y           Z
 ---------------------------------------------------------------------
      1          9           0        4.620426   -1.318192    0.183722
      2          6           0        3.770007   -0.576446   -0.540475
      3          9           0        4.519373    0.339121   -1.182012
      4          9           0        3.264336   -1.381216   -1.484422
      5          6           0        2.701307    0.070891    0.301731
      6          6           0        2.933838    0.344238    1.644836
      7          6           0        1.916606    0.965989    2.357458
      8          7           0        0.759194    1.304451    1.828442
      9          6           0        0.542669    1.043033    0.546714
     10          6           0       -0.755508    1.409582   -0.018502
     11          7           0       -1.052458    1.243278   -1.242869
     12          6           0       -2.432661    1.625782   -1.418335
     13          6           0       -3.272198    0.399863   -1.838317
     14          6           0       -3.237855   -0.667753   -0.783625
     15          6           0       -4.299173   -0.840540    0.095891
     16          6           0       -4.230483   -1.782480    1.107846
     17          6           0       -3.095756   -2.560347    1.255873
     18          6           0       -2.036625   -2.402677    0.377771
     19          6           0       -2.109277   -1.466364   -0.637080
     20          6           0       -2.824733    2.202676   -0.031261
     21          8           0       -1.689684    1.941971    0.788063
     22          6           0        1.491097    0.423741   -0.271253
     23          1           0        3.867448    0.077940    2.113906
     24          1           0        2.038398    1.203888    3.405176
     25          1           0       -2.495642    2.377501   -2.211452
     26          1           0       -4.296253    0.730503   -2.019611
     27          1           0       -2.851615    0.020160   -2.770422
     28          1           0       -5.192888   -0.241288   -0.017171
     29          1           0       -5.064056   -1.906071    1.783803
     30          1           0       -3.038746   -3.290331    2.049704
     31          1           0       -1.150899   -3.012321    0.482957
     32          1           0       -1.283789   -1.343974   -1.322534
     33          1           0       -2.996547    3.282676   -0.056418
     34          1           0       -3.690523    1.703008    0.407449
     35          1           0        1.263900    0.235280   -1.307453
 ---------------------------------------------------------------------
                    Distance matrix (angstroms):
                    1          2          3          4          5
     1  F    0.000000
     2  C    1.340843   0.000000
     3  F    2.149913   1.345876   0.000000
     4  F    2.150734   1.339550   2.150844   0.000000
     5  C    2.372023   1.506810   2.361949   2.369801   0.000000
     6  C    2.782644   2.514443   3.241144   3.588687   1.390223
     7  C    4.153704   3.769909   4.437928   4.699552   2.375494
     8  N    4.948987   4.267849   4.912600   4.946070   2.761217
     9  C    4.726018   3.770995   4.392967   4.172525   2.380083
    10  C    6.031775   4.969613   5.506724   5.108485   3.720781
    11  N    6.385758   5.202011   5.645042   5.057769   4.225048
    12  C    7.808944   6.640296   7.074046   6.442219   5.633289
    13  C    8.326696   7.227048   7.819399   6.784081   6.353801
    14  C    7.944269   7.012673   7.832439   6.578650   6.082535
    15  C    8.932811   8.098541   8.988403   7.745734   7.062563
    16  C    8.911126   8.257077   9.290028   7.940603   7.220424
    17  C    7.888721   7.368950   8.505315   7.024979   6.437371
    18  C    6.747599   6.155913   7.275403   5.710633   5.345308
    19  C    6.781193   5.947039   6.891714   5.440676   5.136754
    20  C    8.238515   7.174497   7.663743   7.213371   5.932327
    21  O    7.128210   6.157570   6.708406   6.383578   4.797735
    22  C    3.610268   2.503255   3.163400   2.806069   1.384710
    23  H    2.498354   2.735590   3.369911   3.929484   2.154974
    24  H    4.837925   4.662212   5.286336   5.665144   3.369644
    25  H    8.368598   7.125751   7.377342   6.916204   6.216496
    26  H    9.410579   8.304246   8.863973   7.868182   7.401997
    27  H    8.145523   7.012452   7.546936   6.404882   6.346309
    28  H    9.874270   8.984412   9.799068   8.658920   7.906799
    29  H    9.833364   9.230972  10.280032   8.962080   8.148974
    30  H    8.126139   7.773887   8.985659   7.474196   6.877604
    31  H    6.022276   5.585357   6.793841   5.101508   4.937462
    32  H    6.093376   5.171225   6.043943   4.551158   4.530019
    33  H    8.901906   7.804703   8.149879   7.936608   6.550525
    34  H    8.845879   7.858370   8.472837   7.839750   6.597763
    35  H    3.987875   2.743670   3.259543   2.578007   2.163940
                    6          7          8          9         10
     6  C    0.000000
     7  C    1.388944   0.000000
     8  N    2.384281   1.316821   0.000000
     9  C    2.722476   2.274298   1.325914   0.000000
    10  C    4.184845   3.603076   2.390936   1.462563   0.000000
    11  N    5.003765   4.674889   3.566339   2.405647   1.270791
    12  C    6.310680   5.797246   4.564291   3.612977   2.195249
    13  C    7.116905   6.696918   5.524086   4.544805   3.265729
    14  C    6.709049   6.253318   5.166128   4.357632   3.326076
    15  C    7.491287   6.856686   5.761059   5.214837   4.199250
    16  C    7.492582   6.848526   5.911453   5.575067   4.851121
    17  C    6.704022   6.226741   5.488637   5.169661   4.781331
    18  C    5.818634   5.558337   4.864550   4.307461   4.041239
    19  C    5.823953   5.575960   4.688746   3.838132   3.238270
    20  C    6.278872   5.451208   4.136404   3.608077   2.216044
    21  O    4.966263   4.052267   2.736023   2.418623   1.344124
    22  C    2.399837   2.717575   2.391663   1.397179   2.466374
    23  H    1.078225   2.157251   3.353664   3.800217   5.262334
    24  H    2.153975   1.081269   2.032871   3.230152   4.423776
    25  H    6.963072   6.506553   5.297748   4.315046   2.962088
    26  H    8.114899   7.603539   6.379222   5.486243   4.123404
    27  H    7.284984   7.065810   5.986392   4.854979   3.727898
    28  H    8.315575   7.592186   6.420504   5.904580   4.734524
    29  H    8.309604   7.570168   6.649788   6.454686   5.727604
    30  H    7.003268   6.539609   5.965344   5.819240   5.619594
    31  H    5.413089   5.361930   4.908493   4.395240   4.467776
    32  H    5.426207   5.396369   4.595278   3.539469   3.092192
    33  H    6.833604   5.944149   4.644530   4.231527   2.920989
    34  H    6.874558   5.982109   4.688075   4.286593   2.980243
    35  H    3.393608   3.793617   3.351372   2.147225   2.668031
                   11         12         13         14         15
    11  N    0.000000
    12  C    1.442934   0.000000
    13  C    2.448092   1.544048   0.000000
    14  C    2.939201   2.512269   1.501119   0.000000
    15  C    4.083593   3.443761   2.516831   1.389172   0.000000
    16  C    4.978043   4.607603   3.789566   2.409479   1.384205
    17  C    4.988621   5.011463   4.285789   2.785975   2.398230
    18  C    4.109507   4.428467   3.780465   2.408683   2.763847
    19  C    2.970860   3.205667   2.505625   1.390303   2.392602
    20  C    2.351467   1.552579   2.591488   2.996011   3.383978
    21  O    2.240293   2.349507   3.432247   3.417264   3.876971
    22  C    2.843475   4.261053   5.014503   4.880253   5.938049
    23  H    6.068890   7.386739   8.166899   7.709544   8.462251
    24  H    5.582048   6.590495   7.506204   6.991991   7.436119
    25  H    2.075426   1.094570   2.157156   3.444291   4.351131
    26  H    3.374681   2.153145   1.091274   2.145457   2.635059
    27  H    2.658270   2.140487   1.090818   2.137702   3.324452
    28  H    4.566118   3.614978   2.723361   2.142773   1.081948
    29  H    5.930604   5.445357   4.652724   3.385281   2.137627
    30  H    5.944745   6.046718   5.365514   3.865917   3.377505
    31  H    4.593287   5.173956   4.640175   3.384762   3.844227
    32  H    2.598795   3.185677   2.694582   2.136837   3.370151
    33  H    3.057171   2.217675   3.400259   4.024046   4.326770
    34  H    3.145519   2.218483   2.629952   2.691482   2.633849
    35  H    2.527003   3.950994   4.570021   4.621219   5.837341
                   16         17         18         19         20
    16  C    0.000000
    17  C    1.383689   0.000000
    18  C    2.393881   1.384804   0.000000
    19  C    2.764817   2.398585   1.382709   0.000000
    20  C    4.376662   4.941311   4.690170   3.786918   0.000000
    21  O    4.519896   4.739911   4.377748   3.718042   1.423936
    22  C    6.285364   5.681207   4.566694   4.082771   4.674248
    23  H    8.369576   7.495531   6.635187   6.758257   7.341766
    24  H    7.314027   6.719264   6.227223   6.377561   6.037940
    25  H    5.597576   6.063400   5.455719   4.171717   2.211809
    26  H    4.012530   4.795798   4.546447   3.394183   2.878576
    27  H    4.493523   4.788494   4.055301   2.704065   3.502442
    28  H    2.137091   3.375891   3.845722   3.375464   3.403133
    29  H    1.080295   2.140325   3.374742   3.845092   5.019046
    30  H    2.140315   1.079951   2.141853   3.377806   5.877869
    31  H    3.374438   2.141062   1.080389   2.136107   5.501121
    32  H    3.844742   3.378013   2.139778   1.079934   4.076840
    33  H    5.341715   5.989396   5.782146   4.865984   1.093871
    34  H    3.595934   4.387456   4.426388   3.692736   1.091662
    35  H    6.331925   5.778648   4.548875   3.837097   4.713410
                   21         22         23         24         25
    21  O    0.000000
    22  C    3.680291   0.000000
    23  H    6.009508   3.384613   0.000000
    24  H    4.614395   3.797933   2.506105   0.000000
    25  H    3.136295   4.845166   8.030294   7.313098   0.000000
    26  H    4.018070   6.053452   9.173757   8.353455   2.447776
    27  H    4.207880   5.026716   8.306973   7.965642   2.448718
    28  H    4.205646   6.721791   9.313060   8.129729   4.352937
    29  H    5.213954   7.254055   9.155164   7.921209   6.395921
    30  H    5.548756   6.300845   7.684067   6.914673   7.111732
    31  H    4.992834   4.399488   6.115024   6.040480   6.174006
    32  H    3.926424   3.453983   6.353440   6.315043   4.013495
    33  H    2.053906   5.325280   7.880042   6.454042   2.390485
    34  H    2.050689   5.380181   7.916803   6.485062   2.956573
    35  H    4.003453   1.077426   4.302199   4.873081   4.420462
                   26         27         28         29         30
    26  H    0.000000
    27  H    1.776312   0.000000
    28  H    2.399604   3.623576   0.000000
    29  H    4.691162   5.417216   2.455933   0.000000
    30  H    5.857282   5.850469   4.267196   2.467541   0.000000
    31  H    5.492252   4.761602   4.926097   4.269518   2.468998
    32  H    3.723481   2.532848   4.266256   4.925008   4.270851
    33  H    3.472312   4.246273   4.152563   5.880825   6.902315
    34  H    2.683895   3.692507   2.493530   4.099560   5.296721
    35  H    5.627408   4.373102   6.601671   7.360997   6.497169
                   31         32         33         34         35
    31  H    0.000000
    32  H    2.461877   0.000000
    33  H    6.582122   5.093376   0.000000
    34  H    5.356278   4.250801   1.786652   0.000000
    35  H    4.425351   2.997497   5.385454   5.444394   0.000000
 Symmetry turned off by external request.
 Stoichiometry    C16H13F3N2O
 Framework group  C1[X(C16H13F3N2O)]
 Deg. of freedom    99
 Full point group                 C1      NOp   1
 Rotational constants (GHZ):           0.5003642           0.1610477           0.1520695
 Leave Link  202 at Sun Feb 25 22:54:32 2024, MaxMem=  7516192768 cpu:               1.3 elap:               0.1
 (Enter /public/apps/g16-C01//g16/l301.exe)
 Standard basis: def2SVPP (5D, 7F)
 Ernie: Thresh=  0.10000D-02 Tol=  0.10000D-05 Strict=F.
   334 basis functions,   602 primitive gaussians,   356 cartesian basis functions
    79 alpha electrons       79 beta electrons
       nuclear repulsion energy      1790.8351493445 Hartrees.
 IExCor=  402 DFT=T Ex+Corr=B3LYP ExCW=0 ScaHFX=  0.200000
 ScaDFX=  0.800000  0.720000  1.000000  0.810000 ScalE2=  1.000000  1.000000
 IRadAn=      5 IRanWt=     -1 IRanGd=            0 ICorTp=0 IEmpDi=141
 NAtoms=   35 NActive=   35 NUniq=   35 SFac= 1.00D+00 NAtFMM=   60 NAOKFM=F Big=F
 Integral buffers will be    131072 words long.
 Raffenetti 2 integral format.
 Two-electron integral symmetry is turned off.
 R6Disp:  Grimme-D3(BJ) Dispersion energy=       -0.0772629093 Hartrees.
 Nuclear repulsion after empirical dispersion term =     1790.7578864353 Hartrees.
 Leave Link  301 at Sun Feb 25 22:54:32 2024, MaxMem=  7516192768 cpu:               1.4 elap:               0.1
 (Enter /public/apps/g16-C01//g16/l302.exe)
 NPDir=0 NMtPBC=     1 NCelOv=     1 NCel=       1 NClECP=     1 NCelD=      1
         NCelK=      1 NCelE2=     1 NClLst=     1 CellRange=     0.0.
 One-electron integrals computed using PRISM.
   1 Symmetry operations used in ECPInt.
 ECPInt:  NShTT=   12561 NPrTT=   50411 LenC2=   11385 LenP2D=   30790.
 LDataN:  DoStor=T MaxTD1= 4 Len=   56
 NBasis=   334 RedAO= T EigKep=  2.54D-04  NBF=   334
 NBsUse=   334 1.00D-06 EigRej= -1.00D+00 NBFU=   334
 Precomputing XC quadrature grid using
 IXCGrd= 4 IRadAn=           5 IRanWt=          -1 IRanGd=           0 AccXCQ= 0.00D+00.
 Generated NRdTot=       0 NPtTot=           0 NUsed=           0 NTot=          32
 NSgBfM=   353   353   353   353   353 MxSgAt=    35 MxSgA2=    35.
 Leave Link  302 at Sun Feb 25 22:54:33 2024, MaxMem=  7516192768 cpu:              24.6 elap:               0.7
 (Enter /public/apps/g16-C01//g16/l303.exe)
 DipDrv:  MaxL=1.
 Leave Link  303 at Sun Feb 25 22:54:34 2024, MaxMem=  7516192768 cpu:               6.9 elap:               0.2
 (Enter /public/apps/g16-C01//g16/l401.exe)
 ExpMin= 1.22D-01 ExpMax= 2.89D+03 ExpMxC= 4.35D+02 IAcc=3 IRadAn=         5 AccDes= 0.00D+00
 Harris functional with IExCor=  402 and IRadAn=       5 diagonalized for initial guess.
 HarFok:  IExCor=  402 AccDes= 0.00D+00 IRadAn=         5 IDoV= 1 UseB2=F ITyADJ=14
 ICtDFT=  3500011 ScaDFX=  1.000000  1.000000  1.000000  1.000000
 FoFCou: FMM=F IPFlag=           0 FMFlag=      100000 FMFlg1=           0
         NFxFlg=           0 DoJE=T BraDBF=F KetDBF=T FulRan=T
         wScrn=  0.000000 ICntrl=       500 IOpCl=  0 I1Cent=   200000004 NGrid=           0
         NMat0=    1 NMatS0=      1 NMatT0=    0 NMatD0=    1 NMtDS0=    0 NMtDT0=    0
 Symmetry not used in FoFCou.
 Harris En= -1100.94372386802    
 JPrj=0 DoOrth=F DoCkMO=F.
 Leave Link  401 at Sun Feb 25 22:54:34 2024, MaxMem=  7516192768 cpu:              17.4 elap:               0.5
 (Enter /public/apps/g16-C01//g16/l502.exe)
 Two-electron integral symmetry not used.
 Closed shell SCF:
 Using DIIS extrapolation, IDIIS=  1040.
 NGot=  7516192768 LenX=  7515921220 LenY=  7515794043
 Requested convergence on RMS density matrix=1.00D-08 within 128 cycles.
 Requested convergence on MAX density matrix=1.00D-06.
 Requested convergence on             energy=1.00D-06.
 No special actions if energy rises.
 Fock matrices will be formed incrementally for  20 cycles.
 Integral accuracy reduced to 1.0D-05 until final iterations.

 Cycle   1  Pass 0  IDiag  1:
 FoFJK:  IHMeth= 1 ICntrl=       0 DoSepK=F KAlg= 0 I1Cent=           0 FoldK=F
 IRaf= 840000000 NMat=       1 IRICut=       1 DoRegI=T DoRafI=F ISym2E= 0 IDoP0=0 IntGTp=1.
 FoFCou: FMM=F IPFlag=           0 FMFlag=      100000 FMFlg1=           0
         NFxFlg=           0 DoJE=F BraDBF=F KetDBF=F FulRan=T
         wScrn=  0.000000 ICntrl=         0 IOpCl=  0 I1Cent=           0 NGrid=           0
         NMat0=    1 NMatS0=      1 NMatT0=    0 NMatD0=    1 NMtDS0=    0 NMtDT0=    0
 Symmetry not used in FoFCou.
 E= -1100.63488781711    
 DIIS: error= 2.44D-02 at cycle   1 NSaved=   1.
 NSaved= 1 IEnMin= 1 EnMin= -1100.63488781711     IErMin= 1 ErrMin= 2.44D-02
 ErrMax= 2.44D-02  0.00D+00 EMaxC= 1.00D-01 BMatC= 3.76D-01 BMatP= 3.76D-01
 IDIUse=3 WtCom= 7.56D-01 WtEn= 2.44D-01
 Coeff-Com:  0.100D+01
 Coeff-En:   0.100D+01
 Coeff:      0.100D+01
 Gap=     0.152 Goal=   None    Shift=    0.000
 GapD=    0.152 DampG=1.000 DampE=0.500 DampFc=0.5000 IDamp=-1.
 Damping current iteration by 5.00D-01
 RMSDP=5.47D-03 MaxDP=1.75D-01              OVMax= 1.74D-01

 Cycle   2  Pass 0  IDiag  1:
 RMSU=  2.65D-03    CP:  9.69D-01
 E= -1100.79409842598     Delta-E=       -0.159210608867 Rises=F Damp=T
 DIIS: error= 4.52D-03 at cycle   2 NSaved=   2.
 NSaved= 2 IEnMin= 2 EnMin= -1100.79409842598     IErMin= 2 ErrMin= 4.52D-03
 ErrMax= 4.52D-03  0.00D+00 EMaxC= 1.00D-01 BMatC= 2.67D-02 BMatP= 3.76D-01
 IDIUse=3 WtCom= 9.55D-01 WtEn= 4.52D-02
 Coeff-Com:  0.100D+00 0.900D+00
 Coeff-En:   0.149D+00 0.851D+00
 Coeff:      0.102D+00 0.898D+00
 Gap=     0.194 Goal=   None    Shift=    0.000
 RMSDP=1.69D-03 MaxDP=4.78D-02 DE=-1.59D-01 OVMax= 1.38D-01

 Cycle   3  Pass 0  IDiag  1:
 RMSU=  1.64D-03    CP:  9.50D-01  9.84D-01
 E= -1100.99241760058     Delta-E=       -0.198319174600 Rises=F Damp=F
 DIIS: error= 5.61D-03 at cycle   3 NSaved=   3.
 NSaved= 3 IEnMin= 3 EnMin= -1100.99241760058     IErMin= 2 ErrMin= 4.52D-03
 ErrMax= 5.61D-03  0.00D+00 EMaxC= 1.00D-01 BMatC= 2.60D-02 BMatP= 2.67D-02
 IDIUse=3 WtCom= 9.44D-01 WtEn= 5.61D-02
 Coeff-Com:  0.187D-02 0.496D+00 0.503D+00
 Coeff-En:   0.000D+00 0.000D+00 0.100D+01
 Coeff:      0.176D-02 0.468D+00 0.530D+00
 Gap=     0.175 Goal=   None    Shift=    0.000
 RMSDP=8.08D-04 MaxDP=4.77D-02 DE=-1.98D-01 OVMax= 9.38D-02

 Cycle   4  Pass 0  IDiag  1:
 RMSU=  6.35D-04    CP:  9.53D-01  1.04D+00  7.14D-01
 E= -1101.00854464935     Delta-E=       -0.016127048776 Rises=F Damp=F
 DIIS: error= 4.96D-03 at cycle   4 NSaved=   4.
 NSaved= 4 IEnMin= 4 EnMin= -1101.00854464935     IErMin= 2 ErrMin= 4.52D-03
 ErrMax= 4.96D-03  0.00D+00 EMaxC= 1.00D-01 BMatC= 7.96D-03 BMatP= 2.60D-02
 IDIUse=3 WtCom= 9.50D-01 WtEn= 4.96D-02
 Coeff-Com: -0.142D-01 0.176D+00 0.366D+00 0.472D+00
 Coeff-En:   0.000D+00 0.000D+00 0.269D+00 0.731D+00
 Coeff:     -0.135D-01 0.167D+00 0.361D+00 0.485D+00
 Gap=     0.178 Goal=   None    Shift=    0.000
 RMSDP=3.88D-04 MaxDP=2.10D-02 DE=-1.61D-02 OVMax= 3.46D-02

 Cycle   5  Pass 0  IDiag  1:
 RMSU=  2.11D-04    CP:  9.51D-01  1.03D+00  8.01D-01  5.48D-01
 E= -1101.01527285994     Delta-E=       -0.006728210586 Rises=F Damp=F
 DIIS: error= 1.35D-03 at cycle   5 NSaved=   5.
 NSaved= 5 IEnMin= 5 EnMin= -1101.01527285994     IErMin= 5 ErrMin= 1.35D-03
 ErrMax= 1.35D-03  0.00D+00 EMaxC= 1.00D-01 BMatC= 5.99D-04 BMatP= 7.96D-03
 IDIUse=3 WtCom= 9.86D-01 WtEn= 1.35D-02
 Coeff-Com: -0.779D-02 0.479D-01 0.153D+00 0.286D+00 0.521D+00
 Coeff-En:   0.000D+00 0.000D+00 0.000D+00 0.199D-01 0.980D+00
 Coeff:     -0.768D-02 0.472D-01 0.151D+00 0.283D+00 0.527D+00
 Gap=     0.177 Goal=   None    Shift=    0.000
 RMSDP=1.06D-04 MaxDP=3.93D-03 DE=-6.73D-03 OVMax= 7.36D-03

 Cycle   6  Pass 0  IDiag  1:
 RMSU=  8.35D-05    CP:  9.51D-01  1.04D+00  7.87D-01  5.92D-01  7.79D-01
 E= -1101.01572929126     Delta-E=       -0.000456431325 Rises=F Damp=F
 DIIS: error= 5.39D-04 at cycle   6 NSaved=   6.
 NSaved= 6 IEnMin= 6 EnMin= -1101.01572929126     IErMin= 6 ErrMin= 5.39D-04
 ErrMax= 5.39D-04  0.00D+00 EMaxC= 1.00D-01 BMatC= 7.28D-05 BMatP= 5.99D-04
 IDIUse=3 WtCom= 9.95D-01 WtEn= 5.39D-03
 Coeff-Com: -0.316D-02 0.680D-02 0.425D-01 0.105D+00 0.315D+00 0.535D+00
 Coeff-En:   0.000D+00 0.000D+00 0.000D+00 0.000D+00 0.964D-01 0.904D+00
 Coeff:     -0.314D-02 0.676D-02 0.423D-01 0.104D+00 0.313D+00 0.537D+00
 Gap=     0.177 Goal=   None    Shift=    0.000
 RMSDP=3.68D-05 MaxDP=1.62D-03 DE=-4.56D-04 OVMax= 3.89D-03

 Cycle   7  Pass 0  IDiag  1:
 RMSU=  1.99D-05    CP:  9.51D-01  1.04D+00  7.92D-01  5.97D-01  7.79D-01
                    CP:  6.45D-01
 E= -1101.01579134030     Delta-E=       -0.000062049035 Rises=F Damp=F
 DIIS: error= 2.01D-04 at cycle   7 NSaved=   7.
 NSaved= 7 IEnMin= 7 EnMin= -1101.01579134030     IErMin= 7 ErrMin= 2.01D-04
 ErrMax= 2.01D-04  0.00D+00 EMaxC= 1.00D-01 BMatC= 7.28D-06 BMatP= 7.28D-05
 IDIUse=3 WtCom= 9.98D-01 WtEn= 2.01D-03
 Coeff-Com: -0.149D-02 0.108D-02 0.166D-01 0.463D-01 0.162D+00 0.334D+00
 Coeff-Com:  0.442D+00
 Coeff-En:   0.000D+00 0.000D+00 0.000D+00 0.000D+00 0.000D+00 0.397D-01
 Coeff-En:   0.960D+00
 Coeff:     -0.148D-02 0.108D-02 0.165D-01 0.462D-01 0.161D+00 0.333D+00
 Coeff:      0.443D+00
 Gap=     0.177 Goal=   None    Shift=    0.000
 RMSDP=1.05D-05 MaxDP=4.63D-04 DE=-6.20D-05 OVMax= 1.09D-03

 Cycle   8  Pass 0  IDiag  1:
 RMSU=  5.35D-06    CP:  9.51D-01  1.04D+00  7.93D-01  5.98D-01  7.73D-01
                    CP:  6.66D-01  5.73D-01
 E= -1101.01580007288     Delta-E=       -0.000008732577 Rises=F Damp=F
 DIIS: error= 2.93D-05 at cycle   8 NSaved=   8.
 NSaved= 8 IEnMin= 8 EnMin= -1101.01580007288     IErMin= 8 ErrMin= 2.93D-05
 ErrMax= 2.93D-05  0.00D+00 EMaxC= 1.00D-01 BMatC= 2.08D-07 BMatP= 7.28D-06
 IDIUse=1 WtCom= 1.00D+00 WtEn= 0.00D+00
 Coeff-Com: -0.331D-03-0.295D-03 0.297D-02 0.977D-02 0.417D-01 0.926D-01
 Coeff-Com:  0.191D+00 0.662D+00
 Coeff:     -0.331D-03-0.295D-03 0.297D-02 0.977D-02 0.417D-01 0.926D-01
 Coeff:      0.191D+00 0.662D+00
 Gap=     0.177 Goal=   None    Shift=    0.000
 RMSDP=2.50D-06 MaxDP=7.49D-05 DE=-8.73D-06 OVMax= 1.65D-04

 Initial convergence to 1.0D-05 achieved.  Increase integral accuracy.
 Cycle   9  Pass 1  IDiag  1:
 E= -1101.01580075660     Delta-E=       -0.000000683728 Rises=F Damp=F
 DIIS: error= 1.52D-04 at cycle   1 NSaved=   1.
 NSaved= 1 IEnMin= 1 EnMin= -1101.01580075660     IErMin= 1 ErrMin= 1.52D-04
 ErrMax= 1.52D-04  0.00D+00 EMaxC= 1.00D-01 BMatC= 1.76D-06 BMatP= 1.76D-06
 IDIUse=3 WtCom= 9.98D-01 WtEn= 1.52D-03
 Coeff-Com:  0.100D+01
 Coeff-En:   0.100D+01
 Coeff:      0.100D+01
 Gap=     0.177 Goal=   None    Shift=    0.000
 RMSDP=2.50D-06 MaxDP=7.49D-05 DE=-6.84D-07 OVMax= 2.32D-04

 Cycle  10  Pass 1  IDiag  1:
 RMSU=  8.63D-05    CP:  1.00D+00
 E= -1101.01580268111     Delta-E=       -0.000001924506 Rises=F Damp=F
 DIIS: error= 1.26D-05 at cycle   2 NSaved=   2.
 NSaved= 2 IEnMin= 2 EnMin= -1101.01580268111     IErMin= 2 ErrMin= 1.26D-05
 ErrMax= 1.26D-05  0.00D+00 EMaxC= 1.00D-01 BMatC= 6.01D-08 BMatP= 1.76D-06
 IDIUse=1 WtCom= 1.00D+00 WtEn= 0.00D+00
 Coeff-Com:  0.421D-01 0.958D+00
 Coeff:      0.421D-01 0.958D+00
 Gap=     0.177 Goal=   None    Shift=    0.000
 RMSDP=2.47D-06 MaxDP=8.02D-05 DE=-1.92D-06 OVMax= 1.48D-04

 Cycle  11  Pass 1  IDiag  1:
 RMSU=  2.13D-06    CP:  1.00D+00  1.01D+00
 E= -1101.01580258065     Delta-E=        0.000000100456 Rises=F Damp=F
 DIIS: error= 2.46D-05 at cycle   3 NSaved=   3.
 NSaved= 3 IEnMin= 2 EnMin= -1101.01580268111     IErMin= 2 ErrMin= 1.26D-05
 ErrMax= 2.46D-05  0.00D+00 EMaxC= 1.00D-01 BMatC= 1.65D-07 BMatP= 6.01D-08
 IDIUse=1 WtCom= 1.00D+00 WtEn= 0.00D+00
 Coeff-Com: -0.571D-02 0.627D+00 0.378D+00
 Coeff:     -0.571D-02 0.627D+00 0.378D+00
 Gap=     0.177 Goal=   None    Shift=    0.000
 RMSDP=1.37D-06 MaxDP=4.93D-05 DE= 1.00D-07 OVMax= 1.11D-04

 Cycle  12  Pass 1  IDiag  1:
 RMSU=  4.71D-07    CP:  1.00D+00  1.02D+00  3.99D-01
 E= -1101.01580273429     Delta-E=       -0.000000153637 Rises=F Damp=F
 DIIS: error= 3.07D-06 at cycle   4 NSaved=   4.
 NSaved= 4 IEnMin= 4 EnMin= -1101.01580273429     IErMin= 4 ErrMin= 3.07D-06
 ErrMax= 3.07D-06  0.00D+00 EMaxC= 1.00D-01 BMatC= 2.01D-09 BMatP= 6.01D-08
 IDIUse=1 WtCom= 1.00D+00 WtEn= 0.00D+00
 Coeff-Com: -0.413D-02 0.356D+00 0.226D+00 0.422D+00
 Coeff:     -0.413D-02 0.356D+00 0.226D+00 0.422D+00
 Gap=     0.177 Goal=   None    Shift=    0.000
 RMSDP=2.06D-07 MaxDP=5.90D-06 DE=-1.54D-07 OVMax= 1.65D-05

 Cycle  13  Pass 1  IDiag  1:
 RMSU=  1.34D-07    CP:  1.00D+00  1.02D+00  4.15D-01  6.77D-01
 E= -1101.01580273645     Delta-E=       -0.000000002164 Rises=F Damp=F
 DIIS: error= 3.29D-07 at cycle   5 NSaved=   5.
 NSaved= 5 IEnMin= 5 EnMin= -1101.01580273645     IErMin= 5 ErrMin= 3.29D-07
 ErrMax= 3.29D-07  0.00D+00 EMaxC= 1.00D-01 BMatC= 5.75D-11 BMatP= 2.01D-09
 IDIUse=1 WtCom= 1.00D+00 WtEn= 0.00D+00
 Coeff-Com: -0.185D-02 0.152D+00 0.978D-01 0.217D+00 0.535D+00
 Coeff:     -0.185D-02 0.152D+00 0.978D-01 0.217D+00 0.535D+00
 Gap=     0.177 Goal=   None    Shift=    0.000
 RMSDP=3.83D-08 MaxDP=9.92D-07 DE=-2.16D-09 OVMax= 2.36D-06

 Cycle  14  Pass 1  IDiag  1:
 RMSU=  3.57D-08    CP:  1.00D+00  1.02D+00  4.11D-01  6.83D-01  9.21D-01
 E= -1101.01580273651     Delta-E=       -0.000000000055 Rises=F Damp=F
 DIIS: error= 1.10D-07 at cycle   6 NSaved=   6.
 NSaved= 6 IEnMin= 6 EnMin= -1101.01580273651     IErMin= 6 ErrMin= 1.10D-07
 ErrMax= 1.10D-07  0.00D+00 EMaxC= 1.00D-01 BMatC= 5.07D-12 BMatP= 5.75D-11
 IDIUse=1 WtCom= 1.00D+00 WtEn= 0.00D+00
 Coeff-Com: -0.283D-03 0.210D-01 0.137D-01 0.406D-01 0.251D+00 0.674D+00
 Coeff:     -0.283D-03 0.210D-01 0.137D-01 0.406D-01 0.251D+00 0.674D+00
 Gap=     0.177 Goal=   None    Shift=    0.000
 RMSDP=1.25D-08 MaxDP=3.19D-07 DE=-5.50D-11 OVMax= 9.99D-07

 Cycle  15  Pass 1  IDiag  1:
 RMSU=  8.99D-09    CP:  1.00D+00  1.02D+00  4.13D-01  6.88D-01  9.51D-01
                    CP:  8.11D-01
 E= -1101.01580273651     Delta-E=       -0.000000000002 Rises=F Damp=F
 DIIS: error= 6.88D-08 at cycle   7 NSaved=   7.
 NSaved= 7 IEnMin= 7 EnMin= -1101.01580273651     IErMin= 7 ErrMin= 6.88D-08
 ErrMax= 6.88D-08  0.00D+00 EMaxC= 1.00D-01 BMatC= 1.09D-12 BMatP= 5.07D-12
 IDIUse=1 WtCom= 1.00D+00 WtEn= 0.00D+00
 Coeff-Com:  0.255D-04-0.339D-02-0.206D-02 0.170D-02 0.947D-01 0.400D+00
 Coeff-Com:  0.509D+00
 Coeff:      0.255D-04-0.339D-02-0.206D-02 0.170D-02 0.947D-01 0.400D+00
 Coeff:      0.509D+00
 Gap=     0.177 Goal=   None    Shift=    0.000
 RMSDP=4.89D-09 MaxDP=1.42D-07 DE=-1.82D-12 OVMax= 4.60D-07

 SCF Done:  E(RB3LYP) =  -1101.01580274     A.U. after   15 cycles
            NFock= 15  Conv=0.49D-08     -V/T= 2.0081
 KE= 1.092178569691D+03 PE=-6.155685032002D+03 EE= 2.171732773139D+03
 Leave Link  502 at Sun Feb 25 22:54:44 2024, MaxMem=  7516192768 cpu:             393.7 elap:              10.0
 (Enter /public/apps/g16-C01//g16/l601.exe)
 Copying SCF densities to generalized density rwf, IOpCl= 0 IROHF=0.

 **********************************************************************

            Population analysis using the SCF Density.

 **********************************************************************

 Alpha  occ. eigenvalues --  -24.72640 -24.72542 -24.71980 -19.17168 -14.33965
 Alpha  occ. eigenvalues --  -14.31038 -10.44250 -10.28009 -10.25007 -10.23838
 Alpha  occ. eigenvalues --  -10.23838 -10.23784 -10.22432 -10.22069 -10.21884
 Alpha  occ. eigenvalues --  -10.19216 -10.18916 -10.18475 -10.18427 -10.18357
 Alpha  occ. eigenvalues --  -10.18279 -10.18032  -1.30748  -1.21441  -1.20900
 Alpha  occ. eigenvalues --   -1.09522  -0.96875  -0.91273  -0.85817  -0.84580
 Alpha  occ. eigenvalues --   -0.81359  -0.78056  -0.74672  -0.74273  -0.72331
 Alpha  occ. eigenvalues --   -0.69655  -0.66647  -0.65592  -0.62463  -0.61037
 Alpha  occ. eigenvalues --   -0.60576  -0.59849  -0.59786  -0.57788  -0.55797
 Alpha  occ. eigenvalues --   -0.52721  -0.51437  -0.51161  -0.50715  -0.50425
 Alpha  occ. eigenvalues --   -0.47699  -0.47411  -0.47275  -0.46963  -0.45719
 Alpha  occ. eigenvalues --   -0.45306  -0.44446  -0.43788  -0.43139  -0.43058
 Alpha  occ. eigenvalues --   -0.42565  -0.41933  -0.41410  -0.40335  -0.40133
 Alpha  occ. eigenvalues --   -0.39837  -0.38497  -0.38119  -0.36851  -0.35471
 Alpha  occ. eigenvalues --   -0.34508  -0.33837  -0.31831  -0.29421  -0.28615
 Alpha  occ. eigenvalues --   -0.27287  -0.25964  -0.25242  -0.24785
 Alpha virt. eigenvalues --   -0.07077  -0.05155  -0.00883  -0.00722   0.03664
 Alpha virt. eigenvalues --    0.05897   0.06980   0.07343   0.08227   0.09399
 Alpha virt. eigenvalues --    0.10045   0.11551   0.12031   0.12655   0.12911
 Alpha virt. eigenvalues --    0.13544   0.13777   0.14699   0.15223   0.15808
 Alpha virt. eigenvalues --    0.16501   0.16847   0.17733   0.19671   0.20161
 Alpha virt. eigenvalues --    0.21324   0.22148   0.22914   0.23309   0.24689
 Alpha virt. eigenvalues --    0.25861   0.28470   0.29560   0.29909   0.31183
 Alpha virt. eigenvalues --    0.32044   0.32391   0.32835   0.33809   0.34554
 Alpha virt. eigenvalues --    0.35058   0.36402   0.38123   0.39295   0.39819
 Alpha virt. eigenvalues --    0.40685   0.41211   0.42095   0.43049   0.43850
 Alpha virt. eigenvalues --    0.44494   0.45350   0.45644   0.46074   0.46470
 Alpha virt. eigenvalues --    0.47985   0.48873   0.49563   0.50786   0.50927
 Alpha virt. eigenvalues --    0.51756   0.52815   0.54520   0.55404   0.55935
 Alpha virt. eigenvalues --    0.56820   0.57357   0.58061   0.58757   0.59698
 Alpha virt. eigenvalues --    0.61020   0.61421   0.61856   0.62551   0.63499
 Alpha virt. eigenvalues --    0.64199   0.64737   0.65589   0.66113   0.66359
 Alpha virt. eigenvalues --    0.67395   0.68183   0.68421   0.69235   0.69802
 Alpha virt. eigenvalues --    0.70053   0.70754   0.70975   0.71506   0.72063
 Alpha virt. eigenvalues --    0.72673   0.73450   0.74132   0.74919   0.75539
 Alpha virt. eigenvalues --    0.76616   0.77291   0.78149   0.78496   0.78852
 Alpha virt. eigenvalues --    0.80498   0.80881   0.83973   0.84662   0.85944
 Alpha virt. eigenvalues --    0.87101   0.89305   0.91513   0.92819   0.94288
 Alpha virt. eigenvalues --    0.95634   0.97150   0.99293   1.01969   1.04842
 Alpha virt. eigenvalues --    1.05632   1.07411   1.08009   1.09224   1.09949
 Alpha virt. eigenvalues --    1.10371   1.11095   1.12156   1.14364   1.16336
 Alpha virt. eigenvalues --    1.17230   1.17796   1.19047   1.23512   1.27231
 Alpha virt. eigenvalues --    1.29040   1.29384   1.30541   1.32377   1.33446
 Alpha virt. eigenvalues --    1.33914   1.35484   1.36863   1.39190   1.41750
 Alpha virt. eigenvalues --    1.43544   1.44059   1.44744   1.45793   1.46587
 Alpha virt. eigenvalues --    1.47612   1.48496   1.49457   1.50188   1.51603
 Alpha virt. eigenvalues --    1.51898   1.55494   1.58805   1.60078   1.63062
 Alpha virt. eigenvalues --    1.63409   1.67637   1.70537   1.71042   1.73220
 Alpha virt. eigenvalues --    1.75503   1.75649   1.77276   1.78576   1.79786
 Alpha virt. eigenvalues --    1.80560   1.82620   1.83101   1.85438   1.86193
 Alpha virt. eigenvalues --    1.87752   1.88506   1.88809   1.89844   1.92304
 Alpha virt. eigenvalues --    1.93437   1.94542   1.94670   1.96998   1.98358
 Alpha virt. eigenvalues --    1.99399   2.00088   2.02151   2.04588   2.05282
 Alpha virt. eigenvalues --    2.06564   2.09660   2.10908   2.12003   2.12673
 Alpha virt. eigenvalues --    2.14109   2.14860   2.16387   2.17468   2.19662
 Alpha virt. eigenvalues --    2.22607   2.23271   2.24601   2.25453   2.29218
 Alpha virt. eigenvalues --    2.29937   2.32053   2.32434   2.35379   2.36300
 Alpha virt. eigenvalues --    2.39297   2.39744   2.46492   2.47445   2.50672
 Alpha virt. eigenvalues --    2.51305   2.53688   2.56165   2.57085   2.62392
 Alpha virt. eigenvalues --    2.65378   2.66832   2.67542   2.70215   2.70947
 Alpha virt. eigenvalues --    2.72667   2.73622   2.76360   2.77422   2.79412
 Alpha virt. eigenvalues --    2.81649   2.82424   2.83493   2.87671   2.91906
 Alpha virt. eigenvalues --    2.97128   3.00029   3.00199   3.03058   3.03209
 Alpha virt. eigenvalues --    3.03892   3.04402   3.05514   3.05915   3.11053
 Alpha virt. eigenvalues --    3.13695   3.16551   3.20362   3.22315   3.28641
 Alpha virt. eigenvalues --    3.35266   3.40931   3.43112   3.51696   3.53847
 Alpha virt. eigenvalues --    3.57040   3.63254   3.65520   3.83297   3.86044
          Condensed to atoms (all electrons):
               1          2          3          4          5          6
     1  F    8.939715   0.383397  -0.048340  -0.046036  -0.081045   0.004610
     2  C    0.383397   4.150528   0.387026   0.381284   0.244405  -0.048796
     3  F   -0.048340   0.387026   8.949218  -0.048127  -0.066991  -0.001945
     4  F   -0.046036   0.381284  -0.048127   8.940891  -0.078149   0.003673
     5  C   -0.081045   0.244405  -0.066991  -0.078149   5.602882   0.319194
     6  C    0.004610  -0.048796  -0.001945   0.003673   0.319194   5.210904
     7  C    0.000938   0.007927  -0.000149  -0.000092   0.025267   0.360559
     8  N   -0.000001  -0.000237   0.000001   0.000002  -0.065053  -0.010965
     9  C   -0.000123   0.008376  -0.000300   0.001389   0.015956  -0.064643
    10  C    0.000000  -0.000812  -0.000002  -0.000031   0.019195   0.000919
    11  N    0.000000  -0.000077  -0.000000   0.000002   0.002319   0.000029
    12  C   -0.000000   0.000001  -0.000000  -0.000000  -0.000089   0.000002
    13  C    0.000000  -0.000000   0.000000   0.000000   0.000002  -0.000000
    14  C    0.000000  -0.000000   0.000000  -0.000000  -0.000009  -0.000000
    15  C   -0.000000   0.000000  -0.000000  -0.000000  -0.000000   0.000000
    16  C   -0.000000  -0.000000   0.000000   0.000000   0.000000  -0.000000
    17  C   -0.000000   0.000000   0.000000   0.000000  -0.000000  -0.000000
    18  C    0.000000  -0.000003  -0.000000  -0.000000   0.000004  -0.000008
    19  C    0.000000   0.000001  -0.000000   0.000000  -0.000156   0.000000
    20  C    0.000000  -0.000000   0.000000   0.000000   0.000037   0.000002
    21  O   -0.000000  -0.000000  -0.000000  -0.000000  -0.000034  -0.000023
    22  C    0.004905  -0.040598  -0.001666   0.002799   0.196267  -0.013647
    23  H    0.008227  -0.011288   0.000149   0.000185  -0.072208   0.410544
    24  H   -0.000008  -0.000232   0.000001   0.000000   0.008344  -0.085283
    25  H   -0.000000   0.000000  -0.000000   0.000000   0.000001  -0.000000
    26  H   -0.000000   0.000000  -0.000000   0.000000   0.000000   0.000000
    27  H    0.000000  -0.000000   0.000000   0.000000   0.000003  -0.000000
    28  H   -0.000000   0.000000  -0.000000  -0.000000   0.000000  -0.000000
    29  H   -0.000000   0.000000   0.000000  -0.000000   0.000000  -0.000000
    30  H    0.000000  -0.000000  -0.000000  -0.000000   0.000000  -0.000000
    31  H   -0.000000   0.000001   0.000000   0.000001   0.000044  -0.000003
    32  H   -0.000000  -0.000017   0.000000  -0.000005   0.000045   0.000020
    33  H   -0.000000   0.000000   0.000000  -0.000000  -0.000001   0.000000
    34  H   -0.000000   0.000000  -0.000000  -0.000000  -0.000000  -0.000000
    35  H    0.000171  -0.006168   0.000191   0.007406  -0.081934   0.010443
               7          8          9         10         11         12
     1  F    0.000938  -0.000001  -0.000123   0.000000   0.000000  -0.000000
     2  C    0.007927  -0.000237   0.008376  -0.000812  -0.000077   0.000001
     3  F   -0.000149   0.000001  -0.000300  -0.000002  -0.000000  -0.000000
     4  F   -0.000092   0.000002   0.001389  -0.000031   0.000002  -0.000000
     5  C    0.025267  -0.065053   0.015956   0.019195   0.002319  -0.000089
     6  C    0.360559  -0.010965  -0.064643   0.000919   0.000029   0.000002
     7  C    4.857370   0.517444  -0.039430   0.008225  -0.000080   0.000019
     8  N    0.517444   6.238047   0.541646  -0.102163   0.002212  -0.000164
     9  C   -0.039430   0.541646   5.413482  -0.021015  -0.150911   0.025334
    10  C    0.008225  -0.102163  -0.021015   5.196952   0.633578  -0.069430
    11  N   -0.000080   0.002212  -0.150911   0.633578   6.514492   0.394800
    12  C    0.000019  -0.000164   0.025334  -0.069430   0.394800   4.905192
    13  C   -0.000001   0.000001  -0.001819  -0.006741  -0.072792   0.347921
    14  C   -0.000000  -0.000016  -0.000395   0.006576  -0.024535  -0.033874
    15  C   -0.000000   0.000001  -0.000012   0.000044   0.000917  -0.009417
    16  C    0.000000   0.000002  -0.000051   0.000156   0.000052   0.000106
    17  C   -0.000000  -0.000007   0.000092  -0.000203   0.000016  -0.000089
    18  C    0.000016  -0.000032   0.000010   0.000513  -0.000245   0.001098
    19  C    0.000006  -0.000215   0.000658   0.005342   0.007074  -0.016289
    20  C    0.000013  -0.000204   0.001621  -0.109931  -0.064567   0.321810
    21  O    0.000001   0.003320  -0.100993   0.437752  -0.100917  -0.065034
    22  C   -0.074463  -0.051271   0.368146  -0.113963   0.012227  -0.002704
    23  H   -0.045105   0.005503   0.000625   0.000137  -0.000001   0.000000
    24  H    0.413703  -0.046404   0.006321  -0.000288   0.000002  -0.000000
    25  H   -0.000001   0.000007  -0.000824   0.002684  -0.023500   0.341528
    26  H    0.000000  -0.000000   0.000034   0.000101   0.005706  -0.009597
    27  H   -0.000000   0.000000  -0.000201  -0.001388   0.001983  -0.014288
    28  H    0.000000   0.000000   0.000007   0.000057   0.000032   0.000773
    29  H   -0.000000   0.000000  -0.000000  -0.000004   0.000001  -0.000011
    30  H    0.000000  -0.000000  -0.000000  -0.000001   0.000001   0.000003
    31  H   -0.000003  -0.000002   0.000149  -0.000038  -0.000042   0.000014
    32  H   -0.000012  -0.000042  -0.003864   0.003708   0.009098  -0.007727
    33  H    0.000000   0.000015   0.000232   0.007705   0.001571  -0.001107
    34  H    0.000001   0.000030  -0.000024   0.006962   0.003534  -0.009409
    35  H   -0.000294   0.005350  -0.033560  -0.015731   0.022007  -0.000500
              13         14         15         16         17         18
     1  F    0.000000   0.000000  -0.000000  -0.000000  -0.000000   0.000000
     2  C   -0.000000  -0.000000   0.000000  -0.000000   0.000000  -0.000003
     3  F    0.000000   0.000000  -0.000000   0.000000   0.000000  -0.000000
     4  F    0.000000  -0.000000  -0.000000   0.000000   0.000000  -0.000000
     5  C    0.000002  -0.000009  -0.000000   0.000000  -0.000000   0.000004
     6  C   -0.000000  -0.000000   0.000000  -0.000000  -0.000000  -0.000008
     7  C   -0.000001  -0.000000  -0.000000   0.000000  -0.000000   0.000016
     8  N    0.000001  -0.000016   0.000001   0.000002  -0.000007  -0.000032
     9  C   -0.001819  -0.000395  -0.000012  -0.000051   0.000092   0.000010
    10  C   -0.006741   0.006576   0.000044   0.000156  -0.000203   0.000513
    11  N   -0.072792  -0.024535   0.000917   0.000052   0.000016  -0.000245
    12  C    0.347921  -0.033874  -0.009417   0.000106  -0.000089   0.001098
    13  C    4.935761   0.401939  -0.093621   0.013523   0.000081   0.012631
    14  C    0.401939   5.257604   0.187802   0.170780  -0.208293   0.174346
    15  C   -0.093621   0.187802   5.389951   0.184149   0.166757  -0.191717
    16  C    0.013523   0.170780   0.184149   5.225587   0.169216   0.169709
    17  C    0.000081  -0.208293   0.166757   0.169216   5.291209   0.154218
    18  C    0.012631   0.174346  -0.191717   0.169709   0.154218   5.269196
    19  C   -0.095694   0.198939   0.100195  -0.183967   0.171115   0.161363
    20  C   -0.029924  -0.024599   0.003428  -0.001145   0.000030   0.000097
    21  O    0.000847   0.004451  -0.000510  -0.000006  -0.000016   0.000183
    22  C    0.000306  -0.000101  -0.000000  -0.000003   0.000005   0.000343
    23  H   -0.000000   0.000000   0.000000  -0.000000   0.000000  -0.000000
    24  H   -0.000000  -0.000000  -0.000000  -0.000000   0.000000   0.000000
    25  H   -0.033604   0.009296  -0.000185   0.000016  -0.000001   0.000014
    26  H    0.329722  -0.016875  -0.012926   0.000789  -0.000006  -0.000495
    27  H    0.326480  -0.010076   0.009529  -0.000670   0.000047   0.000569
    28  H   -0.018806  -0.080330   0.425634  -0.079365   0.015955  -0.002079
    29  H   -0.000382   0.018637  -0.086941   0.443440  -0.088276   0.016959
    30  H    0.000026  -0.002210   0.017010  -0.086248   0.443715  -0.086289
    31  H   -0.000387   0.018380  -0.002412   0.017242  -0.089336   0.447566
    32  H   -0.010418  -0.073345   0.017800  -0.002261   0.015557  -0.084448
    33  H    0.005688   0.001392  -0.000146   0.000022  -0.000002  -0.000006
    34  H   -0.014496   0.002220   0.012122   0.000727  -0.000048  -0.000111
    35  H    0.000057  -0.000143  -0.000002  -0.000000  -0.000002   0.000110
              19         20         21         22         23         24
     1  F    0.000000   0.000000  -0.000000   0.004905   0.008227  -0.000008
     2  C    0.000001  -0.000000  -0.000000  -0.040598  -0.011288  -0.000232
     3  F   -0.000000   0.000000  -0.000000  -0.001666   0.000149   0.000001
     4  F    0.000000   0.000000  -0.000000   0.002799   0.000185   0.000000
     5  C   -0.000156   0.000037  -0.000034   0.196267  -0.072208   0.008344
     6  C    0.000000   0.000002  -0.000023  -0.013647   0.410544  -0.085283
     7  C    0.000006   0.000013   0.000001  -0.074463  -0.045105   0.413703
     8  N   -0.000215  -0.000204   0.003320  -0.051271   0.005503  -0.046404
     9  C    0.000658   0.001621  -0.100993   0.368146   0.000625   0.006321
    10  C    0.005342  -0.109931   0.437752  -0.113963   0.000137  -0.000288
    11  N    0.007074  -0.064567  -0.100917   0.012227  -0.000001   0.000002
    12  C   -0.016289   0.321810  -0.065034  -0.002704   0.000000  -0.000000
    13  C   -0.095694  -0.029924   0.000847   0.000306  -0.000000  -0.000000
    14  C    0.198939  -0.024599   0.004451  -0.000101   0.000000  -0.000000
    15  C    0.100195   0.003428  -0.000510  -0.000000   0.000000  -0.000000
    16  C   -0.183967  -0.001145  -0.000006  -0.000003  -0.000000  -0.000000
    17  C    0.171115   0.000030  -0.000016   0.000005   0.000000   0.000000
    18  C    0.161363   0.000097   0.000183   0.000343  -0.000000   0.000000
    19  C    5.370837  -0.000527  -0.002005   0.000534   0.000000   0.000000
    20  C   -0.000527   4.803264   0.328045   0.000529   0.000000  -0.000001
    21  O   -0.002005   0.328045   7.818779   0.004802  -0.000000   0.000008
    22  C    0.000534   0.000529   0.004802   5.442162   0.011952   0.001578
    23  H    0.000000   0.000000  -0.000000   0.011952   0.619677  -0.005478
    24  H    0.000000  -0.000001   0.000008   0.001578  -0.005478   0.632062
    25  H    0.000413  -0.023211   0.003353   0.000059  -0.000000   0.000000
    26  H    0.012379  -0.008685  -0.000002  -0.000000   0.000000  -0.000000
    27  H   -0.008971   0.010777  -0.000103   0.000006   0.000000   0.000000
    28  H    0.018049  -0.001800  -0.000021  -0.000000  -0.000000   0.000000
    29  H   -0.002319   0.000016  -0.000000  -0.000000   0.000000  -0.000000
    30  H    0.016848   0.000000  -0.000001  -0.000001  -0.000000   0.000000
    31  H   -0.089996  -0.000011  -0.000001   0.000132  -0.000000  -0.000000
    32  H    0.429416   0.001719   0.000202   0.002647   0.000000   0.000000
    33  H   -0.000107   0.340088  -0.029659   0.000001  -0.000000  -0.000000
    34  H    0.000895   0.353362  -0.026192  -0.000031  -0.000000  -0.000000
    35  H   -0.000573   0.000299   0.000494   0.411071  -0.000111   0.000079
              25         26         27         28         29         30
     1  F   -0.000000  -0.000000   0.000000  -0.000000  -0.000000   0.000000
     2  C    0.000000   0.000000  -0.000000   0.000000   0.000000  -0.000000
     3  F   -0.000000  -0.000000   0.000000  -0.000000   0.000000  -0.000000
     4  F    0.000000   0.000000   0.000000  -0.000000  -0.000000  -0.000000
     5  C    0.000001   0.000000   0.000003   0.000000   0.000000   0.000000
     6  C   -0.000000   0.000000  -0.000000  -0.000000  -0.000000  -0.000000
     7  C   -0.000001   0.000000  -0.000000   0.000000  -0.000000   0.000000
     8  N    0.000007  -0.000000   0.000000   0.000000   0.000000  -0.000000
     9  C   -0.000824   0.000034  -0.000201   0.000007  -0.000000  -0.000000
    10  C    0.002684   0.000101  -0.001388   0.000057  -0.000004  -0.000001
    11  N   -0.023500   0.005706   0.001983   0.000032   0.000001   0.000001
    12  C    0.341528  -0.009597  -0.014288   0.000773  -0.000011   0.000003
    13  C   -0.033604   0.329722   0.326480  -0.018806  -0.000382   0.000026
    14  C    0.009296  -0.016875  -0.010076  -0.080330   0.018637  -0.002210
    15  C   -0.000185  -0.012926   0.009529   0.425634  -0.086941   0.017010
    16  C    0.000016   0.000789  -0.000670  -0.079365   0.443440  -0.086248
    17  C   -0.000001  -0.000006   0.000047   0.015955  -0.088276   0.443715
    18  C    0.000014  -0.000495   0.000569  -0.002079   0.016959  -0.086289
    19  C    0.000413   0.012379  -0.008971   0.018049  -0.002319   0.016848
    20  C   -0.023211  -0.008685   0.010777  -0.001800   0.000016   0.000000
    21  O    0.003353  -0.000002  -0.000103  -0.000021  -0.000000  -0.000001
    22  C    0.000059  -0.000000   0.000006  -0.000000  -0.000000  -0.000001
    23  H   -0.000000   0.000000   0.000000  -0.000000   0.000000  -0.000000
    24  H    0.000000  -0.000000   0.000000   0.000000  -0.000000   0.000000
    25  H    0.663774  -0.003162  -0.005357  -0.000061  -0.000001   0.000000
    26  H   -0.003162   0.646324  -0.026229   0.009167  -0.000013  -0.000001
    27  H   -0.005357  -0.026229   0.626214   0.000160   0.000012  -0.000001
    28  H   -0.000061   0.009167   0.000160   0.685413  -0.013566  -0.000317
    29  H   -0.000001  -0.000013   0.000012  -0.013566   0.681626  -0.013418
    30  H    0.000000  -0.000001  -0.000001  -0.000317  -0.013418   0.677369
    31  H   -0.000001   0.000013  -0.000004   0.000044  -0.000320  -0.013369
    32  H   -0.000172   0.000017   0.007007  -0.000304   0.000037  -0.000284
    33  H   -0.012879   0.000192  -0.000440  -0.000039   0.000000  -0.000000
    34  H    0.006168   0.001995   0.000411   0.004861  -0.000019  -0.000003
    35  H   -0.000057   0.000001   0.000103  -0.000000   0.000000  -0.000000
              31         32         33         34         35
     1  F   -0.000000  -0.000000  -0.000000  -0.000000   0.000171
     2  C    0.000001  -0.000017   0.000000   0.000000  -0.006168
     3  F    0.000000   0.000000   0.000000  -0.000000   0.000191
     4  F    0.000001  -0.000005  -0.000000  -0.000000   0.007406
     5  C    0.000044   0.000045  -0.000001  -0.000000  -0.081934
     6  C   -0.000003   0.000020   0.000000  -0.000000   0.010443
     7  C   -0.000003  -0.000012   0.000000   0.000001  -0.000294
     8  N   -0.000002  -0.000042   0.000015   0.000030   0.005350
     9  C    0.000149  -0.003864   0.000232  -0.000024  -0.033560
    10  C   -0.000038   0.003708   0.007705   0.006962  -0.015731
    11  N   -0.000042   0.009098   0.001571   0.003534   0.022007
    12  C    0.000014  -0.007727  -0.001107  -0.009409  -0.000500
    13  C   -0.000387  -0.010418   0.005688  -0.014496   0.000057
    14  C    0.018380  -0.073345   0.001392   0.002220  -0.000143
    15  C   -0.002412   0.017800  -0.000146   0.012122  -0.000002
    16  C    0.017242  -0.002261   0.000022   0.000727  -0.000000
    17  C   -0.089336   0.015557  -0.000002  -0.000048  -0.000002
    18  C    0.447566  -0.084448  -0.000006  -0.000111   0.000110
    19  C   -0.089996   0.429416  -0.000107   0.000895  -0.000573
    20  C   -0.000011   0.001719   0.340088   0.353362   0.000299
    21  O   -0.000001   0.000202  -0.029659  -0.026192   0.000494
    22  C    0.000132   0.002647   0.000001  -0.000031   0.411071
    23  H   -0.000000   0.000000  -0.000000  -0.000000  -0.000111
    24  H   -0.000000   0.000000  -0.000000  -0.000000   0.000079
    25  H   -0.000001  -0.000172  -0.012879   0.006168  -0.000057
    26  H    0.000013   0.000017   0.000192   0.001995   0.000001
    27  H   -0.000004   0.007007  -0.000440   0.000411   0.000103
    28  H    0.000044  -0.000304  -0.000039   0.004861  -0.000000
    29  H   -0.000320   0.000037   0.000000  -0.000019   0.000000
    30  H   -0.013369  -0.000284  -0.000000  -0.000003  -0.000000
    31  H    0.679536  -0.013034  -0.000000   0.000002  -0.000005
    32  H   -0.013034   0.655129  -0.000016  -0.000162   0.001611
    33  H   -0.000000  -0.000016   0.632529  -0.034792  -0.000007
    34  H    0.000002  -0.000162  -0.034792   0.597078  -0.000011
    35  H   -0.000005   0.001611  -0.000007  -0.000011   0.588635
 Mulliken charges:
               1
     1  F   -0.166410
     2  C    0.545282
     3  F   -0.169066
     4  F   -0.165191
     5  C    0.011707
     6  C   -0.095586
     7  C   -0.031859
     8  N   -0.036805
     9  C    0.034082
    10  C    0.111133
    11  N   -0.173985
    12  C   -0.098872
    13  C    0.003705
    14  C    0.022441
    15  C   -0.117448
    16  C   -0.041799
    17  C   -0.041735
    18  C   -0.043511
    19  C   -0.093247
    20  C    0.099469
    21  O   -0.276716
    22  C   -0.162019
    23  H    0.077192
    24  H    0.075595
    25  H    0.075703
    26  H    0.071552
    27  H    0.084429
    28  H    0.036540
    29  H    0.044542
    30  H    0.047171
    31  H    0.045838
    32  H    0.052100
    33  H    0.089767
    34  H    0.094931
    35  H    0.091070
 Sum of Mulliken charges =  -0.00000
 Mulliken charges with hydrogens summed into heavy atoms:
               1
     1  F   -0.166410
     2  C    0.545282
     3  F   -0.169066
     4  F   -0.165191
     5  C    0.011707
     6  C   -0.018394
     7  C    0.043736
     8  N   -0.036805
     9  C    0.034082
    10  C    0.111133
    11  N   -0.173985
    12  C   -0.023169
    13  C    0.159686
    14  C    0.022441
    15  C   -0.080908
    16  C    0.002743
    17  C    0.005436
    18  C    0.002328
    19  C   -0.041147
    20  C    0.284167
    21  O   -0.276716
    22  C   -0.070949
 Electronic spatial extent (au):  <R**2>=           7245.8712
 Charge=             -0.0000 electrons
 Dipole moment (field-independent basis, Debye):
    X=             -1.5300    Y=              0.6005    Z=              0.6163  Tot=              1.7554
 Quadrupole moment (field-independent basis, Debye-Ang):
   XX=           -118.2138   YY=           -123.9274   ZZ=           -123.5011
   XY=             -3.2369   XZ=              8.3667   YZ=             -5.4600
 Traceless Quadrupole moment (field-independent basis, Debye-Ang):
   XX=              3.6670   YY=             -2.0466   ZZ=             -1.6203
   XY=             -3.2369   XZ=              8.3667   YZ=             -5.4600
 Octapole moment (field-independent basis, Debye-Ang**2):
  XXX=             54.7467  YYY=             -0.8070  ZZZ=             -9.8371  XYY=             32.0799
  XXY=             31.4874  XXZ=             22.9476  XZZ=             50.7809  YZZ=             -8.6140
  YYZ=             -5.6105  XYZ=             19.4026
 Hexadecapole moment (field-independent basis, Debye-Ang**3):
 XXXX=          -6322.6908 YYYY=          -1593.8303 ZZZZ=          -1116.0432 XXXY=           -163.6166
 XXXZ=            -57.6029 YYYX=           -158.4156 YYYZ=            -17.7943 ZZZX=            -55.2882
 ZZZY=             27.6071 XXYY=          -1344.5866 XXZZ=          -1200.6924 YYZZ=           -462.3641
 XXYZ=            -35.5895 YYXZ=            -48.7658 ZZXY=            -12.3672
 N-N= 1.790757886435D+03 E-N=-6.155685043642D+03  KE= 1.092178569691D+03
 No NMR shielding tensors so no spin-rotation constants.
 Leave Link  601 at Sun Feb 25 22:54:45 2024, MaxMem=  7516192768 cpu:               3.9 elap:               0.1
 (Enter /public/apps/g16-C01//g16/l701.exe)
 ... and contract with generalized density number  0.
 Compute integral first derivatives.
 R6Disp: Adding Grimme-D3(BJ) dispersion energy 1st derivatives to the gradient.
   1 Symmetry operations used in ECPInt.
 ECPInt:  NShTT=   12561 NPrTT=   50411 LenC2=   11385 LenP2D=   30790.
 LDataN:  DoStor=T MaxTD1= 5 Len=  102
 Leave Link  701 at Sun Feb 25 22:54:45 2024, MaxMem=  7516192768 cpu:               6.7 elap:               0.2
 (Enter /public/apps/g16-C01//g16/l702.exe)
 L702 exits ... SP integral derivatives will be done elsewhere.
 Leave Link  702 at Sun Feb 25 22:54:46 2024, MaxMem=  7516192768 cpu:               0.3 elap:               0.0
 (Enter /public/apps/g16-C01//g16/l703.exe)
 Integral derivatives from FoFJK, PRISM(SPDF).
 Compute integral first derivatives, UseDBF=F ICtDFT=           0.
 Calling FoFJK, ICntrl=      2127 FMM=F ISym2X=0 I1Cent= 0 IOpClX= 0 NMat=1 NMatS=1 NMatT=0.
 FoFJK:  IHMeth= 1 ICntrl=    2127 DoSepK=F KAlg= 0 I1Cent=           0 FoldK=F
 IRaf=         0 NMat=       1 IRICut=       1 DoRegI=T DoRafI=F ISym2E= 0 IDoP0=0 IntGTp=1.
 FoFCou: FMM=F IPFlag=           0 FMFlag=      100000 FMFlg1=         800
[...]
 0286,0.00002747,0.00001289,-0.00001183,-0.00001800,0.00001404,0.000002
 38,0.00000241,-0.00004261,0.00000682,-0.00000582,-0.00003551,-0.000011
 02,-0.00009635,0.00005181,0.00012045,0.00003595,0.00002539,-0.00006204
 ,0.00010663,-0.00030246,-0.00053978,-0.00022614,0.00015987,-0.00079404
 ,-0.00004340,0.00117720,0.00229337,0.00367674,0.00156003,0.00031566,0.
 00208649,-0.00535322,0.14675238,-0.19678539,-0.00348473,0.01489086,-0.
 01036336,0.00526333,0.00174998,0.00100020,-0.00000177,-0.00000360,-0.0
 0000639,-0.00001096,-0.00000687,0.00003447,0.00002719,-0.00000973,-0.0
 0001041,0.00000291,0.00000139,0.00000196,0.00000191,0.00000190,0.00000
 559,-0.00000696,-0.00001174,-0.00000241,-0.00006852,0.00007846,0.00000
 915,0.00010099,0.00000456,-0.00003597,0.00014629,0.00008728,0.00004444
 ,-0.00152951,-0.00182604,-0.00104065,0.00378432,-0.16159078,0.20287521
 ,0.00002736,-0.00001888,0.00000386,-0.00007427,0.00002270,0.00001749,0
 .00002458,0.00000202,-0.00001084,0.00002058,-0.00000157,-0.00000789,-0
 .00001650,0.00001213,-0.00002248,0.00000223,0.00000260,0.00001896,0.00
 001483,-0.00001074,-0.00001673,0.00000966,-0.00000315,0.00001203,-0.00
 003920,-0.00000082,-0.00001722,-0.00006287,-0.00001016,-0.00003125,0.0
 0005764,0.00000134,0.00002330,-0.00005601,-0.00002261,-0.00002350,-0.0
 0002600,-0.00013523,0.00021902,0.00276955,0.00172823,0.00149122,0.0003
 6483,-0.00080503,0.00017833,-0.00068561,0.00028745,0.00533964,-0.01386
 689,0.01519991,-0.00372377,-0.23308054,0.13809301,-0.00773027,0.002153
 18,-0.00037898,0.00168504,-0.00000966,-0.00002922,-0.00002501,0.000035
 89,0.00001051,0.00001972,0.00004411,0.00000088,0.00000803,0.00000291,0
 .00000100,0.00000107,0.00000247,0.00000346,0.00000637,0.00002175,0.000
 02923,0.00000005,-0.00000946,-0.00001216,-0.00002869,0.00001948,0.0000
 2805,-0.00003702,-0.00023695,-0.00025372,-0.00033751,-0.00070703,0.000
 72115,-0.00014940,0.00010841,-0.00163556,-0.00131392,0.24337190,0.0000
 4058,0.00000580,-0.00000685,-0.00018469,-0.00008968,0.00004931,0.00007
 340,0.00004441,-0.00003588,0.00004966,0.00003044,-0.00000261,-0.000023
 34,0.00004858,-0.00001113,-0.00004546,0.00000675,-0.00004422,-0.000036
 02,-0.00000937,-0.00002058,-0.00001576,0.00004073,-0.00004980,0.000153
 12,-0.00006764,0.00004818,0.00021790,-0.00005622,0.00015646,-0.0001850
 0,-0.00005898,-0.00012206,0.00016747,0.00003428,0.00010507,0.00087829,
 -0.00017166,-0.00014595,0.00083719,0.00129595,0.00583246,-0.00085068,-
 0.00009545,0.00009265,0.00109071,0.00370779,0.00270977,-0.00374725,0.0
 0541435,0.00103559,0.13803668,-0.14689656,0.01795558,0.01847711,-0.008
 49621,-0.00008232,0.00006288,0.00000760,0.00003799,-0.00012566,0.00001
 234,-0.00009465,-0.00001692,0.00007650,0.00003497,-0.00000308,-0.00000
 573,0.00000160,-0.00000212,-0.00000246,0.00000062,-0.00006515,-0.00002
 719,-0.00002016,0.00000241,-0.00034620,0.00018213,-0.00001374,0.000011
 34,-0.00001335,-0.00022837,-0.00050665,-0.00045599,-0.00015550,0.00018
 038,0.00013162,-0.00113424,-0.00140312,-0.00214408,-0.15152362,0.14845
 519,-0.00000440,-0.00000826,-0.00003796,0.00003676,0.00011129,0.000166
 72,-0.00000371,-0.00002661,-0.00002320,-0.00003583,-0.00006857,-0.0000
 8808,0.00000383,-0.00001074,-0.00000011,0.00001177,-0.00000126,-0.0000
 0308,-0.00001532,0.00000030,-0.00000952,0.00002819,0.00001094,-0.00003
 435,-0.00003782,-0.00001138,0.00002864,-0.00001664,-0.00001245,0.00002
 038,0.00005194,-0.00006266,0.00002137,-0.00009493,-0.00006237,-0.00003
 938,-0.00092975,0.00032103,0.00033669,0.00217849,0.00570705,-0.0003690
 7,0.00027707,0.00018755,-0.00104266,0.00453297,0.00320737,-0.00006238,
 0.01708541,-0.01314480,0.00561173,-0.00747521,0.01816596,-0.05284857,-
 0.01934815,0.01362284,0.00315178,0.00002696,0.00000131,-0.00005230,0.0
 0002639,0.00000349,-0.00000557,0.00000510,-0.00002050,0.00002805,-0.00
 000471,-0.00000227,0.00000164,-0.00000203,-0.00000713,-0.00000468,0.00
 003293,0.00002842,0.00000801,-0.00007041,0.00019478,-0.00021806,0.0000
 4089,-0.00004094,-0.00002876,-0.00031599,-0.00044990,-0.00033029,0.000
 87785,-0.00052907,0.00018450,-0.00186776,-0.00177305,-0.00071167,0.006
 04131,-0.02296534,0.04717709,0.00001500,0.00000914,0.00002030,-0.00008
 762,-0.00009761,-0.00008778,0.00003182,0.00003418,-0.00000072,0.000055
 45,0.00004879,0.00005797,-0.00002800,0.00006042,-0.00000408,-0.0000485
 3,0.00001104,-0.00000325,0.00002071,0.00000058,0.00003620,-0.00007519,
 0.00003525,-0.00009890,0.00038551,-0.00008795,0.00022398,-0.00035788,-
 0.00039094,0.00100214,-0.00058963,-0.00148842,-0.00063942,-0.00004151,
 0.00038788,0.00005818,-0.00015092,-0.00228262,0.00059350,-0.01471286,-
 0.00325666,0.01717386,-0.00129051,0.00515645,0.00006873,0.00006055,0.0
 0021655,-0.00078712,0.00245135,0.00221064,0.00095012,0.00531443,0.0015
 0173,-0.00319678,-0.21076402,-0.01176318,0.14314232,-0.00031798,-0.000
 02516,-0.00009521,0.00062689,-0.00007201,-0.00054238,-0.00003307,0.000
 09211,-0.00006336,-0.00000199,-0.00000465,0.00000843,-0.00000553,0.000
 00049,-0.00000512,0.00000498,-0.00000645,0.00003947,0.00010756,-0.0002
 0452,-0.00025277,0.00012320,0.00041739,-0.00101988,-0.00076649,-0.0001
 2957,0.00085299,-0.00021459,-0.00036761,-0.00022090,0.00017957,0.00017
 013,-0.00015428,-0.00017657,-0.00171007,-0.00103243,0.22025352,0.00006
 059,-0.00008364,-0.00001722,-0.00011120,0.00026115,0.00020122,0.000040
 60,-0.00004545,-0.00004315,-0.00000616,-0.00011122,-0.00011012,-0.0000
 8701,0.00003403,-0.00008494,0.00002250,0.00002527,0.00014764,0.0001239
 9,-0.00007356,-0.00004139,-0.00001264,0.00001047,-0.00003482,-0.000062
 78,0.00014737,0.00004856,-0.00015289,-0.00062618,-0.00094516,-0.000147
 03,-0.00046478,-0.00000827,0.00081040,-0.00041953,0.00055627,-0.001242
 12,-0.00125694,-0.00181858,0.01369850,0.00564018,-0.01297677,0.0045756
 1,0.00054687,0.00303312,0.00019951,-0.00089593,0.00006255,0.00276917,0
 .00049932,0.00522525,-0.01686983,0.00205612,0.01426615,-0.01344981,-0.
 05051103,0.02628926,0.00008326,-0.00004220,0.00008604,-0.00046291,0.00
 004146,0.00040817,0.00010993,-0.00010672,-0.00010568,0.00000389,0.0000
 0256,0.00001243,0.00000995,-0.00000253,0.00001429,-0.00010323,-0.00011
 646,-0.00001685,-0.00015085,0.00026501,-0.00003252,0.00039597,0.000021
 44,0.00005890,0.00086729,0.00019329,-0.00059463,-0.00034145,-0.0004100
 6,-0.00043607,-0.00068320,0.00005133,0.00070274,-0.00129219,-0.0011076
 2,-0.00239377,0.01173980,0.04641884,0.00007405,-0.00003847,-0.00000433
 ,-0.00025561,0.00002077,0.00011910,0.00010018,0.00003020,-0.00005673,0
 .00006331,-0.00000481,-0.00004232,-0.00008481,0.00004203,-0.00009228,-
 0.00002862,0.00002614,0.00005704,0.00004168,-0.00004046,-0.00002691,-0
 .00002481,-0.00000318,0.00000579,-0.00007110,0.00007596,-0.00014348,0.
 00055064,-0.00013237,-0.00055008,-0.00011383,0.00110509,0.00002878,0.0
 0064204,-0.00027595,0.00062699,-0.00185826,-0.00143603,-0.00037094,-0.
 00264626,0.00144893,0.00414673,0.00073033,0.00261947,0.00321332,-0.000
 82657,-0.00006913,-0.00002297,0.00022857,0.00601777,0.00052894,0.01815
 854,0.00067775,-0.01006808,0.14287692,0.02446125,-0.17259842,0.0001115
 1,-0.00003466,0.00008763,-0.00046768,-0.00011301,0.00012836,-0.0000270
 3,0.00001439,-0.00008476,0.00000479,-0.00000183,0.00000821,0.00000854,
 0.00000087,0.00001356,-0.00014912,-0.00012621,-0.00005578,0.00006456,0
 .00005270,-0.00009589,0.00011117,-0.00024475,-0.00019513,-0.00009491,0
 .00008913,0.00026986,-0.00022359,-0.00046065,-0.00042347,0.00083481,0.
 00004492,-0.00054056,-0.00159415,-0.00219558,-0.00081399,-0.15604797,-
 0.03151976,0.17682061,-0.00005358,0.00004005,0.00001057,0.00011573,-0.
 00004377,-0.00011139,-0.00004932,-0.00001150,0.00003333,-0.00001803,0.
 00002411,0.00003629,-0.00007768,0.00010753,-0.00000659,-0.00002083,0.0
 0001325,0.00000332,-0.00000571,0.00004636,0.00006272,-0.00004012,-0.00
 006128,0.00000600,-0.00059643,-0.00013520,0.00060504,0.00201029,-0.000
 17361,-0.00624645,-0.00015783,-0.00083636,0.00179642,0.00219452,0.0076
 1721,0.00054319,-0.00026432,-0.00040522,0.00074385,-0.00013533,-0.0002
 7500,-0.00005422,-0.00010884,-0.00018229,-0.00010405,-0.00002864,0.000
 06248,-0.00021486,0.00011156,-0.00001076,-0.00004343,0.00001719,-0.000
 12259,0.00011015,-0.00020093,0.00015440,-0.00006204,-0.05092744,0.0012
 2232,0.00509837,-0.01431234,0.03458182,-0.00733157,-0.00011380,-0.0000
 8431,-0.00017193,-0.00001021,-0.00000403,0.00000054,-0.00001417,-0.000
 00136,-0.00001734,0.00077409,-0.00047033,-0.00061969,0.00014892,0.0000
 8865,0.00008511,0.00012650,0.00012262,-0.00004313,0.00023027,-0.000007
 53,0.00004696,0.00000248,0.00001005,0.00000907,0.00001664,-0.00000925,
 0.00001044,0.00000657,-0.00001316,-0.00000042,0.00005265,-0.00002141,-
 0.00001043,0.05661742,0.00005262,-0.00002699,-0.00000481,-0.00016607,0
 .00000669,0.00007940,0.00007165,0.00002899,-0.00003894,0.00003602,-0.0
 0000461,-0.00001684,0.00002028,-0.00000844,-0.00003866,0.00001312,-0.0
 0000207,0.00005483,0.00003616,-0.00003864,-0.00007585,0.00004813,0.000
 06222,0.00003235,0.00002771,-0.00027281,-0.00012409,-0.00215530,0.0007
 5738,0.00208396,0.00053405,-0.00078906,-0.00057211,-0.00218586,-0.0079
 2969,0.00103616,0.00136666,0.00019072,-0.00181123,-0.00001929,0.000400
 13,-0.00030808,0.00003135,-0.00008071,-0.00001340,-0.00000574,0.000020
 12,-0.00007695,0.00002559,-0.00001653,0.00001349,-0.00002146,-0.000005
 80,-0.00000445,-0.00001429,-0.00003804,0.00003524,0.00833634,-0.313382
 23,0.00937882,0.01080069,-0.00036889,0.00468424,0.00009815,0.00000583,
 0.00006079,0.00000633,-0.00000359,0.00000205,0.00001372,-0.00000355,0.
 00001924,-0.00014763,0.00172219,-0.00020454,-0.00007048,0.00002023,0.0
 0006699,-0.00029550,-0.00057976,-0.00014929,0.00008844,0.00001659,0.00
 000709,-0.00001240,-0.00001124,0.00002162,0.00000364,-0.00001401,0.000
 01496,0.00001373,-0.00001003,0.00001002,-0.00001896,0.00003566,0.00001
 486,-0.01631859,0.32996302,-0.00004805,0.00003915,0.00000649,0.0000987
 2,-0.00006315,-0.00009355,-0.00003978,0.00000055,0.00002643,-0.0000142
 1,0.00002649,0.00003546,-0.00007730,0.00006024,-0.00001388,-0.00002839
 ,0.00000874,0.00001711,0.00001173,0.00003748,0.00007549,-0.00003285,-0
 .00002834,0.00001920,-0.00049757,-0.00018362,0.00041017,0.00351072,0.0
 0006236,-0.00689544,0.00189281,-0.00097475,0.00117297,-0.00163005,-0.0
 2674467,0.00216683,0.00251792,-0.00160564,-0.00336400,0.00007229,0.000
 62992,-0.00045670,0.00012956,0.00009568,0.00008360,0.00001045,-0.00004
 243,0.00011009,-0.00007502,-0.00002335,0.00006077,0.00002543,0.0000507
 4,-0.00006702,0.00008929,-0.00008532,0.00016014,0.00494913,0.00650824,
 -0.04897104,-0.01496239,0.02386064,-0.00104671,0.00002134,-0.00011390,
 -0.00013065,-0.00000456,0.00000447,0.00000123,-0.00001382,-0.00000084,
 -0.00001599,-0.00034191,-0.00037265,0.00128189,0.00000667,0.00016991,0
 .00004126,-0.00067730,-0.00100096,-0.00053845,-0.00011516,0.00002069,-
 0.00003666,-0.00000138,-0.00001083,0.00000838,-0.00000877,-0.00000119,
 -0.00000307,0.00000388,-0.00001260,0.00000760,-0.00001519,0.00000654,-
 0.00002782,0.00517675,-0.01365574,0.05439283,-0.00007667,0.00007184,0.
 00000505,0.00017192,-0.00014174,-0.00015215,-0.00007784,0.00000037,0.0
 0005238,-0.00002846,0.00004713,0.00005717,-0.00008553,0.00005293,0.000
 10058,-0.00002900,-0.00000533,-0.00006122,-0.00005076,0.00003273,0.000
 11046,0.00001711,-0.00001326,-0.00006826,-0.00025228,0.00063076,0.0008
 0112,-0.00074501,-0.00338382,-0.00490266,-0.00013752,0.00007899,0.0004
 3360,0.00026337,-0.00090223,0.00326078,0.00024318,-0.00129568,-0.00042
 072,0.00002185,-0.00004942,-0.00051065,-0.00034526,-0.00067191,0.00003
 712,-0.00003428,0.00000104,-0.00016876,0.00002298,0.00006826,-0.000016
 56,0.00007095,-0.00007660,0.00002734,-0.00019924,0.00007679,0.00008440
 ,-0.22125544,-0.08336422,0.09540159,-0.03107224,-0.00129125,0.00444423
 ,-0.00025774,0.00011940,-0.00027048,-0.00001016,0.00000381,-0.00000215
 ,-0.00002147,0.00000274,-0.00002865,-0.00026889,0.00057957,0.00045333,
 0.00046432,0.00043441,0.00017899,0.00003225,-0.00016426,-0.00011734,-0
 .00001624,-0.00069084,-0.00011307,0.00001269,0.00002346,0.00001566,0.0
 0000298,-0.00001869,0.00000357,0.00000563,-0.00002381,-0.00000513,0.00
 005684,-0.00003134,-0.00002807,0.00470366,-0.00014690,0.00006502,0.248
 83819,0.00002403,-0.00002972,-0.00000404,-0.00004855,0.00006929,0.0000
 6723,0.00002152,-0.00000546,-0.00001843,0.00000494,-0.00002626,-0.0000
 2944,0.00002370,0.00000249,-0.00005409,0.00001562,0.00000928,0.0000447
 9,0.00003884,-0.00001493,-0.00000938,-0.00000369,0.00000320,0.00003362
 ,-0.00002868,-0.00030471,-0.00035581,0.00231219,-0.00081501,-0.0003488
 8,0.00249055,-0.00141727,-0.00128657,0.01133846,0.00726333,-0.00442109
 ,-0.00013112,0.00011736,0.00014448,0.00017953,-0.00020091,-0.00108672,
 -0.00043148,-0.00051133,0.00005422,0.00011316,-0.00038031,0.00052053,-
 0.00035694,0.00014388,0.00005424,0.00006837,0.00014191,-0.00028605,0.0
 0026270,-0.00017322,0.00015247,-0.09206935,-0.09530452,0.04780667,0.01
 092838,0.00680314,-0.00425248,0.00021118,-0.00007348,0.00007197,0.0000
 0188,-0.00000237,0.00000463,0.00000535,0.00000090,0.00000928,0.0002505
 9,-0.00026211,-0.00139553,0.00003300,0.00002358,-0.00002047,0.00005754
 ,0.00016712,0.00022458,-0.00043960,-0.00073737,-0.00021954,0.00003968,
 0.00002845,-0.00002593,-0.00002233,0.00002867,-0.00001597,-0.00001992,
 0.00001853,-0.00001222,-0.00005049,0.00005419,0.00003961,-0.02485505,-
 0.00965728,0.01334978,0.09007019,0.09502474,0.00000832,-0.00001055,0.0
 0000412,-0.00003930,0.00003227,-0.00001616,-0.00000034,-0.00001084,0.0
 0000709,0.00000651,-0.00001214,-0.00000508,-0.00012242,0.00003238,0.00
 002144,0.00001261,0.00002746,0.00008100,0.00005542,-0.00003639,0.00001
 747,0.00007845,-0.00001968,0.00004816,-0.00032535,0.00087532,0.0005594
 4,-0.00097642,-0.00314073,-0.00617895,0.00323818,-0.00126756,-0.000990
 61,0.01851948,0.00993868,-0.00759195,0.00113505,0.00123955,0.00142616,
 -0.00035580,-0.00039990,0.00029788,0.00049804,-0.00017027,0.00002793,-
 0.00006010,0.00002854,0.00016981,-0.00014336,0.00006263,-0.00002256,-0
 .00000251,0.00008274,-0.00013103,0.00014235,-0.00003486,0.00007580,0.1
 0476751,0.04761926,-0.10219553,-0.02839940,-0.00469730,0.00980489,0.00
 002657,-0.00003548,-0.00021251,-0.00000227,0.00000003,0.00000535,-0.00
 000161,0.00000219,-0.00000048,0.00096771,-0.00117743,-0.00240451,-0.00
 049221,-0.00008197,-0.00031819,-0.00015478,0.00033132,0.00010821,-0.00
 034279,-0.00001590,0.00010880,0.00002588,0.00002733,-0.00000870,-0.000
 01551,0.00001721,-0.00001082,-0.00000659,0.00001754,-0.00000752,-0.000
 01058,0.00002039,-0.00002091,0.00066305,-0.00053626,0.00157338,-0.0986
 4351,-0.04875922,0.10574964,0.00084678,-0.00039662,0.00063826,-0.00108
 285,-0.00230610,-0.00297271,-0.00018580,0.00012016,0.00056324,0.000200
 19,0.00063269,0.00169931,0.00030092,-0.00436564,-0.02465239,-0.0031015
 7,0.00415003,-0.00158636,-0.00155366,0.00038435,-0.00039193,-0.0022189
 2,0.00504150,0.00387489,0.01119799,0.00143373,0.01970519,-0.00060508,-
 0.00054135,0.00190914,-0.00072581,0.00059307,0.00030498,-0.00047778,-0
 .00035522,-0.00074247,-0.00002889,0.00002401,0.00005225,0.00004078,0.0
 0001645,-0.00000790,-0.00000555,0.00000536,0.00000575,0.00000894,0.000
 00970,-0.00000954,-0.00000529,0.00001777,-0.00003604,0.00012279,-0.000
 04668,-0.00000598,-0.00016710,0.00006891,0.00015241,0.00010583,0.00012
 284,-0.00016889,0.00097452,-0.00052664,-0.00100501,-0.06657364,-0.0046
 5617,-0.05813195,0.00010587,-0.00020749,-0.00119557,-0.00008265,-0.000
 59807,0.00022807,0.00002751,-0.00000855,0.00005025,0.00003566,0.000000
 82,-0.00002367,-0.00002766,0.00000222,-0.00003159,0.00000211,-0.000008
 55,-0.00000435,0.00001016,0.00000453,-0.00001131,0.00001221,0.00001351
 ,-0.00002154,-0.00001599,0.00001622,0.00000278,-0.00007717,-0.00028291
 ,-0.00004884,0.00000705,-0.00004593,0.00000200,0.00003608,-0.00003418,
 -0.00005029,0.06289998,0.00017267,-0.00010627,-0.00029100,-0.00069431,
 -0.00198380,0.00203662,-0.00115462,-0.00041481,0.00054179,0.00038342,-
 0.00113181,-0.00131315,0.00163856,0.00579381,0.00794110,0.00427084,0.0
 0565285,-0.00086829,0.00051520,-0.00048537,0.00040233,0.00444727,0.004
 17562,-0.00332071,-0.00485163,0.00163125,-0.01232361,-0.00060367,-0.00
 240425,-0.00030125,-0.00019302,-0.00005555,-0.00042414,0.00019839,-0.0
 0018513,0.00063995,-0.00005531,0.00003117,0.00000099,-0.00001307,0.000
 09510,-0.00013532,0.00003951,-0.00004497,0.00000282,0.00002050,-0.0000
 0358,-0.00001262,0.00000176,-0.00001655,0.00002323,0.00002019,0.000020
 55,-0.00003441,-0.00007375,-0.00005432,0.00017437,0.00003173,0.0001633
 0,0.00006005,-0.00059322,0.00031518,0.00046721,-0.00458797,-0.05152204
 ,-0.05077007,0.00015158,0.00040607,0.00039616,-0.00064912,-0.00129377,
 0.00026887,0.00002336,-0.00001427,-0.00003126,-0.00000958,-0.00004139,
 -0.00000082,0.00001484,-0.00000566,0.00000306,0.00002710,-0.00000166,-
 0.00000701,0.00000618,-0.00000266,0.00000146,0.00000486,0.00000003,-0.
 00000423,-0.00000383,-0.00004018,0.00003093,-0.00013570,-0.00003068,-0
 .00008498,-0.00004825,0.00001422,-0.00001165,-0.00002313,0.00001620,0.
 00005165,0.00172222,0.04152336,-0.00019812,0.00007201,0.00016158,0.000
 30668,0.00007351,-0.00158874,0.00016126,0.00006798,-0.00009701,0.00214
 540,-0.00057550,0.00069584,-0.00186710,-0.00180538,-0.00472273,-0.0018
 6920,-0.00079879,0.00175704,0.00074626,-0.00001964,0.00077387,0.001606
 96,-0.00266598,-0.00038485,-0.00441113,-0.00169777,-0.01144232,-0.0000
 9703,0.00037712,-0.00122366,-0.00192777,0.00063463,-0.00030823,0.00005
 166,0.00019398,0.00026715,0.00000114,0.00003315,0.00005945,0.00000822,
 -0.00006440,0.00002733,-0.00001357,0.00001205,0.00000329,-0.00001330,0
 .00000754,0.00000697,0.00000056,0.00001123,-0.00001617,-0.00000732,-0.
 00000780,-0.00000865,-0.00000508,0.00001105,-0.00015365,-0.00017545,-0
 .00000262,0.00004135,0.00000420,-0.00000017,-0.00004560,-0.05655708,-0
 .05103829,-0.32893406,0.00017516,-0.00020210,-0.00006948,0.00006869,0.
 00035572,-0.00018819,-0.00004242,0.00004452,-0.00000350,-0.00001536,-0
 .00000908,-0.00001433,-0.00000098,-0.00001298,-0.00002058,-0.00000751,
 0.00000589,0.00000402,-0.00000668,0.00000071,0.00000256,-0.00000111,-0
 .00000322,0.00000663,0.00000692,0.00003162,-0.00001297,0.00004992,0.00
 004019,0.00017993,-0.00000363,0.00001514,0.00000964,-0.00002299,0.0000
 2378,0.00002892,0.06190982,0.05689193,0.34520916\\0.00000948,-0.000001
 97,-0.00000221,-0.00000821,-0.00000502,0.00000908,-0.00000784,-0.00000
 990,-0.00000205,0.00000678,0.00000661,-0.00000531,0.00000016,0.0000127
 4,-0.00000139,0.00000194,0.00000490,0.00000123,-0.00000813,-0.00001864
 ,0.00000521,0.00000449,0.00000601,-0.00000429,-0.00000156,0.00000190,0
 .00000059,-0.00001015,-0.00000078,0.00001099,0.00000191,0.00000195,-0.
 00000453,0.00000062,0.00000131,-0.00000021,-0.00000180,0.00000028,-0.0
 0000354,-0.00000069,-0.00000220,0.00000315,-0.00000063,-0.00000071,-0.
 00000208,0.00000048,-0.00000137,0.00000065,-0.00000002,-0.00000014,0.0
 0000034,0.00000081,0.,-0.00000019,0.00000151,-0.00000229,-0.00000094,-
 0.00000399,0.00000195,-0.00000269,0.00000797,-0.00000030,-0.00000085,0
 .00000043,-0.00000133,-0.00000060,0.00000054,0.00000275,-0.00000246,0.
 00000152,0.00000497,-0.00000186,0.00000070,0.00000081,0.00000111,0.000
 00110,-0.00000034,0.00000150,-0.00000073,0.00000014,0.00000093,0.00000
 052,-0.00000074,0.00000026,0.00000083,-0.00000050,-0.00000038,0.000000
 45,-0.00000008,-0.00000088,-0.00000031,0.00000025,-0.00000027,-0.00000
 191,-0.00000100,0.00000041,0.00000062,-0.00000122,0.00000134,0.0000016
 9,-0.00000054,0.00000042,0.00000141,0.00000249,-0.00000047\\\@
 The archive entry for this job was punched.


 ALTHOUGH J.J. COULD DIAGNOSE THE FAULTS OF AN
 APPARATUS WITH UNCANNY ACCURACY, IT WAS JUST AS
 WELL NOT TO LET HIM HANDLE IT.
   -- GEORGE THOMPSON, ABOUT HIS FATHER
 Job cpu time:       0 days  1 hours  5 minutes  1.0 seconds.
 Elapsed time:       0 days  0 hours  1 minutes 38.8 seconds.
 File lengths (MBytes):  RWF=    482 Int=      0 D2E=      0 Chk=     11 Scr=      1
 Normal termination of Gaussian 16 at Sun Feb 25 23:00:34 2024.
