 Entering Gaussian System, Link 0=g16
 Initial command:
 /public/apps/g16-C01//g16/l1.exe "/public/home/ljq/tmp/Gau-108939.inp" -scrdir="/public/home/ljq/tmp/"
 Entering Link 1 = /public/apps/g16-C01//g16/l1.exe PID=    108940.
  
 Copyright (c) 1988-2019, Gaussian, Inc.  All Rights Reserved.
  
 This is part of the Gaussian(R) 16 program.  It is based on
 the Gaussian(R) 09 system (copyright 2009, Gaussian, Inc.),
 the Gaussian(R) 03 system (copyright 2003, Gaussian, Inc.),
 the Gaussian(R) 98 system (copyright 1998, Gaussian, Inc.),
 the Gaussian(R) 94 system (copyright 1995, Gaussian, Inc.),
 the Gaussian 92(TM) system (copyright 1992, Gaussian, Inc.),
 the Gaussian 90(TM) system (copyright 1990, Gaussian, Inc.),
 the Gaussian 88(TM) system (copyright 1988, Gaussian, Inc.),
 the Gaussian 86(TM) system (copyright 1986, Carnegie Mellon
 University), and the Gaussian 82(TM) system (copyright 1983,
 Carnegie Mellon University). Gaussian is a federally registered
 trademark of Gaussian, Inc.
  
 This software contains proprietary and confidential information,
 including trade secrets, belonging to Gaussian, Inc.
  
 This software is provided under written license and may be
 used, copied, transmitted, or stored only in accord with that
 written license.
  
 The following legend is applicable only to US Government
 contracts under FAR:
  
                    RESTRICTED RIGHTS LEGEND
  
 Use, reproduction and disclosure by the US Government is
 subject to restrictions as set forth in subparagraphs (a)
 and (c) of the Commercial Computer Software - Restricted
 Rights clause in FAR 52.227-19.
  
 Gaussian, Inc.
 340 Quinnipiac St., Bldg. 40, Wallingford CT 06492
  
  
 ---------------------------------------------------------------
 Warning -- This program may not be used in any manner that
 competes with the business of Gaussian, Inc. or will provide
 assistance to any competitor of Gaussian, Inc.  The licensee
 of this program is prohibited from giving any competitor of
 Gaussian, Inc. access to this program.  By using this program,
 the user acknowledges that Gaussian, Inc. is engaged in the
 business of creating and licensing software in the field of
 computational chemistry and represents and warrants to the
 licensee that it is not a competitor of Gaussian, Inc. and that
 it will not use this program in any manner prohibited above.
 ---------------------------------------------------------------
  

 Cite this work as:
 Gaussian 16, Revision C.01,
 M. J. Frisch, G. W. Trucks, H. B. Schlegel, G. E. Scuseria, 
 M. A. Robb, J. R. Cheeseman, G. Scalmani, V. Barone, 
 G. A. Petersson, H. Nakatsuji, X. Li, M. Caricato, A. V. Marenich, 
 J. Bloino, B. G. Janesko, R. Gomperts, B. Mennucci, H. P. Hratchian, 
 J. V. Ortiz, A. F. Izmaylov, J. L. Sonnenberg, D. Williams-Young, 
 F. Ding, F. Lipparini, F. Egidi, J. Goings, B. Peng, A. Petrone, 
 T. Henderson, D. Ranasinghe, V. G. Zakrzewski, J. Gao, N. Rega, 
 G. Zheng, W. Liang, M. Hada, M. Ehara, K. Toyota, R. Fukuda, 
 J. Hasegawa, M. Ishida, T. Nakajima, Y. Honda, O. Kitao, H. Nakai, 
 T. Vreven, K. Throssell, J. A. Montgomery, Jr., J. E. Peralta, 
 F. Ogliaro, M. J. Bearpark, J. J. Heyd, E. N. Brothers, K. N. Kudin, 
 V. N. Staroverov, T. A. Keith, R. Kobayashi, J. Normand, 
 K. Raghavachari, A. P. Rendell, J. C. Burant, S. S. Iyengar, 
 J. Tomasi, M. Cossi, J. M. Millam, M. Klene, C. Adamo, R. Cammi, 
 J. W. Ochterski, R. L. Martin, K. Morokuma, O. Farkas, 
 J. B. Foresman, and D. J. Fox, Gaussian, Inc., Wallingford CT, 2019.
 
 ******************************************
 Gaussian 16:  ES64L-G16RevC.01  3-Jul-2019
                25-Feb-2024 
 ******************************************
 %nproc=40
 Will use up to   40 processors via shared memory.
 %mem=56GB
 ------------------------------------------
 #p opt freq b3lyp/def2svpp em=gd3bj nosymm
 ------------------------------------------
 1/18=20,19=15,26=3,38=1/1,3;
 2/9=110,12=2,15=1,17=6,18=5,40=1/2;
 3/5=43,7=202,11=2,25=1,30=1,71=1,74=-5,124=41/1,2,3;
 4//1;
 5/5=2,38=5/2;
 6/7=2,8=2,9=2,10=2,28=1/1;
 7/30=1/1,2,3,16;
 1/18=20,19=15,26=3/3(2);
 2/9=110,15=1/2;
 99//99;
 2/9=110,15=1/2;
 3/5=43,7=202,11=2,25=1,30=1,71=1,74=-5,124=41/1,2,3;
 4/5=5,16=3,69=1/1;
 5/5=2,38=5/2;
 7/30=1/1,2,3,16;
 1/18=20,19=15,26=3/3(-5);
 2/9=110,15=1/2;
 6/7=2,8=2,9=2,10=2,19=2,28=1/1;
 99/9=1/99;
 Leave Link    1 at Sun Feb 25 22:22:07 2024, MaxMem=  7516192768 cpu:               1.6 elap:               0.1
 (Enter /public/apps/g16-C01//g16/l101.exe)
 ----------------------
 $$$$Singlemol####0????
 ----------------------
 Symbolic Z-matrix:
 Charge =  0 Multiplicity = 1
 C                     1.52158  -2.48055  -0.84109 
 C                     2.57692  -2.42512   0.05177 
 C                     3.38289  -1.30087   0.10619 
 C                     3.14504  -0.21714  -0.72947 
 C                     3.9591    1.04042  -0.62275 
 C                     3.19978   2.12123   0.18008 
 C                     2.76025   1.63769   1.58675 
 O                     1.34701   1.49225   1.47588 
 C                     1.01842   1.98268   0.26564 
 C                    -0.38199   1.91266  -0.13224 
 N                    -1.22079   1.13251   0.40407 
 C                    -2.45196   1.22329  -0.34222 
 C                    -2.76332  -0.12774  -1.00952 
 C                    -2.95262  -1.20428   0.02097 
 C                    -1.84905  -1.81491   0.60295 
 C                    -2.01723  -2.79129   1.56746 
 C                    -3.28963  -3.16946   1.96234 
 C                    -4.39377  -2.56175   1.39091 
 C                    -4.22489  -1.58283   0.427 
 C                    -2.16456   2.35012  -1.37478 
 O                    -0.78948   2.66686  -1.17465 
 N                     1.94913   2.41213  -0.47909 
 C                     2.09231  -0.28903  -1.63577 
 C                     1.28635  -1.41117  -1.68935 
 H                     0.88685  -3.35373  -0.87935 
 H                     2.773    -3.25858   0.71057 
 H                     4.2123   -1.27204   0.80046 
 H                     4.91054   0.84569  -0.12461 
 H                     4.15382   1.44654  -1.61613 
 H                     3.81073   3.02729   0.22045 
 H                     3.1869    0.67211   1.86163 
 H                     2.97532   2.37153   2.36987 
 H                    -3.26479   1.47956   0.34417 
 H                    -1.92808  -0.38486  -1.66502 
 H                    -3.66632  -0.01325  -1.61299 
 H                    -0.85684  -1.51086   0.30629 
 H                    -1.15133  -3.2584    2.01357 
 H                    -3.42082  -3.93391   2.71432 
 H                    -5.38947  -2.84997   1.69597 
 H                    -5.09128  -1.11169  -0.01688 
 H                    -2.76005   3.2504   -1.1996 
 H                    -2.30067   2.01982  -2.40761 
 H                     1.90507   0.54739  -2.29296 
 H                     0.47111  -1.455    -2.39766 
 
 ITRead=  0  0  0  0  0  0  0  0  0  0  0  0  0  0  0  0  0  0  0  0
 ITRead=  0  0  0  0  0  0  0  0  0  0  0  0  0  0  0  0  0  0  0  0
 ITRead=  0  0  0  0
 MicOpt= -1 -1 -1 -1 -1 -1 -1 -1 -1 -1 -1 -1 -1 -1 -1 -1 -1 -1 -1 -1
 MicOpt= -1 -1 -1 -1 -1 -1 -1 -1 -1 -1 -1 -1 -1 -1 -1 -1 -1 -1 -1 -1
 MicOpt= -1 -1 -1 -1
 NAtoms=     44 NQM=       44 NQMF=       0 NMMI=      0 NMMIF=      0
                NMic=       0 NMicF=      0.
                    Isotopes and Nuclear Properties:
 (Nuclear quadrupole moments (NQMom) in fm**2, nuclear magnetic moments (NMagM)
  in nuclear magnetons)

  Atom         1           2           3           4           5           6           7           8           9          10
 IAtWgt=          12          12          12          12          12          12          12          16          12          12
 AtmWgt=  12.0000000  12.0000000  12.0000000  12.0000000  12.0000000  12.0000000  12.0000000  15.9949146  12.0000000  12.0000000
 NucSpn=           0           0           0           0           0           0           0           0           0           0
 AtZEff=  -0.0000000  -0.0000000  -0.0000000  -0.0000000  -0.0000000  -0.0000000  -0.0000000  -0.0000000  -0.0000000  -0.0000000
 NQMom=    0.0000000   0.0000000   0.0000000   0.0000000   0.0000000   0.0000000   0.0000000   0.0000000   0.0000000   0.0000000
 NMagM=    0.0000000   0.0000000   0.0000000   0.0000000   0.0000000   0.0000000   0.0000000   0.0000000   0.0000000   0.0000000
 AtZNuc=   6.0000000   6.0000000   6.0000000   6.0000000   6.0000000   6.0000000   6.0000000   8.0000000   6.0000000   6.0000000

  Atom        11          12          13          14          15          16          17          18          19          20
 IAtWgt=          14          12          12          12          12          12          12          12          12          12
 AtmWgt=  14.0030740  12.0000000  12.0000000  12.0000000  12.0000000  12.0000000  12.0000000  12.0000000  12.0000000  12.0000000
 NucSpn=           2           0           0           0           0           0           0           0           0           0
 AtZEff=  -0.0000000  -0.0000000  -0.0000000  -0.0000000  -0.0000000  -0.0000000  -0.0000000  -0.0000000  -0.0000000  -0.0000000
 NQMom=    2.0440000   0.0000000   0.0000000   0.0000000   0.0000000   0.0000000   0.0000000   0.0000000   0.0000000   0.0000000
 NMagM=    0.4037610   0.0000000   0.0000000   0.0000000   0.0000000   0.0000000   0.0000000   0.0000000   0.0000000   0.0000000
 AtZNuc=   7.0000000   6.0000000   6.0000000   6.0000000   6.0000000   6.0000000   6.0000000   6.0000000   6.0000000   6.0000000

  Atom        21          22          23          24          25          26          27          28          29          30
 IAtWgt=          16          14          12          12           1           1           1           1           1           1
 AtmWgt=  15.9949146  14.0030740  12.0000000  12.0000000   1.0078250   1.0078250   1.0078250   1.0078250   1.0078250   1.0078250
 NucSpn=           0           2           0           0           1           1           1           1           1           1
 AtZEff=  -0.0000000  -0.0000000  -0.0000000  -0.0000000  -0.0000000  -0.0000000  -0.0000000  -0.0000000  -0.0000000  -0.0000000
 NQMom=    0.0000000   2.0440000   0.0000000   0.0000000   0.0000000   0.0000000   0.0000000   0.0000000   0.0000000   0.0000000
 NMagM=    0.0000000   0.4037610   0.0000000   0.0000000   2.7928460   2.7928460   2.7928460   2.7928460   2.7928460   2.7928460
 AtZNuc=   8.0000000   7.0000000   6.0000000   6.0000000   1.0000000   1.0000000   1.0000000   1.0000000   1.0000000   1.0000000

  Atom        31          32          33          34          35          36          37          38          39          40
 IAtWgt=           1           1           1           1           1           1           1           1           1           1
 AtmWgt=   1.0078250   1.0078250   1.0078250   1.0078250   1.0078250   1.0078250   1.0078250   1.0078250   1.0078250   1.0078250
 NucSpn=           1           1           1           1           1           1           1           1           1           1
 AtZEff=  -0.0000000  -0.0000000  -0.0000000  -0.0000000  -0.0000000  -0.0000000  -0.0000000  -0.0000000  -0.0000000  -0.0000000
 NQMom=    0.0000000   0.0000000   0.0000000   0.0000000   0.0000000   0.0000000   0.0000000   0.0000000   0.0000000   0.0000000
 NMagM=    2.7928460   2.7928460   2.7928460   2.7928460   2.7928460   2.7928460   2.7928460   2.7928460   2.7928460   2.7928460
 AtZNuc=   1.0000000   1.0000000   1.0000000   1.0000000   1.0000000   1.0000000   1.0000000   1.0000000   1.0000000   1.0000000

  Atom        41          42          43          44
 IAtWgt=           1           1           1           1
 AtmWgt=   1.0078250   1.0078250   1.0078250   1.0078250
 NucSpn=           1           1           1           1
 AtZEff=  -0.0000000  -0.0000000  -0.0000000  -0.0000000
 NQMom=    0.0000000   0.0000000   0.0000000   0.0000000
 NMagM=    2.7928460   2.7928460   2.7928460   2.7928460
 AtZNuc=   1.0000000   1.0000000   1.0000000   1.0000000
 Leave Link  101 at Sun Feb 25 22:22:07 2024, MaxMem=  7516192768 cpu:              14.5 elap:               0.4
 (Enter /public/apps/g16-C01//g16/l103.exe)

 GradGradGradGradGradGradGradGradGradGradGradGradGradGradGradGradGradGrad
 Berny optimization.
 Initialization pass.
                           ----------------------------
                           !    Initial Parameters    !
                           ! (Angstroms and Degrees)  !
 --------------------------                            --------------------------
 ! Name  Definition              Value          Derivative Info.                !
 --------------------------------------------------------------------------------
 ! R1    R(1,2)                  1.3835         estimate D2E/DX2                !
 ! R2    R(1,24)                 1.3851         estimate D2E/DX2                !
 ! R3    R(1,25)                 1.0802         estimate D2E/DX2                !
 ! R4    R(2,3)                  1.3844         estimate D2E/DX2                !
 ! R5    R(2,26)                 1.0803         estimate D2E/DX2                !
 ! R6    R(3,4)                  1.389          estimate D2E/DX2                !
 ! R7    R(3,27)                 1.082          estimate D2E/DX2                !
 ! R8    R(4,5)                  1.5019         estimate D2E/DX2                !
 ! R9    R(4,23)                 1.391          estimate D2E/DX2                !
 ! R10   R(5,6)                  1.5457         estimate D2E/DX2                !
 ! R11   R(5,28)                 1.0915         estimate D2E/DX2                !
 ! R12   R(5,29)                 1.0907         estimate D2E/DX2                !
 ! R13   R(6,7)                  1.551          estimate D2E/DX2                !
 ! R14   R(6,22)                 1.4433         estimate D2E/DX2                !
 ! R15   R(6,30)                 1.0935         estimate D2E/DX2                !
 ! R16   R(7,8)                  1.425          estimate D2E/DX2                !
 ! R17   R(7,31)                 1.0908         estimate D2E/DX2                !
 ! R18   R(7,32)                 1.0946         estimate D2E/DX2                !
 ! R19   R(8,9)                  1.3465         estimate D2E/DX2                !
 ! R20   R(9,10)                 1.4575         estimate D2E/DX2                !
 ! R21   R(9,22)                 1.267          estimate D2E/DX2                !
 ! R22   R(10,11)                1.2649         estimate D2E/DX2                !
 ! R23   R(10,21)                1.3496         estimate D2E/DX2                !
 ! R24   R(11,12)                1.4426         estimate D2E/DX2                !
 ! R25   R(12,13)                1.5387         estimate D2E/DX2                !
 ! R26   R(12,20)                1.5552         estimate D2E/DX2                !
 ! R27   R(12,33)                1.0943         estimate D2E/DX2                !
 ! R28   R(13,14)                1.5022         estimate D2E/DX2                !
 ! R29   R(13,34)                1.0924         estimate D2E/DX2                !
 ! R30   R(13,35)                1.0921         estimate D2E/DX2                !
 ! R31   R(14,15)                1.389          estimate D2E/DX2                !
 ! R32   R(14,19)                1.3881         estimate D2E/DX2                !
 ! R33   R(15,16)                1.3827         estimate D2E/DX2                !
 ! R34   R(15,36)                1.0793         estimate D2E/DX2                !
 ! R35   R(16,17)                1.3849         estimate D2E/DX2                !
 ! R36   R(16,37)                1.0803         estimate D2E/DX2                !
 ! R37   R(17,18)                1.3838         estimate D2E/DX2                !
 ! R38   R(17,38)                1.0803         estimate D2E/DX2                !
 ! R39   R(18,19)                1.3842         estimate D2E/DX2                !
 ! R40   R(18,39)                1.0805         estimate D2E/DX2                !
 ! R41   R(19,40)                1.0815         estimate D2E/DX2                !
 ! R42   R(20,21)                1.4252         estimate D2E/DX2                !
 ! R43   R(20,41)                1.0935         estimate D2E/DX2                !
 ! R44   R(20,42)                1.0929         estimate D2E/DX2                !
 ! R45   R(23,24)                1.3826         estimate D2E/DX2                !
 ! R46   R(23,43)                1.0801         estimate D2E/DX2                !
 ! R47   R(24,44)                1.0809         estimate D2E/DX2                !
 ! A1    A(2,1,24)             119.5947         estimate D2E/DX2                !
 ! A2    A(2,1,25)             120.2309         estimate D2E/DX2                !
 ! A3    A(24,1,25)            120.174          estimate D2E/DX2                !
 ! A4    A(1,2,3)              120.1332         estimate D2E/DX2                !
 ! A5    A(1,2,26)             120.0728         estimate D2E/DX2                !
 ! A6    A(3,2,26)             119.7938         estimate D2E/DX2                !
 ! A7    A(2,3,4)              120.6817         estimate D2E/DX2                !
 ! A8    A(2,3,27)             119.5473         estimate D2E/DX2                !
 ! A9    A(4,3,27)             119.768          estimate D2E/DX2                !
 ! A10   A(3,4,5)              121.1805         estimate D2E/DX2                !
 ! A11   A(3,4,23)             118.7678         estimate D2E/DX2                !
 ! A12   A(5,4,23)             119.9878         estimate D2E/DX2                !
 ! A13   A(4,5,6)              110.8624         estimate D2E/DX2                !
 ! A14   A(4,5,28)             110.8265         estimate D2E/DX2                !
 ! A15   A(4,5,29)             110.1095         estimate D2E/DX2                !
 ! A16   A(6,5,28)             108.4169         estimate D2E/DX2                !
 ! A17   A(6,5,29)             107.4813         estimate D2E/DX2                !
 ! A18   A(28,5,29)            109.0552         estimate D2E/DX2                !
 ! A19   A(5,6,7)              113.0955         estimate D2E/DX2                !
 ! A20   A(5,6,22)             109.2314         estimate D2E/DX2                !
 ! A21   A(5,6,30)             108.909          estimate D2E/DX2                !
 ! A22   A(7,6,22)             103.384          estimate D2E/DX2                !
 ! A23   A(7,6,30)             112.5288         estimate D2E/DX2                !
 ! A24   A(22,6,30)            109.5095         estimate D2E/DX2                !
 ! A25   A(6,7,8)              104.0219         estimate D2E/DX2                !
 ! A26   A(6,7,31)             113.182          estimate D2E/DX2                !
 ! A27   A(6,7,32)             112.5927         estimate D2E/DX2                !
 ! A28   A(8,7,31)             108.4907         estimate D2E/DX2                !
 ! A29   A(8,7,32)             108.5996         estimate D2E/DX2                !
 ! A30   A(31,7,32)            109.6529         estimate D2E/DX2                !
 ! A31   A(7,8,9)              105.9481         estimate D2E/DX2                !
 ! A32   A(8,9,10)             117.5372         estimate D2E/DX2                !
 ! A33   A(8,9,22)             118.1957         estimate D2E/DX2                !
 ! A34   A(10,9,22)            124.1682         estimate D2E/DX2                !
 ! A35   A(9,10,11)            123.44           estimate D2E/DX2                !
 ! A36   A(9,10,21)            118.3005         estimate D2E/DX2                !
 ! A37   A(11,10,21)           118.1604         estimate D2E/DX2                !
 ! A38   A(10,11,12)           107.9276         estimate D2E/DX2                !
 ! A39   A(11,12,13)           109.9872         estimate D2E/DX2                !
 ! A40   A(11,12,20)           103.3772         estimate D2E/DX2                !
 ! A41   A(11,12,33)           108.9159         estimate D2E/DX2                !
 ! A42   A(13,12,20)           112.6848         estimate D2E/DX2                !
 ! A43   A(13,12,33)           109.1078         estimate D2E/DX2                !
 ! A44   A(20,12,33)           112.5844         estimate D2E/DX2                !
 ! A45   A(12,13,14)           110.9306         estimate D2E/DX2                !
 ! A46   A(12,13,34)           108.1905         estimate D2E/DX2                !
 ! A47   A(12,13,35)           108.3552         estimate D2E/DX2                !
 ! A48   A(14,13,34)           109.8336         estimate D2E/DX2                !
 ! A49   A(14,13,35)           110.4867         estimate D2E/DX2                !
 ! A50   A(34,13,35)           108.9826         estimate D2E/DX2                !
 ! A51   A(13,14,15)           120.154          estimate D2E/DX2                !
 ! A52   A(13,14,19)           120.7689         estimate D2E/DX2                !
 ! A53   A(15,14,19)           119.062          estimate D2E/DX2                !
 ! A54   A(14,15,16)           120.4007         estimate D2E/DX2                !
 ! A55   A(14,15,36)           119.4309         estimate D2E/DX2                !
 ! A56   A(16,15,36)           120.1626         estimate D2E/DX2                !
 ! A57   A(15,16,17)           120.2297         estimate D2E/DX2                !
 ! A58   A(15,16,37)           119.7292         estimate D2E/DX2                !
 ! A59   A(17,16,37)           120.0411         estimate D2E/DX2                !
 ! A60   A(16,17,18)           119.6972         estimate D2E/DX2                !
 ! A61   A(16,17,38)           120.2174         estimate D2E/DX2                !
 ! A62   A(18,17,38)           120.0853         estimate D2E/DX2                !
 ! A63   A(17,18,19)           120.0524         estimate D2E/DX2                !
 ! A64   A(17,18,39)           120.1009         estimate D2E/DX2                !
 ! A65   A(19,18,39)           119.8467         estimate D2E/DX2                !
 ! A66   A(14,19,18)           120.5563         estimate D2E/DX2                !
 ! A67   A(14,19,40)           119.6965         estimate D2E/DX2                !
 ! A68   A(18,19,40)           119.7467         estimate D2E/DX2                !
 ! A69   A(12,20,21)           104.2469         estimate D2E/DX2                !
 ! A70   A(12,20,41)           112.9247         estimate D2E/DX2                !
 ! A71   A(12,20,42)           112.6728         estimate D2E/DX2                !
 ! A72   A(21,20,41)           108.6601         estimate D2E/DX2                !
 ! A73   A(21,20,42)           108.6653         estimate D2E/DX2                !
 ! A74   A(41,20,42)           109.4145         estimate D2E/DX2                !
 ! A75   A(10,21,20)           105.9962         estimate D2E/DX2                !
 ! A76   A(6,22,9)             107.4427         estimate D2E/DX2                !
 ! A77   A(4,23,24)            120.5556         estimate D2E/DX2                !
 ! A78   A(4,23,43)            119.1852         estimate D2E/DX2                !
 ! A79   A(24,23,43)           120.2568         estimate D2E/DX2                !
 ! A80   A(1,24,23)            120.2571         estimate D2E/DX2                !
 ! A81   A(1,24,44)            119.8761         estimate D2E/DX2                !
 ! A82   A(23,24,44)           119.8666         estimate D2E/DX2                !
 ! D1    D(24,1,2,3)             0.7182         estimate D2E/DX2                !
 ! D2    D(24,1,2,26)         -179.4327         estimate D2E/DX2                !
 ! D3    D(25,1,2,3)          -179.506          estimate D2E/DX2                !
 ! D4    D(25,1,2,26)            0.3431         estimate D2E/DX2                !
 ! D5    D(2,1,24,23)           -0.6513         estimate D2E/DX2                !
 ! D6    D(2,1,24,44)          179.1963         estimate D2E/DX2                !
 ! D7    D(25,1,24,23)         179.5728         estimate D2E/DX2                !
 ! D8    D(25,1,24,44)          -0.5796         estimate D2E/DX2                !
 ! D9    D(1,2,3,4)              0.044          estimate D2E/DX2                !
 ! D10   D(1,2,3,27)          -179.3296         estimate D2E/DX2                !
 ! D11   D(26,2,3,4)          -179.8055         estimate D2E/DX2                !
 ! D12   D(26,2,3,27)            0.8208         estimate D2E/DX2                !
 ! D13   D(2,3,4,5)            176.2315         estimate D2E/DX2                !
 ! D14   D(2,3,4,23)            -0.8622         estimate D2E/DX2                !
 ! D15   D(27,3,4,5)            -4.3962         estimate D2E/DX2                !
 ! D16   D(27,3,4,23)          178.5101         estimate D2E/DX2                !
 ! D17   D(3,4,5,6)            -99.5631         estimate D2E/DX2                !
 ! D18   D(3,4,5,28)            20.8813         estimate D2E/DX2                !
 ! D19   D(3,4,5,29)           141.6288         estimate D2E/DX2                !
 ! D20   D(23,4,5,6)            77.4956         estimate D2E/DX2                !
 ! D21   D(23,4,5,28)         -162.06           estimate D2E/DX2                !
 ! D22   D(23,4,5,29)          -41.3125         estimate D2E/DX2                !
 ! D23   D(3,4,23,24)            0.9292         estimate D2E/DX2                !
 ! D24   D(3,4,23,43)         -179.6291         estimate D2E/DX2                !
 ! D25   D(5,4,23,24)         -176.2002         estimate D2E/DX2                !
 ! D26   D(5,4,23,43)            3.2416         estimate D2E/DX2                !
 ! D27   D(4,5,6,7)             55.2536         estimate D2E/DX2                !
 ! D28   D(4,5,6,22)           -59.2836         estimate D2E/DX2                !
 ! D29   D(4,5,6,30)          -178.8464         estimate D2E/DX2                !
 ! D30   D(28,5,6,7)           -66.6119         estimate D2E/DX2                !
 ! D31   D(28,5,6,22)          178.8509         estimate D2E/DX2                !
 ! D32   D(28,5,6,30)           59.2881         estimate D2E/DX2                !
 ! D33   D(29,5,6,7)           175.6368         estimate D2E/DX2                !
 ! D34   D(29,5,6,22)           61.0996         estimate D2E/DX2                !
 ! D35   D(29,5,6,30)          -58.4632         estimate D2E/DX2                !
 ! D36   D(5,6,7,8)           -108.3101         estimate D2E/DX2                !
 ! D37   D(5,6,7,31)             9.2415         estimate D2E/DX2                !
 ! D38   D(5,6,7,32)           134.3034         estimate D2E/DX2                !
 ! D39   D(22,6,7,8)             9.6949         estimate D2E/DX2                !
 ! D40   D(22,6,7,31)          127.2466         estimate D2E/DX2                !
 ! D41   D(22,6,7,32)         -107.6915         estimate D2E/DX2                !
 ! D42   D(30,6,7,8)           127.7517         estimate D2E/DX2                !
 ! D43   D(30,6,7,31)         -114.6967         estimate D2E/DX2                !
 ! D44   D(30,6,7,32)           10.3652         estimate D2E/DX2                !
 ! D45   D(5,6,22,9)           111.5191         estimate D2E/DX2                !
 ! D46   D(7,6,22,9)            -9.1482         estimate D2E/DX2                !
 ! D47   D(30,6,22,9)         -129.2897         estimate D2E/DX2                !
 ! D48   D(6,7,8,9)             -6.91           estimate D2E/DX2                !
 ! D49   D(31,7,8,9)          -127.6635         estimate D2E/DX2                !
 ! D50   D(32,7,8,9)           113.2118         estimate D2E/DX2                !
 ! D51   D(7,8,9,10)           177.852          estimate D2E/DX2                !
 ! D52   D(7,8,9,22)             1.316          estimate D2E/DX2                !
 ! D53   D(8,9,10,11)          -19.2232         estimate D2E/DX2                !
 ! D54   D(8,9,10,21)          164.4674         estimate D2E/DX2                !
 ! D55   D(22,9,10,11)         157.0867         estimate D2E/DX2                !
 ! D56   D(22,9,10,21)         -19.2227         estimate D2E/DX2                !
 ! D57   D(8,9,22,6)             5.4927         estimate D2E/DX2                !
 ! D58   D(10,9,22,6)         -170.7946         estimate D2E/DX2                !
 ! D59   D(9,10,11,12)        -173.3468         estimate D2E/DX2                !
 ! D60   D(21,10,11,12)          2.9674         estimate D2E/DX2                !
 ! D61   D(9,10,21,20)         177.2199         estimate D2E/DX2                !
 ! D62   D(11,10,21,20)          0.7128         estimate D2E/DX2                !
 ! D63   D(10,11,12,13)        115.6224         estimate D2E/DX2                !
 ! D64   D(10,11,12,20)         -4.9296         estimate D2E/DX2                !
 ! D65   D(10,11,12,33)       -124.8493         estimate D2E/DX2                !
 ! D66   D(11,12,13,14)         61.8182         estimate D2E/DX2                !
 ! D67   D(11,12,13,34)        -58.7158         estimate D2E/DX2                !
 ! D68   D(11,12,13,35)       -176.7353         estimate D2E/DX2                !
 ! D69   D(20,12,13,14)        176.581          estimate D2E/DX2                !
 ! D70   D(20,12,13,34)         56.047          estimate D2E/DX2                !
 ! D71   D(20,12,13,35)        -61.9724         estimate D2E/DX2                !
 ! D72   D(33,12,13,14)        -57.5931         estimate D2E/DX2                !
 ! D73   D(33,12,13,34)       -178.1271         estimate D2E/DX2                !
 ! D74   D(33,12,13,35)         63.8534         estimate D2E/DX2                !
 ! D75   D(11,12,20,21)          5.2148         estimate D2E/DX2                !
 ! D76   D(11,12,20,41)       -112.5472         estimate D2E/DX2                !
 ! D77   D(11,12,20,42)        122.8552         estimate D2E/DX2                !
 ! D78   D(13,12,20,21)       -113.4841         estimate D2E/DX2                !
 ! D79   D(13,12,20,41)        128.7539         estimate D2E/DX2                !
 ! D80   D(13,12,20,42)          4.1563         estimate D2E/DX2                !
 ! D81   D(33,12,20,21)        122.5898         estimate D2E/DX2                !
 ! D82   D(33,12,20,41)          4.8278         estimate D2E/DX2                !
 ! D83   D(33,12,20,42)       -119.7698         estimate D2E/DX2                !
 ! D84   D(12,13,14,15)        -80.3105         estimate D2E/DX2                !
 ! D85   D(12,13,14,19)         98.2609         estimate D2E/DX2                !
 ! D86   D(34,13,14,15)         39.2446         estimate D2E/DX2                !
 ! D87   D(34,13,14,19)       -142.1839         estimate D2E/DX2                !
 ! D88   D(35,13,14,15)        159.5028         estimate D2E/DX2                !
 ! D89   D(35,13,14,19)        -21.9257         estimate D2E/DX2                !
 ! D90   D(13,14,15,16)        178.9618         estimate D2E/DX2                !
 ! D91   D(13,14,15,36)         -0.1609         estimate D2E/DX2                !
 ! D92   D(19,14,15,16)          0.366          estimate D2E/DX2                !
 ! D93   D(19,14,15,36)       -178.7567         estimate D2E/DX2                !
 ! D94   D(13,14,19,18)       -179.0603         estimate D2E/DX2                !
 ! D95   D(13,14,19,40)          1.2048         estimate D2E/DX2                !
 ! D96   D(15,14,19,18)         -0.4734         estimate D2E/DX2                !
 ! D97   D(15,14,19,40)        179.7917         estimate D2E/DX2                !
 ! D98   D(14,15,16,17)         -0.0036         estimate D2E/DX2                !
 ! D99   D(14,15,16,37)       -179.9439         estimate D2E/DX2                !
 ! D100  D(36,15,16,17)        179.1126         estimate D2E/DX2                !
 ! D101  D(36,15,16,37)         -0.8276         estimate D2E/DX2                !
 ! D102  D(15,16,17,18)         -0.2564         estimate D2E/DX2                !
 ! D103  D(15,16,17,38)        179.8611         estimate D2E/DX2                !
 ! D104  D(37,16,17,18)        179.6837         estimate D2E/DX2                !
 ! D105  D(37,16,17,38)         -0.1988         estimate D2E/DX2                !
 ! D106  D(16,17,18,19)          0.1496         estimate D2E/DX2                !
 ! D107  D(16,17,18,39)       -179.8426         estimate D2E/DX2                !
 ! D108  D(38,17,18,19)       -179.9677         estimate D2E/DX2                !
 ! D109  D(38,17,18,39)          0.0401         estimate D2E/DX2                !
 ! D110  D(17,18,19,14)          0.2181         estimate D2E/DX2                !
 ! D111  D(17,18,19,40)        179.9528         estimate D2E/DX2                !
 ! D112  D(39,18,19,14)       -179.7897         estimate D2E/DX2                !
 ! D113  D(39,18,19,40)         -0.0549         estimate D2E/DX2                !
 ! D114  D(12,20,21,10)         -3.7216         estimate D2E/DX2                !
 ! D115  D(41,20,21,10)        116.9373         estimate D2E/DX2                !
 ! D116  D(42,20,21,10)       -124.0895         estimate D2E/DX2                !
 ! D117  D(4,23,24,1)           -0.1793         estimate D2E/DX2                !
 ! D118  D(4,23,24,44)         179.973          estimate D2E/DX2                !
 ! D119  D(43,23,24,1)        -179.6151         estimate D2E/DX2                !
 ! D120  D(43,23,24,44)          0.5373         estimate D2E/DX2                !
 --------------------------------------------------------------------------------
 Trust Radius=3.00D-01 FncErr=1.00D-07 GrdErr=1.00D-06 EigMax=2.50D+02 EigMin=1.00D-04
 Number of steps in this run=    259 maximum allowed number of steps=    264.
 GradGradGradGradGradGradGradGradGradGradGradGradGradGradGradGradGradGrad

 Leave Link  103 at Sun Feb 25 22:22:07 2024, MaxMem=  7516192768 cpu:               1.0 elap:               0.1
 (Enter /public/apps/g16-C01//g16/l202.exe)
                          Input orientation:                          
 ---------------------------------------------------------------------
 Center     Atomic      Atomic             Coordinates (Angstroms)
 Number     Number       Type             X           Y           Z
 ---------------------------------------------------------------------
      1          6           0        1.521576   -2.480546   -0.841091
      2          6           0        2.576919   -2.425120    0.051767
      3          6           0        3.382891   -1.300873    0.106188
      4          6           0        3.145039   -0.217137   -0.729471
      5          6           0        3.959104    1.040425   -0.622745
      6          6           0        3.199778    2.121229    0.180079
      7          6           0        2.760248    1.637688    1.586748
      8          8           0        1.347013    1.492252    1.475881
      9          6           0        1.018415    1.982682    0.265641
     10          6           0       -0.381987    1.912656   -0.132240
     11          7           0       -1.220794    1.132510    0.404074
     12          6           0       -2.451963    1.223287   -0.342218
     13          6           0       -2.763318   -0.127743   -1.009519
     14          6           0       -2.952616   -1.204284    0.020971
     15          6           0       -1.849049   -1.814905    0.602945
     16          6           0       -2.017229   -2.791289    1.567463
     17          6           0       -3.289626   -3.169458    1.962343
     18          6           0       -4.393770   -2.561752    1.390906
     19          6           0       -4.224892   -1.582832    0.426995
     20          6           0       -2.164558    2.350124   -1.374779
     21          8           0       -0.789476    2.666860   -1.174647
     22          7           0        1.949131    2.412132   -0.479093
     23          6           0        2.092312   -0.289030   -1.635768
     24          6           0        1.286350   -1.411172   -1.689352
     25          1           0        0.886848   -3.353727   -0.879351
     26          1           0        2.772999   -3.258576    0.710566
     27          1           0        4.212305   -1.272035    0.800463
     28          1           0        4.910538    0.845692   -0.124608
     29          1           0        4.153822    1.446535   -1.616134
     30          1           0        3.810725    3.027286    0.220445
     31          1           0        3.186899    0.672106    1.861628
     32          1           0        2.975316    2.371533    2.369869
     33          1           0       -3.264786    1.479555    0.344165
     34          1           0       -1.928084   -0.384860   -1.665023
     35          1           0       -3.666318   -0.013251   -1.612988
     36          1           0       -0.856835   -1.510859    0.306292
     37          1           0       -1.151327   -3.258404    2.013572
     38          1           0       -3.420823   -3.933906    2.714316
     39          1           0       -5.389471   -2.849973    1.695974
     40          1           0       -5.091283   -1.111692   -0.016878
     41          1           0       -2.760054    3.250395   -1.199597
     42          1           0       -2.300668    2.019819   -2.407608
     43          1           0        1.905068    0.547387   -2.292955
     44          1           0        0.471106   -1.455000   -2.397657
 ---------------------------------------------------------------------
                    Distance matrix (angstroms):
                    1          2          3          4          5
     1  C    0.000000
     2  C    1.383480   0.000000
     3  C    2.398637   1.384371   0.000000
     4  C    2.787671   2.410038   1.389022   0.000000
     5  C    4.287943   3.791491   2.518936   1.501850   0.000000
     6  C    5.003547   4.590611   3.427794   2.509628   1.545717
     7  C    4.938478   4.346974   3.348863   2.992208   2.583764
     8  O    4.602386   4.345868   3.717850   3.319410   3.381035
     9  C    4.625844   4.680106   4.049433   3.217449   3.213212
    10  C    4.840067   5.254073   4.955595   4.163246   4.454936
    11  N    4.703743   5.215695   5.215746   4.708181   5.281494
    12  C    5.454930   6.225412   6.373223   5.792341   6.419806
    13  C    4.891254   5.909518   6.355857   5.915666   6.834118
    14  C    4.731848   5.662786   6.336816   6.222461   7.295544
    15  C    3.726853   4.501705   5.280549   5.410093   6.587099
    16  C    4.291950   4.851557   5.789470   6.208959   7.429374
    17  C    5.610838   6.214555   7.173521   7.574099   8.772108
    18  C    6.322952   7.099469   7.982279   8.174770   9.316704
    19  C    5.952800   6.864028   7.619762   7.584090   8.658015
    20  C    6.099818   6.878924   6.804207   5.932881   6.307147
    21  O    5.652257   6.226152   5.898482   4.898574   5.049643
    22  N    4.924647   4.906622   4.023012   2.899300   2.437664
    23  C    2.399999   2.765050   2.392453   1.390963   2.505709
    24  C    1.385077   2.392729   2.762538   2.408696   3.780422
    25  H    1.080180   2.141409   3.378717   3.867827   5.367791
    26  H    2.139867   1.080330   2.137719   3.385627   4.654672
    27  H    3.375681   2.136501   1.082024   2.143027   2.727105
    28  H    4.802319   4.021828   2.644752   2.147662   1.091461
    29  H    4.790759   4.500914   3.333013   2.138134   1.090716
    30  H    6.058323   5.592804   4.350754   3.445542   2.163470
    31  H    4.474059   3.638747   2.648137   2.739763   2.627559
    32  H    5.997191   5.342303   4.333236   4.041773   3.419858
    33  H    6.324278   7.032603   7.209648   6.716942   7.301530
    34  H    4.119577   5.234986   5.672982   5.161392   6.146280
    35  H    5.796345   6.896849   7.369185   6.871445   7.761306
    36  H    2.813116   3.562488   4.249637   4.331457   5.528601
    37  H    3.987302   4.294515   5.294259   5.935685   7.179596
    38  H    6.259431   6.733388   7.747627   8.293647   9.504908
    39  H    7.371278   8.145384   9.048838   9.254862  10.387854
    40  H    6.803160   7.780175   8.477179   8.315348   9.322456
    41  H    7.162721   7.890543   7.755958   6.864031   7.096746
    42  H    6.108749   7.042504   7.046205   6.121751   6.582529
    43  H    3.379845   3.845114   3.369854   2.136939   2.692908
    44  H    2.139656   3.372723   3.843369   3.386010   4.641507
                    6          7          8          9         10
     6  C    0.000000
     7  C    1.551037   0.000000
     8  O    2.346796   1.425018   0.000000
     9  C    2.187432   2.213216   1.346543   0.000000
    10  C    3.601401   3.592237   2.398381   1.457511   0.000000
    11  N    4.535328   4.183613   2.805676   2.399169   1.264855
    12  C    5.746414   5.573130   4.220195   3.604122   2.191831
    13  C    6.483173   6.353513   5.069163   4.514580   3.256314
    14  C    6.995449   6.570029   5.279667   5.097617   4.043133
    15  C    6.415810   5.842421   4.681252   4.770513   4.072773
    16  C    7.298961   6.514637   5.447498   5.805228   5.262139
    17  C    8.560385   7.736323   6.592921   6.926945   6.218483
    18  C    9.003243   8.297808   7.028425   7.156106   6.199573
    19  C    8.301010   7.778750   6.449994   6.342806   5.224854
    20  C    5.589819   5.790675   4.603622   3.599626   2.216493
    21  O    4.248193   4.613571   3.601331   2.410601   1.349623
    22  N    1.443347   2.350611   2.242911   1.267000   2.409127
    23  C    3.214519   3.813527   3.662075   3.151077   3.637331
    24  C    4.431008   4.711768   4.295608   3.925816   4.031846
    25  H    6.037150   5.874138   5.407623   5.459448   5.468355
    26  H    5.422717   4.974059   5.018915   5.545026   6.116036
    27  H    3.595042   3.345624   4.038239   4.591313   5.667425
    28  H    2.155581   2.860025   3.959585   4.073532   5.399008
    29  H    2.142847   3.498148   4.176221   3.695850   4.795078
    30  H    1.093538   2.213881   3.162645   2.981650   4.352657
    31  H    2.219849   1.090843   2.051005   2.994513   4.272168
    32  H    2.215449   1.094560   2.055169   2.899731   4.212197
    33  H    6.498404   6.153865   4.748645   4.313365   2.953823
    34  H    5.998321   6.053526   4.910712   4.244358   3.165189
    35  H    7.410423   7.366455   6.077922   5.427681   4.085164
    36  H    5.446476   4.963487   3.904300   3.965229   3.483999
    37  H    7.157811   6.281267   5.394400   5.935657   5.651217
    38  H    9.323056   8.397601   7.328654   7.791589   7.177722
    39  H   10.039222   9.304244   8.017704   8.152387   7.148419
    40  H    8.901251   8.472145   7.103556   6.854442   5.597987
    41  H    6.220781   6.390483   5.207422   4.246274   2.929846
    42  H    6.079582   6.458620   5.354007   4.261919   2.978275
    43  H    3.204551   4.119731   3.925343   3.064741   3.429762
    44  H    5.184572   5.538987   4.945483   4.382963   4.147407
                   11         12         13         14         15
    11  N    0.000000
    12  C    1.442557   0.000000
    13  C    2.442512   1.538673   0.000000
    14  C    2.933698   2.505127   1.502226   0.000000
    15  C    3.020184   3.238433   2.506480   1.389033   0.000000
    16  C    4.169410   4.466844   3.780471   2.405238   1.382717
    17  C    5.021474   5.030794   4.284973   2.782878   2.399591
    18  C    4.968821   4.593567   3.787455   2.407564   2.766635
    19  C    4.049471   3.407238   2.513375   1.388107   2.393626
    20  C    2.353209   1.555167   2.575219   3.899099   4.621515
    21  O    2.243351   2.353870   3.425365   4.592868   4.936471
    22  N    3.530700   4.560890   5.379544   6.111927   5.784879
    23  C    4.142270   4.960928   4.898504   5.388300   4.782725
    24  C    4.139870   4.767612   4.302229   4.575679   3.904914
    25  H    5.120123   5.690802   4.873154   4.491344   3.471355
    26  H    5.943564   6.963884   6.588749   6.121954   4.843459
    27  H    5.954622   7.207275   7.296900   7.207516   6.088820
    28  H    6.160763   7.375388   7.785802   8.127286   7.300694
    29  H    5.750335   6.731203   7.119913   7.759408   7.183019
    30  H    5.379598   6.541580   7.394935   7.980524   7.458295
    31  H    4.665211   6.079268   6.654947   6.678510   5.755891
    32  H    4.796547   6.174888   7.113267   7.310552   6.627426
    33  H    2.074110   1.094293   2.160402   2.721194   3.595100
    34  H    2.661547   2.147184   1.092433   2.136281   2.682341
    35  H    3.370741   2.149079   1.092105   2.144237   3.385082
    36  H    2.670099   3.231184   2.697971   2.137216   1.079322
    37  H    4.677118   5.227519   4.640973   3.381495   2.135503
    38  H    5.987146   6.072704   5.365271   3.863180   3.379131
    39  H    5.908218   5.419836   4.650474   3.384108   3.847163
    40  H    4.493810   3.538924   2.715311   2.141005   3.375022
    41  H    3.070264   2.222428   3.383483   4.622881   5.453105
    42  H    3.139905   2.218826   2.603982   4.088749   4.896172
    43  H    4.169814   4.821404   4.888439   5.658595   5.297174
    44  H    4.172221   4.465690   3.761653   4.199344   3.810021
                   16         17         18         19         20
    16  C    0.000000
    17  C    1.384896   0.000000
    18  C    2.394119   1.383828   0.000000
    19  C    2.763116   2.397790   1.384171   0.000000
    20  C    5.925590   6.547362   6.061759   4.791608   0.000000
    21  O    6.230404   7.081953   6.849188   5.694491   1.425211
    22  N    6.855362   8.034882   8.274588   7.409406   4.210527
    23  C    5.780166   7.085797   7.509679   6.770228   5.015395
    24  C    4.839959   6.112774   6.563199   5.906114   5.114203
    25  H    3.838867   5.054910   5.802260   5.565294   6.487715
    26  H    4.888652   6.191148   7.232635   7.201320   7.757941
    27  H    6.457826   7.824906   8.722185   8.451175   7.649581
    28  H    8.005291   9.365868  10.023852   9.468795   7.340520
    29  H    8.134882   9.461385   9.908077   9.140804   6.387226
    30  H    8.344778   9.583779   9.996052   9.266444   6.221519
    31  H    6.258162   7.530812   8.255057   7.878932   6.475196
    32  H    7.226624   8.373659   8.921833   8.441253   6.359336
    33  H    4.614430   4.922646   4.324631   3.210433   2.218820
    34  H    4.030858   4.771328   4.489674   3.329715   2.760489
    35  H    4.533460   4.783987   4.005923   2.633841   2.810261
    36  H    2.139291   3.378154   3.845864   3.370988   4.409459
    37  H    1.080276   2.140761   3.374385   3.843380   6.630471
    38  H    2.142644   1.080304   2.140291   3.377264   7.601837
    39  H    3.375200   2.140648   1.080536   2.138270   6.846210
    40  H    3.844605   3.376046   2.138002   1.081494   4.732207
    41  H    6.686580   7.175850   6.569687   5.305811   1.093523
    42  H    6.247262   6.855881   6.308770   4.971590   1.092869
    43  H    6.436925   7.675112   7.931768   7.036503   4.544751
    44  H    4.868229   6.007668   6.264593   5.481551   4.740461
                   21         22         23         24         25
    21  O    0.000000
    22  N    2.837014   0.000000
    23  C    4.153868   2.941883   0.000000
    24  C    4.604815   4.064684   1.382624   0.000000
    25  H    6.256575   5.876545   3.379005   2.142247   0.000000
    26  H    7.166313   5.852433   3.845364   3.373816   2.468695
    27  H    6.665866   4.509136   3.375780   3.844444   4.267772
    28  H    6.075310   3.368876   3.393169   4.547153   5.864711
    29  H    5.110802   2.661936   2.694883   4.048981   5.853075
    30  H    4.820585   2.081658   4.170902   5.451578   7.104642
    31  H    5.386053   3.168396   3.788625   4.534489   5.386143
    32  H    5.179235   3.028414   4.889112   5.799891   6.906354
    33  H    3.137458   5.360260   5.978840   5.762320   6.487964
    34  H    3.293917   4.925687   4.021644   3.374388   4.165969
    35  H    3.956180   6.221050   5.765275   5.146740   5.694587
    36  H    4.432951   4.886730   3.736567   2.930149   2.800418
    37  H    6.738281   6.926846   5.714548   4.802726   3.540091
    38  H    8.100502   8.905418   7.912206   6.921991   5.639777
    39  H    7.735365   9.288474   8.581143   7.622150   6.802812
    40  H    5.841526   7.886597   7.409562   6.600080   6.442719
    41  H    2.055313   4.837172   6.021896   6.192209   7.550952
    42  H    2.054886   4.683361   5.022429   5.015405   6.432016
    43  H    3.606015   2.601790   1.080069   2.140818   4.272439
    44  H    4.480463   4.562911   2.137351   1.080851   2.466426
                   26         27         28         29         30
    26  H    0.000000
    27  H    2.454797   0.000000
    28  H    4.702298   2.414136   0.000000
    29  H    5.427548   3.637854   1.777155   0.000000
    30  H    6.389770   4.356816   2.467388   2.447348   0.000000
    31  H    4.116615   2.440740   2.635564   3.691816   2.937603
    32  H    5.873018   4.155570   3.506521   4.258253   2.397487
    33  H    7.683683   7.980372   8.213249   7.673305   7.243869
    34  H    6.000154   6.676083   7.117154   6.351848   6.937698
    35  H    7.576004   8.335585   8.747315   7.955223   8.277229
    36  H    4.048907   5.098767   6.245126   6.127690   6.510626
    37  H    4.134992   5.846866   7.626377   7.965916   8.206532
    38  H    6.544808   8.307408  10.015769  10.250717  10.342769
    39  H    8.231883   9.771690  11.093360  10.977453  11.016486
    40  H    8.184450   9.340798  10.192123   9.724922   9.820041
    41  H    8.753862   8.547889   8.110252   7.157450   6.726175
    42  H    7.957799   7.971627   7.654551   6.528057   6.728356
    43  H    4.925424   4.266483   3.718005   2.514647   4.012307
    44  H    4.267628   4.925243   5.492585   4.753113   6.172390
                   31         32         33         34         35
    31  H    0.000000
    32  H    1.786373   0.000000
    33  H    6.676744   6.621025   0.000000
    34  H    6.302182   6.922528   3.049533   0.000000
    35  H    7.714224   8.103187   2.494022   1.778274   0.000000
    36  H    4.851411   5.832384   3.839562   2.510285   3.717480
    37  H    5.855954   6.989444   5.449944   4.732089   5.477968
    38  H    8.099655   8.988203   5.911643   5.831175   5.844430
    39  H    9.272896   9.883720   5.008641   5.417959   4.686734
    40  H    8.674043   9.104913   3.190769   3.640123   2.405133
    41  H    7.168328   6.812338   2.402879   3.758174   3.412271
    42  H    7.082097   7.126289   2.965411   2.544157   2.574839
    43  H    4.349621   5.120046   5.877987   3.994551   5.640657
    44  H    5.481024   6.606264   5.485079   2.727282   4.451137
                   36         37         38         39         40
    36  H    0.000000
    37  H    2.460781   0.000000
    38  H    4.271273   2.469404   0.000000
    39  H    4.926381   4.269608   2.467287   0.000000
    40  H    4.265480   4.924871   4.267874   2.458536   0.000000
    41  H    5.344107   7.434845   8.207893   7.246562   5.085396
    42  H    4.681409   6.980505   7.933202   7.077780   4.827990
    43  H    4.315156   6.509360   8.574373   8.981309   7.542015
    44  H    3.012953   5.034232   6.886534   7.283552   6.060210
                   41         42         43         44
    41  H    0.000000
    42  H    1.784557   0.000000
    43  H    5.501368   4.457512   0.000000
    44  H    5.832365   4.444907   2.465109   0.000000
 Symmetry turned off by external request.
 Stoichiometry    C20H20N2O2
 Framework group  C1[X(C20H20N2O2)]
 Deg. of freedom   126
 Full point group                 C1      NOp   1
 Rotational constants (GHZ):           0.3748426           0.1859653           0.1481270
 Leave Link  202 at Sun Feb 25 22:22:07 2024, MaxMem=  7516192768 cpu:               1.2 elap:               0.1
 (Enter /public/apps/g16-C01//g16/l301.exe)
 Standard basis: def2SVPP (5D, 7F)
 Ernie: Thresh=  0.10000D-02 Tol=  0.10000D-05 Strict=F.
   376 basis functions,   680 primitive gaussians,   400 cartesian basis functions
    85 alpha electrons       85 beta electrons
       nuclear repulsion energy      2050.5017715559 Hartrees.
 IExCor=  402 DFT=T Ex+Corr=B3LYP ExCW=0 ScaHFX=  0.200000
 ScaDFX=  0.800000  0.720000  1.000000  0.810000 ScalE2=  1.000000  1.000000
 IRadAn=      5 IRanWt=     -1 IRanGd=            0 ICorTp=0 IEmpDi=141
 NAtoms=   44 NActive=   44 NUniq=   44 SFac= 1.00D+00 NAtFMM=   60 NAOKFM=F Big=F
 Integral buffers will be    131072 words long.
 Raffenetti 2 integral format.
 Two-electron integral symmetry is turned off.
 R6Disp:  Grimme-D3(BJ) Dispersion energy=       -0.1006770441 Hartrees.
 Nuclear repulsion after empirical dispersion term =     2050.4010945119 Hartrees.
 Leave Link  301 at Sun Feb 25 22:22:07 2024, MaxMem=  7516192768 cpu:               1.4 elap:               0.1
 (Enter /public/apps/g16-C01//g16/l302.exe)
 NPDir=0 NMtPBC=     1 NCelOv=     1 NCel=       1 NClECP=     1 NCelD=      1
         NCelK=      1 NCelE2=     1 NClLst=     1 CellRange=     0.0.
 One-electron integrals computed using PRISM.
   1 Symmetry operations used in ECPInt.
 ECPInt:  NShTT=   17020 NPrTT=   68268 LenC2=   15828 LenP2D=   42491.
 LDataN:  DoStor=T MaxTD1= 4 Len=   56
 NBasis=   376 RedAO= T EigKep=  2.45D-04  NBF=   376
 NBsUse=   376 1.00D-06 EigRej= -1.00D+00 NBFU=   376
 Precomputing XC quadrature grid using
 IXCGrd= 4 IRadAn=           5 IRanWt=          -1 IRanGd=           0 AccXCQ= 0.00D+00.
 Generated NRdTot=       0 NPtTot=           0 NUsed=           0 NTot=          32
 NSgBfM=   399   399   399   399   399 MxSgAt=    44 MxSgA2=    44.
 Leave Link  302 at Sun Feb 25 22:22:08 2024, MaxMem=  7516192768 cpu:              16.0 elap:               0.4
 (Enter /public/apps/g16-C01//g16/l303.exe)
 DipDrv:  MaxL=1.
 Leave Link  303 at Sun Feb 25 22:22:08 2024, MaxMem=  7516192768 cpu:               2.2 elap:               0.1
 (Enter /public/apps/g16-C01//g16/l401.exe)
 ExpMin= 1.22D-01 ExpMax= 2.27D+03 ExpMxC= 3.41D+02 IAcc=3 IRadAn=         5 AccDes= 0.00D+00
 Harris functional with IExCor=  402 and IRadAn=       5 diagonalized for initial guess.
 HarFok:  IExCor=  402 AccDes= 0.00D+00 IRadAn=         5 IDoV= 1 UseB2=F ITyADJ=14
 ICtDFT=  3500011 ScaDFX=  1.000000  1.000000  1.000000  1.000000
 FoFCou: FMM=F IPFlag=           0 FMFlag=      100000 FMFlg1=           0
         NFxFlg=           0 DoJE=T BraDBF=F KetDBF=T FulRan=T
         wScrn=  0.000000 ICntrl=       500 IOpCl=  0 I1Cent=   200000004 NGrid=           0
         NMat0=    1 NMatS0=      1 NMatT0=    0 NMatD0=    1 NMtDS0=    0 NMtDT0=    0
 Symmetry not used in FoFCou.
 Harris En= -1033.35276200066    
 JPrj=0 DoOrth=F DoCkMO=F.
 Leave Link  401 at Sun Feb 25 22:22:09 2024, MaxMem=  7516192768 cpu:              32.0 elap:               0.8
 (Enter /public/apps/g16-C01//g16/l502.exe)
 Two-electron integral symmetry not used.
 Closed shell SCF:
 Using DIIS extrapolation, IDIIS=  1040.
 NGot=  7516192768 LenX=  7515852226 LenY=  7515691785
 Requested convergence on RMS density matrix=1.00D-08 within 128 cycles.
 Requested convergence on MAX density matrix=1.00D-06.
 Requested convergence on             energy=1.00D-06.
 No special actions if energy rises.
 Fock matrices will be formed incrementally for  20 cycles.
 Integral accuracy reduced to 1.0D-05 until final iterations.

 Cycle   1  Pass 0  IDiag  1:
 FoFJK:  IHMeth= 1 ICntrl=       0 DoSepK=F KAlg= 0 I1Cent=           0 FoldK=F
 IRaf= 870000000 NMat=       1 IRICut=       1 DoRegI=T DoRafI=F ISym2E= 0 IDoP0=0 IntGTp=1.
 FoFCou: FMM=F IPFlag=           0 FMFlag=      100000 FMFlg1=           0
         NFxFlg=           0 DoJE=F BraDBF=F KetDBF=F FulRan=T
         wScrn=  0.000000 ICntrl=         0 IOpCl=  0 I1Cent=           0 NGrid=           0
         NMat0=    1 NMatS0=      1 NMatT0=    0 NMatD0=    1 NMtDS0=    0 NMtDT0=    0
 Symmetry not used in FoFCou.
 E= -1032.91053574554    
 DIIS: error= 2.04D-02 at cycle   1 NSaved=   1.
 NSaved= 1 IEnMin= 1 EnMin= -1032.91053574554     IErMin= 1 ErrMin= 2.04D-02
 ErrMax= 2.04D-02  0.00D+00 EMaxC= 1.00D-01 BMatC= 4.30D-01 BMatP= 4.30D-01
 IDIUse=3 WtCom= 7.96D-01 WtEn= 2.04D-01
 Coeff-Com:  0.100D+01
 Coeff-En:   0.100D+01
 Coeff:      0.100D+01
 Gap=     0.258 Goal=   None    Shift=    0.000
 GapD=    0.258 DampG=1.000 DampE=0.500 DampFc=0.5000 IDamp=-1.
 Damping current iteration by 5.00D-01
 RMSDP=5.81D-03 MaxDP=1.41D-01              OVMax= 1.89D-01

 Cycle   2  Pass 0  IDiag  1:
 RMSU=  2.74D-03    CP:  9.54D-01
 E= -1033.10881531875     Delta-E=       -0.198279573206 Rises=F Damp=T
 DIIS: error= 6.22D-03 at cycle   2 NSaved=   2.
 NSaved= 2 IEnMin= 2 EnMin= -1033.10881531875     IErMin= 2 ErrMin= 6.22D-03
 ErrMax= 6.22D-03  0.00D+00 EMaxC= 1.00D-01 BMatC= 3.75D-02 BMatP= 4.30D-01
 IDIUse=3 WtCom= 9.38D-01 WtEn= 6.22D-02
 Coeff-Com:  0.105D+00 0.895D+00
 Coeff-En:   0.157D+00 0.843D+00
 Coeff:      0.109D+00 0.891D+00
 Gap=     0.192 Goal=   None    Shift=    0.000
 RMSDP=1.87D-03 MaxDP=5.51D-02 DE=-1.98D-01 OVMax= 1.69D-01

 Cycle   3  Pass 0  IDiag  1:
 RMSU=  1.79D-03    CP:  9.28D-01  9.78D-01
 E= -1033.34694363559     Delta-E=       -0.238128316839 Rises=F Damp=F
 DIIS: error= 8.07D-03 at cycle   3 NSaved=   3.
 NSaved= 3 IEnMin= 3 EnMin= -1033.34694363559     IErMin= 2 ErrMin= 6.22D-03
 ErrMax= 8.07D-03  0.00D+00 EMaxC= 1.00D-01 BMatC= 5.01D-02 BMatP= 3.75D-02
 IDIUse=3 WtCom= 1.00D-01 WtEn= 9.00D-01
 Coeff-Com:  0.251D-02 0.540D+00 0.457D+00
 Coeff-En:   0.000D+00 0.000D+00 0.100D+01
 Coeff:      0.251D-03 0.541D-01 0.946D+00
 Gap=     0.178 Goal=   None    Shift=    0.000
 RMSDP=1.86D-03 MaxDP=9.17D-02 DE=-2.38D-01 OVMax= 2.08D-01

 Cycle   4  Pass 0  IDiag  1:
 RMSU=  1.30D-03    CP:  9.31D-01  1.19D+00  3.33D-01
 E= -1033.20876260263     Delta-E=        0.138181032954 Rises=F Damp=F
 DIIS: error= 2.06D-02 at cycle   4 NSaved=   4.
 NSaved= 4 IEnMin= 3 EnMin= -1033.34694363559     IErMin= 2 ErrMin= 6.22D-03
 ErrMax= 2.06D-02  0.00D+00 EMaxC= 1.00D-01 BMatC= 2.05D-01 BMatP= 3.75D-02
 IDIUse=2 WtCom= 0.00D+00 WtEn= 1.00D+00
 Coeff-En:   0.000D+00 0.000D+00 0.745D+00 0.255D+00
 Coeff:      0.000D+00 0.000D+00 0.745D+00 0.255D+00
 Gap=     0.204 Goal=   None    Shift=    0.000
 RMSDP=9.68D-04 MaxDP=4.76D-02 DE= 1.38D-01 OVMax= 7.36D-02

 Cycle   5  Pass 0  IDiag  1:
 RMSU=  2.10D-04    CP:  9.29D-01  1.07D+00  6.67D-01  4.99D-01
 E= -1033.38249986093     Delta-E=       -0.173737258298 Rises=F Damp=F
 DIIS: error= 3.93D-03 at cycle   5 NSaved=   5.
 NSaved= 5 IEnMin= 5 EnMin= -1033.38249986093     IErMin= 5 ErrMin= 3.93D-03
 ErrMax= 3.93D-03  0.00D+00 EMaxC= 1.00D-01 BMatC= 1.16D-02 BMatP= 3.75D-02
 IDIUse=3 WtCom= 9.61D-01 WtEn= 3.93D-02
 Coeff-Com:  0.338D-02 0.666D-02 0.286D+00-0.363D-01 0.740D+00
 Coeff-En:   0.000D+00 0.000D+00 0.234D+00 0.000D+00 0.766D+00
 Coeff:      0.325D-02 0.640D-02 0.284D+00-0.348D-01 0.741D+00
 Gap=     0.195 Goal=   None    Shift=    0.000
 RMSDP=3.03D-04 MaxDP=1.61D-02 DE=-1.74D-01 OVMax= 2.73D-02

 Cycle   6  Pass 0  IDiag  1:
 RMSU=  7.88D-05    CP:  9.28D-01  1.04D+00  7.74D-01  3.40D-01  9.15D-01
 E= -1033.39278988903     Delta-E=       -0.010290028101 Rises=F Damp=F
 DIIS: error= 5.86D-04 at cycle   6 NSaved=   6.
 NSaved= 6 IEnMin= 6 EnMin= -1033.39278988903     IErMin= 6 ErrMin= 5.86D-04
 ErrMax= 5.86D-04  0.00D+00 EMaxC= 1.00D-01 BMatC= 1.92D-04 BMatP= 1.16D-02
 IDIUse=3 WtCom= 9.94D-01 WtEn= 5.86D-03
 Coeff-Com:  0.199D-03-0.102D-02 0.139D+00-0.525D-01 0.513D+00 0.401D+00
 Coeff-En:   0.000D+00 0.000D+00 0.000D+00 0.000D+00 0.000D+00 0.100D+01
 Coeff:      0.198D-03-0.101D-02 0.138D+00-0.521D-01 0.510D+00 0.405D+00
 Gap=     0.196 Goal=   None    Shift=    0.000
 RMSDP=4.79D-05 MaxDP=3.03D-03 DE=-1.03D-02 OVMax= 4.07D-03

 Cycle   7  Pass 0  IDiag  1:
 RMSU=  2.34D-05    CP:  9.28D-01  1.04D+00  7.75D-01  3.42D-01  9.23D-01
                    CP:  4.75D-01
 E= -1033.39295736435     Delta-E=       -0.000167475316 Rises=F Damp=F
 DIIS: error= 1.64D-04 at cycle   7 NSaved=   7.
 NSaved= 7 IEnMin= 7 EnMin= -1033.39295736435     IErMin= 7 ErrMin= 1.64D-04
 ErrMax= 1.64D-04  0.00D+00 EMaxC= 1.00D-01 BMatC= 1.40D-05 BMatP= 1.92D-04
 IDIUse=3 WtCom= 9.98D-01 WtEn= 1.64D-03
 Coeff-Com: -0.142D-03-0.923D-03 0.697D-01-0.335D-01 0.285D+00 0.266D+00
 Coeff-Com:  0.414D+00
 Coeff-En:   0.000D+00 0.000D+00 0.000D+00 0.000D+00 0.000D+00 0.000D+00
 Coeff-En:   0.100D+01
 Coeff:     -0.141D-03-0.921D-03 0.696D-01-0.335D-01 0.284D+00 0.265D+00
 Coeff:      0.415D+00
 Gap=     0.196 Goal=   None    Shift=    0.000
 RMSDP=1.19D-05 MaxDP=6.71D-04 DE=-1.67D-04 OVMax= 9.83D-04

 Cycle   8  Pass 0  IDiag  1:
 RMSU=  6.21D-06    CP:  9.28D-01  1.04D+00  7.76D-01  3.42D-01  9.20D-01
                    CP:  5.14D-01  5.89D-01
 E= -1033.39297049709     Delta-E=       -0.000013132746 Rises=F Damp=F
 DIIS: error= 3.64D-05 at cycle   8 NSaved=   8.
 NSaved= 8 IEnMin= 8 EnMin= -1033.39297049709     IErMin= 8 ErrMin= 3.64D-05
 ErrMax= 3.64D-05  0.00D+00 EMaxC= 1.00D-01 BMatC= 7.35D-07 BMatP= 1.40D-05
 IDIUse=1 WtCom= 1.00D+00 WtEn= 0.00D+00
 Coeff-Com:  0.741D-05-0.425D-03 0.172D-01-0.102D-01 0.757D-01 0.767D-01
 Coeff-Com:  0.209D+00 0.632D+00
 Coeff:      0.741D-05-0.425D-03 0.172D-01-0.102D-01 0.757D-01 0.767D-01
 Coeff:      0.209D+00 0.632D+00
 Gap=     0.196 Goal=   None    Shift=    0.000
 RMSDP=3.19D-06 MaxDP=1.16D-04 DE=-1.31D-05 OVMax= 1.77D-04

 Initial convergence to 1.0D-05 achieved.  Increase integral accuracy.
 Cycle   9  Pass 1  IDiag  1:
 E= -1033.39300152113     Delta-E=       -0.000031024036 Rises=F Damp=F
 DIIS: error= 3.09D-04 at cycle   1 NSaved=   1.
 NSaved= 1 IEnMin= 1 EnMin= -1033.39300152113     IErMin= 1 ErrMin= 3.09D-04
 ErrMax= 3.09D-04  0.00D+00 EMaxC= 1.00D-01 BMatC= 5.40D-06 BMatP= 5.40D-06
 IDIUse=3 WtCom= 9.97D-01 WtEn= 3.09D-03
 Coeff-Com:  0.100D+01
 Coeff-En:   0.100D+01
 Coeff:      0.100D+01
 Gap=     0.196 Goal=   None    Shift=    0.000
 RMSDP=3.19D-06 MaxDP=1.16D-04 DE=-3.10D-05 OVMax= 4.41D-04

 Cycle  10  Pass 1  IDiag  1:
 RMSU=  2.72D-04    CP:  1.00D+00
 E= -1033.39300747912     Delta-E=       -0.000005957994 Rises=F Damp=F
 DIIS: error= 2.24D-05 at cycle   2 NSaved=   2.
 NSaved= 2 IEnMin= 2 EnMin= -1033.39300747912     IErMin= 2 ErrMin= 2.24D-05
 ErrMax= 2.24D-05  0.00D+00 EMaxC= 1.00D-01 BMatC= 2.22D-07 BMatP= 5.40D-06
 IDIUse=1 WtCom= 1.00D+00 WtEn= 0.00D+00
 Coeff-Com:  0.494D-01 0.951D+00
 Coeff:      0.494D-01 0.951D+00
 Gap=     0.196 Goal=   None    Shift=    0.000
 RMSDP=5.45D-06 MaxDP=1.41D-04 DE=-5.96D-06 OVMax= 4.30D-04

 Cycle  11  Pass 1  IDiag  1:
 RMSU=  4.43D-06    CP:  1.00D+00  1.01D+00
 E= -1033.39300689589     Delta-E=        0.000000583229 Rises=F Damp=F
 DIIS: error= 4.33D-05 at cycle   3 NSaved=   3.
 NSaved= 3 IEnMin= 2 EnMin= -1033.39300747912     IErMin= 2 ErrMin= 2.24D-05
 ErrMax= 4.33D-05  0.00D+00 EMaxC= 1.00D-01 BMatC= 7.75D-07 BMatP= 2.22D-07
 IDIUse=1 WtCom= 1.00D+00 WtEn= 0.00D+00
 Coeff-Com: -0.537D-02 0.655D+00 0.350D+00
 Coeff:     -0.537D-02 0.655D+00 0.350D+00
 Gap=     0.196 Goal=   None    Shift=    0.000
 RMSDP=2.86D-06 MaxDP=8.95D-05 DE= 5.83D-07 OVMax= 2.87D-04

 Cycle  12  Pass 1  IDiag  1:
 RMSU=  7.38D-07    CP:  1.00D+00  1.01D+00  3.79D-01
 E= -1033.39300770967     Delta-E=       -0.000000813776 Rises=F Damp=F
 DIIS: error= 2.70D-06 at cycle   4 NSaved=   4.
 NSaved= 4 IEnMin= 4 EnMin= -1033.39300770967     IErMin= 4 ErrMin= 2.70D-06
 ErrMax= 2.70D-06  0.00D+00 EMaxC= 1.00D-01 BMatC= 6.49D-09 BMatP= 2.22D-07
 IDIUse=1 WtCom= 1.00D+00 WtEn= 0.00D+00
 Coeff-Com: -0.395D-02 0.371D+00 0.207D+00 0.427D+00
 Coeff:     -0.395D-02 0.371D+00 0.207D+00 0.427D+00
 Gap=     0.196 Goal=   None    Shift=    0.000
 RMSDP=2.92D-07 MaxDP=1.10D-05 DE=-8.14D-07 OVMax= 1.87D-05

 Cycle  13  Pass 1  IDiag  1:
 RMSU=  2.09D-07    CP:  1.00D+00  1.01D+00  3.78D-01  7.26D-01
 E= -1033.39300771546     Delta-E=       -0.000000005794 Rises=F Damp=F
 DIIS: error= 7.49D-07 at cycle   5 NSaved=   5.
 NSaved= 5 IEnMin= 5 EnMin= -1033.39300771546     IErMin= 5 ErrMin= 7.49D-07
 ErrMax= 7.49D-07  0.00D+00 EMaxC= 1.00D-01 BMatC= 2.97D-10 BMatP= 6.49D-09
 IDIUse=1 WtCom= 1.00D+00 WtEn= 0.00D+00
 Coeff-Com: -0.221D-02 0.201D+00 0.113D+00 0.262D+00 0.426D+00
 Coeff:     -0.221D-02 0.201D+00 0.113D+00 0.262D+00 0.426D+00
 Gap=     0.196 Goal=   None    Shift=    0.000
 RMSDP=6.41D-08 MaxDP=1.98D-06 DE=-5.79D-09 OVMax= 5.14D-06

 Cycle  14  Pass 1  IDiag  1:
 RMSU=  6.11D-08    CP:  1.00D+00  1.01D+00  3.79D-01  7.12D-01  9.27D-01
 E= -1033.39300771576     Delta-E=       -0.000000000299 Rises=F Damp=F
 DIIS: error= 1.06D-07 at cycle   6 NSaved=   6.
 NSaved= 6 IEnMin= 6 EnMin= -1033.39300771576     IErMin= 6 ErrMin= 1.06D-07
 ErrMax= 1.06D-07  0.00D+00 EMaxC= 1.00D-01 BMatC= 1.13D-11 BMatP= 2.97D-10
 IDIUse=1 WtCom= 1.00D+00 WtEn= 0.00D+00
 Coeff-Com: -0.449D-03 0.394D-01 0.224D-01 0.588D-01 0.190D+00 0.689D+00
 Coeff:     -0.449D-03 0.394D-01 0.224D-01 0.588D-01 0.190D+00 0.689D+00
 Gap=     0.196 Goal=   None    Shift=    0.000
 RMSDP=1.68D-08 MaxDP=5.41D-07 DE=-2.99D-10 OVMax= 9.99D-07

 Cycle  15  Pass 1  IDiag  1:
 RMSU=  1.42D-08    CP:  1.00D+00  1.01D+00  3.78D-01  7.18D-01  9.45D-01
                    CP:  9.02D-01
 E= -1033.39300771577     Delta-E=       -0.000000000004 Rises=F Damp=F
 DIIS: error= 3.91D-08 at cycle   7 NSaved=   7.
 NSaved= 7 IEnMin= 7 EnMin= -1033.39300771577     IErMin= 7 ErrMin= 3.91D-08
 ErrMax= 3.91D-08  0.00D+00 EMaxC= 1.00D-01 BMatC= 2.14D-12 BMatP= 1.13D-11
 IDIUse=1 WtCom= 1.00D+00 WtEn= 0.00D+00
 Coeff-Com: -0.147D-05-0.668D-03-0.202D-03 0.336D-02 0.568D-01 0.379D+00
 Coeff-Com:  0.562D+00
 Coeff:     -0.147D-05-0.668D-03-0.202D-03 0.336D-02 0.568D-01 0.379D+00
 Coeff:      0.562D+00
 Gap=     0.196 Goal=   None    Shift=    0.000
 RMSDP=6.62D-09 MaxDP=2.67D-07 DE=-3.64D-12 OVMax= 4.31D-07

 SCF Done:  E(RB3LYP) =  -1033.39300772     A.U. after   15 cycles
            NFock= 15  Conv=0.66D-08     -V/T= 2.0090
 KE= 1.024139371237D+03 PE=-6.501080435525D+03 EE= 2.393146962060D+03
 Leave Link  502 at Sun Feb 25 22:22:27 2024, MaxMem=  7516192768 cpu:             738.5 elap:              18.6
 (Enter /public/apps/g16-C01//g16/l601.exe)
 Copying SCF densities to generalized density rwf, IOpCl= 0 IROHF=0.

 **********************************************************************

            Population analysis using the SCF Density.

 **********************************************************************

 Alpha  occ. eigenvalues --  -19.17296 -19.17156 -14.31111 -14.31110 -10.28284
 Alpha  occ. eigenvalues --  -10.28266 -10.24078 -10.23836 -10.22398 -10.22226
 Alpha  occ. eigenvalues --  -10.19199 -10.18907 -10.18730 -10.18464 -10.18406
 Alpha  occ. eigenvalues --  -10.18379 -10.18308 -10.18274 -10.17980 -10.17574
 Alpha  occ. eigenvalues --  -10.17529 -10.17415 -10.17331 -10.16852  -1.10091
 Alpha  occ. eigenvalues --   -1.08880  -0.91538  -0.91093  -0.85784  -0.84906
 Alpha  occ. eigenvalues --   -0.81223  -0.78731  -0.75914  -0.74274  -0.73981
 Alpha  occ. eigenvalues --   -0.73279  -0.69412  -0.68782  -0.64248  -0.62789
 Alpha  occ. eigenvalues --   -0.60911  -0.60657  -0.59726  -0.57847  -0.57437
 Alpha  occ. eigenvalues --   -0.55323  -0.52858  -0.51884  -0.51458  -0.50995
 Alpha  occ. eigenvalues --   -0.50042  -0.47570  -0.47354  -0.47126  -0.45823
 Alpha  occ. eigenvalues --   -0.44831  -0.44664  -0.44556  -0.42785  -0.42579
 Alpha  occ. eigenvalues --   -0.41881  -0.41589  -0.41328  -0.40526  -0.40278
 Alpha  occ. eigenvalues --   -0.40235  -0.38884  -0.37642  -0.36837  -0.36403
 Alpha  occ. eigenvalues --   -0.35884  -0.35487  -0.35402  -0.34464  -0.33817
 Alpha  occ. eigenvalues --   -0.33544  -0.33188  -0.28362  -0.27691  -0.26426
 Alpha  occ. eigenvalues --   -0.25821  -0.25262  -0.24897  -0.24673  -0.23854
 Alpha virt. eigenvalues --   -0.04227  -0.00964  -0.00814   0.00134   0.00372
 Alpha virt. eigenvalues --    0.05238   0.05880   0.06848   0.07089   0.07642
 Alpha virt. eigenvalues --    0.08632   0.08846   0.09710   0.10025   0.10467
 Alpha virt. eigenvalues --    0.11610   0.11853   0.12284   0.12682   0.13259
 Alpha virt. eigenvalues --    0.14154   0.15181   0.15404   0.15477   0.15728
 Alpha virt. eigenvalues --    0.16058   0.16442   0.16678   0.17348   0.17711
 Alpha virt. eigenvalues --    0.19213   0.19651   0.22110   0.22177   0.23055
 Alpha virt. eigenvalues --    0.23896   0.25406   0.26100   0.28195   0.29364
 Alpha virt. eigenvalues --    0.30086   0.30542   0.31371   0.31771   0.32072
 Alpha virt. eigenvalues --    0.33281   0.33650   0.33776   0.35474   0.36228
 Alpha virt. eigenvalues --    0.38049   0.38810   0.39645   0.40877   0.41449
 Alpha virt. eigenvalues --    0.42148   0.42549   0.43002   0.43282   0.43683
 Alpha virt. eigenvalues --    0.44202   0.44906   0.45341   0.47284   0.47699
 Alpha virt. eigenvalues --    0.48495   0.48644   0.49238   0.50073   0.50841
 Alpha virt. eigenvalues --    0.51244   0.51452   0.52609   0.53213   0.53783
 Alpha virt. eigenvalues --    0.54071   0.54393   0.54670   0.55160   0.55418
 Alpha virt. eigenvalues --    0.55806   0.56410   0.57390   0.57960   0.59898
 Alpha virt. eigenvalues --    0.60794   0.61144   0.61617   0.62436   0.62909
 Alpha virt. eigenvalues --    0.63864   0.64414   0.64762   0.65366   0.65589
 Alpha virt. eigenvalues --    0.66361   0.66512   0.66998   0.67442   0.67830
 Alpha virt. eigenvalues --    0.68213   0.68887   0.69343   0.69530   0.69982
 Alpha virt. eigenvalues --    0.70294   0.70658   0.71156   0.71292   0.71690
 Alpha virt. eigenvalues --    0.71807   0.72196   0.73187   0.73588   0.74478
 Alpha virt. eigenvalues --    0.75042   0.75653   0.76132   0.76354   0.77125
 Alpha virt. eigenvalues --    0.77850   0.78555   0.78844   0.79590   0.80181
 Alpha virt. eigenvalues --    0.80587   0.81260   0.82519   0.83771   0.84511
 Alpha virt. eigenvalues --    0.84725   0.85759   0.87273   0.88596   0.89647
 Alpha virt. eigenvalues --    0.90823   0.92763   0.93569   0.94317   0.95540
 Alpha virt. eigenvalues --    0.97556   0.98023   0.99524   1.03141   1.03391
 Alpha virt. eigenvalues --    1.05305   1.06758   1.07417   1.09998   1.11037
 Alpha virt. eigenvalues --    1.11799   1.12843   1.13026   1.14171   1.15941
 Alpha virt. eigenvalues --    1.18411   1.20381   1.22876   1.27558   1.27914
 Alpha virt. eigenvalues --    1.28877   1.30403   1.31882   1.32806   1.33574
 Alpha virt. eigenvalues --    1.35689   1.37080   1.40769   1.43086   1.43600
 Alpha virt. eigenvalues --    1.45952   1.46615   1.48544   1.48801   1.49565
 Alpha virt. eigenvalues --    1.50244   1.50369   1.51604   1.51905   1.52262
 Alpha virt. eigenvalues --    1.53641   1.56522   1.60003   1.60515   1.60954
 Alpha virt. eigenvalues --    1.62370   1.65826   1.69658   1.73894   1.75716
 Alpha virt. eigenvalues --    1.76358   1.77366   1.77673   1.78223   1.78822
 Alpha virt. eigenvalues --    1.79544   1.80041   1.80279   1.82110   1.83906
 Alpha virt. eigenvalues --    1.84946   1.86120   1.86717   1.88780   1.89074
 Alpha virt. eigenvalues --    1.90118   1.90383   1.92812   1.93557   1.94521
 Alpha virt. eigenvalues --    1.95823   1.98483   1.99564   2.00007   2.00210
 Alpha virt. eigenvalues --    2.01062   2.01688   2.02827   2.05383   2.06339
 Alpha virt. eigenvalues --    2.07075   2.07830   2.09553   2.10552   2.11541
 Alpha virt. eigenvalues --    2.11816   2.13269   2.14637   2.15075   2.15607
 Alpha virt. eigenvalues --    2.20560   2.21323   2.23327   2.23673   2.24395
 Alpha virt. eigenvalues --    2.25440   2.26568   2.30363   2.31170   2.32764
 Alpha virt. eigenvalues --    2.33175   2.34402   2.35078   2.36941   2.39355
 Alpha virt. eigenvalues --    2.41193   2.42946   2.46659   2.47230   2.48453
 Alpha virt. eigenvalues --    2.49233   2.51164   2.51737   2.54453   2.58370
 Alpha virt. eigenvalues --    2.61737   2.62981   2.66934   2.67361   2.68091
 Alpha virt. eigenvalues --    2.68644   2.69848   2.72005   2.72701   2.73238
 Alpha virt. eigenvalues --    2.73759   2.74698   2.77104   2.77721   2.78683
 Alpha virt. eigenvalues --    2.81720   2.82480   2.84315   2.84857   2.90874
 Alpha virt. eigenvalues --    2.92996   2.96211   2.96519   3.02452   3.03169
 Alpha virt. eigenvalues --    3.04616   3.08594   3.16590   3.21201   3.24529
 Alpha virt. eigenvalues --    3.29493   3.40195   3.41078   3.41910   3.58070
 Alpha virt. eigenvalues --    3.68586
          Condensed to atoms (all electrons):
               1          2          3          4          5          6
     1  C    5.315418   0.157235   0.172983  -0.213589  -0.000133  -0.000053
     2  C    0.157235   5.236661   0.177608   0.176281   0.013430   0.000115
     3  C    0.172983   0.177608   5.393336   0.181273  -0.094727  -0.009258
     4  C   -0.213589   0.176281   0.181273   5.274779   0.403422  -0.033468
     5  C   -0.000133   0.013430  -0.094727   0.403422   4.930575   0.342030
     6  C   -0.000053   0.000115  -0.009258  -0.033468   0.342030   4.916306
     7  C    0.000030  -0.001068   0.004986  -0.026043  -0.027495   0.319502
     8  O   -0.000084  -0.000098   0.000160   0.005425  -0.000710  -0.062211
     9  C   -0.000403   0.000335  -0.000327   0.008384  -0.011292  -0.057697
    10  C    0.000076  -0.000086  -0.000051  -0.002232  -0.001871   0.020821
    11  N   -0.000398   0.000061  -0.000035   0.000009   0.000065  -0.000332
    12  C    0.000003   0.000002  -0.000000  -0.000002  -0.000002   0.000060
    13  C    0.000029  -0.000011   0.000002  -0.000012  -0.000001  -0.000000
    14  C    0.000027   0.000038  -0.000000   0.000002  -0.000000   0.000000
    15  C   -0.001049  -0.000520   0.000009  -0.000020  -0.000001   0.000000
    16  C   -0.000405  -0.000079  -0.000009  -0.000001   0.000000  -0.000000
    17  C    0.000012  -0.000000   0.000000  -0.000000   0.000000  -0.000000
    18  C   -0.000000   0.000000  -0.000000  -0.000000  -0.000000   0.000000
    19  C   -0.000006   0.000000   0.000000   0.000000   0.000000  -0.000000
    20  C   -0.000005   0.000000  -0.000000  -0.000002   0.000001   0.000002
    21  O    0.000005  -0.000000   0.000001   0.000007  -0.000010  -0.000009
    22  N    0.000083   0.000050   0.000912  -0.026183  -0.069707   0.386225
    23  C    0.179694  -0.187624   0.104455   0.192889  -0.092468  -0.016854
    24  C    0.132097   0.177679  -0.197697   0.180545   0.013068   0.001158
    25  H    0.444168  -0.085593   0.016937  -0.002311   0.000024   0.000003
    26  H   -0.090286   0.445246  -0.087245   0.018854  -0.000374  -0.000015
    27  H    0.016213  -0.079377   0.426241  -0.080919  -0.018104   0.000549
    28  H    0.000023   0.000741  -0.012493  -0.017354   0.332345  -0.010632
    29  H    0.000052  -0.000638   0.009768  -0.010202   0.325651  -0.012276
    30  H   -0.000000   0.000017  -0.000207   0.009067  -0.033006   0.345044
    31  H    0.000007   0.000787   0.010890   0.000395  -0.013622  -0.008505
    32  H   -0.000003   0.000012  -0.000084   0.001518   0.006156  -0.001593
    33  H   -0.000001   0.000000  -0.000000   0.000000   0.000000  -0.000002
    34  H    0.000030   0.000006  -0.000008   0.000024   0.000001  -0.000003
    35  H   -0.000002   0.000000  -0.000000   0.000000   0.000000   0.000000
    36  H    0.003997   0.000667  -0.000070   0.000122   0.000012  -0.000008
    37  H    0.000551   0.000396  -0.000004  -0.000002  -0.000000   0.000000
    38  H   -0.000000  -0.000000  -0.000000   0.000000   0.000000  -0.000000
    39  H    0.000000  -0.000000   0.000000  -0.000000  -0.000000  -0.000000
    40  H    0.000000  -0.000000   0.000000  -0.000000   0.000000  -0.000000
    41  H    0.000000  -0.000000   0.000000   0.000000  -0.000000   0.000002
    42  H   -0.000002   0.000000  -0.000000  -0.000001   0.000000  -0.000002
    43  H    0.016034  -0.002496   0.017893  -0.072923  -0.010533  -0.007707
    44  H   -0.088679   0.017181  -0.002424   0.017905  -0.000377   0.000011
               7          8          9         10         11         12
     1  C    0.000030  -0.000084  -0.000403   0.000076  -0.000398   0.000003
     2  C   -0.001068  -0.000098   0.000335  -0.000086   0.000061   0.000002
     3  C    0.004986   0.000160  -0.000327  -0.000051  -0.000035  -0.000000
     4  C   -0.026043   0.005425   0.008384  -0.002232   0.000009  -0.000002
     5  C   -0.027495  -0.000710  -0.011292  -0.001871   0.000065  -0.000002
     6  C    0.319502  -0.062211  -0.057697   0.020821  -0.000332   0.000060
     7  C    4.809096   0.328948  -0.117848   0.002920  -0.000061  -0.000001
     8  O    0.328948   7.822990   0.434705  -0.105346   0.004946  -0.000027
     9  C   -0.117848   0.434705   5.251286  -0.034764  -0.113038   0.016509
    10  C    0.002920  -0.105346  -0.034764   5.270564   0.598522  -0.070568
    11  N   -0.000061   0.004946  -0.113038   0.598522   6.496060   0.385178
    12  C   -0.000001  -0.000027   0.016509  -0.070568   0.385178   4.905583
    13  C    0.000000  -0.000014  -0.000839   0.000515  -0.077722   0.369022
    14  C   -0.000001  -0.000002   0.000180  -0.001446  -0.016763  -0.048416
    15  C    0.000002  -0.000173   0.000031   0.000541   0.014757  -0.015039
    16  C    0.000000  -0.000010  -0.000007   0.000046  -0.001442   0.000799
    17  C   -0.000000   0.000000  -0.000000  -0.000003   0.000074   0.000040
    18  C    0.000000  -0.000000   0.000000  -0.000001  -0.000036  -0.000069
    19  C   -0.000000   0.000000  -0.000002  -0.000058   0.000224  -0.006209
    20  C    0.000025  -0.000114   0.003309  -0.117962  -0.054543   0.325018
    21  O   -0.000116   0.000476  -0.108855   0.428598  -0.092552  -0.062097
    22  N   -0.060241  -0.091446   0.584162  -0.107290   0.000695  -0.000255
    23  C   -0.000523  -0.002417   0.001347   0.004507  -0.001004  -0.000089
    24  C   -0.000049   0.000086   0.001124   0.000652   0.001199  -0.000103
    25  H    0.000000  -0.000001  -0.000004   0.000003  -0.000006   0.000001
    26  H    0.000029  -0.000001  -0.000006  -0.000000   0.000000   0.000000
    27  H   -0.002151  -0.000034   0.000085   0.000005   0.000000   0.000000
    28  H   -0.009345  -0.000032   0.000180   0.000044  -0.000001   0.000000
    29  H    0.010638  -0.000116  -0.001492  -0.000112  -0.000001  -0.000000
    30  H   -0.025068   0.003311   0.003497  -0.000648  -0.000005  -0.000001
    31  H    0.349754  -0.026186   0.007286   0.000553  -0.000031  -0.000002
    32  H    0.341109  -0.030432   0.008036  -0.000406   0.000026   0.000002
    33  H   -0.000000   0.000006  -0.000702   0.004598  -0.027034   0.340224
    34  H   -0.000001  -0.000000  -0.001110   0.005411  -0.008062  -0.004692
    35  H    0.000000   0.000000   0.000070   0.000182   0.006533  -0.013586
    36  H   -0.000010   0.001052  -0.000274  -0.000649   0.017373  -0.003264
    37  H   -0.000000  -0.000002   0.000001   0.000000  -0.000055  -0.000003
    38  H    0.000000   0.000000  -0.000000  -0.000000   0.000000   0.000002
    39  H   -0.000000  -0.000000  -0.000000   0.000000   0.000000  -0.000004
    40  H   -0.000000   0.000000  -0.000000   0.000001   0.000039  -0.000060
    41  H   -0.000001   0.000002  -0.000334   0.008122   0.001435   0.001073
    42  H   -0.000001   0.000002   0.000746   0.007869   0.002851  -0.010491
    43  H    0.001909   0.000419  -0.000284  -0.001962  -0.000301  -0.000031
    44  H   -0.000012  -0.000001   0.000022  -0.000146   0.000034   0.000108
              13         14         15         16         17         18
     1  C    0.000029   0.000027  -0.001049  -0.000405   0.000012  -0.000000
     2  C   -0.000011   0.000038  -0.000520  -0.000079  -0.000000   0.000000
     3  C    0.000002  -0.000000   0.000009  -0.000009   0.000000  -0.000000
     4  C   -0.000012   0.000002  -0.000020  -0.000001  -0.000000  -0.000000
     5  C   -0.000001  -0.000000  -0.000001   0.000000   0.000000  -0.000000
     6  C   -0.000000   0.000000   0.000000  -0.000000  -0.000000   0.000000
     7  C    0.000000  -0.000001   0.000002   0.000000  -0.000000   0.000000
     8  O   -0.000014  -0.000002  -0.000173  -0.000010   0.000000  -0.000000
     9  C   -0.000839   0.000180   0.000031  -0.000007  -0.000000   0.000000
    10  C    0.000515  -0.001446   0.000541   0.000046  -0.000003  -0.000001
    11  N   -0.077722  -0.016763   0.014757  -0.001442   0.000074  -0.000036
    12  C    0.369022  -0.048416  -0.015039   0.000799   0.000040  -0.000069
[...]
 1973,0.00000947,-0.00000356,0.00000641,-0.00000234,0.00000112,-0.00000
 410,0.00000956,0.00000331,0.00000894,-0.00000484,0.00000385,0.00002217
 ,-0.00001843,-0.00001737,-0.00006221,0.00008297,0.00000244,0.00001041,
 0.00006095,0.00009409,-0.00000099,-0.00044223,-0.00005732,-0.00024229,
 -0.00004451,-0.00017446,-0.00047550,-0.00219868,-0.00250285,0.00956711
 ,0.00240052,0.00007294,-0.00120798,0.00462827,-0.00675259,-0.00149686,
 0.00052719,-0.00164269,0.00141574,-0.00023717,-0.00034363,-0.00024323,
 -0.00008235,0.00000017,0.00005224,0.00003876,0.00002345,0.00000910,-0.
 00001564,-0.00002134,0.00000507,-0.00002009,0.00001001,0.00001519,0.00
 003099,-0.00005189,0.00010116,-0.08882582,0.09446274,0.01480485,-0.035
 36725,0.02822616,-0.00512004,-0.00011090,0.00005969,-0.00020182,-0.000
 01883,-0.00002958,0.00004705,-0.00004308,-0.00000912,-0.00003822,0.000
 00297,0.00001076,-0.00000220,0.00000024,0.00000557,-0.00000370,0.00000
 171,-0.00000333,-0.00000407,-0.00001813,0.00002843,0.00000894,0.000011
 98,-0.00000140,0.00000744,-0.00004495,0.00000542,-0.00002313,-0.000027
 50,0.00000148,-0.00002622,-0.00002583,-0.00001791,-0.00002063,0.000889
 64,-0.00069462,-0.00026858,-0.00006058,0.00009001,0.00002144,0.0000796
 1,0.00018711,0.00011675,0.00004483,-0.00002988,0.00000012,0.00000102,-
 0.00001040,0.00000773,0.00000360,0.00000181,-0.00000123,-0.00000123,-0
 .00000803,0.00000900,-0.00000276,-0.00000319,-0.00001654,0.11332553,0.
 00002137,0.00000995,-0.00001238,0.00000411,0.00000403,-0.00000933,0.00
 000354,-0.00000011,0.00000456,-0.00001324,-0.00001497,-0.00000401,-0.0
 0001439,-0.00000810,0.00000183,0.00000342,-0.00000468,0.00000018,-0.00
 004664,-0.00000361,-0.00001775,0.00006737,0.00002061,0.00004721,-0.000
 02681,-0.00049092,-0.00029470,-0.00149177,0.00004634,0.00126843,0.0015
 1736,-0.00061763,0.00047585,0.00551373,-0.01476507,-0.00561261,-0.0005
 1832,-0.00164273,0.00410834,-0.00022661,-0.00037349,-0.00096610,-0.000
 02701,-0.00006132,0.00012353,-0.00000876,0.00004354,0.00004484,-0.0000
 0587,-0.00005405,0.00004518,-0.00006971,0.00004842,0.00003744,0.000108
 88,-0.00019996,0.00028208,0.10126224,-0.26145432,-0.03644710,-0.002028
 09,0.01454186,0.00131842,0.00005312,0.00011180,-0.00001287,0.00001256,
 -0.00001498,0.00000283,0.00000133,-0.00002030,-0.00003493,-0.00000675,
 0.00001563,0.00000786,-0.00000328,0.00000103,0.00000504,0.00000617,0.0
 0000025,0.00000646,0.00000570,0.00000292,0.00000606,0.00000083,0.00000
 529,-0.00000221,0.00000933,0.00000848,0.00000078,-0.00000203,-0.000002
 06,-0.00000332,0.00001286,0.00000918,0.00001089,-0.00048062,0.00119039
 ,-0.00004706,-0.00002857,0.00051734,0.00009789,-0.00001833,0.00013271,
 -0.00002669,-0.00000338,-0.00003137,-0.00004272,0.00001179,-0.00002308
 ,0.00002717,-0.00000108,-0.00002439,0.00000449,-0.00002366,-0.00003687
 ,0.00002672,-0.00000564,-0.00001073,-0.00005315,-0.10709030,0.27021640
 ,0.00001579,0.00001837,0.00000751,0.00000261,-0.00000457,0.00001395,0.
 00000474,-0.00000483,0.00000660,-0.00000519,-0.00000449,-0.00000475,0.
 00000309,0.00000133,0.00001189,-0.00001714,-0.00000878,-0.00001509,-0.
 00001481,0.00001143,-0.00000368,-0.00003537,-0.00002851,-0.00002379,-0
 .00003090,0.00009190,-0.00008685,-0.00038214,-0.00025699,-0.00126483,-
 0.00023503,-0.00058574,-0.00080626,-0.00781540,0.02059314,0.00625906,0
 .00006833,0.00153389,-0.00291931,0.00010164,0.00056201,0.00080577,-0.0
 0000178,-0.00001919,-0.00004245,0.00003131,-0.00005202,-0.00004134,0.0
 0000195,0.00005349,-0.00003723,0.00000922,-0.00006746,-0.00005251,-0.0
 0000647,0.00008204,-0.00012389,0.01711331,-0.03859757,-0.06251212,-0.0
 0369919,0.00620951,0.00548400,0.00002148,-0.00002032,-0.00000391,0.000
 01230,0.00000890,0.00000628,-0.00004128,-0.00000989,-0.00002922,0.0000
 0040,-0.00000983,-0.00000594,0.00000514,-0.00000363,0.00000398,0.00000
 165,-0.00000077,0.00000206,0.00000508,-0.00000369,0.00000053,-0.000002
 05,-0.00000035,-0.00000161,0.00000302,0.00000150,0.00000804,-0.0000011
 7,-0.00000322,-0.00000018,-0.00000092,-0.00000018,-0.00000136,-0.00028
 478,-0.00044857,0.00146828,-0.00029714,0.00011825,0.00003172,0.0002420
 0,0.00004287,-0.00001505,-0.00002073,0.00003191,0.00002736,-0.00000642
 ,0.00000721,-0.00000973,-0.00000301,0.00001313,0.00000586,0.00000916,0
 .00000997,-0.00000856,0.00000266,0.00002189,0.00003416,-0.01703344,0.0
 3646615,0.05579806,0.00002717,0.00002789,0.00000601,0.00000554,-0.0000
 0930,0.00001523,0.00001377,0.00000014,0.00002350,-0.00003170,-0.000038
 96,0.00000149,-0.00001039,-0.00000805,-0.00003533,0.00007856,-0.000028
 76,-0.00001839,0.00005455,0.00008144,-0.00006116,-0.00066592,0.0000517
 9,-0.00017768,0.00033286,0.00105223,-0.00068222,-0.00458743,-0.0060341
 1,0.00257501,0.00075630,-0.00046651,0.00057201,0.00378479,0.00424442,0
 .00609159,0.00111403,-0.00009507,0.00013000,-0.00000473,-0.00000437,0.
 00008669,-0.00004855,-0.00002486,-0.00001473,0.00001751,0.00002273,-0.
 00001258,-0.00002373,0.00000015,-0.00000593,0.00001181,-0.00003041,0.0
 0000030,0.00001512,0.00003719,-0.00001466,-0.04972556,-0.00799088,-0.0
 2688285,-0.01992141,-0.00889117,-0.03785091,-0.00009478,-0.00000963,-0
 .00001669,0.00002243,0.00003160,0.00001434,-0.00004674,-0.00003642,-0.
 00004733,0.00000082,-0.00000294,-0.00000150,0.00000569,-0.00000070,0.0
 0000331,0.00000791,-0.00000733,0.00000532,-0.00000363,0.00001972,0.000
 00948,0.00000331,0.00000180,0.00000569,-0.00003389,0.00000939,-0.00000
 679,-0.00004542,-0.00000320,-0.00002622,-0.00003016,-0.00000577,-0.000
 00632,-0.00020382,-0.00030892,0.00043104,-0.00013731,-0.00003082,-0.00
 021134,-0.00018905,0.00008039,0.00014525,0.00000994,0.00000061,0.00000
 460,-0.00000060,0.00000048,-0.00000255,-0.00000085,0.00000429,-0.00000
 050,0.00000195,0.00000152,0.00000012,-0.00001493,0.00000293,0.00000297
 ,0.00538679,0.00354880,0.01227740,0.06417134,-0.00002069,-0.00000989,0
 .00000602,-0.00000289,-0.00000038,0.00000050,-0.00000567,0.00000033,-0
 .00000898,0.00000857,0.00000901,0.00001048,0.00001356,0.00000868,-0.00
 000233,0.00000238,-0.00000488,-0.00001612,-0.00002186,0.00002139,-0.00
 002139,0.00005864,0.00000681,0.00001901,-0.00023068,0.00007788,-0.0000
 0730,0.00001832,-0.00309040,0.00353720,0.00208333,-0.00151799,0.003301
 38,0.00407956,0.00834395,0.01781865,-0.00010621,0.00096194,0.00127643,
 0.00002930,0.00002935,-0.00004495,0.00003679,0.00003898,-0.00008650,0.
 00000687,-0.00000298,-0.00001583,0.00001279,0.00003491,-0.00002784,-0.
 00000823,0.00000035,-0.00002725,-0.00002175,0.00002291,-0.00008124,-0.
 01112510,-0.08235444,-0.08636919,-0.00537899,0.00314872,-0.00357201,0.
 00007767,0.00000527,-0.00003406,-0.00002197,0.00002155,-0.00000673,0.0
 0000497,0.00001610,0.00004100,0.00000362,-0.00000899,-0.00000256,0.000
 00005,-0.00000047,-0.00000345,-0.00000420,0.00000036,-0.00000369,-0.00
 000217,-0.00000571,-0.00000310,-0.00000355,-0.00000394,0.00000180,0.00
 000323,-0.00000485,-0.00000501,0.00000408,0.00000008,0.00000510,0.0000
 1159,0.00000159,0.00000234,-0.00062310,-0.00099926,0.00139396,0.000407
 06,0.00003031,-0.00003601,-0.00029464,0.00000068,0.00008855,-0.0000145
 0,0.00003471,0.00002813,-0.00000670,0.00001162,-0.00001353,0.00000008,
 0.00000906,-0.00000271,0.00001089,0.00001558,-0.00000720,0.00000040,0.
 00000296,0.00002304,-0.00380607,-0.00709107,-0.02576634,0.01479175,0.0
 8225695,0.00002928,0.00001939,0.00000160,0.00000400,-0.00000437,0.0000
 1177,0.00001451,0.00000174,0.00002494,-0.00002473,-0.00002472,0.000001
 89,-0.00002733,-0.00001767,-0.00004628,0.00006217,-0.00000751,0.000025
 06,0.00009855,0.00001590,0.00003628,-0.00029503,0.00003209,-0.00005820
 ,0.00040501,-0.00022027,-0.00007398,0.00096230,0.00040993,-0.00063879,
 -0.00115550,0.00052916,-0.00209142,-0.00182074,-0.00573766,-0.01375209
 ,-0.00100322,-0.00269469,0.00107277,0.00012847,-0.00012567,0.00014899,
 -0.00008721,-0.00010001,0.00013603,0.00007430,-0.00002365,0.00005046,0
 .00001766,-0.00000083,0.00000578,-0.00003761,-0.00000096,-0.00002701,-
 0.00006447,-0.00005067,0.00010058,-0.03809214,-0.08473984,-0.28524493,
 -0.00339665,0.00208760,0.00359459,-0.00023123,0.00001763,0.00001527,0.
 00000717,-0.00000074,0.00003856,-0.00005736,-0.00002852,-0.00007255,0.
 00000104,0.00000649,-0.00000356,0.00000449,0.00000101,0.00000135,0.000
 00913,-0.00000641,0.00000333,-0.00000942,0.00002798,0.00001185,0.00000
 830,0.00000248,0.00000580,-0.00003211,0.00000796,-0.00000932,-0.000020
 67,0.00000633,-0.00002146,-0.00002136,-0.00000798,-0.00000313,0.000095
 15,0.00147269,-0.00144053,-0.00030778,0.00074373,0.00024629,0.00065937
 ,0.00070611,0.00036164,0.00004143,-0.00005155,-0.00001595,0.00000123,-
 0.00002236,0.00001679,0.00000319,-0.00000337,0.00000261,-0.00000300,-0
 .00001587,0.00000624,0.00001091,0.00000396,-0.00001886,0.00032629,-0.0
 0087741,-0.00196195,0.04369192,0.08866112,0.29957089,0.00028687,-0.004
 51413,-0.00354669,-0.00075588,-0.00010362,0.00002152,-0.00052893,-0.00
 229790,-0.00528083,0.00078046,0.01790346,-0.01392569,-0.00018332,0.002
 58715,0.00099887,0.00050155,-0.00007301,-0.00022294,-0.00015271,0.0001
 0857,-0.00002145,-0.00008811,-0.00021699,0.00038588,0.00038179,0.00036
 173,-0.00015451,0.00037500,-0.00015842,0.00108873,-0.00003064,0.000082
 42,-0.00028335,-0.00006705,-0.00002261,0.00000487,-0.00005615,0.000026
 35,0.00004071,0.00002477,-0.00004956,0.00003616,-0.00001135,0.00003551
 ,-0.00000847,0.00000125,0.00000393,0.00000533,0.00000864,0.00001291,-0
 .00000913,-0.00000400,0.00000544,-0.00000248,-0.00001181,0.00001611,-0
 .00002077,-0.00035621,-0.00001265,-0.00006762,0.00013783,-0.00008271,-
 0.00071632,-0.00055843,0.00021364,0.00034078,-0.05429200,0.01945850,-0
 .02776340,0.00601600,-0.01675962,0.01277110,0.00016431,-0.00080211,0.0
 0054689,-0.00034466,0.00031078,0.00048608,0.00004199,0.00088420,-0.000
 74222,-0.00002511,-0.00010729,0.00030717,-0.00054110,-0.00060890,0.000
 44363,-0.00005002,0.00007992,0.00004012,0.00001855,-0.00000091,0.00004
 164,0.00000665,-0.00002091,0.00004222,0.00001274,0.00001780,-0.0000227
 1,0.00003178,-0.00005530,-0.00001550,0.00001262,0.00000346,-0.00000832
 ,0.00001545,-0.00002961,0.00000528,-0.00000356,0.00000230,-0.00000949,
 0.00000110,0.00000205,-0.00000432,0.00000340,0.00000349,-0.00000352,-0
 .00000624,-0.00000512,-0.00000031,0.00006805,-0.00002500,-0.00000471,-
 0.00001829,0.00002728,0.00001627,0.05015410,-0.00490805,-0.00091906,0.
 00016629,-0.00024479,0.00016490,-0.00079096,-0.00161787,0.00220789,0.0
 0088419,-0.00068734,0.00293702,-0.00076744,0.00031475,-0.00061093,-0.0
 0146749,-0.00031981,0.00011001,0.00004456,0.00011542,-0.00009867,0.000
 02171,-0.00007744,0.00008326,-0.00003913,0.00018152,-0.00066054,-0.000
 19168,-0.00017898,-0.00000071,0.00003896,-0.00000630,0.00006842,0.0000
 1959,0.00002072,-0.00001006,0.00001774,-0.00003710,0.00001367,0.000017
 66,0.00001406,-0.00003279,0.00001736,0.00002509,0.00002217,0.00000199,
 -0.00001084,0.00000845,0.00000150,0.00000457,0.00000843,-0.00000485,-0
 .00000447,0.00000063,0.00000059,-0.00000119,0.00000570,-0.00001038,0.0
 0006084,0.00005140,0.00011052,-0.00003508,-0.00016321,-0.00013937,0.00
 026696,-0.00100674,-0.00143292,0.01889588,-0.23190998,0.14115855,0.004
 60801,-0.01398010,0.01492442,0.00015700,-0.00062148,0.00073882,0.00026
 982,-0.00020855,-0.00021739,-0.00011466,0.00018264,-0.00012745,0.00011
 892,0.00003661,-0.00001084,0.00009479,0.00061059,-0.00008649,-0.000020
 77,-0.00003593,-0.00001021,-0.00002864,-0.00001145,0.00000352,-0.00000
 920,0.00000500,-0.00000094,-0.00000363,-0.00001126,-0.00000427,-0.0000
 0212,-0.00001502,0.00000385,-0.00000617,-0.00000397,-0.00000766,-0.000
 00232,-0.00001881,-0.00001281,0.00000088,0.00000171,-0.00001203,-0.000
 00099,-0.00000225,0.00000036,-0.00000263,0.00000011,-0.00000065,-0.000
 00592,-0.00000028,-0.00000206,-0.00001961,-0.00000070,-0.00001404,-0.0
 0003022,0.00000428,-0.00002613,-0.01801731,0.24352241,-0.00283437,0.00
 101905,0.00398920,-0.00012509,-0.00092844,-0.00025426,-0.00575744,0.00
 056606,0.00074769,-0.00047638,0.01792422,-0.00836707,0.00247342,-0.000
 85866,-0.00092654,-0.00127989,-0.00024785,-0.00026479,-0.00021683,-0.0
 0002368,-0.00001912,0.00032292,-0.00077614,0.00052792,0.00050276,0.000
 81981,-0.00114346,0.00038134,0.00003155,-0.00043328,-0.00020964,-0.000
 03068,0.00008228,0.00013861,-0.00002771,0.00006079,-0.00005059,0.00003
 412,-0.00004079,0.00000428,0.00002732,-0.00004636,0.00002595,-0.000036
 80,0.00000219,-0.00001130,0.00000214,-0.00001480,-0.00000485,-0.000010
 30,0.00001018,0.00000406,-0.00000268,0.00000333,0.00001326,-0.00001058
 ,0.00001229,0.00030095,0.00004545,0.00014257,-0.00034523,0.00003658,0.
 00013382,-0.00009268,0.00028260,0.00054808,-0.02738694,0.13780269,-0.1
 4889135,-0.00078149,-0.00341477,0.00549613,-0.00012088,-0.00015255,0.0
 0019528,0.00046076,-0.00023901,-0.00047530,-0.00018925,0.00090841,-0.0
 0051123,0.00011641,0.00014511,0.00028391,-0.00048573,-0.00018435,-0.00
 012717,0.00013451,-0.00014302,-0.00008796,0.00004348,0.00001667,0.0000
 7973,0.00003508,0.00001715,0.00003047,-0.00004025,-0.00001321,-0.00001
 547,-0.00000971,0.00003595,0.00002115,-0.00002606,-0.00003749,-0.00000
 914,-0.00003010,0.00004835,0.00000127,0.00000093,-0.00000256,0.0000092
 0,-0.00000203,-0.00000192,0.00000425,-0.00000328,-0.00000232,0.0000035
 2,0.00000390,0.00000539,0.00000086,-0.00007550,0.00000533,-0.00000789,
 -0.00003507,-0.00001451,-0.00004361,0.03329119,-0.15142360,0.15072315,
 0.00124743,-0.00155023,-0.00108290,0.00379876,-0.00088194,-0.00243415,
 0.00007131,-0.00028285,0.00089469,0.00170839,-0.00524576,-0.00213916,-
 0.00032291,0.00053261,-0.00062836,-0.00014134,0.00007266,0.00004050,-0
 .00002147,-0.00001895,0.00005481,0.00005536,-0.00001554,-0.00000412,-0
 .00005774,0.00004467,0.00002138,-0.00009659,0.00007124,-0.00014870,0.0
 0005482,-0.00005028,0.00003652,-0.00004266,0.00000834,-0.00002245,0.00
 000089,0.00003446,-0.00007347,0.00000892,0.00002265,-0.00004953,-0.000
 03810,-0.00002078,-0.00002239,0.00002113,-0.00000651,-0.00000926,0.000
 00122,-0.00000095,0.00000672,0.00000356,0.00000199,-0.00000522,-0.0000
 0493,-0.00001513,0.00001063,-0.00001939,-0.00002415,-0.00003869,0.0000
 5144,-0.00001172,0.00012284,0.00010409,-0.00001091,0.00003409,-0.00994
 669,0.00254384,-0.01456207,-0.19273141,-0.00298594,-0.14662069,-0.0010
 8444,0.00154205,0.00182064,0.00003130,-0.00016313,-0.00008494,-0.00046
 128,0.00029341,0.00039204,-0.00018273,-0.00018540,-0.00004303,0.000005
 88,-0.00003472,0.00005017,0.00003650,-0.00005294,-0.00002286,-0.000004
 17,0.00001083,0.00002457,0.00000887,-0.00000888,-0.00001941,0.00000861
 ,0.00000619,0.00000813,-0.00075012,0.00029831,0.00032563,-0.00004254,0
 .00002188,0.00003583,0.00001989,0.00002515,0.00000648,-0.00000323,-0.0
 0000601,0.00000693,0.00000251,0.00000317,-0.00000226,0.00000389,-0.000
 00003,-0.00000012,0.00000872,0.00000179,0.00000501,0.00000852,0.000001
 33,0.00000677,0.00001673,0.00000620,0.00001540,-0.00095929,0.00124422,
 0.00233679,0.19963230,0.01899353,0.00412024,0.01779954,-0.00176621,-0.
 00243582,0.00443798,-0.00015331,-0.00102804,0.00014274,-0.00425440,-0.
 00220925,0.00189928,-0.00072956,0.00039658,-0.00068713,-0.00014021,0.0
 0005632,0.00003315,-0.00003572,-0.00001411,0.00000770,0.00009941,-0.00
 000846,0.00000511,-0.00012689,-0.00003093,-0.00003585,-0.00017432,0.00
 005300,-0.00031572,0.00000845,-0.00000060,0.00011957,0.00004602,0.0000
 0166,-0.00002583,0.00016671,-0.00009364,-0.00009172,-0.00006860,0.0000
 7783,-0.00002789,0.00004097,-0.00001583,0.00000101,-0.00000690,-0.0000
 3040,0.00000890,0.00000355,-0.00001596,0.00001125,-0.00000808,-0.00001
 020,-0.00001286,-0.00000593,-0.00004752,0.00003059,0.00007672,-0.00006
 948,-0.00007997,-0.00001298,0.00006690,0.00026376,0.00012229,-0.000015
 73,-0.00000668,-0.01805577,0.00457801,-0.01782468,-0.00285666,-0.05491
 316,0.00899852,0.00095408,0.00018554,-0.00189821,0.00084819,0.00004736
 ,0.00084074,0.00029592,-0.00011040,-0.00035401,-0.00021036,-0.00030990
 ,-0.00012486,0.00002871,0.00002451,0.00002559,0.00004173,-0.00002730,-
 0.00000642,0.00000287,-0.00000607,0.00001971,0.00001135,-0.00000119,-0
 .00000903,-0.00000605,0.00001571,0.00002476,0.00028480,0.00000443,-0.0
 0012529,-0.00004105,0.00001671,0.00001497,-0.00001857,0.00001255,0.000
 00521,0.00000336,0.00000334,0.00000392,-0.00000158,-0.00000048,0.00000
 563,-0.00000580,-0.00000225,0.00000682,0.00000007,0.00001159,0.0000023
 5,0.00000062,0.00002036,0.00003205,0.00004716,-0.00002102,0.00003556,0
 .00181667,0.00027720,-0.00119111,0.00478576,0.05144793,-0.01433519,-0.
 00200482,-0.00856014,-0.00194015,0.00517947,0.00161622,0.00088848,0.00
 017556,0.00006760,-0.00223973,0.00136759,0.00421341,-0.00004685,0.0001
 3946,0.00007218,-0.00009973,0.00002322,0.00000556,-0.00005489,0.000043
 33,-0.00000719,0.00016508,-0.00002264,-0.00000400,-0.00031567,-0.00003
 872,-0.00006448,-0.00028666,-0.00008288,-0.00004675,0.00017440,0.00014
 833,0.00004156,-0.00021280,-0.00014761,0.00001873,0.00049531,-0.000080
 42,-0.00028950,-0.00007176,0.00025948,-0.00013470,0.00006433,-0.000045
 65,0.00010412,-0.00004219,0.00004412,-0.00004479,-0.00003080,-0.000049
 50,0.00002392,0.00000527,-0.00003196,0.00000513,0.00006309,-0.00006362
 ,0.00008112,0.00001285,-0.00007962,0.00001957,0.00010950,0.00010200,0.
 00003249,0.00016552,-0.00007499,-0.00007018,-0.00100011,0.00138779,0.0
 0188628,-0.14670356,0.00927067,-0.18370277,0.00206669,-0.00145160,-0.0
 0111041,-0.00076232,-0.00004463,-0.00043933,0.00035691,-0.00032410,-0.
 00050992,-0.00001051,-0.00011859,-0.00007125,-0.00000379,-0.00001392,-
 0.00003346,0.00003492,-0.00002762,-0.00000419,0.00001921,-0.00000576,0
 .00003609,0.00001903,-0.00001231,-0.00000824,0.00002944,0.00011936,0.0
 0006506,0.00010661,-0.00025264,0.00003303,-0.00016707,0.00006438,0.000
 08325,-0.00014686,0.00000883,-0.00006705,0.00000593,-0.00002080,0.0000
 4275,-0.00000872,-0.00001097,0.00001455,-0.00001277,-0.00001270,0.0000
 1486,0.00000923,0.00001118,-0.00000495,0.00000532,0.00003874,0.0000043
 8,0.00001750,-0.00003487,0.00003226,0.00192032,-0.00137141,-0.00142967
 ,0.16175720,-0.01195916,0.18808884\\0.00000106,-0.00000467,0.00000180,
 -0.00000226,-0.00000287,0.00000081,0.00000305,0.00000528,0.00000241,-0
 .00000126,-0.00000843,0.00000310,0.00000424,0.00001095,0.00000033,0.00
 000864,-0.00000278,0.00000579,0.00001563,0.00000227,-0.00000137,-0.000
 01390,0.00000189,-0.00000981,-0.00000259,-0.00000933,0.00002205,-0.000
 00170,0.00001011,-0.00001768,0.00001494,-0.00000404,0.00001706,-0.0000
 1676,0.00000051,-0.00002340,0.00000094,0.00000575,-0.00000799,0.000003
 21,-0.00000394,0.00000352,0.00000221,0.00000148,-0.00000064,0.00000021
 ,0.00000044,0.00000135,0.00000084,-0.00000150,0.00000227,-0.00000268,-
 0.00000012,0.00000018,-0.00000311,-0.00000026,-0.00000254,-0.00001411,
 -0.00000748,0.00000605,0.00001231,0.00000051,0.00000214,-0.00000356,0.
 00000437,-0.00001085,-0.00000083,0.00000298,-0.00000091,-0.00000027,0.
 00000116,-0.00000136,-0.00000089,0.00000005,0.00000173,0.00000074,-0.0
 0000008,0.00000248,0.00000026,-0.00000020,0.00000176,-0.00000150,-0.00
 000028,0.00000097,-0.00000108,-0.00000129,-0.00000101,-0.00000241,0.00
 000084,0.00000022,-0.00000356,0.00000150,0.00000024,-0.00000128,0.0000
 0230,-0.00000115,0.00000174,0.00000025,0.00000011,0.00000017,-0.000001
 04,0.00000195,-0.00000036,-0.00000124,0.00000192,-0.00000032,0.0000010
 7,0.00000007,0.00000038,0.00000025,0.00000174,-0.00000039,0.00000012,0
 .00000137,-0.00000052,-0.00000087,0.00000064,0.00000012,0.00000004,-0.
 00000055,0.00000172,-0.00000056,-0.00000227,0.00000203,-0.00000051,-0.
 00000212,0.00000093,-0.00000091,-0.00000028,-0.00000003,-0.00000175,-0
 .00000012\\\@
 The archive entry for this job was punched.


 EVERY WORD THAT YOU WRITE IS A BLOW THAT SMITES THE DEVIL.
     -- ST. BERNARD OF CLAIRVAUX
 Job cpu time:       0 days  2 hours 18 minutes 27.6 seconds.
 Elapsed time:       0 days  0 hours  3 minutes 28.8 seconds.
 File lengths (MBytes):  RWF=    732 Int=      0 D2E=      0 Chk=     14 Scr=      1
 Normal termination of Gaussian 16 at Sun Feb 25 22:32:04 2024.
