 Entering Gaussian System, Link 0=g16
 Initial command:
 /public/apps/g16-C01//g16/l1.exe "/public/home/ljq/tmp/Gau-83827.inp" -scrdir="/public/home/ljq/tmp/"
 Entering Link 1 = /public/apps/g16-C01//g16/l1.exe PID=     83828.
  
 Copyright (c) 1988-2019, Gaussian, Inc.  All Rights Reserved.
  
 This is part of the Gaussian(R) 16 program.  It is based on
 the Gaussian(R) 09 system (copyright 2009, Gaussian, Inc.),
 the Gaussian(R) 03 system (copyright 2003, Gaussian, Inc.),
 the Gaussian(R) 98 system (copyright 1998, Gaussian, Inc.),
 the Gaussian(R) 94 system (copyright 1995, Gaussian, Inc.),
 the Gaussian 92(TM) system (copyright 1992, Gaussian, Inc.),
 the Gaussian 90(TM) system (copyright 1990, Gaussian, Inc.),
 the Gaussian 88(TM) system (copyright 1988, Gaussian, Inc.),
 the Gaussian 86(TM) system (copyright 1986, Carnegie Mellon
 University), and the Gaussian 82(TM) system (copyright 1983,
 Carnegie Mellon University). Gaussian is a federally registered
 trademark of Gaussian, Inc.
  
 This software contains proprietary and confidential information,
 including trade secrets, belonging to Gaussian, Inc.
  
 This software is provided under written license and may be
 used, copied, transmitted, or stored only in accord with that
 written license.
  
 The following legend is applicable only to US Government
 contracts under FAR:
  
                    RESTRICTED RIGHTS LEGEND
  
 Use, reproduction and disclosure by the US Government is
 subject to restrictions as set forth in subparagraphs (a)
 and (c) of the Commercial Computer Software - Restricted
 Rights clause in FAR 52.227-19.
  
 Gaussian, Inc.
 340 Quinnipiac St., Bldg. 40, Wallingford CT 06492
  
  
 ---------------------------------------------------------------
 Warning -- This program may not be used in any manner that
 competes with the business of Gaussian, Inc. or will provide
 assistance to any competitor of Gaussian, Inc.  The licensee
 of this program is prohibited from giving any competitor of
 Gaussian, Inc. access to this program.  By using this program,
 the user acknowledges that Gaussian, Inc. is engaged in the
 business of creating and licensing software in the field of
 computational chemistry and represents and warrants to the
 licensee that it is not a competitor of Gaussian, Inc. and that
 it will not use this program in any manner prohibited above.
 ---------------------------------------------------------------
  

 Cite this work as:
 Gaussian 16, Revision C.01,
 M. J. Frisch, G. W. Trucks, H. B. Schlegel, G. E. Scuseria, 
 M. A. Robb, J. R. Cheeseman, G. Scalmani, V. Barone, 
 G. A. Petersson, H. Nakatsuji, X. Li, M. Caricato, A. V. Marenich, 
 J. Bloino, B. G. Janesko, R. Gomperts, B. Mennucci, H. P. Hratchian, 
 J. V. Ortiz, A. F. Izmaylov, J. L. Sonnenberg, D. Williams-Young, 
 F. Ding, F. Lipparini, F. Egidi, J. Goings, B. Peng, A. Petrone, 
 T. Henderson, D. Ranasinghe, V. G. Zakrzewski, J. Gao, N. Rega, 
 G. Zheng, W. Liang, M. Hada, M. Ehara, K. Toyota, R. Fukuda, 
 J. Hasegawa, M. Ishida, T. Nakajima, Y. Honda, O. Kitao, H. Nakai, 
 T. Vreven, K. Throssell, J. A. Montgomery, Jr., J. E. Peralta, 
 F. Ogliaro, M. J. Bearpark, J. J. Heyd, E. N. Brothers, K. N. Kudin, 
 V. N. Staroverov, T. A. Keith, R. Kobayashi, J. Normand, 
 K. Raghavachari, A. P. Rendell, J. C. Burant, S. S. Iyengar, 
 J. Tomasi, M. Cossi, J. M. Millam, M. Klene, C. Adamo, R. Cammi, 
 J. W. Ochterski, R. L. Martin, K. Morokuma, O. Farkas, 
 J. B. Foresman, and D. J. Fox, Gaussian, Inc., Wallingford CT, 2019.
 
 ******************************************
 Gaussian 16:  ES64L-G16RevC.01  3-Jul-2019
                26-Feb-2024 
 ******************************************
 %nproc=40
 Will use up to   40 processors via shared memory.
 %mem=56GB
 ------------------------------------------
 #p opt freq b3lyp/def2svpp em=gd3bj nosymm
 ------------------------------------------
 1/18=20,19=15,26=3,38=1/1,3;
 2/9=110,12=2,15=1,17=6,18=5,40=1/2;
 3/5=43,7=202,11=2,25=1,30=1,71=1,74=-5,124=41/1,2,3;
 4//1;
 5/5=2,38=5/2;
 6/7=2,8=2,9=2,10=2,28=1/1;
 7/30=1/1,2,3,16;
 1/18=20,19=15,26=3/3(2);
 2/9=110,15=1/2;
 99//99;
 2/9=110,15=1/2;
 3/5=43,7=202,11=2,25=1,30=1,71=1,74=-5,124=41/1,2,3;
 4/5=5,16=3,69=1/1;
 5/5=2,38=5/2;
 7/30=1/1,2,3,16;
 1/18=20,19=15,26=3/3(-5);
 2/9=110,15=1/2;
 6/7=2,8=2,9=2,10=2,19=2,28=1/1;
 99/9=1/99;
 Leave Link    1 at Mon Feb 26 04:32:16 2024, MaxMem=  7516192768 cpu:               1.4 elap:               0.0
 (Enter /public/apps/g16-C01//g16/l101.exe)
 -----------------------
 $$$$Singlemol####-1????
 -----------------------
 Symbolic Z-matrix:
 Charge = -1 Multiplicity = 1
 N                     0.75679   3.15787  -2.85284 
 C                     0.71584   2.6083   -1.83759 
 C                     0.69489   1.95924  -0.60709 
 C                    -0.52175   1.40716  -0.15048 
 N                    -1.66969   1.53777  -0.72167 
 C                    -2.62836   0.75263   0.00016 
 C                    -3.16536  -0.39033  -0.89687 
 C                    -4.2327   -1.17301  -0.20847 
 C                    -3.9784   -2.43118   0.32708 
 C                    -4.96245  -3.12808   1.00547 
 C                    -6.22288  -2.578     1.16201 
 C                    -6.49115  -1.32664   0.63139 
 C                    -5.50631  -0.63346  -0.04622 
 C                    -1.83812   0.22984   1.22966 
 O                    -0.50934   0.62813   0.99165 
 C                     1.90503   1.83864   0.11121 
 N                     2.06878   1.44454   1.323 
 C                     3.47294   1.37234   1.59337 
 C                     3.91403  -0.09412   1.8402 
 C                     3.64501  -0.949     0.64178 
 C                     4.67849  -1.39386  -0.17279 
 C                     4.41298  -2.13041  -1.3141 
 C                     3.10571  -2.42102  -1.66193 
 C                     2.06896  -1.98118  -0.85582 
 C                     2.33354  -1.25996   0.29355 
 C                     4.13319   2.00365   0.33682 
 O                     3.06824   2.20005  -0.56077 
 H                    -3.47989   1.37677   0.30564 
 H                    -2.32488  -1.02963  -1.17246 
 H                    -3.54992   0.07971  -1.80361 
 H                    -2.99916  -2.87305   0.20471 
 H                    -4.74562  -4.10592   1.41379 
 H                    -6.99289  -3.12165   1.6918 
 H                    -7.47497  -0.89205   0.74663 
 H                    -5.72075   0.34111  -0.46141 
 H                    -2.19203   0.6788    2.16692 
 H                    -1.87975  -0.86053   1.32637 
 H                     3.71315   1.945     2.50182 
 H                     3.33697  -0.45594   2.69336 
 H                     4.97767  -0.10588   2.09599 
 H                     5.70432  -1.16188   0.08761 
 H                     5.2293   -2.46891  -1.93902 
 H                     2.89658  -2.98378  -2.56162 
 H                     1.04561  -2.19546  -1.12969 
 H                     1.52636  -0.89441   0.90964 
 H                     4.87586   1.34546  -0.12634 
 H                     4.60222   2.97139   0.56105 
 
 ITRead=  0  0  0  0  0  0  0  0  0  0  0  0  0  0  0  0  0  0  0  0
 ITRead=  0  0  0  0  0  0  0  0  0  0  0  0  0  0  0  0  0  0  0  0
 ITRead=  0  0  0  0  0  0  0
 MicOpt= -1 -1 -1 -1 -1 -1 -1 -1 -1 -1 -1 -1 -1 -1 -1 -1 -1 -1 -1 -1
 MicOpt= -1 -1 -1 -1 -1 -1 -1 -1 -1 -1 -1 -1 -1 -1 -1 -1 -1 -1 -1 -1
 MicOpt= -1 -1 -1 -1 -1 -1 -1
 NAtoms=     47 NQM=       47 NQMF=       0 NMMI=      0 NMMIF=      0
                NMic=       0 NMicF=      0.
                    Isotopes and Nuclear Properties:
 (Nuclear quadrupole moments (NQMom) in fm**2, nuclear magnetic moments (NMagM)
  in nuclear magnetons)

  Atom         1           2           3           4           5           6           7           8           9          10
 IAtWgt=          14          12          12          12          14          12          12          12          12          12
 AtmWgt=  14.0030740  12.0000000  12.0000000  12.0000000  14.0030740  12.0000000  12.0000000  12.0000000  12.0000000  12.0000000
 NucSpn=           2           0           0           0           2           0           0           0           0           0
 AtZEff=  -0.0000000  -0.0000000  -0.0000000  -0.0000000  -0.0000000  -0.0000000  -0.0000000  -0.0000000  -0.0000000  -0.0000000
 NQMom=    2.0440000   0.0000000   0.0000000   0.0000000   2.0440000   0.0000000   0.0000000   0.0000000   0.0000000   0.0000000
 NMagM=    0.4037610   0.0000000   0.0000000   0.0000000   0.4037610   0.0000000   0.0000000   0.0000000   0.0000000   0.0000000
 AtZNuc=   7.0000000   6.0000000   6.0000000   6.0000000   7.0000000   6.0000000   6.0000000   6.0000000   6.0000000   6.0000000

  Atom        11          12          13          14          15          16          17          18          19          20
 IAtWgt=          12          12          12          12          16          12          14          12          12          12
 AtmWgt=  12.0000000  12.0000000  12.0000000  12.0000000  15.9949146  12.0000000  14.0030740  12.0000000  12.0000000  12.0000000
 NucSpn=           0           0           0           0           0           0           2           0           0           0
 AtZEff=  -0.0000000  -0.0000000  -0.0000000  -0.0000000  -0.0000000  -0.0000000  -0.0000000  -0.0000000  -0.0000000  -0.0000000
 NQMom=    0.0000000   0.0000000   0.0000000   0.0000000   0.0000000   0.0000000   2.0440000   0.0000000   0.0000000   0.0000000
 NMagM=    0.0000000   0.0000000   0.0000000   0.0000000   0.0000000   0.0000000   0.4037610   0.0000000   0.0000000   0.0000000
 AtZNuc=   6.0000000   6.0000000   6.0000000   6.0000000   8.0000000   6.0000000   7.0000000   6.0000000   6.0000000   6.0000000

  Atom        21          22          23          24          25          26          27          28          29          30
 IAtWgt=          12          12          12          12          12          12          16           1           1           1
 AtmWgt=  12.0000000  12.0000000  12.0000000  12.0000000  12.0000000  12.0000000  15.9949146   1.0078250   1.0078250   1.0078250
 NucSpn=           0           0           0           0           0           0           0           1           1           1
 AtZEff=  -0.0000000  -0.0000000  -0.0000000  -0.0000000  -0.0000000  -0.0000000  -0.0000000  -0.0000000  -0.0000000  -0.0000000
 NQMom=    0.0000000   0.0000000   0.0000000   0.0000000   0.0000000   0.0000000   0.0000000   0.0000000   0.0000000   0.0000000
 NMagM=    0.0000000   0.0000000   0.0000000   0.0000000   0.0000000   0.0000000   0.0000000   2.7928460   2.7928460   2.7928460
 AtZNuc=   6.0000000   6.0000000   6.0000000   6.0000000   6.0000000   6.0000000   8.0000000   1.0000000   1.0000000   1.0000000

  Atom        31          32          33          34          35          36          37          38          39          40
 IAtWgt=           1           1           1           1           1           1           1           1           1           1
 AtmWgt=   1.0078250   1.0078250   1.0078250   1.0078250   1.0078250   1.0078250   1.0078250   1.0078250   1.0078250   1.0078250
 NucSpn=           1           1           1           1           1           1           1           1           1           1
 AtZEff=  -0.0000000  -0.0000000  -0.0000000  -0.0000000  -0.0000000  -0.0000000  -0.0000000  -0.0000000  -0.0000000  -0.0000000
 NQMom=    0.0000000   0.0000000   0.0000000   0.0000000   0.0000000   0.0000000   0.0000000   0.0000000   0.0000000   0.0000000
 NMagM=    2.7928460   2.7928460   2.7928460   2.7928460   2.7928460   2.7928460   2.7928460   2.7928460   2.7928460   2.7928460
 AtZNuc=   1.0000000   1.0000000   1.0000000   1.0000000   1.0000000   1.0000000   1.0000000   1.0000000   1.0000000   1.0000000

  Atom        41          42          43          44          45          46          47
 IAtWgt=           1           1           1           1           1           1           1
 AtmWgt=   1.0078250   1.0078250   1.0078250   1.0078250   1.0078250   1.0078250   1.0078250
 NucSpn=           1           1           1           1           1           1           1
 AtZEff=  -0.0000000  -0.0000000  -0.0000000  -0.0000000  -0.0000000  -0.0000000  -0.0000000
 NQMom=    0.0000000   0.0000000   0.0000000   0.0000000   0.0000000   0.0000000   0.0000000
 NMagM=    2.7928460   2.7928460   2.7928460   2.7928460   2.7928460   2.7928460   2.7928460
 AtZNuc=   1.0000000   1.0000000   1.0000000   1.0000000   1.0000000   1.0000000   1.0000000
 Leave Link  101 at Mon Feb 26 04:32:16 2024, MaxMem=  7516192768 cpu:               7.6 elap:               0.2
 (Enter /public/apps/g16-C01//g16/l103.exe)

 GradGradGradGradGradGradGradGradGradGradGradGradGradGradGradGradGradGrad
 Berny optimization.
 Initialization pass.
                           ----------------------------
                           !    Initial Parameters    !
                           ! (Angstroms and Degrees)  !
 --------------------------                            --------------------------
 ! Name  Definition              Value          Derivative Info.                !
 --------------------------------------------------------------------------------
 ! R1    R(1,2)                  1.1552         estimate D2E/DX2                !
 ! R2    R(2,3)                  1.3913         estimate D2E/DX2                !
 ! R3    R(3,4)                  1.4119         estimate D2E/DX2                !
 ! R4    R(3,16)                 1.4124         estimate D2E/DX2                !
 ! R5    R(4,5)                  1.2888         estimate D2E/DX2                !
 ! R6    R(4,15)                 1.3826         estimate D2E/DX2                !
 ! R7    R(5,6)                  1.4341         estimate D2E/DX2                !
 ! R8    R(6,7)                  1.549          estimate D2E/DX2                !
 ! R9    R(6,14)                 1.5522         estimate D2E/DX2                !
 ! R10   R(6,28)                 1.0991         estimate D2E/DX2                !
 ! R11   R(7,8)                  1.4919         estimate D2E/DX2                !
 ! R12   R(7,29)                 1.0914         estimate D2E/DX2                !
 ! R13   R(7,30)                 1.0913         estimate D2E/DX2                !
 ! R14   R(8,9)                  1.3909         estimate D2E/DX2                !
 ! R15   R(8,13)                 1.3927         estimate D2E/DX2                !
 ! R16   R(9,10)                 1.3836         estimate D2E/DX2                !
 ! R17   R(9,31)                 1.0813         estimate D2E/DX2                !
 ! R18   R(10,11)                1.3841         estimate D2E/DX2                !
 ! R19   R(10,32)                1.0816         estimate D2E/DX2                !
 ! R20   R(11,12)                1.3854         estimate D2E/DX2                !
 ! R21   R(11,33)                1.0813         estimate D2E/DX2                !
 ! R22   R(12,13)                1.3819         estimate D2E/DX2                !
 ! R23   R(12,34)                1.0817         estimate D2E/DX2                !
 ! R24   R(13,35)                1.0808         estimate D2E/DX2                !
 ! R25   R(14,15)                1.4075         estimate D2E/DX2                !
 ! R26   R(14,36)                1.0978         estimate D2E/DX2                !
 ! R27   R(14,37)                1.0954         estimate D2E/DX2                !
 ! R28   R(16,17)                1.2847         estimate D2E/DX2                !
 ! R29   R(16,27)                1.3911         estimate D2E/DX2                !
 ! R30   R(17,18)                1.4318         estimate D2E/DX2                !
 ! R31   R(18,19)                1.5511         estimate D2E/DX2                !
 ! R32   R(18,26)                1.5535         estimate D2E/DX2                !
 ! R33   R(18,38)                1.1004         estimate D2E/DX2                !
 ! R34   R(19,20)                1.4965         estimate D2E/DX2                !
 ! R35   R(19,39)                1.0917         estimate D2E/DX2                !
 ! R36   R(19,40)                1.094          estimate D2E/DX2                !
 ! R37   R(20,21)                1.3891         estimate D2E/DX2                !
 ! R38   R(20,25)                1.3921         estimate D2E/DX2                !
 ! R39   R(21,22)                1.384          estimate D2E/DX2                !
 ! R40   R(21,41)                1.0835         estimate D2E/DX2                !
 ! R41   R(22,23)                1.3836         estimate D2E/DX2                !
 ! R42   R(22,42)                1.0823         estimate D2E/DX2                !
 ! R43   R(23,24)                1.385          estimate D2E/DX2                !
 ! R44   R(23,43)                1.0816         estimate D2E/DX2                !
 ! R45   R(24,25)                1.3825         estimate D2E/DX2                !
 ! R46   R(24,44)                1.0808         estimate D2E/DX2                !
 ! R47   R(25,45)                1.0792         estimate D2E/DX2                !
 ! R48   R(26,27)                1.4065         estimate D2E/DX2                !
 ! R49   R(26,46)                1.0951         estimate D2E/DX2                !
 ! R50   R(26,47)                1.0985         estimate D2E/DX2                !
 ! A1    A(2,3,4)              118.7768         estimate D2E/DX2                !
 ! A2    A(2,3,16)             118.4703         estimate D2E/DX2                !
 ! A3    A(4,3,16)             122.7124         estimate D2E/DX2                !
 ! A4    A(3,4,5)              125.7707         estimate D2E/DX2                !
 ! A5    A(3,4,15)             118.6692         estimate D2E/DX2                !
 ! A6    A(5,4,15)             115.5442         estimate D2E/DX2                !
 ! A7    A(4,5,6)              108.4735         estimate D2E/DX2                !
 ! A8    A(5,6,7)              110.1358         estimate D2E/DX2                !
 ! A9    A(5,6,14)             104.049          estimate D2E/DX2                !
 ! A10   A(5,6,28)             110.2998         estimate D2E/DX2                !
 ! A11   A(7,6,14)             112.7476         estimate D2E/DX2                !
 ! A12   A(7,6,28)             108.1426         estimate D2E/DX2                !
 ! A13   A(14,6,28)            111.4404         estimate D2E/DX2                !
 ! A14   A(6,7,8)              111.5873         estimate D2E/DX2                !
 ! A15   A(6,7,29)             108.1487         estimate D2E/DX2                !
 ! A16   A(6,7,30)             106.589          estimate D2E/DX2                !
 ! A17   A(8,7,29)             111.1112         estimate D2E/DX2                !
 ! A18   A(8,7,30)             110.9306         estimate D2E/DX2                !
 ! A19   A(29,7,30)            108.2924         estimate D2E/DX2                !
 ! A20   A(7,8,9)              121.4291         estimate D2E/DX2                !
 ! A21   A(7,8,13)             120.317          estimate D2E/DX2                !
 ! A22   A(9,8,13)             118.2168         estimate D2E/DX2                !
 ! A23   A(8,9,10)             120.9578         estimate D2E/DX2                !
 ! A24   A(8,9,31)             119.451          estimate D2E/DX2                !
 ! A25   A(10,9,31)            119.5897         estimate D2E/DX2                !
 ! A26   A(9,10,11)            120.1957         estimate D2E/DX2                !
 ! A27   A(9,10,32)            119.86           estimate D2E/DX2                !
 ! A28   A(11,10,32)           119.9443         estimate D2E/DX2                !
 ! A29   A(10,11,12)           119.4707         estimate D2E/DX2                !
 ! A30   A(10,11,33)           120.2703         estimate D2E/DX2                !
 ! A31   A(12,11,33)           120.2587         estimate D2E/DX2                !
 ! A32   A(11,12,13)           120.1916         estimate D2E/DX2                !
 ! A33   A(11,12,34)           119.8806         estimate D2E/DX2                !
 ! A34   A(13,12,34)           119.9277         estimate D2E/DX2                !
 ! A35   A(8,13,12)            120.9671         estimate D2E/DX2                !
 ! A36   A(8,13,35)            119.0798         estimate D2E/DX2                !
 ! A37   A(12,13,35)           119.9529         estimate D2E/DX2                !
 ! A38   A(6,14,15)            104.5595         estimate D2E/DX2                !
 ! A39   A(6,14,36)            111.9856         estimate D2E/DX2                !
 ! A40   A(6,14,37)            112.6944         estimate D2E/DX2                !
 ! A41   A(15,14,36)           109.4505         estimate D2E/DX2                !
 ! A42   A(15,14,37)           109.4194         estimate D2E/DX2                !
 ! A43   A(36,14,37)           108.6283         estimate D2E/DX2                !
 ! A44   A(4,15,14)            106.8983         estimate D2E/DX2                !
 ! A45   A(3,16,17)            127.9579         estimate D2E/DX2                !
 ! A46   A(3,16,27)            116.6515         estimate D2E/DX2                !
 ! A47   A(17,16,27)           115.3875         estimate D2E/DX2                !
 ! A48   A(16,17,18)           108.5771         estimate D2E/DX2                !
 ! A49   A(17,18,19)           110.8921         estimate D2E/DX2                !
 ! A50   A(17,18,26)           104.0977         estimate D2E/DX2                !
 ! A51   A(17,18,38)           110.1039         estimate D2E/DX2                !
 ! A52   A(19,18,26)           113.0821         estimate D2E/DX2                !
 ! A53   A(19,18,38)           107.3712         estimate D2E/DX2                !
 ! A54   A(26,18,38)           111.3141         estimate D2E/DX2                !
 ! A55   A(18,19,20)           111.1944         estimate D2E/DX2                !
 ! A56   A(18,19,39)           106.7011         estimate D2E/DX2                !
 ! A57   A(18,19,40)           108.895          estimate D2E/DX2                !
 ! A58   A(20,19,39)           109.9684         estimate D2E/DX2                !
 ! A59   A(20,19,40)           110.847          estimate D2E/DX2                !
 ! A60   A(39,19,40)           109.1246         estimate D2E/DX2                !
 ! A61   A(19,20,21)           121.2536         estimate D2E/DX2                !
 ! A62   A(19,20,25)           119.8207         estimate D2E/DX2                !
 ! A63   A(21,20,25)           118.8617         estimate D2E/DX2                !
 ! A64   A(20,21,22)           120.7487         estimate D2E/DX2                !
 ! A65   A(20,21,41)           119.6638         estimate D2E/DX2                !
 ! A66   A(22,21,41)           119.5874         estimate D2E/DX2                !
 ! A67   A(21,22,23)           120.0217         estimate D2E/DX2                !
 ! A68   A(21,22,42)           119.8589         estimate D2E/DX2                !
 ! A69   A(23,22,42)           120.1161         estimate D2E/DX2                !
 ! A70   A(22,23,24)           119.6199         estimate D2E/DX2                !
 ! A71   A(22,23,43)           120.0715         estimate D2E/DX2                !
 ! A72   A(24,23,43)           120.3078         estimate D2E/DX2                !
 ! A73   A(23,24,25)           120.4195         estimate D2E/DX2                !
 ! A74   A(23,24,44)           119.8894         estimate D2E/DX2                !
 ! A75   A(25,24,44)           119.6894         estimate D2E/DX2                !
 ! A76   A(20,25,24)           120.3178         estimate D2E/DX2                !
 ! A77   A(20,25,45)           119.0879         estimate D2E/DX2                !
 ! A78   A(24,25,45)           120.5426         estimate D2E/DX2                !
 ! A79   A(18,26,27)           104.5441         estimate D2E/DX2                !
 ! A80   A(18,26,46)           112.7098         estimate D2E/DX2                !
 ! A81   A(18,26,47)           111.9845         estimate D2E/DX2                !
 ! A82   A(27,26,46)           109.1166         estimate D2E/DX2                !
 ! A83   A(27,26,47)           109.3004         estimate D2E/DX2                !
 ! A84   A(46,26,47)           109.0402         estimate D2E/DX2                !
 ! A85   A(16,27,26)           106.7714         estimate D2E/DX2                !
 ! A86   L(1,2,3,30,-1)        181.3215         estimate D2E/DX2                !
 ! A87   L(1,2,3,30,-2)        180.0051         estimate D2E/DX2                !
 ! D1    D(2,3,4,5)             -6.0403         estimate D2E/DX2                !
 ! D2    D(2,3,4,15)           172.438          estimate D2E/DX2                !
 ! D3    D(16,3,4,5)           176.3102         estimate D2E/DX2                !
 ! D4    D(16,3,4,15)           -5.2114         estimate D2E/DX2                !
 ! D5    D(2,3,16,17)          169.7947         estimate D2E/DX2                !
 ! D6    D(2,3,16,27)           -9.5294         estimate D2E/DX2                !
 ! D7    D(4,3,16,17)          -12.549          estimate D2E/DX2                !
 ! D8    D(4,3,16,27)          168.1269         estimate D2E/DX2                !
 ! D9    D(3,4,5,6)            176.0066         estimate D2E/DX2                !
 ! D10   D(15,4,5,6)            -2.5137         estimate D2E/DX2                !
 ! D11   D(3,4,15,14)          179.088          estimate D2E/DX2                !
 ! D12   D(5,4,15,14)           -2.2803         estimate D2E/DX2                !
 ! D13   D(4,5,6,7)           -115.3717         estimate D2E/DX2                !
 ! D14   D(4,5,6,14)             5.7122         estimate D2E/DX2                !
 ! D15   D(4,5,6,28)           125.3372         estimate D2E/DX2                !
 ! D16   D(5,6,7,8)           -176.1989         estimate D2E/DX2                !
 ! D17   D(5,6,7,29)            61.2994         estimate D2E/DX2                !
 ! D18   D(5,6,7,30)           -54.951          estimate D2E/DX2                !
 ! D19   D(14,6,7,8)            68.0734         estimate D2E/DX2                !
 ! D20   D(14,6,7,29)          -54.4283         estimate D2E/DX2                !
 ! D21   D(14,6,7,30)         -170.6787         estimate D2E/DX2                !
 ! D22   D(28,6,7,8)           -55.6021         estimate D2E/DX2                !
 ! D23   D(28,6,7,29)         -178.1039         estimate D2E/DX2                !
 ! D24   D(28,6,7,30)           65.6457         estimate D2E/DX2                !
 ! D25   D(5,6,14,15)           -6.8644         estimate D2E/DX2                !
 ! D26   D(5,6,14,36)          111.5524         estimate D2E/DX2                !
 ! D27   D(5,6,14,37)         -125.6122         estimate D2E/DX2                !
 ! D28   D(7,6,14,15)          112.4572         estimate D2E/DX2                !
 ! D29   D(7,6,14,36)         -129.1261         estimate D2E/DX2                !
 ! D30   D(7,6,14,37)           -6.2907         estimate D2E/DX2                !
 ! D31   D(28,6,14,15)        -125.7124         estimate D2E/DX2                !
 ! D32   D(28,6,14,36)          -7.2956         estimate D2E/DX2                !
 ! D33   D(28,6,14,37)         115.5398         estimate D2E/DX2                !
 ! D34   D(6,7,8,9)           -103.8002         estimate D2E/DX2                !
 ! D35   D(6,7,8,13)            73.9431         estimate D2E/DX2                !
 ! D36   D(29,7,8,9)            16.9868         estimate D2E/DX2                !
 ! D37   D(29,7,8,13)         -165.2699         estimate D2E/DX2                !
 ! D38   D(30,7,8,9)           137.51           estimate D2E/DX2                !
 ! D39   D(30,7,8,13)          -44.7467         estimate D2E/DX2                !
 ! D40   D(7,8,9,10)           177.6576         estimate D2E/DX2                !
 ! D41   D(7,8,9,31)            -2.7834         estimate D2E/DX2                !
 ! D42   D(13,8,9,10)           -0.1316         estimate D2E/DX2                !
 ! D43   D(13,8,9,31)          179.4273         estimate D2E/DX2                !
 ! D44   D(7,8,13,12)         -177.6501         estimate D2E/DX2                !
 ! D45   D(7,8,13,35)            2.5098         estimate D2E/DX2                !
 ! D46   D(9,8,13,12)            0.1646         estimate D2E/DX2                !
 ! D47   D(9,8,13,35)         -179.6755         estimate D2E/DX2                !
 ! D48   D(8,9,10,11)           -0.0275         estimate D2E/DX2                !
 ! D49   D(8,9,10,32)          179.9265         estimate D2E/DX2                !
 ! D50   D(31,9,10,11)        -179.5859         estimate D2E/DX2                !
 ! D51   D(31,9,10,32)           0.3682         estimate D2E/DX2                !
 ! D52   D(9,10,11,12)           0.1563         estimate D2E/DX2                !
 ! D53   D(9,10,11,33)         179.9885         estimate D2E/DX2                !
 ! D54   D(32,10,11,12)       -179.7977         estimate D2E/DX2                !
 ! D55   D(32,10,11,33)          0.0345         estimate D2E/DX2                !
 ! D56   D(10,11,12,13)         -0.1236         estimate D2E/DX2                !
 ! D57   D(10,11,12,34)        179.7721         estimate D2E/DX2                !
 ! D58   D(33,11,12,13)       -179.9558         estimate D2E/DX2                !
 ! D59   D(33,11,12,34)         -0.0602         estimate D2E/DX2                !
 ! D60   D(11,12,13,8)          -0.0386         estimate D2E/DX2                !
 ! D61   D(11,12,13,35)        179.8002         estimate D2E/DX2                !
 ! D62   D(34,12,13,8)        -179.9342         estimate D2E/DX2                !
 ! D63   D(34,12,13,35)         -0.0954         estimate D2E/DX2                !
 ! D64   D(6,14,15,4)            5.5575         estimate D2E/DX2                !
 ! D65   D(36,14,15,4)        -114.57           estimate D2E/DX2                !
 ! D66   D(37,14,15,4)         126.5032         estimate D2E/DX2                !
 ! D67   D(3,16,17,18)         175.0936         estimate D2E/DX2                !
 ! D68   D(27,16,17,18)         -5.5751         estimate D2E/DX2                !
 ! D69   D(3,16,27,26)         179.8906         estimate D2E/DX2                !
 ! D70   D(17,16,27,26)          0.4805         estimate D2E/DX2                !
 ! D71   D(16,17,18,19)       -114.18           estimate D2E/DX2                !
 ! D72   D(16,17,18,26)          7.7264         estimate D2E/DX2                !
 ! D73   D(16,17,18,38)        127.1332         estimate D2E/DX2                !
 ! D74   D(17,18,19,20)         60.5974         estimate D2E/DX2                !
 ! D75   D(17,18,19,39)        -59.3199         estimate D2E/DX2                !
 ! D76   D(17,18,19,40)       -176.9803         estimate D2E/DX2                !
 ! D77   D(26,18,19,20)        -55.8948         estimate D2E/DX2                !
 ! D78   D(26,18,19,39)       -175.8121         estimate D2E/DX2                !
 ! D79   D(26,18,19,40)         66.5275         estimate D2E/DX2                !
 ! D80   D(38,18,19,20)       -179.0776         estimate D2E/DX2                !
 ! D81   D(38,18,19,39)         61.005          estimate D2E/DX2                !
 ! D82   D(38,18,19,40)        -56.6554         estimate D2E/DX2                !
 ! D83   D(17,18,26,27)         -7.2713         estimate D2E/DX2                !
 ! D84   D(17,18,26,46)       -125.6532         estimate D2E/DX2                !
 ! D85   D(17,18,26,47)        110.9565         estimate D2E/DX2                !
 ! D86   D(19,18,26,27)        113.1735         estimate D2E/DX2                !
 ! D87   D(19,18,26,46)         -5.2084         estimate D2E/DX2                !
 ! D88   D(19,18,26,47)       -128.5987         estimate D2E/DX2                !
 ! D89   D(38,18,26,27)       -125.8526         estimate D2E/DX2                !
 ! D90   D(38,18,26,46)        115.7655         estimate D2E/DX2                !
 ! D91   D(38,18,26,47)         -7.6247         estimate D2E/DX2                !
 ! D92   D(18,19,20,21)        107.0317         estimate D2E/DX2                !
 ! D93   D(18,19,20,25)        -70.0264         estimate D2E/DX2                !
 ! D94   D(39,19,20,21)       -135.0096         estimate D2E/DX2                !
 ! D95   D(39,19,20,25)         47.9323         estimate D2E/DX2                !
 ! D96   D(40,19,20,21)        -14.2551         estimate D2E/DX2                !
 ! D97   D(40,19,20,25)        168.6868         estimate D2E/DX2                !
 ! D98   D(19,20,21,22)       -176.8914         estimate D2E/DX2                !
 ! D99   D(19,20,21,41)          3.1024         estimate D2E/DX2                !
 ! D100  D(25,20,21,22)          0.1943         estimate D2E/DX2                !
 ! D101  D(25,20,21,41)       -179.8119         estimate D2E/DX2                !
 ! D102  D(19,20,25,24)        176.1095         estimate D2E/DX2                !
 ! D103  D(19,20,25,45)         -1.2904         estimate D2E/DX2                !
 ! D104  D(21,20,25,24)         -1.0188         estimate D2E/DX2                !
 ! D105  D(21,20,25,45)       -178.4188         estimate D2E/DX2                !
 ! D106  D(20,21,22,23)          0.6029         estimate D2E/DX2                !
 ! D107  D(20,21,22,42)        179.9366         estimate D2E/DX2                !
 ! D108  D(41,21,22,23)       -179.3909         estimate D2E/DX2                !
 ! D109  D(41,21,22,42)         -0.0572         estimate D2E/DX2                !
 ! D110  D(21,22,23,24)         -0.5768         estimate D2E/DX2                !
 ! D111  D(21,22,23,43)        179.0778         estimate D2E/DX2                !
 ! D112  D(42,22,23,24)       -179.9088         estimate D2E/DX2                !
 ! D113  D(42,22,23,43)         -0.2542         estimate D2E/DX2                !
 ! D114  D(22,23,24,25)         -0.2477         estimate D2E/DX2                !
 ! D115  D(22,23,24,44)        179.2632         estimate D2E/DX2                !
 ! D116  D(43,23,24,25)       -179.9014         estimate D2E/DX2                !
 ! D117  D(43,23,24,44)         -0.3906         estimate D2E/DX2                !
 ! D118  D(23,24,25,20)          1.0542         estimate D2E/DX2                !
 ! D119  D(23,24,25,45)        178.416          estimate D2E/DX2                !
 ! D120  D(44,24,25,20)       -178.4576         estimate D2E/DX2                !
 ! D121  D(44,24,25,45)         -1.0958         estimate D2E/DX2                !
 ! D122  D(18,26,27,16)          4.3401         estimate D2E/DX2                !
 ! D123  D(46,26,27,16)        125.1403         estimate D2E/DX2                !
 ! D124  D(47,26,27,16)       -115.702          estimate D2E/DX2                !
 --------------------------------------------------------------------------------
 Trust Radius=3.00D-01 FncErr=1.00D-07 GrdErr=1.00D-06 EigMax=2.50D+02 EigMin=1.00D-04
 Number of steps in this run=    271 maximum allowed number of steps=    282.
 GradGradGradGradGradGradGradGradGradGradGradGradGradGradGradGradGradGrad

 Leave Link  103 at Mon Feb 26 04:32:16 2024, MaxMem=  7516192768 cpu:               0.5 elap:               0.0
 (Enter /public/apps/g16-C01//g16/l202.exe)
                          Input orientation:                          
 ---------------------------------------------------------------------
 Center     Atomic      Atomic             Coordinates (Angstroms)
 Number     Number       Type             X           Y           Z
 ---------------------------------------------------------------------
      1          7           0        0.756792    3.157865   -2.852836
      2          6           0        0.715842    2.608295   -1.837591
      3          6           0        0.694892    1.959240   -0.607094
      4          6           0       -0.521747    1.407156   -0.150476
      5          7           0       -1.669689    1.537769   -0.721666
      6          6           0       -2.628360    0.752634    0.000159
      7          6           0       -3.165359   -0.390330   -0.896868
      8          6           0       -4.232704   -1.173007   -0.208474
      9          6           0       -3.978402   -2.431181    0.327080
     10          6           0       -4.962452   -3.128081    1.005475
     11          6           0       -6.222885   -2.577995    1.162009
     12          6           0       -6.491145   -1.326636    0.631394
     13          6           0       -5.506314   -0.633456   -0.046218
     14          6           0       -1.838119    0.229843    1.229660
     15          8           0       -0.509339    0.628126    0.991652
     16          6           0        1.905025    1.838639    0.111212
     17          7           0        2.068776    1.444541    1.323004
     18          6           0        3.472936    1.372335    1.593371
     19          6           0        3.914025   -0.094124    1.840196
     20          6           0        3.645012   -0.949003    0.641781
     21          6           0        4.678490   -1.393856   -0.172793
     22          6           0        4.412982   -2.130407   -1.314103
     23          6           0        3.105714   -2.421019   -1.661933
     24          6           0        2.068961   -1.981175   -0.855821
     25          6           0        2.333535   -1.259959    0.293554
     26          6           0        4.133185    2.003653    0.336822
     27          8           0        3.068236    2.200055   -0.560772
     28          1           0       -3.479894    1.376772    0.305644
     29          1           0       -2.324880   -1.029627   -1.172456
     30          1           0       -3.549918    0.079711   -1.803606
     31          1           0       -2.999161   -2.873049    0.204705
     32          1           0       -4.745618   -4.105918    1.413785
     33          1           0       -6.992885   -3.121647    1.691802
     34          1           0       -7.474973   -0.892052    0.746626
     35          1           0       -5.720752    0.341107   -0.461406
     36          1           0       -2.192026    0.678798    2.166919
     37          1           0       -1.879751   -0.860525    1.326368
     38          1           0        3.713145    1.945003    2.501822
     39          1           0        3.336971   -0.455936    2.693355
     40          1           0        4.977666   -0.105883    2.095988
     41          1           0        5.704322   -1.161880    0.087612
     42          1           0        5.229295   -2.468907   -1.939024
     43          1           0        2.896577   -2.983784   -2.561624
     44          1           0        1.045608   -2.195457   -1.129688
     45          1           0        1.526363   -0.894406    0.909636
     46          1           0        4.875864    1.345457   -0.126343
     47          1           0        4.602220    2.971385    0.561052
 ---------------------------------------------------------------------
                    Distance matrix (angstroms):
                    1          2          3          4          5
     1  N    0.000000
     2  C    1.155174   0.000000
     3  C    2.546348   1.391343   0.000000
     4  C    3.464447   2.412617   1.411916   0.000000
     5  N    3.613088   2.842899   2.404581   1.288832   0.000000
     6  C    5.038251   4.243170   3.587291   2.211088   1.434057
     7  C    5.639040   4.994040   4.528354   3.282795   2.446485
     8  C    7.116472   6.437420   5.852442   4.520156   3.765729
     9  C    7.985697   7.219283   6.479827   5.187423   4.709839
    10  C    9.333243   8.557573   7.777323   6.451702   5.966193
    11  C    9.886099   9.167395   8.460016   7.078631   6.420229
    12  C    9.207779   8.574394   7.998122   6.612008   5.769058
    13  C    7.840773   7.241077   6.744747   5.387103   4.459836
    14  C    5.654525   4.646265   3.575000   2.241356   2.355146
    15  O    4.773128   3.664253   2.403752   1.382569   2.260381
    16  C    3.441566   2.409224   1.412420   2.478685   3.682769
    17  N    4.700470   3.629616   2.424407   2.980495   4.262099
    18  C    5.507659   4.571724   3.592218   4.358865   5.642106
    19  C    6.524424   5.572931   4.535234   5.088486   6.356420
    20  C    6.117232   5.232752   4.326751   4.851911   6.024041
    21  C    6.578792   5.872933   5.225029   5.906660   7.013919
    22  C    6.610692   6.033090   5.572187   6.182227   7.127790
    23  C    6.169249   5.571027   5.109933   5.486155   6.273801
    24  C    5.667415   4.884469   4.180526   4.323201   5.135997
    25  C    5.648279   4.703414   3.722843   3.932340   4.988362
    26  C    4.786037   4.095351   3.565783   4.718226   5.916992
    27  O    3.393189   2.707524   2.385980   3.699326   4.786694
    28  H    5.576540   4.869734   4.312911   2.993259   2.087613
    29  H    5.464016   4.787784   4.286255   3.199007   2.687752
    30  H    5.396635   4.958992   4.794026   3.696589   2.613769
    31  H    7.734834   6.929455   6.136454   4.958214   4.699040
    32  H   10.061964   9.245520   8.394596   7.119128   6.772938
    33  H   10.960999  10.232953   9.497487   8.110467   7.474717
    34  H    9.854943   9.274700   8.758374   7.378245   6.462293
    35  H    7.457321   6.961592   6.618162   5.316276   4.232121
    36  H    6.327657   5.311756   4.203448   2.947992   3.058527
    37  H    6.369032   5.364742   4.279969   3.027808   3.160757
    38  H    6.235657   5.315476   4.333060   5.025761   6.287417
    39  H    7.104725   6.065418   4.868944   5.142780   6.379959
    40  H    7.277272   6.403355   5.469327   6.130206   7.404600
    41  H    7.196144   6.542596   5.942928   6.739478   7.894243
    42  H    7.245612   6.794080   6.476367   7.162210   8.070402
    43  H    6.510249   6.045757   5.753355   6.064563   6.684360
    44  H    5.631226   4.866817   4.202096   4.048985   4.634252
    45  H    5.582950   4.524723   3.336931   3.258187   4.334901
    46  H    5.261686   4.672142   4.253043   5.398018   6.575383
    47  H    5.145554   4.581403   4.201930   5.404454   6.560294
                    6          7          8          9         10
     6  C    0.000000
     7  C    1.548997   0.000000
     8  C    2.515063   1.491876   0.000000
     9  C    3.473639   2.514788   1.390859   0.000000
    10  C    4.638814   3.787312   2.414233   1.383562   0.000000
    11  C    5.036228   4.286411   2.795181   2.399243   1.384120
    12  C    4.432034   3.777976   2.414443   2.761613   2.392079
    13  C    3.194686   2.502556   1.392668   2.388657   2.761340
    14  C    1.552245   2.582306   3.125741   3.532210   4.592099
    15  O    2.342821   3.414411   4.306719   4.672838   5.825762
    16  C    4.662973   5.629682   6.844262   7.272735   8.522339
    17  N    4.928665   5.974174   6.993256   7.251307   8.393323
    18  C    6.336258   7.305836   8.312779   8.461245   9.578890
    19  C    6.848762   7.595850   8.469370   8.369095   9.417723
    20  C    6.531649   7.004335   7.926634   7.772537   8.886455
    21  C    7.617571   7.940864   8.914002   8.733138   9.866287
    22  C    7.721380   7.786733   8.768518   8.555657   9.709509
    23  C    6.761230   6.635916   7.584356   7.358055   8.527034
    24  C    5.501930   5.470885   6.386171   6.178378   7.363463
    25  C    5.362557   5.693083   6.585977   6.419769   7.564928
    26  C    6.884539   7.779582   8.965301   9.244766  10.464817
    27  O    5.904310   6.758754   8.050179   8.478899   9.763919
    28  H    1.099081   2.160467   2.707843   3.840505   4.793896
    29  H    2.154897   1.091354   2.142338   2.635735   4.012939
    30  H    2.134400   1.091329   2.140081   3.320843   4.491783
    31  H    3.650330   2.721209   2.140675   1.081266   2.135600
    32  H    5.485130   4.652089   3.390689   2.138759   1.081619
    33  H    6.076248   5.367612   3.876448   3.380284   2.143302
    34  H    5.172220   4.639566   3.391675   3.843299   3.373365
    35  H    3.153615   2.693448   2.137944   3.367948   3.842138
    36  H    2.211490   3.387802   3.638137   4.030895   4.849386
    37  H    2.218452   2.610871   2.826619   2.805329   3.840290
    38  H    6.920603   8.019893   8.955680   9.112650  10.160769
    39  H    6.655758   7.427941   8.138475   7.938232   8.880863
    40  H    7.936068   8.680262   9.554068   9.420573  10.446475
    41  H    8.550240   8.957440   9.941442   9.768501  10.885242
    42  H    8.710999   8.710728   9.705853   9.482528  10.629031
    43  H    7.144822   6.800330   7.722880   7.477655   8.631880
    44  H    4.844155   4.587476   5.454779   5.236260   6.444028
    45  H    4.560878   5.052703   5.873214   5.744866   6.863178
    46  H    7.528667   8.262441   9.450683   9.636733  10.866739
    47  H    7.584111   8.588477   9.788975  10.142462  11.352707
                   11         12         13         14         15
    11  C    0.000000
    12  C    1.385430   0.000000
    13  C    2.398858   1.381864   0.000000
    14  C    5.207178   4.942793   3.978543   0.000000
    15  O    6.553842   6.303403   5.257235   1.407456   0.000000
    16  C    9.309874   8.988060   7.814345   4.224959   2.840716
    17  N    9.217286   9.023857   7.973383   4.092436   2.724519
    18  C   10.478555  10.367871   9.345501   5.444711   4.095660
    19  C   10.458800  10.547410   9.622485   5.793520   4.561559
    20  C   10.014971  10.143194   9.182575   5.639149   4.457396
    21  C   11.046441  11.198749  10.213935   6.860719   5.688402
    22  C   10.929462  11.105449  10.111421   7.149670   6.095511
    23  C    9.747925   9.927574   8.942759   6.311091   5.422860
    24  C    8.554680   8.712958   7.736704   4.950061   4.107218
    25  C    8.700791   8.831396   7.872178   4.527527   3.483409
    26  C   11.354322  11.137952  10.001050   6.292856   4.886093
    27  O   10.588799  10.258683   9.045245   5.582088   4.204762
    28  H    4.888511   4.059823   2.875970   2.205601   3.139311
    29  H    4.800168   4.549709   3.398071   2.755606   3.275316
    30  H    4.796147   4.069134   2.724794   3.486187   4.166455
    31  H    3.375779   3.842839   3.371136   3.467923   4.367691
    32  H    2.140154   3.373931   3.842949   5.223627   6.366744
    33  H    1.081267   2.144358   3.379601   6.165847   7.522458
    34  H    2.140717   1.081693   2.138011   5.767677   7.133795
    35  H    3.377687   2.137542   1.080804   4.236381   5.417802
    36  H    5.278671   4.986184   4.195771   1.097846   2.053109
    37  H    4.673278   4.686705   3.884265   1.095440   2.050889
    38  H   10.998968  10.877944   9.906532   5.947832   4.673773
    39  H    9.911559  10.079765   9.259615   5.421647   4.343395
    40  H   11.508084  11.626216  10.713600   6.878820   5.644958
    41  H   12.058938  12.208696  11.223881   7.754327   6.529241
    42  H   11.865106  12.053238  11.054632   8.201960   7.149293
    43  H    9.858737  10.053399   9.080743   6.864297   6.105074
    44  H    7.630806   7.788383   6.822128   4.445727   3.858829
    45  H    7.934041   8.033970   7.102133   3.561754   2.543406
    46  H   11.842109  11.701416  10.569396   6.939806   5.546610
    47  H   12.179477  11.897087  10.749238   7.031433   5.639531
                   16         17         18         19         20
    16  C    0.000000
    17  N    1.284744   0.000000
    18  C    2.207392   1.431774   0.000000
    19  C    3.280402   2.457625   1.551123   0.000000
    20  C    3.328664   2.945783   2.514706   1.496457   0.000000
    21  C    4.268699   4.135760   3.496356   2.515121   1.389065
    22  C    4.906597   5.022936   4.648257   3.787481   2.410597
    23  C    4.767639   4.992759   5.012124   4.281672   2.786534
    24  C    3.943730   4.059903   4.383573   3.772762   2.406684
    25  C    3.133397   2.905888   3.149084   2.499844   1.392095
    26  C    2.245624   2.355195   1.553514   2.590141   3.008237
    27  O    1.391130   2.262373   2.342912   3.426845   3.419849
    28  H    5.408186   5.641574   7.071075   7.693401   7.502433
    29  H    5.269426   5.626104   6.858126   6.991078   6.239997
    30  H    6.042910   6.573292   7.907642   8.307705   7.668454
    31  H    6.801455   6.751012   7.863823   7.628197   6.930947
    32  H    9.014738   8.789300   9.878671   9.553310   8.998043
    33  H   10.309001  10.153806  11.390302  11.320274  10.908152
    34  H    9.790035   9.842511  11.211652  11.469170  11.120625
    35  H    7.792494   8.067120   9.476784   9.915429   9.518348
    36  H    4.728318   4.410554   5.736004   6.163442   6.248743
    37  H    4.804854   4.572112   5.805877   5.866790   5.567719
    38  H    2.999271   2.084232   1.100424   2.153170   3.440881
    39  H    3.739386   2.664206   2.137996   1.091687   2.132360
    40  H    4.142659   3.385699   2.168401   1.094029   2.145119
    41  H    4.841315   4.640778   3.697112   2.723383   2.143170
    42  H    5.814567   5.995397   5.506156   4.653175   3.388306
    43  H    5.602052   5.948584   6.047474   5.362961   3.868112
    44  H    4.307245   4.506901   5.102559   4.632885   3.383586
    45  H    2.872351   2.436341   3.065086   2.684646   2.136212
    46  H    3.020852   3.160723   2.219537   2.620077   2.714693
    47  H    2.959786   3.054531   2.213126   3.392222   4.036361
                   21         22         23         24         25
    21  C    0.000000
    22  C    1.384049   0.000000
    23  C    2.397129   1.383615   0.000000
    24  C    2.760636   2.393058   1.384968   0.000000
    25  C    2.394624   2.768816   2.401718   1.382467   0.000000
    26  C    3.478524   4.460302   4.962705   4.643519   3.727167
    27  O    3.957227   4.596602   4.750609   4.309094   3.638867
    28  H    8.629282   8.787569   7.852694   6.588976   6.383452
    29  H    7.083726   6.828658   5.627336   4.506833   4.889076
    30  H    8.516904   8.278406   7.111340   6.059484   6.388099
    31  H    7.827953   7.602510   6.399857   5.254143   5.572037
    32  H    9.934099   9.758277   8.598973   7.490269   7.711602
    33  H   11.944998  11.836884  10.663964   9.481989   9.612653
    34  H   12.198516  12.128627  10.958551   9.738619   9.825857
    35  H   10.546925  10.465564   9.326152   8.138070   8.246509
    36  H    7.548121   7.977172   7.234295   5.862459   5.267730
    37  H    6.748515   6.941410   6.018301   4.648670   4.356378
    38  H    4.385594   5.626724   6.063660   5.421437   4.129353
    39  H    3.300632   4.474525   4.783677   4.065815   2.722569
    40  H    2.625976   4.005782   4.794375   4.548677   3.401777
    41  H    1.083492   2.137851   3.376256   3.844107   3.378496
    42  H    2.139788   1.082347   2.142118   3.376229   3.851154
    43  H    3.377810   2.141038   1.081613   2.144746   3.382400
    44  H    3.841360   3.373047   2.139673   1.080820   2.135306
    45  H    3.370016   3.847763   3.381991   2.142969   1.079219
    46  H    2.746807   3.702251   4.435968   4.413312   3.664416
    47  H    4.427152   5.438777   6.021562   5.740451   4.808613
                   26         27         28         29         30
    26  C    0.000000
    27  O    1.406544   0.000000
    28  H    7.638909   6.656311   0.000000
    29  H    7.292826   6.315909   3.051163   0.000000
    30  H    8.204453   7.059777   2.477137   1.769096   0.000000
    31  H    8.641183   7.945794   4.278115   2.397797   3.613231
    32  H   10.831429  10.233303   5.734974   4.691714   5.413021
    33  H   12.324533  11.602619   5.873526   5.862661   5.858378
    34  H   11.970897  11.064794   4.615483   5.497750   4.780592
    35  H   10.025034   8.983979   2.585036   3.730476   2.565609
    36  H    6.716606   6.117588   2.368568   3.753371   4.238849
    37  H    6.733358   6.116455   2.933911   2.543788   3.670182
    38  H    2.206150   3.140134   7.542274   7.668539   8.646855
    39  H    3.498111   4.209020   7.451821   6.879693   8.242501
    40  H    2.873666   4.002705   8.771198   8.053770   9.378751
    41  H    3.542764   4.321106   9.531113   8.128551   9.526763
    42  H    5.136606   5.326252   9.781501   7.728177   9.142668
    43  H    5.899552   5.559232   8.239846   5.745618   7.177527
    44  H    5.414454   4.871880   5.941478   3.566676   5.171984
    45  H    3.939846   3.757015   5.530431   4.380122   5.837741
    46  H    1.095133   2.046115   8.366976   7.654155   8.683843
    47  H    1.098535   2.050987   8.241880   8.185222   8.967204
                   31         32         33         34         35
    31  H    0.000000
    32  H    2.456003   0.000000
    33  H    4.268851   2.469067   0.000000
    34  H    4.924522   4.268889   2.469182   0.000000
    35  H    4.263984   4.923744   4.271451   2.461161   0.000000
    36  H    4.137314   5.475541   6.141447   5.691602   4.412939
    37  H    2.561535   4.330521   5.602710   5.625265   4.403787
    38  H    8.575863  10.456966  11.872075  11.674912  10.017565
    39  H    7.223737   8.960352  10.715178  10.994457   9.624455
    40  H    8.652394  10.536030  12.351206  12.550182  11.008915
    41  H    8.870875  10.937428  12.947323  13.198520  11.536581
    42  H    8.512719  10.649884  12.766779  13.080429  11.401011
    43  H    6.513414   8.687129  10.766248  11.085527   9.472285
    44  H    4.312759   6.607376   8.569481   8.821549   7.257023
    45  H    4.989221   7.064398   8.840247   9.002812   7.478431
    46  H    8.939877  11.165232  12.811240  12.582198  10.649378
    47  H    9.595071  11.755741  13.147247  12.681450  10.701754
                   36         37         38         39         40
    36  H    0.000000
    37  H    1.781448   0.000000
    38  H    6.048676   6.366566   0.000000
    39  H    5.668736   5.408006   2.437765   0.000000
    40  H    7.212852   6.941611   2.443327   1.780804   0.000000
    41  H    8.370420   7.690481   4.409753   3.590627   2.382590
    42  H    9.046702   7.986752   6.442238   5.393689   4.682790
    43  H    7.852866   6.514447   7.113242   5.847971   5.857183
    44  H    5.441620   4.046230   6.119398   4.784552   5.498398
    45  H    4.228729   3.431680   3.921647   2.579188   3.733724
    46  H    7.460466   7.253624   2.935749   3.682921   2.656220
    47  H    7.348234   7.568698   2.368650   4.230142   3.459273
                   41         42         43         44         45
    41  H    0.000000
    42  H    2.457890   0.000000
    43  H    4.268632   2.468664   0.000000
    44  H    4.924806   4.270016   2.469410   0.000000
    45  H    4.266451   4.930073   4.276989   2.466313   0.000000
    46  H    2.649313   4.237936   5.347008   5.311839   4.160456
    47  H    4.303795   6.019998   6.937172   6.496487   4.952449
                   46         47
    46  H    0.000000
    47  H    1.786347   0.000000
 Symmetry turned off by external request.
 Stoichiometry    C22H20N3O2(1-)
 Framework group  C1[X(C22H20N3O2)]
 Deg. of freedom   135
 Full point group                 C1      NOp   1
 Rotational constants (GHZ):           0.3409337           0.1013942           0.0902916
 Leave Link  202 at Mon Feb 26 04:32:16 2024, MaxMem=  7516192768 cpu:               0.4 elap:               0.0
 (Enter /public/apps/g16-C01//g16/l301.exe)
 Standard basis: def2SVPP (5D, 7F)
 Ernie: Thresh=  0.10000D-02 Tol=  0.10000D-05 Strict=F.
   418 basis functions,   755 primitive gaussians,   445 cartesian basis functions
    95 alpha electrons       95 beta electrons
       nuclear repulsion energy      2326.2620604191 Hartrees.
 IExCor=  402 DFT=T Ex+Corr=B3LYP ExCW=0 ScaHFX=  0.200000
 ScaDFX=  0.800000  0.720000  1.000000  0.810000 ScalE2=  1.000000  1.000000
 IRadAn=      5 IRanWt=     -1 IRanGd=            0 ICorTp=0 IEmpDi=141
 NAtoms=   47 NActive=   47 NUniq=   47 SFac= 1.00D+00 NAtFMM=   60 NAOKFM=F Big=F
 Integral buffers will be    131072 words long.
 Raffenetti 2 integral format.
 Two-electron integral symmetry is turned off.
 R6Disp:  Grimme-D3(BJ) Dispersion energy=       -0.1073901730 Hartrees.
 Nuclear repulsion after empirical dispersion term =     2326.1546702461 Hartrees.
 Leave Link  301 at Mon Feb 26 04:32:16 2024, MaxMem=  7516192768 cpu:               1.0 elap:               0.0
 (Enter /public/apps/g16-C01//g16/l302.exe)
 NPDir=0 NMtPBC=     1 NCelOv=     1 NCel=       1 NClECP=     1 NCelD=      1
         NCelK=      1 NCelE2=     1 NClLst=     1 CellRange=     0.0.
 One-electron integrals computed using PRISM.
   1 Symmetry operations used in ECPInt.
 ECPInt:  NShTT=   20503 NPrTT=   82221 LenC2=   17821 LenP2D=   46669.
 LDataN:  DoStor=T MaxTD1= 4 Len=   56
 NBasis=   418 RedAO= T EigKep=  2.52D-04  NBF=   418
 NBsUse=   418 1.00D-06 EigRej= -1.00D+00 NBFU=   418
 Precomputing XC quadrature grid using
 IXCGrd= 4 IRadAn=           5 IRanWt=          -1 IRanGd=           0 AccXCQ= 0.00D+00.
 Generated NRdTot=       0 NPtTot=           0 NUsed=           0 NTot=          32
 NSgBfM=   439   439   439   439   439 MxSgAt=    47 MxSgA2=    47.
 Leave Link  302 at Mon Feb 26 04:32:17 2024, MaxMem=  7516192768 cpu:              15.5 elap:               0.4
 (Enter /public/apps/g16-C01//g16/l303.exe)
 DipDrv:  MaxL=1.
 Leave Link  303 at Mon Feb 26 04:32:17 2024, MaxMem=  7516192768 cpu:               1.6 elap:               0.1
 (Enter /public/apps/g16-C01//g16/l401.exe)
 ExpMin= 1.22D-01 ExpMax= 2.27D+03 ExpMxC= 3.41D+02 IAcc=3 IRadAn=         5 AccDes= 0.00D+00
 Harris functional with IExCor=  402 and IRadAn=       5 diagonalized for initial guess.
 HarFok:  IExCor=  402 AccDes= 0.00D+00 IRadAn=         5 IDoV= 1 UseB2=F ITyADJ=14
 ICtDFT=  3500011 ScaDFX=  1.000000  1.000000  1.000000  1.000000
 FoFCou: FMM=F IPFlag=           0 FMFlag=      100000 FMFlg1=           0
         NFxFlg=           0 DoJE=T BraDBF=F KetDBF=T FulRan=T
         wScrn=  0.000000 ICntrl=       500 IOpCl=  0 I1Cent=   200000004 NGrid=           0
         NMat0=    1 NMatS0=      1 NMatT0=    0 NMatD0=    1 NMtDS0=    0 NMtDT0=    0
 Symmetry not used in FoFCou.
 Harris En= -1164.42336568246    
 JPrj=0 DoOrth=F DoCkMO=F.
 Leave Link  401 at Mon Feb 26 04:32:17 2024, MaxMem=  7516192768 cpu:              28.0 elap:               0.7
 (Enter /public/apps/g16-C01//g16/l502.exe)
 Two-electron integral symmetry not used.
 Closed shell SCF:
 Using DIIS extrapolation, IDIIS=  1040.
 NGot=  7516192768 LenX=  7515773989 LenY=  7515575519
 Requested convergence on RMS density matrix=1.00D-08 within 128 cycles.
 Requested convergence on MAX density matrix=1.00D-06.
 Requested convergence on             energy=1.00D-06.
 No special actions if energy rises.
 Fock matrices will be formed incrementally for  20 cycles.
 Integral accuracy reduced to 1.0D-05 until final iterations.

 Cycle   1  Pass 0  IDiag  1:
 FoFJK:  IHMeth= 1 ICntrl=       0 DoSepK=F KAlg= 0 I1Cent=           0 FoldK=F
 IRaf= 780000000 NMat=       1 IRICut=       1 DoRegI=T DoRafI=F ISym2E= 0 IDoP0=0 IntGTp=1.
 FoFCou: FMM=F IPFlag=           0 FMFlag=      100000 FMFlg1=           0
         NFxFlg=           0 DoJE=F BraDBF=F KetDBF=F FulRan=T
         wScrn=  0.000000 ICntrl=         0 IOpCl=  0 I1Cent=           0 NGrid=           0
         NMat0=    1 NMatS0=      1 NMatT0=    0 NMatD0=    1 NMtDS0=    0 NMtDT0=    0
 Symmetry not used in FoFCou.
 E= -1163.72464929315    
 DIIS: error= 2.15D-02 at cycle   1 NSaved=   1.
 NSaved= 1 IEnMin= 1 EnMin= -1163.72464929315     IErMin= 1 ErrMin= 2.15D-02
 ErrMax= 2.15D-02  0.00D+00 EMaxC= 1.00D-01 BMatC= 5.28D-01 BMatP= 5.28D-01
 IDIUse=3 WtCom= 7.85D-01 WtEn= 2.15D-01
 Coeff-Com:  0.100D+01
 Coeff-En:   0.100D+01
 Coeff:      0.100D+01
 Gap=     0.095 Goal=   None    Shift=    0.000
 GapD=    0.095 DampG=0.500 DampE=0.500 DampFc=0.2500 IDamp=-1.
 Damping current iteration by 2.50D-01
 RMSDP=6.57D-03 MaxDP=2.99D-01              OVMax= 2.22D-01

 Cycle   2  Pass 0  IDiag  1:
 RMSU=  1.59D-03    CP:  9.80D-01
 E= -1163.93516257463     Delta-E=       -0.210513281474 Rises=F Damp=T
 DIIS: error= 1.12D-02 at cycle   2 NSaved=   2.
 NSaved= 2 IEnMin= 2 EnMin= -1163.93516257463     IErMin= 2 ErrMin= 1.12D-02
 ErrMax= 1.12D-02  0.00D+00 EMaxC= 1.00D-01 BMatC= 1.37D-01 BMatP= 5.28D-01
 IDIUse=3 WtCom= 8.88D-01 WtEn= 1.12D-01
 Coeff-Com: -0.832D+00 0.183D+01
 Coeff-En:   0.000D+00 0.100D+01
 Coeff:     -0.739D+00 0.174D+01
 Gap=     0.148 Goal=   None    Shift=    0.000
 RMSDP=2.41D-03 MaxDP=6.40D-02 DE=-2.11D-01 OVMax= 1.78D-01

 Cycle   3  Pass 0  IDiag  1:
 RMSU=  1.72D-03    CP:  9.35D-01  1.90D+00
 E= -1164.26488567550     Delta-E=       -0.329723100874 Rises=F Damp=F
 DIIS: error= 1.29D-02 at cycle   3 NSaved=   3.
 NSaved= 3 IEnMin= 3 EnMin= -1164.26488567550     IErMin= 2 ErrMin= 1.12D-02
 ErrMax= 1.29D-02  0.00D+00 EMaxC= 1.00D-01 BMatC= 5.51D-02 BMatP= 1.37D-01
 IDIUse=3 WtCom= 8.71D-01 WtEn= 1.29D-01
 Coeff-Com: -0.524D+00 0.108D+01 0.443D+00
 Coeff-En:   0.000D+00 0.000D+00 0.100D+01
 Coeff:     -0.456D+00 0.942D+00 0.515D+00
 Gap=     0.116 Goal=   None    Shift=    0.000
 RMSDP=9.65D-04 MaxDP=4.96D-02 DE=-3.30D-01 OVMax= 7.89D-02

 Cycle   4  Pass 0  IDiag  1:
 RMSU=  8.07D-04    CP:  9.38D-01  1.89D+00  6.96D-01
 E= -1164.29925433133     Delta-E=       -0.034368655833 Rises=F Damp=F
 DIIS: error= 8.13D-03 at cycle   4 NSaved=   4.
 NSaved= 4 IEnMin= 4 EnMin= -1164.29925433133     IErMin= 4 ErrMin= 8.13D-03
 ErrMax= 8.13D-03  0.00D+00 EMaxC= 1.00D-01 BMatC= 2.01D-02 BMatP= 5.51D-02
 IDIUse=3 WtCom= 9.19D-01 WtEn= 8.13D-02
 Coeff-Com: -0.138D+00 0.289D+00 0.369D+00 0.480D+00
 Coeff-En:   0.000D+00 0.000D+00 0.306D+00 0.694D+00
 Coeff:     -0.127D+00 0.266D+00 0.364D+00 0.498D+00
 Gap=     0.111 Goal=   None    Shift=    0.000
 RMSDP=3.90D-04 MaxDP=2.55D-02 DE=-3.44D-02 OVMax= 3.59D-02

 Cycle   5  Pass 0  IDiag  1:
 RMSU=  2.23D-04    CP:  9.36D-01  1.91D+00  7.69D-01  6.42D-01
 E= -1164.31655922842     Delta-E=       -0.017304897087 Rises=F Damp=F
 DIIS: error= 1.99D-03 at cycle   5 NSaved=   5.
 NSaved= 5 IEnMin= 5 EnMin= -1164.31655922842     IErMin= 5 ErrMin= 1.99D-03
 ErrMax= 1.99D-03  0.00D+00 EMaxC= 1.00D-01 BMatC= 1.21D-03 BMatP= 2.01D-02
 IDIUse=3 WtCom= 9.80D-01 WtEn= 1.99D-02
 Coeff-Com: -0.383D-01 0.800D-01 0.186D+00 0.308D+00 0.464D+00
 Coeff-En:   0.000D+00 0.000D+00 0.000D+00 0.000D+00 0.100D+01
 Coeff:     -0.375D-01 0.784D-01 0.182D+00 0.302D+00 0.475D+00
 Gap=     0.111 Goal=   None    Shift=    0.000
 RMSDP=1.12D-04 MaxDP=7.90D-03 DE=-1.73D-02 OVMax= 1.24D-02

 Cycle   6  Pass 0  IDiag  1:
 RMSU=  8.51D-05    CP:  9.36D-01  1.89D+00  7.89D-01  6.46D-01  7.42D-01
 E= -1164.31749737777     Delta-E=       -0.000938149354 Rises=F Damp=F
 DIIS: error= 6.20D-04 at cycle   6 NSaved=   6.
 NSaved= 6 IEnMin= 6 EnMin= -1164.31749737777     IErMin= 6 ErrMin= 6.20D-04
 ErrMax= 6.20D-04  0.00D+00 EMaxC= 1.00D-01 BMatC= 1.72D-04 BMatP= 1.21D-03
 IDIUse=3 WtCom= 9.94D-01 WtEn= 6.20D-03
 Coeff-Com: -0.194D-02 0.360D-02 0.533D-01 0.106D+00 0.308D+00 0.531D+00
 Coeff-En:   0.000D+00 0.000D+00 0.000D+00 0.000D+00 0.145D+00 0.855D+00
 Coeff:     -0.193D-02 0.358D-02 0.530D-01 0.105D+00 0.307D+00 0.533D+00
 Gap=     0.109 Goal=   None    Shift=    0.000
 RMSDP=4.61D-05 MaxDP=1.90D-03 DE=-9.38D-04 OVMax= 3.27D-03

 Cycle   7  Pass 0  IDiag  1:
 RMSU=  2.71D-05    CP:  9.36D-01  1.90D+00  7.86D-01  6.50D-01  7.36D-01
                    CP:  6.00D-01
 E= -1164.31765108709     Delta-E=       -0.000153709317 Rises=F Damp=F
 DIIS: error= 1.65D-04 at cycle   7 NSaved=   7.
 NSaved= 7 IEnMin= 7 EnMin= -1164.31765108709     IErMin= 7 ErrMin= 1.65D-04
 ErrMax= 1.65D-04  0.00D+00 EMaxC= 1.00D-01 BMatC= 1.06D-05 BMatP= 1.72D-04
 IDIUse=3 WtCom= 9.98D-01 WtEn= 1.65D-03
 Coeff-Com:  0.920D-03-0.249D-02 0.179D-01 0.395D-01 0.145D+00 0.309D+00
 Coeff-Com:  0.491D+00
 Coeff-En:   0.000D+00 0.000D+00 0.000D+00 0.000D+00 0.000D+00 0.000D+00
 Coeff-En:   0.100D+01
 Coeff:      0.918D-03-0.249D-02 0.179D-01 0.394D-01 0.144D+00 0.308D+00
 Coeff:      0.492D+00
 Gap=     0.110 Goal=   None    Shift=    0.000
 RMSDP=1.23D-05 MaxDP=5.67D-04 DE=-1.54D-04 OVMax= 5.67D-04

 Cycle   8  Pass 0  IDiag  1:
 RMSU=  6.30D-06    CP:  9.36D-01  1.90D+00  7.87D-01  6.53D-01  7.43D-01
                    CP:  6.15D-01  6.36D-01
 E= -1164.31766263451     Delta-E=       -0.000011547420 Rises=F Damp=F
 DIIS: error= 4.57D-05 at cycle   8 NSaved=   8.
 NSaved= 8 IEnMin= 8 EnMin= -1164.31766263451     IErMin= 8 ErrMin= 4.57D-05
 ErrMax= 4.57D-05  0.00D+00 EMaxC= 1.00D-01 BMatC= 6.44D-07 BMatP= 1.06D-05
 IDIUse=1 WtCom= 1.00D+00 WtEn= 0.00D+00
 Coeff-Com:  0.632D-03-0.158D-02 0.424D-02 0.105D-01 0.469D-01 0.113D+00
 Coeff-Com:  0.256D+00 0.570D+00
 Coeff:      0.632D-03-0.158D-02 0.424D-02 0.105D-01 0.469D-01 0.113D+00
 Coeff:      0.256D+00 0.570D+00
 Gap=     0.110 Goal=   None    Shift=    0.000
 RMSDP=3.17D-06 MaxDP=1.52D-04 DE=-1.15D-05 OVMax= 1.46D-04

 Initial convergence to 1.0D-05 achieved.  Increase integral accuracy.
 Cycle   9  Pass 1  IDiag  1:
 E= -1164.31763145378     Delta-E=        0.000031180726 Rises=F Damp=F
 DIIS: error= 1.23D-04 at cycle   1 NSaved=   1.
 NSaved= 1 IEnMin= 1 EnMin= -1164.31763145378     IErMin= 1 ErrMin= 1.23D-04
 ErrMax= 1.23D-04  0.00D+00 EMaxC= 1.00D-01 BMatC= 5.12D-06 BMatP= 5.12D-06
 IDIUse=3 WtCom= 9.99D-01 WtEn= 1.23D-03
 Coeff-Com:  0.100D+01
 Coeff-En:   0.100D+01
 Coeff:      0.100D+01
 Gap=     0.110 Goal=   None    Shift=    0.000
 RMSDP=3.17D-06 MaxDP=1.52D-04 DE= 3.12D-05 OVMax= 3.80D-04

 Cycle  10  Pass 1  IDiag  1:
 RMSU=  1.41D-04    CP:  1.00D+00
 E= -1164.31763710171     Delta-E=       -0.000005647921 Rises=F Damp=F
 DIIS: error= 2.54D-05 at cycle   2 NSaved=   2.
 NSaved= 2 IEnMin= 2 EnMin= -1164.31763710171     IErMin= 2 ErrMin= 2.54D-05
 ErrMax= 2.54D-05  0.00D+00 EMaxC= 1.00D-01 BMatC= 1.71D-07 BMatP= 5.12D-06
 IDIUse=1 WtCom= 1.00D+00 WtEn= 0.00D+00
 Coeff-Com:  0.378D-01 0.962D+00
 Coeff:      0.378D-01 0.962D+00
 Gap=     0.110 Goal=   None    Shift=    0.000
 RMSDP=4.56D-06 MaxDP=1.57D-04 DE=-5.65D-06 OVMax= 3.54D-04

 Cycle  11  Pass 1  IDiag  1:
 RMSU=  4.04D-06    CP:  1.00D+00  1.01D+00
 E= -1164.31763665218     Delta-E=        0.000000449529 Rises=F Damp=F
 DIIS: error= 5.07D-05 at cycle   3 NSaved=   3.
 NSaved= 3 IEnMin= 2 EnMin= -1164.31763710171     IErMin= 2 ErrMin= 2.54D-05
 ErrMax= 5.07D-05  0.00D+00 EMaxC= 1.00D-01 BMatC= 6.64D-07 BMatP= 1.71D-07
 IDIUse=1 WtCom= 1.00D+00 WtEn= 0.00D+00
 Coeff-Com: -0.611D-02 0.668D+00 0.338D+00
 Coeff:     -0.611D-02 0.668D+00 0.338D+00
 Gap=     0.110 Goal=   None    Shift=    0.000
 RMSDP=2.71D-06 MaxDP=1.18D-04 DE= 4.50D-07 OVMax= 2.52D-04

 Cycle  12  Pass 1  IDiag  1:
 RMSU=  9.18D-07    CP:  1.00D+00  1.02D+00  3.73D-01
 E= -1164.31763725654     Delta-E=       -0.000000604361 Rises=F Damp=F
 DIIS: error= 2.89D-06 at cycle   4 NSaved=   4.
 NSaved= 4 IEnMin= 4 EnMin= -1164.31763725654     IErMin= 4 ErrMin= 2.89D-06
 ErrMax= 2.89D-06  0.00D+00 EMaxC= 1.00D-01 BMatC= 5.46D-09 BMatP= 1.71D-07
 IDIUse=1 WtCom= 1.00D+00 WtEn= 0.00D+00
 Coeff-Com: -0.429D-02 0.375D+00 0.198D+00 0.431D+00
 Coeff:     -0.429D-02 0.375D+00 0.198D+00 0.431D+00
 Gap=     0.110 Goal=   None    Shift=    0.000
 RMSDP=2.87D-07 MaxDP=9.77D-06 DE=-6.04D-07 OVMax= 1.79D-05

 Cycle  13  Pass 1  IDiag  1:
 RMSU=  2.33D-07    CP:  1.00D+00  1.02D+00  3.85D-01  8.28D-01
 E= -1164.31763726173     Delta-E=       -0.000000005192 Rises=F Damp=F
 DIIS: error= 6.42D-07 at cycle   5 NSaved=   5.
 NSaved= 5 IEnMin= 5 EnMin= -1164.31763726173     IErMin= 5 ErrMin= 6.42D-07
 ErrMax= 6.42D-07  0.00D+00 EMaxC= 1.00D-01 BMatC= 2.20D-10 BMatP= 5.46D-09
 IDIUse=1 WtCom= 1.00D+00 WtEn= 0.00D+00
 Coeff-Com: -0.205D-02 0.173D+00 0.920D-01 0.239D+00 0.498D+00
 Coeff:     -0.205D-02 0.173D+00 0.920D-01 0.239D+00 0.498D+00
 Gap=     0.110 Goal=   None    Shift=    0.000
 RMSDP=6.61D-08 MaxDP=1.85D-06 DE=-5.19D-09 OVMax= 6.12D-06

 Cycle  14  Pass 1  IDiag  1:
 RMSU=  6.09D-08    CP:  1.00D+00  1.02D+00  3.81D-01  8.38D-01  9.18D-01
 E= -1164.31763726195     Delta-E=       -0.000000000219 Rises=F Damp=F
 DIIS: error= 2.19D-07 at cycle   6 NSaved=   6.
 NSaved= 6 IEnMin= 6 EnMin= -1164.31763726195     IErMin= 6 ErrMin= 2.19D-07
 ErrMax= 2.19D-07  0.00D+00 EMaxC= 1.00D-01 BMatC= 2.18D-11 BMatP= 2.20D-10
 IDIUse=1 WtCom= 1.00D+00 WtEn= 0.00D+00
 Coeff-Com: -0.391D-03 0.308D-01 0.166D-01 0.561D-01 0.265D+00 0.632D+00
 Coeff:     -0.391D-03 0.308D-01 0.166D-01 0.561D-01 0.265D+00 0.632D+00
 Gap=     0.110 Goal=   None    Shift=    0.000
 RMSDP=2.45D-08 MaxDP=1.20D-06 DE=-2.19D-10 OVMax= 1.95D-06

 Cycle  15  Pass 1  IDiag  1:
 RMSU=  1.68D-08    CP:  1.00D+00  1.02D+00  3.82D-01  8.49D-01  9.52D-01
                    CP:  8.31D-01
 E= -1164.31763726196     Delta-E=       -0.000000000006 Rises=F Damp=F
 DIIS: error= 1.15D-07 at cycle   7 NSaved=   7.
 NSaved= 7 IEnMin= 7 EnMin= -1164.31763726196     IErMin= 7 ErrMin= 1.15D-07
 ErrMax= 1.15D-07  0.00D+00 EMaxC= 1.00D-01 BMatC= 4.82D-12 BMatP= 2.18D-11
 IDIUse=1 WtCom= 1.00D+00 WtEn= 0.00D+00
 Coeff-Com: -0.321D-04 0.137D-02 0.852D-03 0.999D-02 0.114D+00 0.399D+00
 Coeff-Com:  0.475D+00
 Coeff:     -0.321D-04 0.137D-02 0.852D-03 0.999D-02 0.114D+00 0.399D+00
 Coeff:      0.475D+00
 Gap=     0.110 Goal=   None    Shift=    0.000
 RMSDP=8.78D-09 MaxDP=4.46D-07 DE=-6.37D-12 OVMax= 7.42D-07

 SCF Done:  E(RB3LYP) =  -1164.31763726     A.U. after   15 cycles
            NFock= 15  Conv=0.88D-08     -V/T= 2.0090
 KE= 1.153907417161D+03 PE=-7.380066589931D+03 EE= 2.735686865262D+03
 Leave Link  502 at Mon Feb 26 04:32:36 2024, MaxMem=  7516192768 cpu:             729.8 elap:              18.3
 (Enter /public/apps/g16-C01//g16/l601.exe)
 Copying SCF densities to generalized density rwf, IOpCl= 0 IROHF=0.

 **********************************************************************

            Population analysis using the SCF Density.

 **********************************************************************

 Alpha  occ. eigenvalues --  -19.02574 -19.02259 -14.14297 -14.14070 -14.13810
 Alpha  occ. eigenvalues --  -10.12833 -10.12629 -10.11284 -10.11013 -10.10958
 Alpha  occ. eigenvalues --  -10.10904 -10.10800 -10.10772 -10.10245 -10.10229
 Alpha  occ. eigenvalues --  -10.09596 -10.09352 -10.08516 -10.08444 -10.08276
 Alpha  occ. eigenvalues --  -10.08255 -10.07874 -10.07723 -10.07412 -10.06776
 Alpha  occ. eigenvalues --  -10.04991 -10.03323  -0.94310  -0.93740  -0.77926
 Alpha  occ. eigenvalues --   -0.76241  -0.75596  -0.74713  -0.72118  -0.69424
 Alpha  occ. eigenvalues --   -0.67989  -0.66517  -0.65597  -0.63819  -0.63068
 Alpha  occ. eigenvalues --   -0.59661  -0.57871  -0.55915  -0.52873  -0.51214
 Alpha  occ. eigenvalues --   -0.50263  -0.49796  -0.48122  -0.46635  -0.45460
 Alpha  occ. eigenvalues --   -0.43919  -0.42634  -0.41243  -0.39447  -0.38434
 Alpha  occ. eigenvalues --   -0.38085  -0.37411  -0.37317  -0.36741  -0.36002
 Alpha  occ. eigenvalues --   -0.35027  -0.34872  -0.34042  -0.32916  -0.32193
 Alpha  occ. eigenvalues --   -0.31801  -0.31322  -0.30472  -0.29928  -0.29446
 Alpha  occ. eigenvalues --   -0.28333  -0.27911  -0.27081  -0.26858  -0.26347
 Alpha  occ. eigenvalues --   -0.26016  -0.25735  -0.25198  -0.23969  -0.23742
 Alpha  occ. eigenvalues --   -0.22729  -0.21470  -0.21084  -0.18833  -0.18673
 Alpha  occ. eigenvalues --   -0.18124  -0.16857  -0.16286  -0.15404  -0.14480
 Alpha  occ. eigenvalues --   -0.12706  -0.12167  -0.12041  -0.10849  -0.04090
 Alpha virt. eigenvalues --    0.06891   0.07322   0.09592   0.09720   0.13059
 Alpha virt. eigenvalues --    0.14453   0.15088   0.15746   0.16714   0.17257
 Alpha virt. eigenvalues --    0.18657   0.18913   0.19567   0.19756   0.20054
 Alpha virt. eigenvalues --    0.20454   0.20957   0.21719   0.22435   0.22703
 Alpha virt. eigenvalues --    0.23054   0.23977   0.24485   0.25198   0.25439
 Alpha virt. eigenvalues --    0.26138   0.26298   0.26699   0.26974   0.27647
 Alpha virt. eigenvalues --    0.29382   0.29728   0.31294   0.32547   0.33678
 Alpha virt. eigenvalues --    0.34029   0.34212   0.35136   0.36290   0.37061
 Alpha virt. eigenvalues --    0.37211   0.38201   0.38692   0.40261   0.40663
 Alpha virt. eigenvalues --    0.40980   0.41765   0.42286   0.42494   0.43406
 Alpha virt. eigenvalues --    0.44137   0.44782   0.46547   0.47633   0.48163
 Alpha virt. eigenvalues --    0.48749   0.49727   0.50155   0.51284   0.51949
 Alpha virt. eigenvalues --    0.52571   0.53600   0.53919   0.54473   0.54668
 Alpha virt. eigenvalues --    0.55014   0.55635   0.55805   0.56333   0.57434
 Alpha virt. eigenvalues --    0.57935   0.58113   0.58782   0.59301   0.60186
 Alpha virt. eigenvalues --    0.60967   0.61092   0.62039   0.62404   0.63223
 Alpha virt. eigenvalues --    0.63326   0.65034   0.65361   0.65921   0.66623
 Alpha virt. eigenvalues --    0.67125   0.67457   0.67774   0.68267   0.68755
 Alpha virt. eigenvalues --    0.68969   0.69818   0.71095   0.71709   0.72281
 Alpha virt. eigenvalues --    0.72818   0.73702   0.74346   0.74807   0.75038
 Alpha virt. eigenvalues --    0.75223   0.75827   0.76045   0.76658   0.76882
 Alpha virt. eigenvalues --    0.77096   0.77824   0.78065   0.78143   0.78778
 Alpha virt. eigenvalues --    0.79433   0.79723   0.80206   0.80455   0.80780
 Alpha virt. eigenvalues --    0.81253   0.81896   0.82154   0.82449   0.82494
 Alpha virt. eigenvalues --    0.82840   0.83289   0.83587   0.83856   0.84247
 Alpha virt. eigenvalues --    0.84769   0.85015   0.85186   0.85780   0.86677
 Alpha virt. eigenvalues --    0.87484   0.88352   0.88597   0.89307   0.90689
 Alpha virt. eigenvalues --    0.90986   0.91654   0.92078   0.93088   0.93828
 Alpha virt. eigenvalues --    0.94530   0.96872   0.97258   1.00095   1.00755
 Alpha virt. eigenvalues --    1.01237   1.01939   1.02567   1.03558   1.04309
 Alpha virt. eigenvalues --    1.04969   1.05260   1.07502   1.08622   1.09812
 Alpha virt. eigenvalues --    1.10941   1.12238   1.12466   1.15880   1.16534
 Alpha virt. eigenvalues --    1.18643   1.18946   1.20465   1.21329   1.22897
 Alpha virt. eigenvalues --    1.23104   1.23431   1.24641   1.26762   1.31591
 Alpha virt. eigenvalues --    1.31935   1.34346   1.35640   1.36400   1.37289
 Alpha virt. eigenvalues --    1.38223   1.38851   1.40950   1.41729   1.44083
 Alpha virt. eigenvalues --    1.45932   1.47434   1.50250   1.50955   1.52222
 Alpha virt. eigenvalues --    1.52939   1.53480   1.55742   1.56474   1.56559
 Alpha virt. eigenvalues --    1.58009   1.58651   1.59074   1.59314   1.60318
 Alpha virt. eigenvalues --    1.61060   1.63046   1.63158   1.66862   1.69228
 Alpha virt. eigenvalues --    1.69549   1.73510   1.76555   1.78736   1.79383
 Alpha virt. eigenvalues --    1.79789   1.82469   1.83405   1.84575   1.84966
 Alpha virt. eigenvalues --    1.85669   1.86070   1.86594   1.88237   1.88812
 Alpha virt. eigenvalues --    1.90154   1.91303   1.93354   1.94050   1.94881
 Alpha virt. eigenvalues --    1.95849   1.97047   1.97808   1.98313   1.99163
 Alpha virt. eigenvalues --    2.00295   2.00398   2.01254   2.03972   2.05137
 Alpha virt. eigenvalues --    2.05458   2.06756   2.07226   2.07970   2.08960
 Alpha virt. eigenvalues --    2.10938   2.12738   2.13722   2.15159   2.16290
 Alpha virt. eigenvalues --    2.17077   2.17770   2.17967   2.19233   2.20949
 Alpha virt. eigenvalues --    2.21209   2.21851   2.22303   2.24501   2.25112
 Alpha virt. eigenvalues --    2.26453   2.27388   2.29409   2.30760   2.33000
 Alpha virt. eigenvalues --    2.33782   2.34189   2.35132   2.36164   2.36820
 Alpha virt. eigenvalues --    2.36880   2.39393   2.39808   2.41986   2.43484
 Alpha virt. eigenvalues --    2.43836   2.44377   2.46303   2.46968   2.47347
 Alpha virt. eigenvalues --    2.48109   2.50004   2.53559   2.55137   2.57266
 Alpha virt. eigenvalues --    2.57492   2.59158   2.61972   2.63525   2.64978
 Alpha virt. eigenvalues --    2.65718   2.69678   2.71193   2.74285   2.75423
 Alpha virt. eigenvalues --    2.77716   2.78466   2.79231   2.80362   2.80879
 Alpha virt. eigenvalues --    2.82479   2.82953   2.84183   2.84552   2.85497
 Alpha virt. eigenvalues --    2.87933   2.88448   2.90719   2.91442   3.00073
 Alpha virt. eigenvalues --    3.01439   3.02298   3.04155   3.07136   3.08624
 Alpha virt. eigenvalues --    3.10226   3.11153   3.11524   3.14394   3.22651
 Alpha virt. eigenvalues --    3.23433   3.25662   3.29658   3.32342   3.39720
 Alpha virt. eigenvalues --    3.41732   3.47061   3.48583   3.51317   3.56537
 Alpha virt. eigenvalues --    3.67581   3.75428   3.84461
          Condensed to atoms (all electrons):
               1          2          3          4          5          6
     1  N    6.145543   0.894966  -0.027596  -0.006236  -0.003274   0.000109
     2  C    0.894966   5.056522   0.317931  -0.044538   0.003465   0.000068
     3  C   -0.027596   0.317931   6.007375   0.179278  -0.159983   0.027763
     4  C   -0.006236  -0.044538   0.179278   4.943691   0.640003  -0.067622
     5  N   -0.003274   0.003465  -0.159983   0.640003   6.548825   0.397769
     6  C    0.000109   0.000068   0.027763  -0.067622   0.397769   4.936488
     7  C   -0.000005  -0.000222   0.001048  -0.002037  -0.097782   0.317745
     8  C   -0.000000   0.000008  -0.000122  -0.000491   0.010301  -0.041872
     9  C    0.000000   0.000000   0.000002   0.000040   0.000061  -0.003404
    10  C    0.000000  -0.000000   0.000000   0.000001  -0.000000  -0.000137
    11  C    0.000000   0.000000  -0.000000  -0.000000   0.000000   0.000088
    12  C    0.000000  -0.000000   0.000000   0.000001  -0.000001   0.000378
    13  C    0.000000  -0.000000  -0.000000   0.000034   0.000048  -0.003785
    14  C   -0.000018  -0.000005  -0.001604  -0.116809  -0.057548   0.277545
    15  O   -0.000021   0.000999  -0.117167   0.392580  -0.091004  -0.076429
    16  C   -0.006409  -0.075412   0.221520   0.013088   0.006267  -0.000075
    17  N   -0.000039   0.004991  -0.159567  -0.003994   0.000151   0.000077
    18  C    0.000008   0.000937   0.025978  -0.001469   0.000004   0.000002
    19  C   -0.000001  -0.000247  -0.000296   0.000276  -0.000001  -0.000001
    20  C   -0.000002  -0.000202   0.000948  -0.000137  -0.000002   0.000001
    21  C    0.000000   0.000001  -0.000039  -0.000007   0.000000   0.000000
    22  C    0.000000   0.000014  -0.000034  -0.000001  -0.000000  -0.000000
    23  C    0.000000  -0.000009  -0.000022  -0.000005   0.000000   0.000001
    24  C   -0.000010  -0.000227   0.001212   0.000538   0.000012  -0.000014
    25  C   -0.000002  -0.000232   0.002108  -0.001834  -0.000077  -0.000125
    26  C   -0.000019  -0.000472   0.000675   0.000348   0.000003  -0.000000
    27  O   -0.003536   0.003047  -0.108110   0.002687  -0.000004   0.000001
    28  H    0.000001   0.000080  -0.000654   0.004307  -0.026094   0.342722
    29  H    0.000002  -0.000028  -0.001473   0.005773   0.004130   0.000096
    30  H   -0.000014   0.000096  -0.000529  -0.001199   0.013281  -0.013584
    31  H   -0.000000  -0.000000  -0.000003  -0.000040  -0.000032   0.000081
    32  H   -0.000000  -0.000000   0.000000  -0.000000  -0.000000  -0.000003
    33  H    0.000000   0.000000  -0.000000   0.000000   0.000000   0.000001
    34  H   -0.000000  -0.000000  -0.000000  -0.000000  -0.000000  -0.000007
    35  H    0.000000   0.000000   0.000000   0.000008  -0.000122  -0.000448
    36  H    0.000000  -0.000010   0.000993   0.009406  -0.000465   0.008161
    37  H    0.000000   0.000028   0.000565   0.009064   0.003514  -0.013372
    38  H    0.000001   0.000108  -0.000567   0.000009  -0.000000  -0.000000
    39  H   -0.000000   0.000001  -0.000255   0.000001  -0.000000  -0.000000
    40  H    0.000000   0.000004  -0.000007   0.000001   0.000000   0.000000
    41  H    0.000000   0.000001   0.000003   0.000000   0.000000   0.000000
    42  H    0.000000   0.000000   0.000000  -0.000000  -0.000000  -0.000000
    43  H    0.000000   0.000001  -0.000007  -0.000001   0.000000   0.000000
    44  H   -0.000000   0.000029   0.000366   0.000141  -0.000058   0.000008
    45  H   -0.000001  -0.000547  -0.009984   0.002503   0.000273   0.000625
    46  H    0.000015   0.000286  -0.000035  -0.000002  -0.000000  -0.000000
[...]
 0.00000475,-0.00002101,-0.00004746,-0.00007127,-0.00013766,-0.00012469
 ,-0.00011228,-0.00005154,-0.00002770,-0.00086845,-0.00017677,-0.000255
 22,0.00101116,0.00000318,0.00023988,0.34221352,0.00001069,0.00005865,-
 0.00002964,0.00003056,-0.00009459,0.00003861,0.00030848,0.00026971,0.0
 0015602,-0.00018861,-0.00046357,0.00021416,0.00006012,0.00006683,0.000
 00657,0.00001287,0.00001393,-0.00001260,0.00042400,-0.00031259,-0.0001
 1175,0.00003546,0.00016351,-0.00010644,-0.00015973,-0.00001244,0.00003
 042,0.00002088,-0.00001672,-0.00001407,-0.00002037,-0.00001361,0.00001
 494,-0.00000094,0.00000557,-0.00001588,-0.00004589,-0.00006527,0.00006
 272,0.00023550,-0.00001512,-0.00014218,-0.00009374,0.00046558,0.000125
 56,-0.00054755,0.00009624,-0.00059382,0.00019346,-0.00029788,0.0003329
 5,-0.00015693,0.00009590,-0.00010001,-0.00072466,0.00005458,0.00009573
 ,-0.00060671,0.00317933,-0.00588974,0.00024814,-0.00070305,-0.00025263
 ,0.00145890,0.00355880,-0.00458558,0.01361628,0.00509562,0.00250546,-0
 .02478091,-0.04661921,-0.01375720,-0.01743619,0.00218935,-0.00293822,-
 0.00007570,0.00003685,-0.00004382,0.00016805,-0.00000941,0.00008242,-0
 .00002332,0.00004787,0.00003007,-0.00010823,0.00015930,0.00013011,-0.0
 0007375,0.00002661,0.,0.00004824,0.00004820,0.00001518,-0.00001315,-0.
 00001677,0.00001449,-0.00000380,-0.00000429,0.00000487,-0.00000960,-0.
 00000469,0.00000454,0.00001621,-0.00000029,0.00000162,-0.00003819,0.00
 002453,0.00004274,0.00000442,-0.00001928,-0.00001680,0.00005103,-0.000
 03995,0.00002961,0.00001971,0.00003445,0.00003099,-0.00015214,-0.00028
 140,-0.00015135,-0.00004575,-0.00069557,0.00055594,0.00063928,0.000318
 30,-0.00007636,-0.00047140,-0.00235958,0.00240582,0.02823447,0.0381693
 8,0.00000726,0.00000213,-0.00006737,0.00001329,-0.00002879,0.00007099,
 0.00024360,0.00006904,-0.00006362,-0.00034146,-0.00040419,0.00041454,0
 .00014049,0.00008866,-0.00013489,0.00004070,-0.00005452,0.00006271,-0.
 00000042,0.00002307,-0.00009539,-0.00008532,-0.00003398,-0.00000319,0.
 00022612,-0.00009479,0.00000092,-0.00006107,0.00004565,-0.00003488,-0.
 00000848,-0.00000681,0.00000696,-0.00001326,-0.00000717,-0.00000027,0.
 00001688,0.00002158,-0.00000930,0.00011692,-0.00016849,-0.00005165,-0.
 00000425,0.00055233,-0.00009571,-0.00023821,0.00008277,-0.00010764,0.0
 0020349,0.00000684,0.00014518,-0.00015552,0.00019454,-0.00003035,-0.00
 104530,0.00021315,0.00027970,-0.00072173,-0.00605980,-0.00090041,0.000
 30215,-0.00030714,-0.00096954,0.00226078,-0.00456638,0.00006762,0.0199
 5308,0.00229715,0.00689344,-0.04399045,-0.01415806,-0.05925251,-0.0252
 7898,-0.00214125,0.00066261,0.00000864,0.00001186,-0.00005731,0.000115
 00,-0.00003159,-0.00000519,-0.00000619,0.00000187,-0.00002562,0.000023
 03,-0.00001431,0.00016862,-0.00006598,0.00003565,-0.00000528,-0.000020
 01,0.00007439,0.00001956,0.00001293,-0.00000016,0.00000531,-0.00001314
 ,-0.00000018,0.00000475,-0.00000855,0.00000271,0.00000060,-0.00001042,
 0.00000945,0.00000007,-0.00001313,0.00004550,0.00000747,0.00004070,0.0
 0003371,-0.00005389,0.00002997,-0.00005042,0.00000971,0.00004401,0.000
 02056,-0.00004755,-0.00017130,-0.00014937,-0.00029812,-0.00006781,0.00
 053969,-0.00030335,0.00098572,-0.00006149,0.00024676,-0.00064796,0.002
 39514,-0.00055950,0.04777377,0.01908137,0.05489314,-0.00002050,-0.0000
 2021,-0.00001080,-0.00015064,0.00007344,0.00009491,-0.00141714,-0.0003
 2906,-0.00010616,0.00188453,0.00230412,-0.00302825,-0.00012384,-0.0004
 5016,0.00089798,0.00004780,-0.00011502,-0.00028509,-0.00004912,-0.0000
 0386,0.00005789,-0.00003505,-0.00006265,0.00003821,-0.00001127,0.00005
 383,0.00000193,0.00000880,-0.00002758,0.00002588,0.00001464,0.00001123
 ,-0.00000813,-0.00000090,0.00000189,0.00000396,0.00001003,0.00002895,-
 0.00000721,-0.00142117,-0.00010284,0.00062222,-0.00106379,-0.00084524,
 0.00173695,0.00172381,-0.00048450,0.00291919,-0.00040000,0.00213929,-0
 .00135017,-0.00065266,-0.00049535,-0.00019630,0.00089588,0.00038164,0.
 00118993,-0.01501207,0.01331358,0.01768601,-0.00424777,-0.00123611,-0.
 00190964,-0.00022009,-0.00055939,-0.00082453,-0.00007096,-0.00111907,-
 0.00235313,0.01183829,-0.00567883,-0.00891550,-0.18714952,0.08381156,0
 .11495654,-0.00017784,-0.00000278,-0.00002549,0.00012094,-0.00013338,-
 0.00059561,0.00007124,-0.00003082,0.00011024,0.00000955,-0.00001799,-0
 .00005813,0.00003746,-0.00000086,0.00002330,0.00001119,-0.00004522,-0.
 00001325,-0.00000031,0.00000981,-0.00001024,0.00001103,0.00000546,-0.0
 0000657,0.00001229,-0.00000049,-0.00000286,-0.00000887,-0.00000406,-0.
 00000527,0.00021533,-0.00009065,-0.00013229,0.00002627,-0.00001466,0.0
 0001131,-0.00000748,-0.00000116,0.00002676,-0.00023932,-0.00016394,-0.
 00066293,0.00031878,0.00029554,-0.00003936,-0.00081703,0.00055262,0.00
 082956,0.00006112,-0.00000655,0.00007764,0.00044122,-0.00042816,-0.000
 59076,0.00066052,-0.00010732,0.00039538,0.19483316,0.00002415,0.000130
 98,-0.00035397,-0.00003891,-0.00009472,0.00046833,-0.00049227,0.000669
 90,-0.00027471,0.00067875,-0.00142226,0.00121739,-0.00081242,0.0001884
 5,-0.00040306,-0.00000256,0.00031089,0.00001711,-0.00015325,-0.0000634
 9,0.00000028,0.00015125,0.00004321,-0.00012584,-0.00013435,-0.00000760
 ,0.00003124,0.00004372,0.00000113,0.00000167,-0.00002443,-0.00001995,0
 .00001237,0.00003099,0.00000819,-0.00000405,-0.00004620,-0.00001616,0.
 00001677,0.00080430,0.00070730,-0.00061557,0.00050941,-0.00098578,-0.0
 0028251,-0.00051299,-0.00263167,0.00089503,0.00033868,-0.00171292,0.00
 022271,-0.00142554,0.00072664,-0.00090014,0.00005348,-0.00255075,0.001
 10910,-0.00389536,0.00629690,0.00413641,-0.00173189,0.00388155,-0.0030
 1665,-0.00031837,-0.00043787,0.00034855,-0.00151054,0.00362434,-0.0044
 5230,0.01052889,-0.00300721,-0.00886603,0.08808585,-0.10087415,-0.0874
 6587,0.00001536,-0.00006194,-0.00017130,0.00069733,-0.00002164,-0.0003
 9578,-0.00011844,-0.00001838,-0.00006875,0.00002676,-0.00001284,-0.000
 00273,0.00001341,-0.00001123,0.00000061,0.00000437,-0.00000568,-0.0000
 2237,-0.00001078,-0.00002149,0.00000859,0.00000128,-0.00000448,0.00000
 179,-0.00000242,-0.00000134,0.00000283,0.00002065,-0.00000824,0.000004
 78,-0.00019453,0.00001136,0.00010463,-0.00019989,-0.00008393,0.0000849
 1,0.00010465,-0.00026131,0.00002111,-0.00024134,0.00034709,0.00044153,
 0.00010645,-0.00011351,0.00012818,-0.00053473,0.00023052,0.00024056,0.
 00002040,-0.00062376,0.00047682,0.00038037,-0.00000527,-0.00031690,0.0
 0007287,-0.00212145,0.00249520,-0.09045755,0.09997022,0.00000158,-0.00
 006343,0.00004602,-0.00005852,0.00011031,-0.00003890,-0.00039455,-0.00
 042983,-0.00030121,-0.00040544,0.00117472,-0.00044461,-0.00001603,-0.0
 0005586,-0.00000299,-0.00002084,-0.00000507,-0.00002141,-0.00005937,0.
 00006750,0.00002450,-0.00000798,-0.00004928,0.00002051,-0.00002073,0.0
 0002581,-0.00001395,0.00000451,-0.00001744,0.00000443,0.00001204,0.000
 00704,-0.00000786,0.00000220,-0.00000138,0.,0.00001329,0.00001610,-0.0
 0000986,-0.00032979,-0.00030694,0.00016566,0.00137278,-0.00110179,-0.0
 0051541,0.00089860,0.00009006,0.00110677,-0.00079043,-0.00031834,-0.00
 078993,0.00043527,-0.00014185,0.00045133,-0.00056257,0.00239194,-0.000
 18016,-0.00531774,0.00179336,0.00752790,-0.00154378,-0.00326015,0.0028
 8440,-0.00091543,0.00045197,-0.00011402,-0.00245968,-0.00559265,-0.000
 07963,0.01660987,-0.01058126,-0.00900573,0.11287931,-0.08299639,-0.154
 99635,0.00004386,0.00000341,-0.00006321,0.00015700,0.00010083,-0.00035
 506,0.00003310,-0.00000320,0.00001810,0.00001020,-0.00004346,-0.000031
 51,0.00002697,-0.00001360,-0.00000443,-0.00000088,-0.00001814,0.000008
 48,0.00000089,0.00000910,-0.00000198,0.00000614,0.00000332,-0.00000134
 ,0.00000649,0.00000096,-0.00000075,-0.00000344,-0.00000102,-0.00000004
 ,0.00016240,-0.00000599,-0.00010480,0.00000628,0.00013400,0.00003822,-
 0.00006120,0.00014984,-0.00002448,0.00015261,0.00013078,-0.00042998,0.
 00013264,0.00001016,-0.00016698,-0.00039833,0.00013738,0.00035820,0.00
 005222,0.00055193,-0.00039078,0.00073820,-0.00043525,-0.00055064,0.000
 09553,0.00281922,-0.00078963,-0.12052628,0.09527508,0.15686540,-0.0000
 0509,0.00009004,-0.00029724,0.00009143,-0.00005578,0.00050864,-0.00162
 611,-0.00072233,0.00067604,0.00085968,0.00029433,-0.00068923,-0.000694
 17,-0.00015640,0.00004123,0.00013986,0.00022616,-0.00006069,-0.0000898
 4,-0.00008916,0.00001785,0.00007583,0.00001996,-0.00008067,-0.00004338
 ,-0.00002209,0.00001921,0.00002124,0.00000766,-0.00000476,-0.00002048,
 -0.00001023,0.00000608,0.00001361,0.00000368,-0.00000008,-0.00002972,-
 0.00000546,0.00001130,0.00011240,0.00004240,-0.00004736,-0.00020515,-0
 .00027321,0.00018071,0.00099964,0.00421099,-0.00417339,-0.00119093,-0.
 00019821,0.00095278,-0.00350381,0.00532246,0.00471612,0.00051491,0.000
 94850,-0.00040298,0.00005663,-0.00000079,0.00003202,-0.00007554,0.0002
 5204,-0.00004376,-0.00002792,-0.00007125,-0.00038066,0.00012345,-0.000
 05498,-0.00000548,0.00006329,0.00009447,0.00009823,-0.00033222,0.00006
 540,-0.00004893,-0.14370014,0.09431582,0.07441080,-0.03119486,0.014177
 69,0.00519766,-0.00007597,-0.00003102,0.00002239,0.00000928,0.00000171
 ,0.00000793,0.00000378,0.00001338,0.00000880,0.00000175,0.00000580,0.0
 0000158,-0.00000166,-0.00000928,0.00000543,-0.00000352,-0.00000365,0.0
 0000308,-0.00000589,0.00000038,0.00000190,0.00000910,-0.00000197,0.000
 00062,-0.00003579,0.00000355,0.00001395,-0.00001482,-0.00003517,0.0000
 3111,-0.00061640,-0.00057218,0.00118903,0.00015125,0.00019216,-0.00019
 598,0.00036703,-0.00055522,0.00016731,0.00027134,-0.00000567,0.0000616
 5,-0.00001340,-0.00001712,0.00002249,0.00002904,0.00001575,0.00002179,
 0.00004244,0.00003032,0.00001359,0.00002366,0.00009448,0.00002570,0.16
 867040,-0.00000123,-0.00000973,0.00006331,-0.00007850,0.00005094,-0.00
 009900,0.00043169,-0.00006335,-0.00019807,-0.00022424,-0.00000738,0.00
 018335,0.00014437,0.00002012,-0.00000757,-0.00004357,-0.00004353,0.000
 01780,0.00000751,0.00002816,-0.00000130,-0.00001263,-0.00000901,0.0000
 1796,-0.00000057,0.00000927,-0.00000555,-0.00000261,-0.00000438,0.0000
 0226,0.00000541,0.00000192,-0.00000103,-0.00000172,-0.00000038,0.00000
 012,0.00000716,0.00000304,-0.00000340,-0.00001533,-0.00000528,-0.00001
 218,0.00000114,0.00000366,-0.00005583,-0.00306210,-0.00167291,0.002953
 19,-0.00276844,-0.00031535,0.00079398,-0.00855820,0.00968974,0.0042446
 6,-0.00016626,0.00015707,0.00015955,-0.00034909,-0.00035034,0.00074841
 ,0.00023976,-0.00035694,-0.00008956,-0.00016575,-0.00018157,-0.0002277
 7,0.00025086,0.00002343,0.00002793,-0.00007874,0.00007037,0.00013282,-
 0.00008344,0.00002046,-0.00011973,0.10118646,-0.15374181,-0.07769146,0
 .00733254,0.00410806,0.00272875,0.00001383,0.00000390,-0.00000809,0.00
 000047,-0.00000353,-0.00000345,0.00000228,-0.00000447,-0.00000208,0.00
 000035,-0.00000310,0.00000052,-0.00000098,0.00000167,-0.00000095,0.000
 00236,0.00000157,-0.00000147,0.00000325,-0.00000050,-0.00000065,-0.000
 00173,-0.00000064,0.00000015,0.00001082,-0.00000163,-0.00000209,-0.000
 00374,0.00000439,-0.00000312,-0.00006952,0.00004506,0.00115756,-0.0000
 1453,0.00017703,-0.00015194,-0.00014939,0.00022768,-0.00000769,-0.0001
 5783,-0.00041907,0.00006469,-0.00002565,0.00005532,0.00002500,0.000011
 54,0.00001104,0.00001182,0.00001110,-0.00000543,0.00001558,0.00000007,
 0.00003144,-0.00000246,-0.11013166,0.15898275,-0.00000719,-0.00003651,
 0.00009288,0.00011730,0.00002416,-0.00004506,-0.00022517,-0.00063310,0
 .00086631,-0.00037442,-0.00003478,-0.00029434,0.00011062,-0.00002521,0
 .00005427,-0.00005494,-0.00003312,0.00002825,0.00002973,0.00002477,-0.
 00000434,-0.00002267,-0.00000549,0.00002256,0.00001412,0.00000661,-0.0
 0000517,-0.00000708,-0.00000246,0.00000209,0.00000618,0.00000270,-0.00
 000143,-0.00000411,-0.00000058,-0.00000025,0.00000841,0.00000069,-0.00
 000240,-0.00007165,-0.00002343,0.00005640,0.00016633,0.00009357,0.0000
 1233,0.00001185,0.00390307,-0.00665333,0.00359031,0.00037049,-0.000551
 22,0.01358413,-0.01504975,-0.00735745,0.00058177,-0.00136732,0.0012396
 3,-0.00018828,0.00039017,0.00032955,0.00037747,0.00001781,0.00004861,-
 0.00007838,-0.00000416,0.00012758,-0.00008179,-0.00000514,-0.00001381,
 -0.00004718,-0.00004154,-0.00007258,0.00011560,-0.00007169,0.00002267,
 0.08239026,-0.08027408,-0.10568273,-0.02563388,0.01438278,0.01069772,0
 .00001628,-0.00000233,0.00000855,-0.00000291,0.00000061,-0.00000306,-0
 .00000039,-0.00000158,-0.00000144,-0.00000042,-0.00000195,-0.00000095,
 0.00000065,0.00000284,-0.00000185,0.00000088,0.00000087,-0.00000092,0.
 00000119,-0.00000020,-0.00000064,-0.00000255,0.00000086,-0.00000037,0.
 00000087,-0.00000115,-0.00000264,0.00000848,0.00001142,-0.00000703,0.0
 0102311,0.00081309,-0.00209459,-0.00030498,-0.00030214,0.00010413,-0.0
 0047380,0.00034725,-0.00031967,-0.00022571,0.00013307,0.00001661,0.000
 00687,-0.00001445,-0.00000691,-0.00001759,-0.00000532,-0.00001297,-0.0
 0001795,-0.00001222,-0.00001261,-0.00000245,-0.00005270,-0.00004773,-0
 .07727852,0.07933381,0.10946085,0.00003287,0.00025053,-0.00029471,0.00
 010949,-0.00044807,0.00052325,-0.00207364,0.00020689,0.00047698,0.0009
 8816,0.00075473,-0.00037035,-0.00074925,-0.00008996,0.00004108,0.00018
 864,0.00012348,-0.00016414,-0.00008747,-0.00011779,0.00003081,0.000068
 27,0.00002368,-0.00008465,-0.00002668,-0.00002921,0.00002357,0.0000185
 2,0.00001219,-0.00000461,-0.00002226,-0.00000931,0.00000662,0.00001107
 ,0.00000423,0.00000121,-0.00002986,-0.00000920,0.00001502,0.00012353,0
 .00002948,-0.00005061,-0.00019341,-0.00021592,0.00022318,0.00440551,-0
 .00078740,-0.00685776,0.00019729,0.00047999,0.00212175,-0.00186769,-0.
 01115665,-0.00170353,-0.00083336,0.00030771,0.00152295,0.00010632,0.00
 045393,0.00009239,-0.00001263,0.00006794,-0.00007919,-0.00002169,-0.00
 002025,-0.00014968,0.00007891,-0.00003601,-0.00003341,0.00004398,0.000
 08612,0.00011426,-0.00022644,-0.00004760,-0.00010257,-0.08795717,-0.08
 444656,-0.00723788,-0.02853241,-0.02192038,-0.01250527,-0.00006603,-0.
 00001242,0.00001863,0.00000363,0.00000882,0.00001041,-0.00000001,0.000
 01557,0.00001067,0.00000008,0.00000747,-0.00000124,0.00000024,-0.00000
 834,0.00000376,-0.00000570,-0.00000502,0.00000327,-0.00000952,0.000000
 30,0.00000150,0.00000768,-0.00000015,-0.00000207,-0.00004640,0.0000106
 6,0.00002552,-0.00000760,-0.00002614,0.00002670,0.00117307,0.00075441,
 -0.00024320,0.00009583,-0.00047055,0.00002631,0.00016775,-0.00010179,0
 .00002820,0.00013383,-0.00007316,0.00004583,0.00000546,-0.00001808,-0.
 00000308,0.00001057,-0.00000520,0.00000312,0.00001162,0.00001750,0.000
 00146,0.00001981,0.00005092,0.00001335,0.01085579,0.01650449,0.0029616
 3,0.10391128,-0.00000325,0.00012643,-0.00012723,0.00007602,-0.00008574
 ,0.00020907,-0.00024446,-0.00030150,-0.00009741,0.00032233,-0.00007236
 ,-0.00003580,-0.00024416,0.00002850,-0.00000999,0.00006188,0.00006418,
 -0.00001965,-0.00000289,-0.00004831,-0.00000034,0.00002140,0.00002267,
 -0.00003102,0.00000824,-0.00002000,0.00001063,0.00000382,0.00000975,-0
 .00000483,-0.00001091,-0.00000224,0.00000221,0.00000229,0.00000037,0.0
 0000064,-0.00001244,-0.00000813,0.00000775,0.00008861,0.00000637,-0.00
 005618,-0.00015031,0.00002089,0.00000056,0.00181707,0.00010868,0.00018
 385,-0.00095705,-0.00039330,-0.00000850,-0.00144602,-0.00821123,-0.002
 50115,-0.00148023,0.00027697,0.00209551,0.00018362,0.00034779,0.000445
 27,-0.00008532,-0.00003225,0.00002356,-0.00000224,0.00000937,0.0001247
 3,-0.00004007,-0.00001329,-0.00002010,0.00000664,-0.00003102,0.0000106
 5,0.00006662,-0.00004664,-0.00005593,-0.08969905,-0.25583401,-0.031704
 49,-0.00125584,0.01601465,-0.00191990,-0.00003745,-0.00000334,0.000009
 61,-0.00000415,0.00000997,0.00000785,-0.00000559,0.00000598,0.00000161
 ,-0.00000256,0.00000744,-0.00000108,0.00000278,-0.00000222,0.00000092,
 -0.00000549,-0.00000392,0.00000282,-0.00000851,0.00000074,0.00000085,0
 .00000316,0.00000212,-0.00000165,-0.00002334,0.00001050,0.00001830,0.0
 0000329,-0.00000594,0.00000872,0.00061275,0.00133134,0.00080727,-0.000
 02891,-0.00081890,0.00023076,0.00006346,0.00008763,-0.00010328,-0.0000
 9457,0.00008895,-0.00001591,0.00001782,-0.00001780,-0.00003808,-0.0000
 1662,-0.00001760,-0.00003081,-0.00003064,-0.00000693,-0.00002072,0.000
 05246,0.00002090,-0.00001004,-0.00740630,-0.01652777,-0.00185825,0.099
 88411,0.26390227,0.00004252,0.00014849,-0.00022667,0.00007280,-0.00026
 891,0.00047412,-0.00164868,0.00011496,0.00039388,0.00077071,0.00063300
 ,-0.00034385,-0.00054897,-0.00009031,0.00004037,0.00015365,0.00010543,
 -0.00013479,-0.00006897,-0.00009363,0.00002728,0.00005377,0.00001762,-
 0.00006546,-0.00002381,-0.00002156,0.00001908,0.00001491,0.00000934,-0
 .00000271,-0.00001717,-0.00000757,0.00000548,0.00000891,0.00000323,0.0
 0000109,-0.00002345,-0.00000595,0.00001125,0.00009058,0.00002269,-0.00
 002133,-0.00011149,-0.00020897,0.00022530,0.00455784,-0.00113454,-0.00
 679413,0.00138508,-0.00048934,0.00122229,0.00828375,0.02444970,0.00400
 202,0.00288554,0.00110833,-0.00290865,-0.00029088,-0.00051759,-0.00065
 790,0.00004894,-0.00008063,0.00013787,0.00003078,0.00001626,0.00012257
 ,-0.00007033,0.00007816,0.00009099,0.00000255,-0.00008402,-0.00011062,
 0.00016206,0.00004261,0.00020968,-0.00759006,-0.03071385,-0.05241573,-
 0.02432200,-0.01529963,-0.00345129,-0.00004971,-0.00001038,0.00001636,
 0.00000295,0.00000584,0.00000612,0.00000138,0.00001220,0.00000981,0.00
 000105,0.00000492,-0.00000253,-0.00000049,-0.00000748,0.00000285,-0.00
 000401,-0.00000362,0.00000214,-0.00000627,0.00000013,0.00000118,0.0000
 0612,-0.00000088,-0.00000125,-0.00003283,0.00000749,0.00001533,-0.0000
 0716,-0.00002365,0.00001821,-0.00016794,0.00061956,0.00127779,-0.00015
 175,0.00119141,-0.00049535,-0.00008947,-0.00013059,0.00000474,-0.00008
 395,0.00004926,-0.00004811,0.00000388,0.00001558,0.00001024,-0.0000058
 1,0.00000863,-0.00000356,0.00001757,0.00001819,0.00001411,-0.00003936,
 0.00002766,-0.00003453,-0.00475730,-0.01398680,0.00000651,0.02151450,0
 .03446920,0.05934981\\-0.00000121,-0.00000633,0.00001141,-0.00000022,0
 .00000154,-0.00001205,0.00001510,-0.00000051,0.00000584,-0.00000764,0.
 00000054,-0.00000068,0.00000560,0.00000283,0.00000122,-0.00000256,-0.0
 0000971,0.00000272,0.00000210,0.00000377,0.00000438,-0.00000297,0.0000
 0078,0.00000030,0.00000109,-0.00000020,0.00000190,-0.00000050,0.000000
 41,0.00000056,0.00000006,0.00000105,0.00000022,-0.00000054,-0.00000070
 ,0.00000089,0.00000019,-0.00000045,-0.00000156,-0.00001050,0.00000058,
 -0.00000060,0.00000612,0.00000067,-0.00000335,-0.00002009,-0.00000104,
 -0.00000741,0.00000741,-0.00000241,0.00000340,-0.00000273,0.00000655,-
 0.00000338,0.00000164,-0.00000423,-0.00000684,-0.00000600,0.00000396,0
 .00000623,0.00000115,-0.00000341,-0.00000257,-0.00000008,0.00000004,0.
 00000164,-0.00000023,-0.00000072,-0.00000017,0.00000212,0.00000083,0.0
 0000015,0.00000025,-0.00000208,-0.00000268,0.00000261,-0.00000301,0.00
 000465,0.00000827,0.00000441,-0.00000243,0.00000225,0.00000050,-0.0000
 0180,-0.00000139,-0.00000003,-0.00000255,0.00000090,-0.00000095,0.0000
 0090,-0.00000311,0.00000044,0.00000003,-0.00000082,0.00000282,-0.00000
 045,0.00000164,0.00000214,-0.00000054,0.00000268,-0.00000049,0.0000002
 3,0.00000109,-0.00000251,0.00000113,0.00000184,-0.00000122,-0.00000132
 ,0.00000057,0.00000371,0.00000062,-0.00000233,0.00000070,-0.00000166,0
 .00000090,-0.00000136,-0.00000116,-0.00000133,0.00000019,0.00000188,-0
 .00000298,-0.00000009,-0.00000028,-0.00000157,0.00000090,0.00000238,0.
 00000011,0.00000081,0.00000328,0.00000244,-0.00000043,0.00000027,0.000
 00162,0.00000064,0.00000010,-0.00000141,0.00000175,0.00000054,0.000000
 45,-0.00000065,-0.00000338\\\@
 The archive entry for this job was punched.


 A SLIP OF THE FOOT YOU MAY SOON RECOVER, BUT A SLIP OF THE TONGUE
 YOU MAY NEVER GET OVER. -- BEN FRANKLIN
 Job cpu time:       0 days  2 hours 42 minutes  4.9 seconds.
 Elapsed time:       0 days  0 hours  4 minutes  4.3 seconds.
 File lengths (MBytes):  RWF=    990 Int=      0 D2E=      0 Chk=     17 Scr=      1
 Normal termination of Gaussian 16 at Mon Feb 26 04:42:54 2024.
