 Entering Gaussian System, Link 0=g16
 Initial command:
 /public/apps/g16-C01//g16/l1.exe "/public/home/ljq/tmp/Gau-115710.inp" -scrdir="/public/home/ljq/tmp/"
 Entering Link 1 = /public/apps/g16-C01//g16/l1.exe PID=    115711.
  
 Copyright (c) 1988-2019, Gaussian, Inc.  All Rights Reserved.
  
 This is part of the Gaussian(R) 16 program.  It is based on
 the Gaussian(R) 09 system (copyright 2009, Gaussian, Inc.),
 the Gaussian(R) 03 system (copyright 2003, Gaussian, Inc.),
 the Gaussian(R) 98 system (copyright 1998, Gaussian, Inc.),
 the Gaussian(R) 94 system (copyright 1995, Gaussian, Inc.),
 the Gaussian 92(TM) system (copyright 1992, Gaussian, Inc.),
 the Gaussian 90(TM) system (copyright 1990, Gaussian, Inc.),
 the Gaussian 88(TM) system (copyright 1988, Gaussian, Inc.),
 the Gaussian 86(TM) system (copyright 1986, Carnegie Mellon
 University), and the Gaussian 82(TM) system (copyright 1983,
 Carnegie Mellon University). Gaussian is a federally registered
 trademark of Gaussian, Inc.
  
 This software contains proprietary and confidential information,
 including trade secrets, belonging to Gaussian, Inc.
  
 This software is provided under written license and may be
 used, copied, transmitted, or stored only in accord with that
 written license.
  
 The following legend is applicable only to US Government
 contracts under FAR:
  
                    RESTRICTED RIGHTS LEGEND
  
 Use, reproduction and disclosure by the US Government is
 subject to restrictions as set forth in subparagraphs (a)
 and (c) of the Commercial Computer Software - Restricted
 Rights clause in FAR 52.227-19.
  
 Gaussian, Inc.
 340 Quinnipiac St., Bldg. 40, Wallingford CT 06492
  
  
 ---------------------------------------------------------------
 Warning -- This program may not be used in any manner that
 competes with the business of Gaussian, Inc. or will provide
 assistance to any competitor of Gaussian, Inc.  The licensee
 of this program is prohibited from giving any competitor of
 Gaussian, Inc. access to this program.  By using this program,
 the user acknowledges that Gaussian, Inc. is engaged in the
 business of creating and licensing software in the field of
 computational chemistry and represents and warrants to the
 licensee that it is not a competitor of Gaussian, Inc. and that
 it will not use this program in any manner prohibited above.
 ---------------------------------------------------------------
  

 Cite this work as:
 Gaussian 16, Revision C.01,
 M. J. Frisch, G. W. Trucks, H. B. Schlegel, G. E. Scuseria, 
 M. A. Robb, J. R. Cheeseman, G. Scalmani, V. Barone, 
 G. A. Petersson, H. Nakatsuji, X. Li, M. Caricato, A. V. Marenich, 
 J. Bloino, B. G. Janesko, R. Gomperts, B. Mennucci, H. P. Hratchian, 
 J. V. Ortiz, A. F. Izmaylov, J. L. Sonnenberg, D. Williams-Young, 
 F. Ding, F. Lipparini, F. Egidi, J. Goings, B. Peng, A. Petrone, 
 T. Henderson, D. Ranasinghe, V. G. Zakrzewski, J. Gao, N. Rega, 
 G. Zheng, W. Liang, M. Hada, M. Ehara, K. Toyota, R. Fukuda, 
 J. Hasegawa, M. Ishida, T. Nakajima, Y. Honda, O. Kitao, H. Nakai, 
 T. Vreven, K. Throssell, J. A. Montgomery, Jr., J. E. Peralta, 
 F. Ogliaro, M. J. Bearpark, J. J. Heyd, E. N. Brothers, K. N. Kudin, 
 V. N. Staroverov, T. A. Keith, R. Kobayashi, J. Normand, 
 K. Raghavachari, A. P. Rendell, J. C. Burant, S. S. Iyengar, 
 J. Tomasi, M. Cossi, J. M. Millam, M. Klene, C. Adamo, R. Cammi, 
 J. W. Ochterski, R. L. Martin, K. Morokuma, O. Farkas, 
 J. B. Foresman, and D. J. Fox, Gaussian, Inc., Wallingford CT, 2019.
 
 ******************************************
 Gaussian 16:  ES64L-G16RevC.01  3-Jul-2019
                25-Feb-2024 
 ******************************************
 %nproc=40
 Will use up to   40 processors via shared memory.
 %mem=56GB
 ------------------------------------------
 #p opt freq b3lyp/def2svpp em=gd3bj nosymm
 ------------------------------------------
 1/18=20,19=15,26=3,38=1/1,3;
 2/9=110,12=2,15=1,17=6,18=5,40=1/2;
 3/5=43,7=202,11=2,25=1,30=1,71=1,74=-5,124=41/1,2,3;
 4//1;
 5/5=2,38=5/2;
 6/7=2,8=2,9=2,10=2,28=1/1;
 7/30=1/1,2,3,16;
 1/18=20,19=15,26=3/3(2);
 2/9=110,15=1/2;
 99//99;
 2/9=110,15=1/2;
 3/5=43,7=202,11=2,25=1,30=1,71=1,74=-5,124=41/1,2,3;
 4/5=5,16=3,69=1/1;
 5/5=2,38=5/2;
 7/30=1/1,2,3,16;
 1/18=20,19=15,26=3/3(-5);
 2/9=110,15=1/2;
 6/7=2,8=2,9=2,10=2,19=2,28=1/1;
 99/9=1/99;
 Leave Link    1 at Sun Feb 25 23:50:02 2024, MaxMem=  7516192768 cpu:               1.7 elap:               0.0
 (Enter /public/apps/g16-C01//g16/l101.exe)
 ----------------------
 $$$$Singlemol####0????
 ----------------------
 Symbolic Z-matrix:
 Charge =  0 Multiplicity = 1
 C                     7.16208  -0.07847   3.17503 
 C                     7.61676  -0.40175   1.90715 
 C                     6.81392  -0.17583   0.80428 
 C                     5.54694   0.37366   0.95834 
 C                     4.66961   0.56258  -0.25139 
 N                     3.61118   1.51523  -0.03973 
 C                     2.48507   0.92727  -0.17945 
 C                     1.20863   1.62296  -0.03873 
 C                     1.20792   3.01637   0.01594 
 C                     0.01683   3.70738   0.13922 
 C                    -1.18107   3.02114   0.21519 
 C                    -1.19436   1.62747   0.17651 
 C                    -2.47696   0.93421   0.26197 
 N                    -3.5968    1.53266   0.11815 
 C                    -4.66345   0.57656   0.26232 
 C                    -5.5069    0.44     -0.97837 
 C                    -5.03069   0.836    -2.21951 
 C                    -5.80701   0.66412  -3.35225 
 C                    -7.06154   0.0879   -3.2556 
 C                    -7.54035  -0.31329  -2.01921 
 C                    -6.76768  -0.13715  -0.88619 
 C                    -3.95527  -0.78956   0.60761 
 C                    -4.30412  -1.26948   1.98671 
 C                    -3.79762  -0.6201    3.10719 
 C                    -4.1449   -1.04166   4.37769 
 C                    -5.00735  -2.11219   4.54319 
 C                    -5.52216  -2.75866   3.43215 
 C                    -5.17108  -2.34068   2.16116 
 N                    -2.55829  -0.42802   0.44673 
 C                     0.00382   0.93285   0.04661 
 N                     2.55589  -0.42667  -0.41995 
 C                     3.94653  -0.78691  -0.62979 
 C                     4.25766  -1.21692  -2.03409 
 C                     5.12362  -2.27723  -2.26963 
 C                     5.438    -2.65148  -3.56361 
 C                     4.88708  -1.97173  -4.63686 
 C                     4.0262   -0.91118  -4.41041 
 C                     3.71578  -0.53312  -3.11687 
 C                     5.09513   0.69176   2.23072 
 C                     5.90145   0.47021   3.33341 
 H                     7.79094  -0.25207   4.03602 
 H                     8.60117  -0.82793   1.77775 
 H                     7.16893  -0.42573  -0.18618 
 H                     5.29143   0.91397  -1.0855 
 H                     2.15562   3.52758  -0.04191 
 H                     0.02202   4.78654   0.17554 
 H                    -2.12397   3.53657   0.30521 
 H                    -5.30793   0.8971    1.09166 
 H                    -4.05389   1.29124  -2.28593 
 H                    -5.43012   0.98093  -4.31395 
 H                    -7.66709  -0.04658  -4.13999 
 H                    -8.5202   -0.76133  -1.93793 
 H                    -7.1416   -0.44755   0.07989 
 H                    -4.2241   -1.55307  -0.1339 
 H                    -3.13422   0.22511   2.98255 
 H                    -3.74364  -0.53069   5.24061 
 H                    -5.2793   -2.44023   5.53542 
 H                    -6.1978   -3.5923    3.55589 
 H                    -5.57262  -2.84546   1.29363 
 H                    -1.86352  -0.93095   0.97395 
 H                    -0.00287  -0.14666   0.00988 
 H                     1.84605  -0.90755  -0.94748 
 H                     4.23078  -1.57853   0.07571 
 H                     5.55305  -2.80808  -1.43154 
 H                     6.11293  -3.47724  -3.73491 
 H                     5.12971  -2.26621  -5.64706 
 H                     3.59698  -0.37426  -5.2436 
 H                     3.05331   0.30448  -2.94487 
 H                     4.1132    1.1258    2.34592 
 H                     5.54328   0.72628   4.32004 
 
 ITRead=  0  0  0  0  0  0  0  0  0  0  0  0  0  0  0  0  0  0  0  0
 ITRead=  0  0  0  0  0  0  0  0  0  0  0  0  0  0  0  0  0  0  0  0
 ITRead=  0  0  0  0  0  0  0  0  0  0  0  0  0  0  0  0  0  0  0  0
 ITRead=  0  0  0  0  0  0  0  0  0  0
 MicOpt= -1 -1 -1 -1 -1 -1 -1 -1 -1 -1 -1 -1 -1 -1 -1 -1 -1 -1 -1 -1
 MicOpt= -1 -1 -1 -1 -1 -1 -1 -1 -1 -1 -1 -1 -1 -1 -1 -1 -1 -1 -1 -1
 MicOpt= -1 -1 -1 -1 -1 -1 -1 -1 -1 -1 -1 -1 -1 -1 -1 -1 -1 -1 -1 -1
 MicOpt= -1 -1 -1 -1 -1 -1 -1 -1 -1 -1
 NAtoms=     70 NQM=       70 NQMF=       0 NMMI=      0 NMMIF=      0
                NMic=       0 NMicF=      0.
                    Isotopes and Nuclear Properties:
 (Nuclear quadrupole moments (NQMom) in fm**2, nuclear magnetic moments (NMagM)
  in nuclear magnetons)

  Atom         1           2           3           4           5           6           7           8           9          10
 IAtWgt=          12          12          12          12          12          14          12          12          12          12
 AtmWgt=  12.0000000  12.0000000  12.0000000  12.0000000  12.0000000  14.0030740  12.0000000  12.0000000  12.0000000  12.0000000
 NucSpn=           0           0           0           0           0           2           0           0           0           0
 AtZEff=  -0.0000000  -0.0000000  -0.0000000  -0.0000000  -0.0000000  -0.0000000  -0.0000000  -0.0000000  -0.0000000  -0.0000000
 NQMom=    0.0000000   0.0000000   0.0000000   0.0000000   0.0000000   2.0440000   0.0000000   0.0000000   0.0000000   0.0000000
 NMagM=    0.0000000   0.0000000   0.0000000   0.0000000   0.0000000   0.4037610   0.0000000   0.0000000   0.0000000   0.0000000
 AtZNuc=   6.0000000   6.0000000   6.0000000   6.0000000   6.0000000   7.0000000   6.0000000   6.0000000   6.0000000   6.0000000

  Atom        11          12          13          14          15          16          17          18          19          20
 IAtWgt=          12          12          12          14          12          12          12          12          12          12
 AtmWgt=  12.0000000  12.0000000  12.0000000  14.0030740  12.0000000  12.0000000  12.0000000  12.0000000  12.0000000  12.0000000
 NucSpn=           0           0           0           2           0           0           0           0           0           0
 AtZEff=  -0.0000000  -0.0000000  -0.0000000  -0.0000000  -0.0000000  -0.0000000  -0.0000000  -0.0000000  -0.0000000  -0.0000000
 NQMom=    0.0000000   0.0000000   0.0000000   2.0440000   0.0000000   0.0000000   0.0000000   0.0000000   0.0000000   0.0000000
 NMagM=    0.0000000   0.0000000   0.0000000   0.4037610   0.0000000   0.0000000   0.0000000   0.0000000   0.0000000   0.0000000
 AtZNuc=   6.0000000   6.0000000   6.0000000   7.0000000   6.0000000   6.0000000   6.0000000   6.0000000   6.0000000   6.0000000

  Atom        21          22          23          24          25          26          27          28          29          30
 IAtWgt=          12          12          12          12          12          12          12          12          14          12
 AtmWgt=  12.0000000  12.0000000  12.0000000  12.0000000  12.0000000  12.0000000  12.0000000  12.0000000  14.0030740  12.0000000
 NucSpn=           0           0           0           0           0           0           0           0           2           0
 AtZEff=  -0.0000000  -0.0000000  -0.0000000  -0.0000000  -0.0000000  -0.0000000  -0.0000000  -0.0000000  -0.0000000  -0.0000000
 NQMom=    0.0000000   0.0000000   0.0000000   0.0000000   0.0000000   0.0000000   0.0000000   0.0000000   2.0440000   0.0000000
 NMagM=    0.0000000   0.0000000   0.0000000   0.0000000   0.0000000   0.0000000   0.0000000   0.0000000   0.4037610   0.0000000
 AtZNuc=   6.0000000   6.0000000   6.0000000   6.0000000   6.0000000   6.0000000   6.0000000   6.0000000   7.0000000   6.0000000

  Atom        31          32          33          34          35          36          37          38          39          40
 IAtWgt=          14          12          12          12          12          12          12          12          12          12
 AtmWgt=  14.0030740  12.0000000  12.0000000  12.0000000  12.0000000  12.0000000  12.0000000  12.0000000  12.0000000  12.0000000
 NucSpn=           2           0           0           0           0           0           0           0           0           0
 AtZEff=  -0.0000000  -0.0000000  -0.0000000  -0.0000000  -0.0000000  -0.0000000  -0.0000000  -0.0000000  -0.0000000  -0.0000000
 NQMom=    2.0440000   0.0000000   0.0000000   0.0000000   0.0000000   0.0000000   0.0000000   0.0000000   0.0000000   0.0000000
 NMagM=    0.4037610   0.0000000   0.0000000   0.0000000   0.0000000   0.0000000   0.0000000   0.0000000   0.0000000   0.0000000
 AtZNuc=   7.0000000   6.0000000   6.0000000   6.0000000   6.0000000   6.0000000   6.0000000   6.0000000   6.0000000   6.0000000

  Atom        41          42          43          44          45          46          47          48          49          50
 IAtWgt=           1           1           1           1           1           1           1           1           1           1
 AtmWgt=   1.0078250   1.0078250   1.0078250   1.0078250   1.0078250   1.0078250   1.0078250   1.0078250   1.0078250   1.0078250
 NucSpn=           1           1           1           1           1           1           1           1           1           1
 AtZEff=  -0.0000000  -0.0000000  -0.0000000  -0.0000000  -0.0000000  -0.0000000  -0.0000000  -0.0000000  -0.0000000  -0.0000000
 NQMom=    0.0000000   0.0000000   0.0000000   0.0000000   0.0000000   0.0000000   0.0000000   0.0000000   0.0000000   0.0000000
 NMagM=    2.7928460   2.7928460   2.7928460   2.7928460   2.7928460   2.7928460   2.7928460   2.7928460   2.7928460   2.7928460
 AtZNuc=   1.0000000   1.0000000   1.0000000   1.0000000   1.0000000   1.0000000   1.0000000   1.0000000   1.0000000   1.0000000

  Atom        51          52          53          54          55          56          57          58          59          60
 IAtWgt=           1           1           1           1           1           1           1           1           1           1
 AtmWgt=   1.0078250   1.0078250   1.0078250   1.0078250   1.0078250   1.0078250   1.0078250   1.0078250   1.0078250   1.0078250
 NucSpn=           1           1           1           1           1           1           1           1           1           1
 AtZEff=  -0.0000000  -0.0000000  -0.0000000  -0.0000000  -0.0000000  -0.0000000  -0.0000000  -0.0000000  -0.0000000  -0.0000000
 NQMom=    0.0000000   0.0000000   0.0000000   0.0000000   0.0000000   0.0000000   0.0000000   0.0000000   0.0000000   0.0000000
 NMagM=    2.7928460   2.7928460   2.7928460   2.7928460   2.7928460   2.7928460   2.7928460   2.7928460   2.7928460   2.7928460
 AtZNuc=   1.0000000   1.0000000   1.0000000   1.0000000   1.0000000   1.0000000   1.0000000   1.0000000   1.0000000   1.0000000

  Atom        61          62          63          64          65          66          67          68          69          70
 IAtWgt=           1           1           1           1           1           1           1           1           1           1
 AtmWgt=   1.0078250   1.0078250   1.0078250   1.0078250   1.0078250   1.0078250   1.0078250   1.0078250   1.0078250   1.0078250
 NucSpn=           1           1           1           1           1           1           1           1           1           1
 AtZEff=  -0.0000000  -0.0000000  -0.0000000  -0.0000000  -0.0000000  -0.0000000  -0.0000000  -0.0000000  -0.0000000  -0.0000000
 NQMom=    0.0000000   0.0000000   0.0000000   0.0000000   0.0000000   0.0000000   0.0000000   0.0000000   0.0000000   0.0000000
 NMagM=    2.7928460   2.7928460   2.7928460   2.7928460   2.7928460   2.7928460   2.7928460   2.7928460   2.7928460   2.7928460
 AtZNuc=   1.0000000   1.0000000   1.0000000   1.0000000   1.0000000   1.0000000   1.0000000   1.0000000   1.0000000   1.0000000
 Leave Link  101 at Sun Feb 25 23:50:03 2024, MaxMem=  7516192768 cpu:              30.9 elap:               0.8
 (Enter /public/apps/g16-C01//g16/l103.exe)

 GradGradGradGradGradGradGradGradGradGradGradGradGradGradGradGradGradGrad
 Berny optimization.
 Initialization pass.
                           ----------------------------
                           !    Initial Parameters    !
                           ! (Angstroms and Degrees)  !
 --------------------------                            --------------------------
 ! Name  Definition              Value          Derivative Info.                !
 --------------------------------------------------------------------------------
 ! R1    R(1,2)                  1.3852         estimate D2E/DX2                !
 ! R2    R(1,40)                 1.384          estimate D2E/DX2                !
 ! R3    R(1,41)                 1.0802         estimate D2E/DX2                !
 ! R4    R(2,3)                  1.3827         estimate D2E/DX2                !
 ! R5    R(2,42)                 1.0805         estimate D2E/DX2                !
 ! R6    R(3,4)                  1.3896         estimate D2E/DX2                !
 ! R7    R(3,43)                 1.0814         estimate D2E/DX2                !
 ! R8    R(4,5)                  1.5063         estimate D2E/DX2                !
 ! R9    R(4,39)                 1.3872         estimate D2E/DX2                !
 ! R10   R(5,6)                  1.4397         estimate D2E/DX2                !
 ! R11   R(5,32)                 1.5771         estimate D2E/DX2                !
 ! R12   R(5,44)                 1.0981         estimate D2E/DX2                !
 ! R13   R(6,7)                  1.278          estimate D2E/DX2                !
 ! R14   R(7,8)                  1.4605         estimate D2E/DX2                !
 ! R15   R(7,31)                 1.377          estimate D2E/DX2                !
 ! R16   R(8,9)                  1.3945         estimate D2E/DX2                !
 ! R17   R(8,30)                 1.3911         estimate D2E/DX2                !
 ! R18   R(9,10)                 1.3825         estimate D2E/DX2                !
 ! R19   R(9,45)                 1.0783         estimate D2E/DX2                !
 ! R20   R(10,11)                1.3826         estimate D2E/DX2                !
 ! R21   R(10,46)                1.0798         estimate D2E/DX2                !
 ! R22   R(11,12)                1.3943         estimate D2E/DX2                !
 ! R23   R(11,47)                1.0783         estimate D2E/DX2                !
 ! R24   R(12,13)                1.4605         estimate D2E/DX2                !
 ! R25   R(12,30)                1.391          estimate D2E/DX2                !
 ! R26   R(13,14)                1.2778         estimate D2E/DX2                !
 ! R27   R(13,29)                1.3771         estimate D2E/DX2                !
 ! R28   R(14,15)                1.4397         estimate D2E/DX2                !
 ! R29   R(15,16)                1.5064         estimate D2E/DX2                !
 ! R30   R(15,22)                1.577          estimate D2E/DX2                !
 ! R31   R(15,48)                1.0981         estimate D2E/DX2                !
 ! R32   R(16,17)                1.3871         estimate D2E/DX2                !
 ! R33   R(16,21)                1.3897         estimate D2E/DX2                !
 ! R34   R(17,18)                1.3839         estimate D2E/DX2                !
 ! R35   R(17,49)                1.0797         estimate D2E/DX2                !
 ! R36   R(18,19)                1.3839         estimate D2E/DX2                !
 ! R37   R(18,50)                1.0804         estimate D2E/DX2                !
 ! R38   R(19,20)                1.3852         estimate D2E/DX2                !
 ! R39   R(19,51)                1.0802         estimate D2E/DX2                !
 ! R40   R(20,21)                1.3827         estimate D2E/DX2                !
 ! R41   R(20,52)                1.0805         estimate D2E/DX2                !
 ! R42   R(21,53)                1.0814         estimate D2E/DX2                !
 ! R43   R(22,23)                1.5013         estimate D2E/DX2                !
 ! R44   R(22,29)                1.4519         estimate D2E/DX2                !
 ! R45   R(22,54)                1.0978         estimate D2E/DX2                !
 ! R46   R(23,24)                1.3906         estimate D2E/DX2                !
 ! R47   R(23,28)                1.3891         estimate D2E/DX2                !
 ! R48   R(24,25)                1.3829         estimate D2E/DX2                !
 ! R49   R(24,55)                1.0817         estimate D2E/DX2                !
 ! R50   R(25,26)                1.3846         estimate D2E/DX2                !
 ! R51   R(25,56)                1.0801         estimate D2E/DX2                !
 ! R52   R(26,27)                1.3847         estimate D2E/DX2                !
 ! R53   R(26,57)                1.0799         estimate D2E/DX2                !
 ! R54   R(27,28)                1.3833         estimate D2E/DX2                !
 ! R55   R(27,58)                1.0802         estimate D2E/DX2                !
 ! R56   R(28,59)                1.081          estimate D2E/DX2                !
 ! R57   R(29,60)                1.0068         estimate D2E/DX2                !
 ! R58   R(30,61)                1.0802         estimate D2E/DX2                !
 ! R59   R(31,32)                1.4518         estimate D2E/DX2                !
 ! R60   R(31,62)                1.0067         estimate D2E/DX2                !
 ! R61   R(32,33)                1.5013         estimate D2E/DX2                !
 ! R62   R(32,63)                1.0978         estimate D2E/DX2                !
 ! R63   R(33,34)                1.3891         estimate D2E/DX2                !
 ! R64   R(33,38)                1.3906         estimate D2E/DX2                !
 ! R65   R(34,35)                1.3832         estimate D2E/DX2                !
 ! R66   R(34,64)                1.081          estimate D2E/DX2                !
 ! R67   R(35,36)                1.3847         estimate D2E/DX2                !
 ! R68   R(35,65)                1.0802         estimate D2E/DX2                !
 ! R69   R(36,37)                1.3846         estimate D2E/DX2                !
 ! R70   R(36,66)                1.0798         estimate D2E/DX2                !
 ! R71   R(37,38)                1.3829         estimate D2E/DX2                !
 ! R72   R(37,67)                1.0801         estimate D2E/DX2                !
 ! R73   R(38,68)                1.0817         estimate D2E/DX2                !
 ! R74   R(39,40)                1.3839         estimate D2E/DX2                !
 ! R75   R(39,69)                1.0797         estimate D2E/DX2                !
 ! R76   R(40,70)                1.0804         estimate D2E/DX2                !
 ! A1    A(2,1,40)             119.7532         estimate D2E/DX2                !
 ! A2    A(2,1,41)             120.0628         estimate D2E/DX2                !
 ! A3    A(40,1,41)            120.1838         estimate D2E/DX2                !
 ! A4    A(1,2,3)              120.0891         estimate D2E/DX2                !
 ! A5    A(1,2,42)             120.048          estimate D2E/DX2                !
 ! A6    A(3,2,42)             119.8625         estimate D2E/DX2                !
 ! A7    A(2,3,4)              120.3697         estimate D2E/DX2                !
 ! A8    A(2,3,43)             120.1424         estimate D2E/DX2                !
 ! A9    A(4,3,43)             119.4879         estimate D2E/DX2                !
 ! A10   A(3,4,5)              119.4471         estimate D2E/DX2                !
 ! A11   A(3,4,39)             119.2975         estimate D2E/DX2                !
 ! A12   A(5,4,39)             121.2113         estimate D2E/DX2                !
 ! A13   A(4,5,6)              113.1495         estimate D2E/DX2                !
 ! A14   A(4,5,32)             110.6358         estimate D2E/DX2                !
 ! A15   A(4,5,44)             108.6847         estimate D2E/DX2                !
 ! A16   A(6,5,32)             105.3325         estimate D2E/DX2                !
 ! A17   A(6,5,44)             108.4356         estimate D2E/DX2                !
 ! A18   A(32,5,44)            110.5603         estimate D2E/DX2                !
 ! A19   A(5,6,7)              109.1057         estimate D2E/DX2                !
 ! A20   A(6,7,8)              122.712          estimate D2E/DX2                !
 ! A21   A(6,7,31)             115.2222         estimate D2E/DX2                !
 ! A22   A(8,7,31)             122.0159         estimate D2E/DX2                !
 ! A23   A(7,8,9)              118.6978         estimate D2E/DX2                !
 ! A24   A(7,8,30)             121.7722         estimate D2E/DX2                !
 ! A25   A(9,8,30)             119.5295         estimate D2E/DX2                !
 ! A26   A(8,9,10)             120.2229         estimate D2E/DX2                !
 ! A27   A(8,9,45)             118.1094         estimate D2E/DX2                !
 ! A28   A(10,9,45)            121.6676         estimate D2E/DX2                !
 ! A29   A(9,10,11)            120.2152         estimate D2E/DX2                !
 ! A30   A(9,10,46)            119.893          estimate D2E/DX2                !
 ! A31   A(11,10,46)           119.8918         estimate D2E/DX2                !
 ! A32   A(10,11,12)           120.1887         estimate D2E/DX2                !
 ! A33   A(10,11,47)           121.6631         estimate D2E/DX2                !
 ! A34   A(12,11,47)           118.1482         estimate D2E/DX2                !
 ! A35   A(11,12,13)           118.7654         estimate D2E/DX2                !
 ! A36   A(11,12,30)           119.5719         estimate D2E/DX2                !
 ! A37   A(13,12,30)           121.6603         estimate D2E/DX2                !
 ! A38   A(12,13,14)           122.7335         estimate D2E/DX2                !
 ! A39   A(12,13,29)           121.9566         estimate D2E/DX2                !
 ! A40   A(14,13,29)           115.2524         estimate D2E/DX2                !
 ! A41   A(13,14,15)           109.0869         estimate D2E/DX2                !
 ! A42   A(14,15,16)           113.1135         estimate D2E/DX2                !
 ! A43   A(14,15,22)           105.3376         estimate D2E/DX2                !
 ! A44   A(14,15,48)           108.457          estimate D2E/DX2                !
 ! A45   A(16,15,22)           110.6849         estimate D2E/DX2                !
 ! A46   A(16,15,48)           108.655          estimate D2E/DX2                !
 ! A47   A(22,15,48)           110.5512         estimate D2E/DX2                !
 ! A48   A(15,16,17)           121.2537         estimate D2E/DX2                !
 ! A49   A(15,16,21)           119.4053         estimate D2E/DX2                !
 ! A50   A(17,16,21)           119.3012         estimate D2E/DX2                !
 ! A51   A(16,17,18)           120.2864         estimate D2E/DX2                !
 ! A52   A(16,17,49)           119.0785         estimate D2E/DX2                !
 ! A53   A(18,17,49)           120.6298         estimate D2E/DX2                !
 ! A54   A(17,18,19)           120.2022         estimate D2E/DX2                !
 ! A55   A(17,18,50)           119.7658         estimate D2E/DX2                !
 ! A56   A(19,18,50)           120.0319         estimate D2E/DX2                !
 ! A57   A(18,19,20)           119.7525         estimate D2E/DX2                !
 ! A58   A(18,19,51)           120.1867         estimate D2E/DX2                !
 ! A59   A(20,19,51)           120.0606         estimate D2E/DX2                !
 ! A60   A(19,20,21)           120.0889         estimate D2E/DX2                !
 ! A61   A(19,20,52)           120.0459         estimate D2E/DX2                !
 ! A62   A(21,20,52)           119.8649         estimate D2E/DX2                !
 ! A63   A(16,21,20)           120.3676         estimate D2E/DX2                !
 ! A64   A(16,21,53)           119.4831         estimate D2E/DX2                !
 ! A65   A(20,21,53)           120.1492         estimate D2E/DX2                !
 ! A66   A(15,22,23)           111.944          estimate D2E/DX2                !
 ! A67   A(15,22,29)           101.0752         estimate D2E/DX2                !
 ! A68   A(15,22,54)           110.1591         estimate D2E/DX2                !
 ! A69   A(23,22,29)           113.8883         estimate D2E/DX2                !
 ! A70   A(23,22,54)           109.9533         estimate D2E/DX2                !
 ! A71   A(29,22,54)           109.5095         estimate D2E/DX2                !
 ! A72   A(22,23,24)           120.4145         estimate D2E/DX2                !
 ! A73   A(22,23,28)           120.458          estimate D2E/DX2                !
 ! A74   A(24,23,28)           119.0951         estimate D2E/DX2                !
 ! A75   A(23,24,25)           120.427          estimate D2E/DX2                !
 ! A76   A(23,24,55)           119.699          estimate D2E/DX2                !
 ! A77   A(25,24,55)           119.8721         estimate D2E/DX2                !
 ! A78   A(24,25,26)           120.1259         estimate D2E/DX2                !
 ! A79   A(24,25,56)           119.7661         estimate D2E/DX2                !
 ! A80   A(26,25,56)           120.1077         estimate D2E/DX2                !
 ! A81   A(25,26,27)           119.7771         estimate D2E/DX2                !
 ! A82   A(25,26,57)           120.1032         estimate D2E/DX2                !
 ! A83   A(27,26,57)           120.1195         estimate D2E/DX2                !
 ! A84   A(26,27,28)           120.1206         estimate D2E/DX2                !
 ! A85   A(26,27,58)           120.0632         estimate D2E/DX2                !
 ! A86   A(28,27,58)           119.8161         estimate D2E/DX2                !
 ! A87   A(23,28,27)           120.4525         estimate D2E/DX2                !
 ! A88   A(23,28,59)           119.4147         estimate D2E/DX2                !
 ! A89   A(27,28,59)           120.1326         estimate D2E/DX2                !
 ! A90   A(13,29,22)           108.5426         estimate D2E/DX2                !
 ! A91   A(13,29,60)           121.5768         estimate D2E/DX2                !
 ! A92   A(22,29,60)           118.7871         estimate D2E/DX2                !
 ! A93   A(8,30,12)            120.2661         estimate D2E/DX2                !
 ! A94   A(8,30,61)            119.9393         estimate D2E/DX2                !
 ! A95   A(12,30,61)           119.7944         estimate D2E/DX2                !
 ! A96   A(7,31,32)            108.5724         estimate D2E/DX2                !
 ! A97   A(7,31,62)            121.6655         estimate D2E/DX2                !
 ! A98   A(32,31,62)           118.7611         estimate D2E/DX2                !
 ! A99   A(5,32,31)            101.0799         estimate D2E/DX2                !
 ! A100  A(5,32,33)            111.9942         estimate D2E/DX2                !
 ! A101  A(5,32,63)            110.1283         estimate D2E/DX2                !
 ! A102  A(31,32,33)           113.8781         estimate D2E/DX2                !
 ! A103  A(31,32,63)           109.5155         estimate D2E/DX2                !
 ! A104  A(33,32,63)           109.934          estimate D2E/DX2                !
 ! A105  A(32,33,34)           120.4272         estimate D2E/DX2                !
 ! A106  A(32,33,38)           120.4489         estimate D2E/DX2                !
 ! A107  A(34,33,38)           119.094          estimate D2E/DX2                !
 ! A108  A(33,34,35)           120.4535         estimate D2E/DX2                !
 ! A109  A(33,34,64)           119.4066         estimate D2E/DX2                !
 ! A110  A(35,34,64)           120.1398         estimate D2E/DX2                !
 ! A111  A(34,35,36)           120.1205         estimate D2E/DX2                !
 ! A112  A(34,35,65)           119.816          estimate D2E/DX2                !
 ! A113  A(36,35,65)           120.0634         estimate D2E/DX2                !
 ! A114  A(35,36,37)           119.7758         estimate D2E/DX2                !
 ! A115  A(35,36,66)           120.1201         estimate D2E/DX2                !
 ! A116  A(37,36,66)           120.1039         estimate D2E/DX2                !
 ! A117  A(36,37,38)           120.1277         estimate D2E/DX2                !
 ! A118  A(36,37,67)           120.1091         estimate D2E/DX2                !
 ! A119  A(38,37,67)           119.7629         estimate D2E/DX2                !
 ! A120  A(33,38,37)           120.426          estimate D2E/DX2                !
 ! A121  A(33,38,68)           119.7115         estimate D2E/DX2                !
 ! A122  A(37,38,68)           119.8608         estimate D2E/DX2                !
 ! A123  A(4,39,40)            120.2899         estimate D2E/DX2                !
 ! A124  A(4,39,69)            119.0938         estimate D2E/DX2                !
 ! A125  A(40,39,69)           120.6113         estimate D2E/DX2                !
 ! A126  A(1,40,39)            120.1994         estimate D2E/DX2                !
 ! A127  A(1,40,70)            120.0294         estimate D2E/DX2                !
 ! A128  A(39,40,70)           119.7711         estimate D2E/DX2                !
 ! D1    D(40,1,2,3)             0.0506         estimate D2E/DX2                !
 ! D2    D(40,1,2,42)          179.8394         estimate D2E/DX2                !
 ! D3    D(41,1,2,3)          -179.7948         estimate D2E/DX2                !
 ! D4    D(41,1,2,42)           -0.0061         estimate D2E/DX2                !
 ! D5    D(2,1,40,39)            0.2065         estimate D2E/DX2                !
 ! D6    D(2,1,40,70)         -179.85           estimate D2E/DX2                !
 ! D7    D(41,1,40,39)        -179.9482         estimate D2E/DX2                !
 ! D8    D(41,1,40,70)          -0.0047         estimate D2E/DX2                !
 ! D9    D(1,2,3,4)             -0.1135         estimate D2E/DX2                !
 ! D10   D(1,2,3,43)           179.8563         estimate D2E/DX2                !
 ! D11   D(42,2,3,4)          -179.9026         estimate D2E/DX2                !
 ! D12   D(42,2,3,43)            0.0672         estimate D2E/DX2                !
 ! D13   D(2,3,4,5)           -177.6949         estimate D2E/DX2                !
 ! D14   D(2,3,4,39)            -0.0799         estimate D2E/DX2                !
 ! D15   D(43,3,4,5)             2.3352         estimate D2E/DX2                !
 ! D16   D(43,3,4,39)          179.9501         estimate D2E/DX2                !
 ! D17   D(3,4,5,6)           -160.5565         estimate D2E/DX2                !
 ! D18   D(3,4,5,32)            81.5192         estimate D2E/DX2                !
 ! D19   D(3,4,5,44)           -40.0484         estimate D2E/DX2                !
 ! D20   D(39,4,5,6)            21.8755         estimate D2E/DX2                !
 ! D21   D(39,4,5,32)          -96.0488         estimate D2E/DX2                !
 ! D22   D(39,4,5,44)          142.3836         estimate D2E/DX2                !
 ! D23   D(3,4,39,40)            0.3372         estimate D2E/DX2                !
 ! D24   D(3,4,39,69)          179.5207         estimate D2E/DX2                !
 ! D25   D(5,4,39,40)          177.9088         estimate D2E/DX2                !
 ! D26   D(5,4,39,69)           -2.9077         estimate D2E/DX2                !
 ! D27   D(4,5,6,7)           -118.5056         estimate D2E/DX2                !
 ! D28   D(32,5,6,7)             2.4693         estimate D2E/DX2                !
 ! D29   D(44,5,6,7)           120.8449         estimate D2E/DX2                !
 ! D30   D(4,5,32,31)          116.1829         estimate D2E/DX2                !
 ! D31   D(4,5,32,33)         -122.2192         estimate D2E/DX2                !
 ! D32   D(4,5,32,63)            0.4407         estimate D2E/DX2                !
 ! D33   D(6,5,32,31)           -6.4219         estimate D2E/DX2                !
 ! D34   D(6,5,32,33)          115.176          estimate D2E/DX2                !
 ! D35   D(6,5,32,63)         -122.1641         estimate D2E/DX2                !
 ! D36   D(44,5,32,31)        -123.3619         estimate D2E/DX2                !
 ! D37   D(44,5,32,33)          -1.7641         estimate D2E/DX2                !
 ! D38   D(44,5,32,63)         120.8958         estimate D2E/DX2                !
 ! D39   D(5,6,7,8)           -179.4877         estimate D2E/DX2                !
 ! D40   D(5,6,7,31)             3.0351         estimate D2E/DX2                !
 ! D41   D(6,7,8,9)             11.5753         estimate D2E/DX2                !
 ! D42   D(6,7,8,30)          -168.17           estimate D2E/DX2                !
 ! D43   D(31,7,8,9)          -171.1165         estimate D2E/DX2                !
 ! D44   D(31,7,8,30)            9.1382         estimate D2E/DX2                !
 ! D45   D(6,7,31,32)           -7.7114         estimate D2E/DX2                !
 ! D46   D(6,7,31,62)         -151.1881         estimate D2E/DX2                !
 ! D47   D(8,7,31,32)          174.792          estimate D2E/DX2                !
 ! D48   D(8,7,31,62)           31.3153         estimate D2E/DX2                !
 ! D49   D(7,8,9,10)           179.5382         estimate D2E/DX2                !
 ! D50   D(7,8,9,45)            -0.3816         estimate D2E/DX2                !
 ! D51   D(30,8,9,10)           -0.7107         estimate D2E/DX2                !
 ! D52   D(30,8,9,45)          179.3695         estimate D2E/DX2                !
 ! D53   D(7,8,30,12)         -179.8258         estimate D2E/DX2                !
 ! D54   D(7,8,30,61)            0.0441         estimate D2E/DX2                !
 ! D55   D(9,8,30,12)            0.431          estimate D2E/DX2                !
 ! D56   D(9,8,30,61)         -179.6991         estimate D2E/DX2                !
 ! D57   D(8,9,10,11)            0.2916         estimate D2E/DX2                !
 ! D58   D(8,9,10,46)         -179.6613         estimate D2E/DX2                !
 ! D59   D(45,9,10,11)        -179.7916         estimate D2E/DX2                !
 ! D60   D(45,9,10,46)           0.2555         estimate D2E/DX2                !
 ! D61   D(9,10,11,12)           0.4107         estimate D2E/DX2                !
 ! D62   D(9,10,11,47)        -179.5977         estimate D2E/DX2                !
 ! D63   D(46,10,11,12)       -179.6364         estimate D2E/DX2                !
 ! D64   D(46,10,11,47)          0.3551         estimate D2E/DX2                !
 ! D65   D(10,11,12,13)        179.8687         estimate D2E/DX2                !
 ! D66   D(10,11,12,30)         -0.6861         estimate D2E/DX2                !
 ! D67   D(47,11,12,13)         -0.1231         estimate D2E/DX2                !
 ! D68   D(47,11,12,30)        179.3221         estimate D2E/DX2                !
 ! D69   D(11,12,13,14)         13.5497         estimate D2E/DX2                !
 ! D70   D(11,12,13,29)       -169.3396         estimate D2E/DX2                !
 ! D71   D(30,12,13,14)       -165.8834         estimate D2E/DX2                !
 ! D72   D(30,12,13,29)         11.2273         estimate D2E/DX2                !
 ! D73   D(11,12,30,8)           0.2622         estimate D2E/DX2                !
 ! D74   D(11,12,30,61)       -179.6078         estimate D2E/DX2                !
 ! D75   D(13,12,30,8)         179.6908         estimate D2E/DX2                !
 ! D76   D(13,12,30,61)         -0.1792         estimate D2E/DX2                !
 ! D77   D(12,13,14,15)       -179.8254         estimate D2E/DX2                !
 ! D78   D(29,13,14,15)          2.8849         estimate D2E/DX2                !
 ! D79   D(12,13,29,22)        174.9895         estimate D2E/DX2                !
 ! D80   D(12,13,29,60)         31.6331         estimate D2E/DX2                !
 ! D81   D(14,13,29,22)         -7.6976         estimate D2E/DX2                !
 ! D82   D(14,13,29,60)       -151.0539         estimate D2E/DX2                !
 ! D83   D(13,14,15,16)       -118.3362         estimate D2E/DX2                !
 ! D84   D(13,14,15,22)          2.6817         estimate D2E/DX2                !
 ! D85   D(13,14,15,48)        121.0599         estimate D2E/DX2                !
 ! D86   D(14,15,16,17)         20.3397         estimate D2E/DX2                !
 ! D87   D(14,15,16,21)       -161.9726         estimate D2E/DX2                !
 ! D88   D(22,15,16,17)        -97.6011         estimate D2E/DX2                !
 ! D89   D(22,15,16,21)         80.0866         estimate D2E/DX2                !
 ! D90   D(48,15,16,17)        140.831          estimate D2E/DX2                !
 ! D91   D(48,15,16,21)        -41.4814         estimate D2E/DX2                !
 ! D92   D(14,15,22,23)        114.9688         estimate D2E/DX2                !
 ! D93   D(14,15,22,29)         -6.6142         estimate D2E/DX2                !
 ! D94   D(14,15,22,54)       -122.3593         estimate D2E/DX2                !
 ! D95   D(16,15,22,23)       -122.4389         estimate D2E/DX2                !
 ! D96   D(16,15,22,29)        115.9781         estimate D2E/DX2                !
 ! D97   D(16,15,22,54)          0.2329         estimate D2E/DX2                !
 ! D98   D(48,15,22,23)         -1.9947         estimate D2E/DX2                !
 ! D99   D(48,15,22,29)       -123.5777         estimate D2E/DX2                !
 ! D100  D(48,15,22,54)        120.6771         estimate D2E/DX2                !
 ! D101  D(15,16,17,18)        178.0358         estimate D2E/DX2                !
 ! D102  D(15,16,17,49)         -2.7944         estimate D2E/DX2                !
 ! D103  D(21,16,17,18)          0.3458         estimate D2E/DX2                !
 ! D104  D(21,16,17,49)        179.5155         estimate D2E/DX2                !
 ! D105  D(15,16,21,20)       -177.8216         estimate D2E/DX2                !
 ! D106  D(15,16,21,53)          2.2277         estimate D2E/DX2                !
 ! D107  D(17,16,21,20)         -0.0883         estimate D2E/DX2                !
 ! D108  D(17,16,21,53)        179.9609         estimate D2E/DX2                !
 ! D109  D(16,17,18,19)         -0.4005         estimate D2E/DX2                !
 ! D110  D(16,17,18,50)        179.6406         estimate D2E/DX2                !
 ! D111  D(49,17,18,19)       -179.5572         estimate D2E/DX2                !
 ! D112  D(49,17,18,50)          0.4839         estimate D2E/DX2                !
 ! D113  D(17,18,19,20)          0.1936         estimate D2E/DX2                !
 ! D114  D(17,18,19,51)       -179.9705         estimate D2E/DX2                !
 ! D115  D(50,18,19,20)       -179.8476         estimate D2E/DX2                !
 ! D116  D(50,18,19,51)         -0.0117         estimate D2E/DX2                !
 ! D117  D(18,19,20,21)          0.0637         estimate D2E/DX2                !
 ! D118  D(18,19,20,52)        179.8395         estimate D2E/DX2                !
 ! D119  D(51,19,20,21)       -179.7724         estimate D2E/DX2                !
 ! D120  D(51,19,20,52)          0.0034         estimate D2E/DX2                !
 ! D121  D(19,20,21,16)         -0.1159         estimate D2E/DX2                !
 ! D122  D(19,20,21,53)        179.8345         estimate D2E/DX2                !
 ! D123  D(52,20,21,16)       -179.892          estimate D2E/DX2                !
 ! D124  D(52,20,21,53)          0.0584         estimate D2E/DX2                !
 ! D125  D(15,22,23,24)        -71.5064         estimate D2E/DX2                !
 ! D126  D(15,22,23,28)        106.4055         estimate D2E/DX2                !
 ! D127  D(29,22,23,24)         42.3812         estimate D2E/DX2                !
 ! D128  D(29,22,23,28)       -139.707          estimate D2E/DX2                !
 ! D129  D(54,22,23,24)        165.7049         estimate D2E/DX2                !
 ! D130  D(54,22,23,28)        -16.3833         estimate D2E/DX2                !
 ! D131  D(15,22,29,13)          8.2329         estimate D2E/DX2                !
 ! D132  D(15,22,29,60)        152.7706         estimate D2E/DX2                !
 ! D133  D(23,22,29,13)       -111.9764         estimate D2E/DX2                !
 ! D134  D(23,22,29,60)         32.5612         estimate D2E/DX2                !
 ! D135  D(54,22,29,13)        124.4589         estimate D2E/DX2                !
 ! D136  D(54,22,29,60)        -91.0035         estimate D2E/DX2                !
 ! D137  D(22,23,24,25)        178.4113         estimate D2E/DX2                !
 ! D138  D(22,23,24,55)         -1.0892         estimate D2E/DX2                !
 ! D139  D(28,23,24,25)          0.4712         estimate D2E/DX2                !
 ! D140  D(28,23,24,55)       -179.0292         estimate D2E/DX2                !
 ! D141  D(22,23,28,27)       -178.1607         estimate D2E/DX2                !
 ! D142  D(22,23,28,59)          1.6932         estimate D2E/DX2                !
 ! D143  D(24,23,28,27)         -0.2216         estimate D2E/DX2                !
 ! D144  D(24,23,28,59)        179.6323         estimate D2E/DX2                !
 ! D145  D(23,24,25,26)         -0.3317         estimate D2E/DX2                !
 ! D146  D(23,24,25,56)        179.8783         estimate D2E/DX2                !
 ! D147  D(55,24,25,26)        179.168          estimate D2E/DX2                !
 ! D148  D(55,24,25,56)         -0.6221         estimate D2E/DX2                !
 ! D149  D(24,25,26,27)         -0.0625         estimate D2E/DX2                !
 ! D150  D(24,25,26,57)       -179.9194         estimate D2E/DX2                !
 ! D151  D(56,25,26,27)        179.7268         estimate D2E/DX2                !
 ! D152  D(56,25,26,57)         -0.1301         estimate D2E/DX2                !
 ! D153  D(25,26,27,28)          0.3115         estimate D2E/DX2                !
 ! D154  D(25,26,27,58)       -179.8059         estimate D2E/DX2                !
 ! D155  D(57,26,27,28)       -179.8316         estimate D2E/DX2                !
 ! D156  D(57,26,27,58)          0.0509         estimate D2E/DX2                !
 ! D157  D(26,27,28,23)         -0.1682         estimate D2E/DX2                !
 ! D158  D(26,27,28,59)        179.9789         estimate D2E/DX2                !
 ! D159  D(58,27,28,23)        179.949          estimate D2E/DX2                !
 ! D160  D(58,27,28,59)          0.0961         estimate D2E/DX2                !
 ! D161  D(7,31,32,5)            8.1214         estimate D2E/DX2                !
 ! D162  D(7,31,32,33)        -112.1461         estimate D2E/DX2                !
 ! D163  D(7,31,32,63)         124.3172         estimate D2E/DX2                !
 ! D164  D(62,31,32,5)         152.8231         estimate D2E/DX2                !
 ! D165  D(62,31,32,33)         32.5556         estimate D2E/DX2                !
 ! D166  D(62,31,32,63)        -90.9811         estimate D2E/DX2                !
 ! D167  D(5,32,33,34)         105.8486         estimate D2E/DX2                !
 ! D168  D(5,32,33,38)         -72.1456         estimate D2E/DX2                !
 ! D169  D(31,32,33,34)       -140.2311         estimate D2E/DX2                !
 ! D170  D(31,32,33,38)         41.7748         estimate D2E/DX2                !
 ! D171  D(63,32,33,34)        -16.9217         estimate D2E/DX2                !
 ! D172  D(63,32,33,38)        165.0842         estimate D2E/DX2                !
 ! D173  D(32,33,34,35)       -178.302          estimate D2E/DX2                !
 ! D174  D(32,33,34,64)          1.5673         estimate D2E/DX2                !
 ! D175  D(38,33,34,35)         -0.2809         estimate D2E/DX2                !
 ! D176  D(38,33,34,64)        179.5884         estimate D2E/DX2                !
 ! D177  D(32,33,38,37)        178.5643         estimate D2E/DX2                !
 ! D178  D(32,33,38,68)         -0.9664         estimate D2E/DX2                !
 ! D179  D(34,33,38,37)          0.5437         estimate D2E/DX2                !
 ! D180  D(34,33,38,68)       -178.9871         estimate D2E/DX2                !
 ! D181  D(33,34,35,36)         -0.17           estimate D2E/DX2                !
 ! D182  D(33,34,35,65)        179.9708         estimate D2E/DX2                !
 ! D183  D(64,34,35,36)        179.9616         estimate D2E/DX2                !
 ! D184  D(64,34,35,65)          0.1025         estimate D2E/DX2                !
 ! D185  D(34,35,36,37)          0.362          estimate D2E/DX2                !
 ! D186  D(34,35,36,66)       -179.7777         estimate D2E/DX2                !
 ! D187  D(65,35,36,37)       -179.7792         estimate D2E/DX2                !
 ! D188  D(65,35,36,66)          0.0811         estimate D2E/DX2                !
 ! D189  D(35,36,37,38)         -0.0999         estimate D2E/DX2                !
 ! D190  D(35,36,37,67)        179.7165         estimate D2E/DX2                !
 ! D191  D(66,36,37,38)       -179.9603         estimate D2E/DX2                !
 ! D192  D(66,36,37,67)         -0.1438         estimate D2E/DX2                !
 ! D193  D(36,37,38,33)         -0.3561         estimate D2E/DX2                !
 ! D194  D(36,37,38,68)        179.1739         estimate D2E/DX2                !
 ! D195  D(67,37,38,33)        179.8267         estimate D2E/DX2                !
 ! D196  D(67,37,38,68)         -0.6432         estimate D2E/DX2                !
 ! D197  D(4,39,40,1)           -0.4025         estimate D2E/DX2                !
 ! D198  D(4,39,40,70)         179.6538         estimate D2E/DX2                !
 ! D199  D(69,39,40,1)        -179.5735         estimate D2E/DX2                !
 ! D200  D(69,39,40,70)          0.4829         estimate D2E/DX2                !
 --------------------------------------------------------------------------------
 Trust Radius=3.00D-01 FncErr=1.00D-07 GrdErr=1.00D-06 EigMax=2.50D+02 EigMin=1.00D-04
 Number of steps in this run=    414 maximum allowed number of steps=    420.
 GradGradGradGradGradGradGradGradGradGradGradGradGradGradGradGradGradGrad

 Leave Link  103 at Sun Feb 25 23:50:03 2024, MaxMem=  7516192768 cpu:               0.5 elap:               0.0
 (Enter /public/apps/g16-C01//g16/l202.exe)
 Symmetry turned off by external request.
 Stoichiometry    C36H30N4
 Framework group  C1[X(C36H30N4)]
 Deg. of freedom   204
 Full point group                 C1      NOp   1
                          Input orientation:                          
 ---------------------------------------------------------------------
 Center     Atomic      Atomic             Coordinates (Angstroms)
 Number     Number       Type             X           Y           Z
 ---------------------------------------------------------------------
      1          6           0        7.162082   -0.078466    3.175031
      2          6           0        7.616757   -0.401745    1.907145
      3          6           0        6.813919   -0.175826    0.804275
      4          6           0        5.546939    0.373658    0.958336
      5          6           0        4.669612    0.562577   -0.251394
      6          7           0        3.611184    1.515225   -0.039733
      7          6           0        2.485067    0.927272   -0.179454
      8          6           0        1.208630    1.622960   -0.038726
      9          6           0        1.207920    3.016371    0.015939
     10          6           0        0.016829    3.707382    0.139223
     11          6           0       -1.181070    3.021143    0.215187
     12          6           0       -1.194358    1.627465    0.176510
     13          6           0       -2.476955    0.934207    0.261972
     14          7           0       -3.596803    1.532656    0.118149
     15          6           0       -4.663454    0.576559    0.262316
     16          6           0       -5.506903    0.440000   -0.978374
     17          6           0       -5.030692    0.836004   -2.219510
     18          6           0       -5.807011    0.664123   -3.352249
     19          6           0       -7.061544    0.087899   -3.255602
     20          6           0       -7.540345   -0.313294   -2.019214
     21          6           0       -6.767677   -0.137148   -0.886192
     22          6           0       -3.955270   -0.789560    0.607613
     23          6           0       -4.304125   -1.269484    1.986710
     24          6           0       -3.797624   -0.620098    3.107193
     25          6           0       -4.144898   -1.041656    4.377688
     26          6           0       -5.007347   -2.112186    4.543192
     27          6           0       -5.522157   -2.758660    3.432153
     28          6           0       -5.171085   -2.340679    2.161158
     29          7           0       -2.558294   -0.428021    0.446730
     30          6           0        0.003824    0.932848    0.046614
     31          7           0        2.555893   -0.426673   -0.419950
     32          6           0        3.946532   -0.786912   -0.629785
     33          6           0        4.257662   -1.216918   -2.034088
     34          6           0        5.123623   -2.277229   -2.269634
     35          6           0        5.438002   -2.651484   -3.563612
     36          6           0        4.887081   -1.971734   -4.636863
     37          6           0        4.026200   -0.911182   -4.410411
     38          6           0        3.715778   -0.533116   -3.116873
     39          6           0        5.095125    0.691764    2.230721
     40          6           0        5.901450    0.470209    3.333414
     41          1           0        7.790940   -0.252072    4.036021
     42          1           0        8.601168   -0.827931    1.777746
     43          1           0        7.168926   -0.425733   -0.186179
     44          1           0        5.291427    0.913965   -1.085501
     45          1           0        2.155615    3.527579   -0.041909
     46          1           0        0.022024    4.786535    0.175539
     47          1           0       -2.123974    3.536569    0.305213
     48          1           0       -5.307926    0.897104    1.091660
     49          1           0       -4.053894    1.291237   -2.285932
     50          1           0       -5.430124    0.980932   -4.313945
     51          1           0       -7.667089   -0.046577   -4.139985
     52          1           0       -8.520202   -0.761333   -1.937932
     53          1           0       -7.141600   -0.447553    0.079894
     54          1           0       -4.224104   -1.553072   -0.133904
     55          1           0       -3.134223    0.225108    2.982554
     56          1           0       -3.743644   -0.530694    5.240608
     57          1           0       -5.279295   -2.440231    5.535422
     58          1           0       -6.197798   -3.592298    3.555891
     59          1           0       -5.572618   -2.845461    1.293629
     60          1           0       -1.863520   -0.930949    0.973951
     61          1           0       -0.002868   -0.146658    0.009880
     62          1           0        1.846051   -0.907553   -0.947483
     63          1           0        4.230782   -1.578529    0.075714
     64          1           0        5.553054   -2.808078   -1.431537
     65          1           0        6.112928   -3.477239   -3.734913
     66          1           0        5.129708   -2.266206   -5.647058
     67          1           0        3.596981   -0.374260   -5.243602
     68          1           0        3.053308    0.304483   -2.944874
     69          1           0        4.113200    1.125801    2.345917
     70          1           0        5.543283    0.726283    4.320038
 ---------------------------------------------------------------------
 Rotational constants (GHZ):           0.1288926           0.0398515           0.0355271
 Leave Link  202 at Sun Feb 25 23:50:03 2024, MaxMem=  7516192768 cpu:               0.5 elap:               0.0
 (Enter /public/apps/g16-C01//g16/l301.exe)
 Standard basis: def2SVPP (5D, 7F)
 Ernie: Thresh=  0.10000D-02 Tol=  0.10000D-05 Strict=F.
   620 basis functions,  1120 primitive gaussians,   660 cartesian basis functions
   137 alpha electrons      137 beta electrons
       nuclear repulsion energy      3976.8979556481 Hartrees.
 IExCor=  402 DFT=T Ex+Corr=B3LYP ExCW=0 ScaHFX=  0.200000
 ScaDFX=  0.800000  0.720000  1.000000  0.810000 ScalE2=  1.000000  1.000000
 IRadAn=      5 IRanWt=     -1 IRanGd=            0 ICorTp=0 IEmpDi=141
 NAtoms=   70 NActive=   70 NUniq=   70 SFac= 1.00D+00 NAtFMM=   60 NAOKFM=T Big=T
 Integral buffers will be    131072 words long.
 Raffenetti 2 integral format.
 Two-electron integral symmetry is turned off.
 R6Disp:  Grimme-D3(BJ) Dispersion energy=       -0.1727432677 Hartrees.
 Nuclear repulsion after empirical dispersion term =     3976.7252123804 Hartrees.
 Leave Link  301 at Sun Feb 25 23:50:03 2024, MaxMem=  7516192768 cpu:               0.7 elap:               0.0
 (Enter /public/apps/g16-C01//g16/l302.exe)
 NPDir=0 NMtPBC=     1 NCelOv=     1 NCel=       1 NClECP=     1 NCelD=      1
         NCelK=      1 NCelE2=     1 NClLst=     1 CellRange=     0.0.
 One-electron integrals computed using PRISM.
   1 Symmetry operations used in ECPInt.
 ECPInt:  NShTT=   45150 NPrTT=  180910 LenC2=   33525 LenP2D=   81961.
 LDataN:  DoStor=T MaxTD1= 4 Len=   56
 NBasis=   620 RedAO= T EigKep=  2.63D-04  NBF=   620
 NBsUse=   620 1.00D-06 EigRej= -1.00D+00 NBFU=   620
 Precomputing XC quadrature grid using
 IXCGrd= 4 IRadAn=           5 IRanWt=          -1 IRanGd=           0 AccXCQ= 0.00D+00.
 Generated NRdTot=       0 NPtTot=           0 NUsed=           0 NTot=          32
 NSgBfM=   643   643   643   643   643 MxSgAt=    70 MxSgA2=    70.
 Leave Link  302 at Sun Feb 25 23:50:04 2024, MaxMem=  7516192768 cpu:              39.4 elap:               1.1
 (Enter /public/apps/g16-C01//g16/l303.exe)
 DipDrv:  MaxL=1.
 Leave Link  303 at Sun Feb 25 23:50:05 2024, MaxMem=  7516192768 cpu:               5.7 elap:               0.2
 (Enter /public/apps/g16-C01//g16/l401.exe)
 ExpMin= 1.22D-01 ExpMax= 1.71D+03 ExpMxC= 2.58D+02 IAcc=3 IRadAn=         5 AccDes= 0.00D+00
 Harris functional with IExCor=  402 and IRadAn=       5 diagonalized for initial guess.
 HarFok:  IExCor=  402 AccDes= 0.00D+00 IRadAn=         5 IDoV= 1 UseB2=F ITyADJ=14
 ICtDFT=  3500011 ScaDFX=  1.000000  1.000000  1.000000  1.000000
 FoFCou: FMM=F IPFlag=           0 FMFlag=      100000 FMFlg1=        2001
         NFxFlg=           0 DoJE=T BraDBF=F KetDBF=T FulRan=T
         wScrn=  0.000000 ICntrl=       500 IOpCl=  0 I1Cent=   200000004 NGrid=           0
         NMat0=    1 NMatS0=      1 NMatT0=    0 NMatD0=    1 NMtDS0=    0 NMtDT0=    0
 Symmetry not used in FoFCou.
 Harris En= -1607.78078190988    
 JPrj=0 DoOrth=F DoCkMO=F.
 Leave Link  401 at Sun Feb 25 23:50:07 2024, MaxMem=  7516192768 cpu:              52.4 elap:               1.4
 (Enter /public/apps/g16-C01//g16/l502.exe)
 Two-electron integral symmetry not used.
 Closed shell SCF:
 Using DIIS extrapolation, IDIIS=  1040.
 NGot=  7516192768 LenX=  7515287922 LenY=  7514851662
 Requested convergence on RMS density matrix=1.00D-08 within 128 cycles.
 Requested convergence on MAX density matrix=1.00D-06.
 Requested convergence on             energy=1.00D-06.
 No special actions if energy rises.
 Fock matrices will be formed incrementally for  20 cycles.
 Integral accuracy reduced to 1.0D-05 until final iterations.

 Cycle   1  Pass 0  IDiag  1:
 FoFJK:  IHMeth= 1 ICntrl=       0 DoSepK=F KAlg= 0 I1Cent=           0 FoldK=F
 IRaf= 820000000 NMat=       1 IRICut=       1 DoRegI=T DoRafI=F ISym2E= 0 IDoP0=0 IntGTp=1.
 FoFCou: FMM=T IPFlag=           0 FMFlag=      100000 FMFlg1=        2001
         NFxFlg=           0 DoJE=F BraDBF=F KetDBF=F FulRan=T
         wScrn=  0.000000 ICntrl=         0 IOpCl=  0 I1Cent=           0 NGrid=           0
         NMat0=    1 NMatS0=      1 NMatT0=    0 NMatD0=    1 NMtDS0=    0 NMtDT0=    0
 Symmetry not used in FoFCou.
 FMM levels:  10  Number of levels for PrismC:   9
 E= -1607.04680073854    
 DIIS: error= 2.94D-02 at cycle   1 NSaved=   1.
 NSaved= 1 IEnMin= 1 EnMin= -1607.04680073854     IErMin= 1 ErrMin= 2.94D-02
 ErrMax= 2.94D-02  0.00D+00 EMaxC= 1.00D-01 BMatC= 6.78D-01 BMatP= 6.78D-01
 IDIUse=3 WtCom= 7.06D-01 WtEn= 2.94D-01
 Coeff-Com:  0.100D+01
 Coeff-En:   0.100D+01
 Coeff:      0.100D+01
 Gap=     0.175 Goal=   None    Shift=    0.000
 GapD=    0.175 DampG=1.000 DampE=0.500 DampFc=0.5000 IDamp=-1.
 Damping current iteration by 5.00D-01
 RMSDP=4.91D-03 MaxDP=1.56D-01              OVMax= 2.17D-01

 Cycle   2  Pass 0  IDiag  1:
 RMSU=  2.24D-03    CP:  9.40D-01
 E= -1607.40222086713     Delta-E=       -0.355420128592 Rises=F Damp=T
 DIIS: error= 6.16D-03 at cycle   2 NSaved=   2.
 NSaved= 2 IEnMin= 2 EnMin= -1607.40222086713     IErMin= 2 ErrMin= 6.16D-03
 ErrMax= 6.16D-03  0.00D+00 EMaxC= 1.00D-01 BMatC= 4.76D-02 BMatP= 6.78D-01
 IDIUse=3 WtCom= 9.38D-01 WtEn= 6.16D-02
 Coeff-Com:  0.615D-01 0.939D+00
 Coeff-En:   0.797D-01 0.920D+00
 Coeff:      0.626D-01 0.937D+00
 Gap=     0.207 Goal=   None    Shift=    0.000
 RMSDP=1.54D-03 MaxDP=7.66D-02 DE=-3.55D-01 OVMax= 1.97D-01

 Cycle   3  Pass 0  IDiag  1:
 RMSU=  1.43D-03    CP:  9.07D-01  9.73D-01
 E= -1607.76870450649     Delta-E=       -0.366483639361 Rises=F Damp=F
 DIIS: error= 1.34D-02 at cycle   3 NSaved=   3.
 NSaved= 3 IEnMin= 3 EnMin= -1607.76870450649     IErMin= 2 ErrMin= 6.16D-03
 ErrMax= 1.34D-02  0.00D+00 EMaxC= 1.00D-01 BMatC= 8.32D-02 BMatP= 4.76D-02
 IDIUse=2 WtCom= 0.00D+00 WtEn= 1.00D+00
 Coeff-En:   0.000D+00 0.000D+00 0.100D+01
 Coeff:      0.000D+00 0.000D+00 0.100D+01
 Gap=     0.166 Goal=   None    Shift=    0.000
 RMSDP=2.09D-03 MaxDP=1.45D-01 DE=-3.66D-01 OVMax= 2.64D-01

 Cycle   4  Pass 0  IDiag  1:
 RMSU=  1.42D-03    CP:  9.11D-01  1.35D+00  1.03D-01
 E= -1607.37592620852     Delta-E=        0.392778297976 Rises=F Damp=F
 DIIS: error= 3.36D-02 at cycle   4 NSaved=   4.
 NSaved= 4 IEnMin= 3 EnMin= -1607.76870450649     IErMin= 2 ErrMin= 6.16D-03
 ErrMax= 3.36D-02  0.00D+00 EMaxC= 1.00D-01 BMatC= 4.88D-01 BMatP= 4.76D-02
 IDIUse=2 WtCom= 0.00D+00 WtEn= 1.00D+00
 Coeff-En:   0.000D+00 0.000D+00 0.797D+00 0.203D+00
 Coeff:      0.000D+00 0.000D+00 0.797D+00 0.203D+00
 Gap=     0.198 Goal=   None    Shift=    0.000
 RMSDP=1.14D-03 MaxDP=7.10D-02 DE= 3.93D-01 OVMax= 1.45D-01

 Cycle   5  Pass 0  IDiag  1:
 RMSU=  2.32D-04    CP:  9.07D-01  1.15D+00  5.80D-01  4.61D-01
 E= -1607.81021787326     Delta-E=       -0.434291664743 Rises=F Damp=F
 DIIS: error= 9.77D-03 at cycle   5 NSaved=   5.
 NSaved= 5 IEnMin= 5 EnMin= -1607.81021787326     IErMin= 2 ErrMin= 6.16D-03
 ErrMax= 9.77D-03  0.00D+00 EMaxC= 1.00D-01 BMatC= 4.04D-02 BMatP= 4.76D-02
 IDIUse=3 WtCom= 9.02D-01 WtEn= 9.77D-02
 Coeff-Com:  0.322D-02 0.155D-01 0.321D+00-0.866D-01 0.747D+00
 Coeff-En:   0.000D+00 0.000D+00 0.369D+00 0.000D+00 0.631D+00
 Coeff:      0.291D-02 0.140D-01 0.325D+00-0.781D-01 0.736D+00
 Gap=     0.168 Goal=   None    Shift=    0.000
 RMSDP=4.25D-04 MaxDP=2.91D-02 DE=-4.34D-01 OVMax= 5.89D-02

 Cycle   6  Pass 0  IDiag  1:
 RMSU=  9.52D-05    CP:  9.06D-01  1.08D+00  7.57D-01  2.63D-01  8.32D-01
 E= -1607.84848687443     Delta-E=       -0.038269001171 Rises=F Damp=F
 DIIS: error= 7.03D-04 at cycle   6 NSaved=   6.
 NSaved= 6 IEnMin= 6 EnMin= -1607.84848687443     IErMin= 6 ErrMin= 7.03D-04
 ErrMax= 7.03D-04  0.00D+00 EMaxC= 1.00D-01 BMatC= 2.87D-04 BMatP= 4.04D-02
 IDIUse=3 WtCom= 9.93D-01 WtEn= 7.03D-03
 Coeff-Com:  0.132D-02 0.247D-02 0.160D+00-0.709D-01 0.478D+00 0.429D+00
 Coeff-En:   0.000D+00 0.000D+00 0.000D+00 0.000D+00 0.000D+00 0.100D+01
 Coeff:      0.131D-02 0.246D-02 0.159D+00-0.704D-01 0.474D+00 0.433D+00
 Gap=     0.170 Goal=   None    Shift=    0.000
 RMSDP=4.87D-05 MaxDP=2.21D-03 DE=-3.83D-02 OVMax= 3.92D-03

 Cycle   7  Pass 0  IDiag  1:
 RMSU=  2.01D-05    CP:  9.06D-01  1.08D+00  7.56D-01  2.69D-01  8.65D-01
                    CP:  5.53D-01
 E= -1607.84881958617     Delta-E=       -0.000332711738 Rises=F Damp=F
 DIIS: error= 1.29D-04 at cycle   7 NSaved=   7.
 NSaved= 7 IEnMin= 7 EnMin= -1607.84881958617     IErMin= 7 ErrMin= 1.29D-04
 ErrMax= 1.29D-04  0.00D+00 EMaxC= 1.00D-01 BMatC= 1.41D-05 BMatP= 2.87D-04
 IDIUse=3 WtCom= 9.99D-01 WtEn= 1.29D-03
 Coeff-Com:  0.565D-03-0.242D-03 0.559D-01-0.274D-01 0.172D+00 0.211D+00
 Coeff-Com:  0.589D+00
 Coeff-En:   0.000D+00 0.000D+00 0.000D+00 0.000D+00 0.000D+00 0.000D+00
 Coeff-En:   0.100D+01
 Coeff:      0.564D-03-0.242D-03 0.558D-01-0.274D-01 0.171D+00 0.211D+00
 Coeff:      0.589D+00
 Gap=     0.170 Goal=   None    Shift=    0.000
 RMSDP=1.24D-05 MaxDP=5.13D-04 DE=-3.33D-04 OVMax= 8.90D-04

 Cycle   8  Pass 0  IDiag  1:
 RMSU=  1.06D-05    CP:  9.06D-01  1.08D+00  7.57D-01  2.68D-01  8.64D-01
                    CP:  5.74D-01  7.49D-01
 E= -1607.84883938682     Delta-E=       -0.000019800648 Rises=F Damp=F
 DIIS: error= 4.84D-05 at cycle   8 NSaved=   8.
 NSaved= 8 IEnMin= 8 EnMin= -1607.84883938682     IErMin= 8 ErrMin= 4.84D-05
 ErrMax= 4.84D-05  0.00D+00 EMaxC= 1.00D-01 BMatC= 2.44D-06 BMatP= 1.41D-05
 IDIUse=1 WtCom= 1.00D+00 WtEn= 0.00D+00
 Coeff-Com:  0.202D-03-0.797D-03 0.696D-02-0.359D-02 0.184D-01 0.498D-01
 Coeff-Com:  0.344D+00 0.584D+00
 Coeff:      0.202D-03-0.797D-03 0.696D-02-0.359D-02 0.184D-01 0.498D-01
 Coeff:      0.344D+00 0.584D+00
 Gap=     0.170 Goal=   None    Shift=    0.000
 RMSDP=8.71D-06 MaxDP=3.09D-04 DE=-1.98D-05 OVMax= 2.72D-04

 Initial convergence to 1.0D-05 achieved.  Increase integral accuracy.
 Cycle   9  Pass 1  IDiag  1:
 E= -1607.84865236593     Delta-E=        0.000187020883 Rises=F Damp=F
 DIIS: error= 3.42D-04 at cycle   1 NSaved=   1.
 NSaved= 1 IEnMin= 1 EnMin= -1607.84865236593     IErMin= 1 ErrMin= 3.42D-04
 ErrMax= 3.42D-04  0.00D+00 EMaxC= 1.00D-01 BMatC= 3.97D-05 BMatP= 3.97D-05
 IDIUse=3 WtCom= 9.97D-01 WtEn= 3.42D-03
 Coeff-Com:  0.100D+01
 Coeff-En:   0.100D+01
 Coeff:      0.100D+01
 Gap=     0.170 Goal=   None    Shift=    0.000
 RMSDP=8.71D-06 MaxDP=3.09D-04 DE= 1.87D-04 OVMax= 7.75D-04

 Cycle  10  Pass 1  IDiag  1:
 RMSU=  3.52D-04    CP:  9.99D-01
 E= -1607.84869791987     Delta-E=       -0.000045553936 Rises=F Damp=F
 DIIS: error= 1.46D-05 at cycle   2 NSaved=   2.
 NSaved= 2 IEnMin= 2 EnMin= -1607.84869791987     IErMin= 2 ErrMin= 1.46D-05
 ErrMax= 1.46D-05  0.00D+00 EMaxC= 1.00D-01 BMatC= 2.08D-07 BMatP= 3.97D-05
 IDIUse=1 WtCom= 1.00D+00 WtEn= 0.00D+00
 Coeff-Com: -0.198D-02 0.100D+01
 Coeff:     -0.198D-02 0.100D+01
 Gap=     0.170 Goal=   None    Shift=    0.000
 RMSDP=5.07D-06 MaxDP=1.38D-04 DE=-4.56D-05 OVMax= 2.53D-04

 Cycle  11  Pass 1  IDiag  1:
 RMSU=  2.90D-06    CP:  9.99D-01  1.01D+00
 E= -1607.84869744793     Delta-E=        0.000000471937 Rises=F Damp=F
 DIIS: error= 2.97D-05 at cycle   3 NSaved=   3.
 NSaved= 3 IEnMin= 2 EnMin= -1607.84869791987     IErMin= 2 ErrMin= 1.46D-05
 ErrMax= 2.97D-05  0.00D+00 EMaxC= 1.00D-01 BMatC= 6.43D-07 BMatP= 2.08D-07
 IDIUse=1 WtCom= 1.00D+00 WtEn= 0.00D+00
 Coeff-Com: -0.642D-02 0.644D+00 0.362D+00
 Coeff:     -0.642D-02 0.644D+00 0.362D+00
 Gap=     0.170 Goal=   None    Shift=    0.000
 RMSDP=1.71D-06 MaxDP=6.87D-05 DE= 4.72D-07 OVMax= 1.80D-04

 Cycle  12  Pass 1  IDiag  1:
 RMSU=  8.39D-07    CP:  9.99D-01  1.01D+00  4.85D-01
 E= -1607.84869813073     Delta-E=       -0.000000682799 Rises=F Damp=F
 DIIS: error= 3.01D-06 at cycle   4 NSaved=   4.
 NSaved= 4 IEnMin= 4 EnMin= -1607.84869813073     IErMin= 4 ErrMin= 3.01D-06
 ErrMax= 3.01D-06  0.00D+00 EMaxC= 1.00D-01 BMatC= 9.35D-09 BMatP= 2.08D-07
 IDIUse=1 WtCom= 1.00D+00 WtEn= 0.00D+00
 Coeff-Com: -0.391D-02 0.379D+00 0.224D+00 0.401D+00
 Coeff:     -0.391D-02 0.379D+00 0.224D+00 0.401D+00
 Gap=     0.170 Goal=   None    Shift=    0.000
 RMSDP=2.46D-07 MaxDP=1.51D-05 DE=-6.83D-07 OVMax= 1.92D-05

 Cycle  13  Pass 1  IDiag  1:
 RMSU=  2.19D-07    CP:  9.99D-01  1.01D+00  5.08D-01  8.96D-01
 E= -1607.84869814034     Delta-E=       -0.000000009606 Rises=F Damp=F
 DIIS: error= 5.12D-07 at cycle   5 NSaved=   5.
 NSaved= 5 IEnMin= 5 EnMin= -1607.84869814034     IErMin= 5 ErrMin= 5.12D-07
 ErrMax= 5.12D-07  0.00D+00 EMaxC= 1.00D-01 BMatC= 2.84D-10 BMatP= 9.35D-09
 IDIUse=1 WtCom= 1.00D+00 WtEn= 0.00D+00
 Coeff-Com: -0.117D-02 0.110D+00 0.677D-01 0.186D+00 0.637D+00
 Coeff:     -0.117D-02 0.110D+00 0.677D-01 0.186D+00 0.637D+00
 Gap=     0.170 Goal=   None    Shift=    0.000
 RMSDP=6.46D-08 MaxDP=5.13D-06 DE=-9.61D-09 OVMax= 7.70D-06

 Cycle  14  Pass 1  IDiag  1:
 RMSU=  5.99D-08    CP:  9.99D-01  1.01D+00  5.08D-01  9.13D-01  9.17D-01
 E= -1607.84869814050     Delta-E=       -0.000000000163 Rises=F Damp=F
 DIIS: error= 4.66D-07 at cycle   6 NSaved=   6.
 NSaved= 6 IEnMin= 6 EnMin= -1607.84869814050     IErMin= 6 ErrMin= 4.66D-07
 ErrMax= 4.66D-07  0.00D+00 EMaxC= 1.00D-01 BMatC= 1.21D-10 BMatP= 2.84D-10
 IDIUse=1 WtCom= 1.00D+00 WtEn= 0.00D+00
 Coeff-Com: -0.221D-03 0.198D-01 0.135D-01 0.676D-01 0.433D+00 0.466D+00
 Coeff:     -0.221D-03 0.198D-01 0.135D-01 0.676D-01 0.433D+00 0.466D+00
 Gap=     0.170 Goal=   None    Shift=    0.000
 RMSDP=2.80D-08 MaxDP=2.51D-06 DE=-1.63D-10 OVMax= 4.03D-06

 Cycle  15  Pass 1  IDiag  1:
 RMSU=  1.43D-08    CP:  9.99D-01  1.01D+00  5.09D-01  9.18D-01  9.44D-01
                    CP:  6.25D-01
 E= -1607.84869814062     Delta-E=       -0.000000000122 Rises=F Damp=F
 DIIS: error= 1.45D-07 at cycle   7 NSaved=   7.
 NSaved= 7 IEnMin= 7 EnMin= -1607.84869814062     IErMin= 7 ErrMin= 1.45D-07
 ErrMax= 1.45D-07  0.00D+00 EMaxC= 1.00D-01 BMatC= 1.09D-11 BMatP= 1.21D-10
 IDIUse=1 WtCom= 1.00D+00 WtEn= 0.00D+00
 Coeff-Com: -0.350D-06-0.704D-03 0.503D-03 0.213D-01 0.200D+00 0.291D+00
 Coeff-Com:  0.487D+00
 Coeff:     -0.350D-06-0.704D-03 0.503D-03 0.213D-01 0.200D+00 0.291D+00
 Coeff:      0.487D+00
 Gap=     0.170 Goal=   None    Shift=    0.000
 RMSDP=8.52D-09 MaxDP=4.82D-07 DE=-1.22D-10 OVMax= 8.91D-07

 SCF Done:  E(RB3LYP) =  -1607.84869814     A.U. after   15 cycles
            NFock= 15  Conv=0.85D-08     -V/T= 2.0095
 KE= 1.592715768900D+03 PE=-1.167816594298D+04 EE= 4.500876263560D+03
 Leave Link  502 at Sun Feb 25 23:50:40 2024, MaxMem=  7516192768 cpu:            1288.8 elap:              32.8
 (Enter /public/apps/g16-C01//g16/l601.exe)
 Copying SCF densities to generalized density rwf, IOpCl= 0 IROHF=0.

 **********************************************************************

            Population analysis using the SCF Density.

 **********************************************************************

 Alpha  occ. eigenvalues --  -14.34236 -14.34218 -14.29147 -14.29131 -10.25370
 Alpha  occ. eigenvalues --  -10.25366 -10.22515 -10.22502 -10.21271 -10.21262
 Alpha  occ. eigenvalues --  -10.20562 -10.20554 -10.20409 -10.19799 -10.19789
 Alpha  occ. eigenvalues --  -10.19307 -10.19282 -10.19234 -10.19153 -10.19140
 Alpha  occ. eigenvalues --  -10.19134 -10.19122 -10.19023 -10.19012 -10.19007
 Alpha  occ. eigenvalues --  -10.19001 -10.18959 -10.18946 -10.18528 -10.18525
 Alpha  occ. eigenvalues --  -10.18032 -10.18029 -10.17879 -10.17867 -10.17857
 Alpha  occ. eigenvalues --  -10.17854 -10.17807 -10.17799 -10.17407 -10.17385
 Alpha  occ. eigenvalues --   -0.99132  -0.99066  -0.87548  -0.87086  -0.86820
 Alpha  occ. eigenvalues --   -0.86034  -0.85930  -0.84655  -0.84545  -0.80272
 Alpha  occ. eigenvalues --   -0.79050  -0.76250  -0.75872  -0.75233  -0.75010
 Alpha  occ. eigenvalues --   -0.74992  -0.74878  -0.73725  -0.73700  -0.70567
 Alpha  occ. eigenvalues --   -0.70145  -0.65084  -0.64185  -0.63777  -0.62269
 Alpha  occ. eigenvalues --   -0.61459  -0.61353  -0.60299  -0.60127  -0.59746
 Alpha  occ. eigenvalues --   -0.59254  -0.58736  -0.57810  -0.57052  -0.56931
 Alpha  occ. eigenvalues --   -0.56162  -0.53350  -0.53067  -0.52327  -0.51571
 Alpha  occ. eigenvalues --   -0.50223  -0.49494  -0.48932  -0.48420  -0.47198
 Alpha  occ. eigenvalues --   -0.46848  -0.46365  -0.45910  -0.45705  -0.45492
 Alpha  occ. eigenvalues --   -0.44973  -0.44969  -0.44168  -0.44119  -0.43279
 Alpha  occ. eigenvalues --   -0.43266  -0.43211  -0.42948  -0.42320  -0.42156
 Alpha  occ. eigenvalues --   -0.41777  -0.41379  -0.41200  -0.40919  -0.40522
 Alpha  occ. eigenvalues --   -0.39676  -0.39434  -0.38486  -0.37935  -0.37237
 Alpha  occ. eigenvalues --   -0.36483  -0.36451  -0.36426  -0.36365  -0.35945
 Alpha  occ. eigenvalues --   -0.35419  -0.35414  -0.35162  -0.34492  -0.34135
 Alpha  occ. eigenvalues --   -0.33963  -0.33934  -0.33610  -0.27815  -0.27727
 Alpha  occ. eigenvalues --   -0.26870  -0.26742  -0.26584  -0.26461  -0.25414
 Alpha  occ. eigenvalues --   -0.25311  -0.25231  -0.25222  -0.24184  -0.24108
 Alpha  occ. eigenvalues --   -0.22801  -0.22151
 Alpha virt. eigenvalues --   -0.05143  -0.03718  -0.01962  -0.01935  -0.01503
 Alpha virt. eigenvalues --   -0.01483  -0.00307  -0.00305   0.00121   0.00155
 Alpha virt. eigenvalues --    0.03611   0.04585   0.06021   0.06108   0.06908
 Alpha virt. eigenvalues --    0.07173   0.07681   0.08178   0.08550   0.08575
 Alpha virt. eigenvalues --    0.08994   0.09634   0.09713   0.10610   0.10918
 Alpha virt. eigenvalues --    0.11462   0.11489   0.12207   0.12262   0.12785
 Alpha virt. eigenvalues --    0.12814   0.13287   0.13414   0.13786   0.13867
 Alpha virt. eigenvalues --    0.14617   0.14749   0.15176   0.15512   0.15658
 Alpha virt. eigenvalues --    0.16046   0.16314   0.16456   0.17011   0.17112
 Alpha virt. eigenvalues --    0.17547   0.17647   0.19572   0.20179   0.20274
 Alpha virt. eigenvalues --    0.20383   0.24147   0.24659   0.24812   0.25614
 Alpha virt. eigenvalues --    0.25799   0.26234   0.27151   0.27303   0.27862
 Alpha virt. eigenvalues --    0.28497   0.28594   0.28882   0.29479   0.29499
 Alpha virt. eigenvalues --    0.30081   0.30200   0.30219   0.30868   0.31135
 Alpha virt. eigenvalues --    0.31366   0.31570   0.31625   0.32047   0.32360
 Alpha virt. eigenvalues --    0.32573   0.33156   0.33209   0.34634   0.34749
 Alpha virt. eigenvalues --    0.35267   0.35788   0.36559   0.36744   0.37387
 Alpha virt. eigenvalues --    0.37423   0.38740   0.40061   0.40474   0.40880
 Alpha virt. eigenvalues --    0.40907   0.41622   0.41925   0.41951   0.42628
 Alpha virt. eigenvalues --    0.42956   0.43103   0.43647   0.43749   0.44543
 Alpha virt. eigenvalues --    0.44558   0.45219   0.45253   0.45730   0.45849
 Alpha virt. eigenvalues --    0.46266   0.46449   0.46642   0.46801   0.47425
 Alpha virt. eigenvalues --    0.47617   0.47741   0.48431   0.48486   0.48603
 Alpha virt. eigenvalues --    0.48876   0.49037   0.49060   0.49355   0.49660
 Alpha virt. eigenvalues --    0.49884   0.50227   0.50261   0.50985   0.51034
 Alpha virt. eigenvalues --    0.52134   0.52165   0.52965   0.53229   0.53402
 Alpha virt. eigenvalues --    0.53543   0.54670   0.54739   0.54981   0.55166
 Alpha virt. eigenvalues --    0.55568   0.55603   0.56434   0.56743   0.57591
 Alpha virt. eigenvalues --    0.57779   0.57990   0.58113   0.58229   0.58609
 Alpha virt. eigenvalues --    0.59455   0.60744   0.61087   0.61820   0.62509
 Alpha virt. eigenvalues --    0.62698   0.62961   0.63342   0.63823   0.64530
 Alpha virt. eigenvalues --    0.65827   0.65872   0.66083   0.66399   0.66707
 Alpha virt. eigenvalues --    0.66850   0.67383   0.67542   0.67750   0.67795
 Alpha virt. eigenvalues --    0.68475   0.68546   0.68569   0.68659   0.69007
 Alpha virt. eigenvalues --    0.69316   0.69383   0.69541   0.69584   0.69888
 Alpha virt. eigenvalues --    0.69960   0.70048   0.70761   0.71332   0.71362
 Alpha virt. eigenvalues --    0.71617   0.72003   0.72017   0.72359   0.72769
 Alpha virt. eigenvalues --    0.72842   0.72968   0.73248   0.73755   0.74274
 Alpha virt. eigenvalues --    0.74323   0.74582   0.74846   0.75014   0.75755
 Alpha virt. eigenvalues --    0.75808   0.75871   0.76058   0.76229   0.77108
 Alpha virt. eigenvalues --    0.77459   0.77618   0.77722   0.78005   0.78171
 Alpha virt. eigenvalues --    0.78401   0.78946   0.79325   0.79936   0.80036
 Alpha virt. eigenvalues --    0.80909   0.81317   0.81600   0.81765   0.83367
 Alpha virt. eigenvalues --    0.83386   0.83709   0.84080   0.84237   0.84533
 Alpha virt. eigenvalues --    0.84656   0.85573   0.86183   0.86497   0.87026
 Alpha virt. eigenvalues --    0.87159   0.88607   0.89271   0.89961   0.90975
 Alpha virt. eigenvalues --    0.93198   0.93918   0.94255   0.96057   0.96315
 Alpha virt. eigenvalues --    0.96526   0.97586   0.98160   0.99697   1.01932
 Alpha virt. eigenvalues --    1.02283   1.02423   1.03722   1.04551   1.05286
 Alpha virt. eigenvalues --    1.07412   1.07432   1.09382   1.09433   1.10015
 Alpha virt. eigenvalues --    1.10429   1.11688   1.13483   1.13932   1.14999
 Alpha virt. eigenvalues --    1.15402   1.15836   1.18400   1.19166   1.20621
 Alpha virt. eigenvalues --    1.21744   1.23034   1.24327   1.25181   1.26934
 Alpha virt. eigenvalues --    1.27381   1.28006   1.28164   1.28340   1.28622
 Alpha virt. eigenvalues --    1.29110   1.30417   1.31132   1.32214   1.33844
 Alpha virt. eigenvalues --    1.34281   1.34733   1.35446   1.38816   1.40481
 Alpha virt. eigenvalues --    1.41392   1.41510   1.42264   1.42307   1.43687
 Alpha virt. eigenvalues --    1.43864   1.44905   1.46865   1.47441   1.47628
 Alpha virt. eigenvalues --    1.47804   1.47975   1.48077   1.48193   1.48543
 Alpha virt. eigenvalues --    1.49072   1.49137   1.49593   1.49892   1.50017
 Alpha virt. eigenvalues --    1.50513   1.50625   1.50834   1.50975   1.51823
 Alpha virt. eigenvalues --    1.52213   1.52733   1.52867   1.53621   1.55225
 Alpha virt. eigenvalues --    1.55526   1.60756   1.62502   1.64005   1.65446
 Alpha virt. eigenvalues --    1.70460   1.72520   1.74224   1.74306   1.74553
 Alpha virt. eigenvalues --    1.75530   1.75664   1.77448   1.77479   1.77807
 Alpha virt. eigenvalues --    1.77898   1.78748   1.78910   1.79236   1.79349
 Alpha virt. eigenvalues --    1.79558   1.81591   1.81901   1.82747   1.82747
 Alpha virt. eigenvalues --    1.83037   1.83711   1.84680   1.85231   1.86417
 Alpha virt. eigenvalues --    1.86681   1.86909   1.88096   1.88391   1.88722
 Alpha virt. eigenvalues --    1.88834   1.89659   1.89691   1.95405   1.95709
 Alpha virt. eigenvalues --    1.96274   1.97008   1.97322   1.97577   1.98765
 Alpha virt. eigenvalues --    1.98881   2.00061   2.00193   2.00755   2.04074
 Alpha virt. eigenvalues --    2.04160   2.05511   2.06568   2.06644   2.08147
 Alpha virt. eigenvalues --    2.08187   2.08832   2.08902   2.09230   2.09373
 Alpha virt. eigenvalues --    2.09829   2.09976   2.11060   2.12147   2.13046
 Alpha virt. eigenvalues --    2.13323   2.13999   2.14504   2.15315   2.15542
 Alpha virt. eigenvalues --    2.16252   2.16617   2.17315   2.19512   2.20606
 Alpha virt. eigenvalues --    2.21441   2.22045   2.22811   2.25237   2.25633
 Alpha virt. eigenvalues --    2.26061   2.26553   2.28122   2.28774   2.29305
 Alpha virt. eigenvalues --    2.29628   2.30105   2.30282   2.30870   2.31188
 Alpha virt. eigenvalues --    2.31388   2.31458   2.31901   2.32573   2.32791
 Alpha virt. eigenvalues --    2.33113   2.34370   2.35649   2.37067   2.40945
 Alpha virt. eigenvalues --    2.41567   2.43721   2.43779   2.45990   2.46049
 Alpha virt. eigenvalues --    2.46198   2.46292   2.48618   2.48734   2.49545
 Alpha virt. eigenvalues --    2.49754   2.50523   2.51274   2.53361   2.53702
 Alpha virt. eigenvalues --    2.55435   2.55919   2.57327   2.59603   2.59728
 Alpha virt. eigenvalues --    2.61903   2.62459   2.63318   2.65161   2.66266
[...]
 6,-0.00001040,-0.00000790,-0.00000474,0.00000610,0.00008681,-0.0000527
 4,-0.00003314,-0.00007422,-0.00024779,0.00014605,-0.00022410,-0.000098
 72,-0.00009322,0.00012860,0.00078698,-0.00028973,-0.00151406,0.0000977
 5,-0.00004750,-0.00005214,-0.00006545,-0.00000365,0.00001123,-0.000014
 84,-0.00001127,-0.00000168,-0.00005488,0.00001594,0.00000337,-0.000025
 38,0.00002262,0.00000395,0.00009337,0.00004948,-0.00000587,-0.00007947
 ,-0.00002259,-0.00002120,0.00002125,0.00002462,0.00000712,0.00000481,-
 0.00000415,0.00002088,-0.00000522,-0.00000394,-0.00001161,-0.00000007,
 -0.00000384,0.00001038,-0.00000333,-0.00000261,-0.00000657,-0.00000011
 ,0.00000061,-0.00000048,-0.00000206,0.00000073,-0.00001202,0.00002148,
 0.00000797,0.00000031,-0.00000835,-0.00000158,-0.00000343,0.00000238,0
 .00000579,-0.00000080,-0.00000248,-0.00000159,-0.00000217,-0.00000105,
 -0.00000048,0.00000008,-0.00000048,-0.00000053,0.00000041,0.00000023,0
 .00000237,0.00000455,-0.00004679,-0.00001660,0.00000151,0.00000745,0.0
 0006309,0.00001927,-0.00013382,-0.00003958,-0.00005829,-0.00040359,-0.
 00008746,0.00025723,-0.01255805,0.01627251,0.01094254,-0.00050436,0.00
 292843,-0.00292559,-0.00024582,0.00040488,-0.00091514,0.00156228,0.000
 78861,-0.00504810,0.01815956,-0.02445623,-0.00319531,0.04352680,-0.052
 93118,-0.07706910,0.00002458,-0.00000472,0.00005821,0.00000599,-0.0000
 0590,-0.00002040,0.00000693,-0.00000320,0.00000476,0.00001285,-0.00000
 718,0.00000823,0.00000738,0.00000639,-0.00001158,-0.00003299,-0.000008
 80,-0.00004736,0.00002461,-0.00003696,0.00000885,-0.00001058,0.0000161
 5,0.00000718,-0.00000078,0.00000405,0.00000748,-0.00000910,-0.00000782
 ,0.00000039,0.00000011,0.00000272,0.00001506,-0.00000292,0.00000157,-0
 .00000671,-0.00000218,-0.00000053,-0.00000115,-0.00000083,-0.00000049,
 -0.00000132,0.00000324,0.00000132,-0.00000071,-0.00000512,-0.00000844,
 0.00000219,0.00000094,-0.00000289,-0.00000138,0.00000135,-0.00000013,-
 0.00000096,0.00000005,-0.00000071,0.00000105,-0.00000065,-0.00000144,0
 .00000093,0.00000010,-0.00000116,-0.00000111,0.00001216,0.00000769,-0.
 00000825,0.00003205,-0.00000606,0.00001591,0.00029943,0.00037098,-0.00
 038297,-0.00000311,-0.00004884,0.00025165,-0.00071733,0.00094649,0.000
 27712,-0.00009614,-0.00013037,0.00005261,0.00086641,-0.00103185,-0.000
 25448,-0.00088833,-0.00009211,0.00119483,-0.04928963,0.05737400,0.0784
 9690,0.00238848,0.00319621,-0.00288533,0.00034964,-0.00069260,-0.00010
 530,0.00248289,0.00293954,0.00163106,-0.00414362,0.00657954,0.00162179
 ,-0.00251772,-0.00090123,-0.00071927,-0.00043402,-0.00028469,-0.002215
 02,0.00020179,0.00000221,-0.00093789,0.00006657,0.00000481,-0.00005932
 ,0.00002464,0.00005796,0.00003518,-0.00000882,0.00000233,0.00000983,-0
 .00000105,0.00000344,-0.00000219,0.00000120,-0.00000255,0.00000584,-0.
 00002026,-0.00000360,-0.00000071,0.00001769,0.00000099,0.00000274,-0.0
 0000518,-0.00000520,-0.00000055,-0.00000014,0.00000110,-0.00000361,0.0
 0000055,-0.00000049,0.00000158,0.00000050,0.00000010,-0.00000114,0.000
 00068,0.00000010,0.00000048,0.00000022,-0.00000027,0.00000004,0.000000
 66,-0.00000031,0.00000242,-0.00000745,-0.00000278,0.00000207,0.0000023
 0,-0.00000013,0.00000035,-0.00000033,-0.00000320,0.00000016,0.00000188
 ,0.00000127,0.00000182,0.00000020,-0.00000026,0.00000002,0.00000024,0.
 00000004,-0.00000012,0.00000025,-0.00000048,-0.00000139,0.00001081,-0.
 00000095,-0.00000227,-0.00003571,-0.00003007,0.00003451,-0.00016960,-0
 .00037761,0.00026426,-0.00012581,0.00022675,-0.00017482,-0.00001255,0.
 00000839,-0.00000412,0.00000247,0.00001355,0.00001281,0.00000507,0.000
 00101,-0.00001838,0.00000686,-0.00001314,0.00000333,-0.00000616,-0.000
 00044,0.00001059,-0.00000291,0.00000795,-0.00001271,-0.24054182,0.1395
 8066,0.01824033,-0.00725759,0.00781044,0.00321020,-0.00031346,0.000400
 56,0.00018943,-0.00038660,-0.00046400,0.00001746,-0.00023325,0.0002638
 8,-0.00019112,0.00018397,0.00001252,0.00035647,0.00002350,-0.00000209,
 0.00000489,0.00000405,-0.00000383,-0.00000195,0.00000010,-0.00000066,-
 0.00000026,0.00000247,0.00000176,-0.00000057,-0.00000037,0.00000047,-0
 .00000201,-0.00000029,0.00000016,0.00000054,0.00000027,0.00000038,0.00
 000050,0.00000044,0.00000055,0.00000020,-0.00000065,0.00000008,-0.0000
 0024,0.00000107,0.00000158,-0.00000043,-0.00000116,0.00000209,0.000000
 15,-0.00000097,-0.00000008,0.00000030,0.00000020,0.00000065,-0.0000007
 3,0.00000020,0.00000063,-0.00000021,-0.00000029,0.00000019,0.00000023,
 -0.00000539,-0.00000168,0.00000059,0.00000030,0.00000141,-0.00001174,0
 .00000385,-0.00002551,0.00005594,-0.00004244,-0.00000768,-0.00002310,-
 0.00000368,-0.00001427,-0.00000215,-0.00000107,0.00000016,-0.00000031,
 0.00000080,-0.00000021,0.00000223,0.00000038,-0.00000069,0.00000266,0.
 00000589,0.00000264,0.00000821,0.25124899,0.00294063,0.00499070,0.0012
 2465,-0.00068208,-0.00019324,-0.00002221,0.00263521,0.00451819,-0.0016
 2555,0.00712636,-0.00083368,-0.00053059,-0.00112631,-0.00319540,0.0009
 2462,-0.00004961,-0.00008529,0.00155158,0.00009836,0.00015162,0.000231
 49,-0.00010322,0.00004077,-0.00007480,0.00004095,0.00004385,-0.0000165
 3,-0.00000026,-0.00002287,-0.00001088,0.00000324,-0.00000671,0.,-0.000
 02881,-0.00001162,0.00001166,0.00000807,0.00005425,-0.00001724,0.00000
 706,-0.00002398,0.00000898,-0.00000363,0.00000440,-0.00000129,-0.00000
 198,-0.00000291,-0.00000322,0.00000238,0.00000066,0.00000218,0.0000002
 2,-0.00000002,-0.00000113,0.00000062,-0.00000007,0.00000078,-0.0000006
 8,-0.00000105,0.00000015,0.00000160,-0.00000011,0.00000081,-0.00000278
 ,-0.00000785,0.00000138,0.00000281,-0.00000036,-0.00000728,0.00000554,
 -0.00000267,0.00000237,0.00000344,-0.00000221,0.00000174,0.00000105,-0
 .00000174,0.00000396,0.00000058,-0.00000160,-0.00000015,0.00000026,-0.
 00000180,0.00000104,-0.00000410,-0.00003213,0.00000134,0.00001659,0.00
 000909,0.00002712,-0.00020426,-0.00050392,-0.00011643,-0.00009975,0.00
 012339,-0.00079624,-0.00006803,-0.00013134,0.00001169,0.00000632,-0.00
 000829,-0.00001528,0.00000402,0.00000768,-0.00000086,0.00000022,-0.000
 00776,-0.00000408,0.00000223,0.00000667,0.00000513,0.00000822,-0.00000
 101,0.00001384,0.14115301,-0.13679157,-0.01533044,0.00582663,-0.000575
 09,-0.00191664,0.00028149,0.00003310,-0.00013139,-0.00042953,-0.000719
 07,0.00004443,0.00035373,-0.00001056,0.00007357,0.00030299,0.00003469,
 0.00036700,0.00002049,-0.00003783,0.00006638,0.00000577,-0.00000523,0.
 00000255,-0.00000098,-0.00000145,0.00000002,0.00000016,-0.00000018,0.0
 0000037,-0.00000037,0.00000050,-0.00000149,-0.00000024,0.00000016,0.00
 000109,0.00000026,0.00000043,0.00000063,0.00000012,0.00000055,-0.00000
 002,-0.00000157,0.00000011,0.00000032,-0.00000111,0.00000098,-0.000000
 04,-0.00000347,0.00000504,-0.00000320,-0.00000347,0.00000289,0.0000017
 8,-0.00000161,0.00000098,-0.00000045,-0.00000053,0.00000122,-0.0000000
 3,-0.00000099,0.00000154,0.00000026,-0.00001754,0.00000930,-0.00000414
 ,-0.00001871,-0.00001277,-0.00002521,0.00001167,0.00002684,-0.00000973
 ,0.00005295,0.00000115,-0.00002340,0.00000059,0.00000299,-0.00000074,0
 .00000260,0.00000154,-0.00000074,-0.00000016,0.00000110,0.00000039,-0.
 00000052,0.00000051,0.00000050,-0.00000892,0.00001001,-0.00000131,-0.1
 5579105,0.13568529,-0.00212081,0.00087136,-0.00373369,-0.00012601,0.00
 002321,-0.00104842,0.00078879,-0.00111853,-0.00503736,0.02357037,-0.01
 623324,0.00279778,0.00098835,-0.00027384,0.00066153,0.00061642,-0.0000
 7964,0.00010583,-0.00247504,-0.00153844,-0.00124151,-0.00005835,0.0000
 7519,0.00012158,0.00011600,-0.00003923,-0.00004034,-0.00002772,0.00005
 646,-0.00000251,0.00011653,0.00001554,-0.00001991,0.00006777,-0.000088
 82,-0.00003230,-0.00016074,-0.00013376,0.00004385,0.00012473,0.0000606
 0,-0.00000460,-0.00003015,-0.00004661,0.00000113,0.00000473,0.00001551
 ,-0.00001854,-0.00000369,-0.00000685,0.00000605,0.00000328,0.00000140,
 -0.00000604,0.00000300,0.00000132,0.00000088,0.00000312,0.00000079,0.0
 0000016,0.00000077,-0.00000163,0.00001573,-0.00005759,-0.00000403,0.00
 001563,0.00000802,-0.00000311,0.00002740,-0.00000817,-0.00000453,-0.00
 001255,0.00000311,0.00001160,0.00001130,0.00000012,0.00000259,-0.00001
 045,-0.00000192,0.00000037,-0.00000012,0.00000046,-0.00000261,-0.00001
 630,0.00010044,0.00005324,-0.00004172,-0.00007949,-0.00006804,-0.00000
 188,0.00019752,0.00164271,-0.00000311,0.00056861,0.00002474,0.00010461
 ,-0.00007652,0.00006627,-0.00010130,-0.00001764,-0.00006491,0.00008130
 ,-0.00002498,0.00001539,0.00001853,-0.00001697,0.00001713,0.00002305,-
 0.00001132,0.00002011,-0.00003640,0.00002656,-0.00004267,0.00004615,0.
 01729560,-0.01373064,-0.05890339,-0.02155394,0.01477096,0.00612913,-0.
 00096653,0.00065155,0.00014447,0.00004089,0.00003949,0.00007966,0.0013
 0683,-0.00086831,-0.00014272,-0.00009476,0.00002533,0.00013899,-0.0000
 4751,0.00007777,-0.00002374,0.00001316,-0.00002470,0.00000479,0.000001
 08,-0.00000506,0.00000391,0.00001853,0.00001105,-0.00000428,-0.0000020
 9,0.00000207,-0.00001075,-0.00000194,0.00000005,0.00000075,0.00000198,
 0.00000151,0.00000260,0.00000363,0.00000273,0.00000128,-0.00000086,0.0
 0000026,-0.00000277,0.00000936,0.00000979,-0.00000435,0.00000334,0.000
 00268,0.00001507,0.00000313,-0.00000553,-0.00000577,0.00000371,0.00000
 133,-0.00000368,0.00000237,0.00000161,-0.00000205,-0.00000135,-0.00000
 369,0.00000144,-0.00001428,-0.00001140,0.00003588,-0.00004084,0.000008
 03,0.00001120,-0.00016699,-0.00007113,0.00017736,-0.00006371,0.0001177
 5,0.00002488,0.00001568,0.00003539,-0.00001233,-0.00000216,0.00001306,
 0.00001554,-0.00000263,0.00000695,0.00000642,0.00000127,-0.00000258,0.
 00000440,-0.00001344,0.00003544,-0.00003997,-0.01844511,0.01586860,0.0
 5842823,-0.00366697,0.00651538,0.02477971,-0.00162200,0.00582589,-0.00
 081368,-0.00072139,-0.00004439,-0.00060418,0.00102910,0.00388103,-0.00
 274655,0.00029304,-0.00020204,-0.00053608,0.00002642,-0.00003780,0.000
 10961,-0.00002732,0.00005602,-0.00000697,0.00000870,-0.00000925,0.0000
 1019,-0.00000147,0.00000859,0.00000010,0.00000235,0.00000199,0.0000036
 9,-0.00000540,-0.00000084,0.00000080,-0.00000553,0.00000127,0.00000105
 ,-0.00001031,0.00001242,-0.00000448,0.00001239,-0.00000484,0.00000573,
 -0.00000554,-0.00000231,-0.00000143,-0.00000113,-0.00000026,-0.0000038
 3,0.00000110,-0.00000009,0.00000200,0.00000038,0.00000015,-0.00000111,
 0.00000069,0.00000014,0.00000055,-0.00000030,-0.00000063,0.00000017,0.
 00000122,-0.00000006,0.00000190,-0.00000408,-0.00000339,0.,0.00000263,
 0.00000012,-0.00000345,0.00000183,-0.00000305,0.00000225,0.00000208,-0
 .00000157,-0.00000061,0.00000058,-0.00000093,0.00000323,0.00000032,-0.
 00000056,-0.00000011,0.00000046,-0.00000034,0.,0.00000432,-0.00000794,
 0.00000169,-0.00000280,-0.00000041,0.00000579,0.00002069,-0.00001729,0
 .00002284,0.00005549,0.00009769,-0.00006435,-0.00000500,-0.00002844,-0
 .00000241,-0.00001072,0.00000876,-0.00000892,0.00000318,-0.00000024,-0
 .00000161,0.00000218,-0.00000237,-0.00000300,-0.00000109,-0.00000085,0
 .00000372,-0.00000241,-0.00000650,-0.00000130,0.00906311,-0.00435308,-
 0.01523238,-0.08241347,0.03479646,0.08157870,-0.00039942,-0.00258846,-
 0.00025777,-0.00026137,0.00037483,0.00112413,-0.00028753,-0.00055721,0
 .00007846,-0.00010652,0.00006319,-0.00012432,0.00000016,0.00000222,-0.
 00000389,0.00000032,-0.00000047,-0.00000157,-0.00000010,0.00000005,-0.
 00000119,0.00000125,0.00000120,-0.00000027,-0.00000030,0.00000034,-0.0
 0000193,-0.00000033,0.00000003,0.00000072,0.00000036,0.00000038,0.0000
 0072,0.00000052,0.00000063,0.00000009,-0.00000115,-0.00000002,-0.00000
 011,0.00000026,0.00000153,0.00000007,-0.00000195,0.00000285,-0.0000027
 8,-0.00000286,0.00000149,0.00000221,-0.00000076,0.00000054,-0.00000076
 ,0.00000023,0.00000124,-0.00000002,-0.00000032,0.00000092,0.00000058,-
 0.00000549,0.00000110,-0.00000316,-0.00000207,-0.00000227,-0.00000557,
 -0.00000041,0.00000179,-0.00001092,0.00002726,-0.00003293,0.00001165,-
 0.00000014,-0.00000274,0.00000170,0.00000017,-0.00000058,-0.00000219,0
 .00000025,0.00000012,0.00000090,0.00000073,-0.00000024,0.00000043,0.00
 000218,0.00000025,0.00000090,-0.00076170,-0.00227214,0.00068596,0.0797
 7338,0.00490070,-0.00044329,-0.01684062,0.00587076,0.00312936,0.000230
 08,0.00004102,-0.00077793,0.00051030,0.00391410,0.00463141,0.00171204,
 -0.00031147,0.00021004,0.00026699,0.00000291,-0.00002472,-0.00006341,-
 0.00000243,0.00007116,-0.00000662,0.00000460,-0.00000717,0.00000383,0.
 00000633,0.00000305,-0.00000032,-0.00000303,-0.00000156,-0.00000229,0.
 00000131,0.00000152,-0.00000098,-0.00000375,-0.00000579,0.00000241,0.0
 0001177,0.00002888,-0.00000793,-0.00000325,-0.00001396,0.00000405,-0.0
 0000021,0.00000539,-0.00000071,-0.00000110,-0.00000230,-0.00000028,0.0
 0000133,0.00000059,0.00000067,0.00000001,-0.00000015,-0.00000027,0.000
 00010,-0.00000025,0.00000029,-0.00000039,-0.00000063,0.00000007,0.0000
 0084,-0.00000006,-0.00000074,0.00000478,-0.00000134,-0.00000126,0.0000
 0036,0.00000009,-0.00000436,0.00000418,0.00000090,0.00000072,0.0000017
 0,-0.00000189,0.00000090,0.00000134,-0.00000152,0.00000183,0.00000053,
 -0.00000184,0.00000010,0.00000018,-0.00000139,0.00000153,-0.00000801,-
 0.00001794,0.00000359,0.00000030,0.00000330,0.00000254,0.00002688,-0.0
 0000803,0.00004030,0.00011337,0.00006495,0.00000650,-0.00000296,-0.000
 01142,-0.00002569,-0.00000993,-0.00000581,-0.00000017,-0.00000664,-0.0
 0000111,0.00000380,-0.00000542,0.00000555,0.00000058,0.00000498,-0.000
 00370,-0.00000999,0.00000022,-0.00000434,0.00001478,-0.00282231,0.0062
 8626,0.00875297,0.03496889,-0.06581118,-0.06938851,-0.00253526,-0.0024
 4783,0.00044943,0.00032729,-0.00002317,-0.00079097,-0.00053582,-0.0007
 4829,-0.00000259,-0.00004485,-0.00000947,0.00005566,-0.00000078,0.0000
 0115,0.00000513,0.00000224,-0.00000250,0.00000202,0.00000087,0.0000009
 0,0.00000028,-0.00000090,-0.00000036,0.00000027,-0.00000018,0.00000021
 ,-0.00000006,-0.00000007,0.00000013,0.00000054,-0.00000002,0.00000022,
 0.00000013,-0.00000031,0.00000015,-0.00000012,-0.00000077,0.00000017,0
 .00000043,-0.00000157,-0.00000045,0.00000005,-0.00000151,0.00000131,-0
 .00000113,-0.00000161,0.00000273,0.00000013,-0.00000204,0.00000066,0.0
 0000061,-0.00000128,0.00000032,-0.00000002,-0.00000078,0.00000101,-0.0
 0000021,-0.00000304,0.00000633,-0.00000281,-0.00000168,-0.00000285,-0.
 00000267,0.00000863,-0.00000650,-0.00000324,0.00005190,-0.00001924,0.0
 0000480,0.00000762,0.00000975,0.00000073,0.00000114,0.00000104,0.00000
 104,0.00000088,0.00000126,-0.00000024,0.00000100,0.00000086,0.00000053
 ,-0.00000130,0.00000144,-0.00000149,-0.00249639,-0.00253880,-0.0001853
 9,-0.04147403,0.05847668,-0.00133591,0.00072191,0.00116406,0.00021563,
 -0.00044783,0.00170638,-0.00068485,0.00051927,0.00054754,-0.00370418,0
 .00180951,-0.00236502,0.00098070,-0.00057015,-0.00041526,-0.00024895,-
 0.00000130,-0.00000048,0.00023411,0.00015880,0.00005004,0.00001149,-0.
 00002638,0.00001456,-0.00003777,0.00000903,0.00000259,0.00000493,-0.00
 000929,0.00000813,-0.00003087,0.00000027,0.00000538,-0.00001504,0.0000
 1833,0.00000561,0.00003395,0.00003754,-0.00001475,-0.00002495,-0.00001
 617,0.00000755,0.00000349,0.00001011,-0.00000241,-0.00000290,-0.000004
 55,0.00000118,0.00000178,0.00000249,0.00000062,-0.00000091,0.00000042,
 0.00000028,-0.00000037,0.00000023,0.00000077,-0.00000123,-0.00000041,0
 .00000018,0.00000082,0.00000083,-0.00000277,0.00001504,-0.00000167,-0.
 00000712,-0.00000018,0.00000184,-0.00001067,0.00000330,-0.00000080,0.0
 0000593,0.00000005,-0.00000518,-0.00000456,0.00000063,-0.00000110,0.00
 000542,0.00000074,-0.00000036,-0.00000005,-0.00000023,0.00000040,0.000
 00480,-0.00002619,-0.00001346,0.00001752,0.00000278,0.00001796,0.00001
 017,-0.00009602,-0.00016001,-0.00000973,0.00000828,0.00010564,-0.00012
 469,-0.00005722,-0.00003699,0.00004952,-0.00000758,0.00000399,-0.00002
 742,-0.00000280,0.00000853,0.00000178,0.00000600,-0.00000525,-0.000014
 66,-0.00000132,-0.00000227,0.00001329,0.00000474,-0.00001856,-0.000030
 90,0.01051426,-0.00841747,-0.01843918,0.08183469,-0.06935087,-0.283863
 31,0.00044610,-0.00002019,0.00073476,-0.00012096,0.00005845,-0.0000559
 0,0.00008501,0.00000373,-0.00006680,-0.00014158,0.00008178,-0.00025368
 ,0.00000974,-0.00001787,-0.00000842,-0.00000503,0.00000757,-0.00000455
 ,-0.00000077,0.00000167,-0.00000256,-0.00000453,-0.00000177,0.00000124
 ,0.00000053,-0.00000112,0.00000069,0.00000071,-0.00000058,0.00000088,0
 .00000014,-0.00000037,-0.00000014,-0.00000054,-0.00000058,-0.00000031,
 -0.00000074,-0.00000046,0.00000092,-0.00000176,-0.00000097,0.00000152,
 -0.00000211,0.00000081,-0.00000678,-0.00000275,0.00000304,0.00000362,-
 0.00000196,-0.00000030,0.00000085,-0.00000040,0.00000036,0.00000040,0.
 00000065,0.00000199,0.00000034,0.00000212,0.00000107,-0.00001560,0.000
 01501,0.00000057,-0.00000874,-0.00000004,0.00002923,-0.00002764,0.0000
 0948,0.00000866,0.00001218,-0.00000084,0.00001059,0.00000627,0.0000055
 9,-0.00000347,-0.00000424,0.00000196,-0.00000056,-0.00000613,-0.000000
 49,0.00000375,-0.00000766,0.00000600,-0.00000287,0.00001081,0.00009288
 ,0.00023836,0.00125636,-0.08798936,0.07526241,0.30014799\\-0.00000152,
 0.00000050,0.00000267,0.00000097,-0.00000057,-0.00000225,0.00000250,-0
 .00000245,-0.00000152,-0.00000033,-0.00000048,0.00000751,-0.00000784,0
 .00001186,-0.00000301,0.00000441,-0.00001474,-0.00000223,-0.00000064,0
 .00001482,0.00000530,0.00000452,0.00000280,-0.00000130,0.00000239,-0.0
 0000365,-0.00000108,-0.00000134,0.00000321,0.00000032,-0.00000081,-0.0
 0000092,0.00000069,-0.00000332,0.00000066,0.00000138,0.00000138,0.0000
 1379,-0.00000433,-0.00000523,-0.00001372,0.00000204,0.00000691,0.00001
 208,0.00000388,-0.00000093,0.00000004,-0.00000642,0.00000191,0.0000010
 8,0.00000458,-0.00000093,0.00000017,-0.00000289,0.00000082,0.00000056,
 -0.00000214,-0.00000111,-0.00000029,0.00000095,-0.00000173,-0.00000079
 ,0.00000194,0.00001016,-0.00000119,-0.00000567,-0.00000093,0.00000271,
 0.00000369,0.00000190,-0.00000035,-0.00000532,-0.00000253,-0.00000235,
 0.00000443,0.00000184,0.00000326,0.00000203,-0.00000105,-0.00000169,-0
 .00000397,-0.00000301,-0.00000266,0.00000097,-0.00000688,-0.00000667,0
 .00000567,-0.00000233,-0.00000533,0.00000062,0.00000480,-0.00000834,-0
 .00000552,-0.00000730,-0.00000058,0.00000407,0.00000231,0.00000006,-0.
 00000235,0.00000092,-0.00000216,-0.00000078,0.00000078,-0.00000147,0.0
 0000211,-0.00000105,0.00000251,-0.00000162,0.00000148,-0.00000086,-0.0
 0000346,-0.00000151,0.00000080,0.00000400,-0.00000127,0.00000195,-0.00
 000516,0.00000246,-0.00000143,0.00000338,-0.00000005,-0.00000021,-0.00
 000010,-0.00000051,-0.00000025,0.00000082,-0.00000089,-0.00000013,0.00
 000097,0.00000057,0.00000093,0.00000137,-0.00000082,0.00000088,0.00000
 031,0.00000013,-0.00000076,0.00000025,0.00000086,0.00000051,0.00000020
 ,-0.00000043,0.00000008,-0.00000139,-0.00000008,-0.00000054,-0.0000009
 0,0.00000014,0.00000011,0.00000014,-0.00000005,0.00000060,-0.00000010,
 0.00000031,0.00000018,-0.00000089,0.00000072,0.00000030,-0.00000098,0.
 00000066,-0.00000074,-0.00000014,-0.00000050,-0.00000036,0.00000038,-0
 .00000010,-0.00000015,-0.00000068,-0.00000040,-0.00000070,-0.00000091,
 0.,0.00000048,0.00000003,0.00000029,0.00000067,-0.00000038,-0.00000009
 ,-0.00000125,-0.00000185,0.00000094,0.00000056,0.00000011,-0.00000024,
 -0.00000021,0.00000063,-0.00000002,-0.00000029,0.00000031,-0.00000010,
 0.00000082,0.00000003,-0.00000002,0.00000075,-0.00000024,0.00000028,-0
 .00000026,0.00000063,0.00000019,0.00000025,0.00000063,0.00000078,0.000
 00015,-0.00000009,-0.00000015,-0.00000113,0.00000069,-0.00000026,-0.00
 000047,-0.00000004\\\@
 The archive entry for this job was punched.


 GETTING A SIMPLE ANSWER FROM A PROFESSOR IS LIKE
 GETTING A THIMBLE OF WATER FROM A FIRE HYDRANT.
     -- PROF. LEN SHAPIRO, NDSU
 Job cpu time:       0 days  6 hours 29 minutes 14.3 seconds.
 Elapsed time:       0 days  0 hours  9 minutes 49.9 seconds.
 File lengths (MBytes):  RWF=   2911 Int=      0 D2E=      0 Chk=     35 Scr=      1
 Normal termination of Gaussian 16 at Mon Feb 26 00:11:01 2024.
