 Entering Gaussian System, Link 0=g16
 Initial command:
 /public/apps/g16-C01//g16/l1.exe "/public/home/ljq/tmp/Gau-77436.inp" -scrdir="/public/home/ljq/tmp/"
 Entering Link 1 = /public/apps/g16-C01//g16/l1.exe PID=     77437.
  
 Copyright (c) 1988-2019, Gaussian, Inc.  All Rights Reserved.
  
 This is part of the Gaussian(R) 16 program.  It is based on
 the Gaussian(R) 09 system (copyright 2009, Gaussian, Inc.),
 the Gaussian(R) 03 system (copyright 2003, Gaussian, Inc.),
 the Gaussian(R) 98 system (copyright 1998, Gaussian, Inc.),
 the Gaussian(R) 94 system (copyright 1995, Gaussian, Inc.),
 the Gaussian 92(TM) system (copyright 1992, Gaussian, Inc.),
 the Gaussian 90(TM) system (copyright 1990, Gaussian, Inc.),
 the Gaussian 88(TM) system (copyright 1988, Gaussian, Inc.),
 the Gaussian 86(TM) system (copyright 1986, Carnegie Mellon
 University), and the Gaussian 82(TM) system (copyright 1983,
 Carnegie Mellon University). Gaussian is a federally registered
 trademark of Gaussian, Inc.
  
 This software contains proprietary and confidential information,
 including trade secrets, belonging to Gaussian, Inc.
  
 This software is provided under written license and may be
 used, copied, transmitted, or stored only in accord with that
 written license.
  
 The following legend is applicable only to US Government
 contracts under FAR:
  
                    RESTRICTED RIGHTS LEGEND
  
 Use, reproduction and disclosure by the US Government is
 subject to restrictions as set forth in subparagraphs (a)
 and (c) of the Commercial Computer Software - Restricted
 Rights clause in FAR 52.227-19.
  
 Gaussian, Inc.
 340 Quinnipiac St., Bldg. 40, Wallingford CT 06492
  
  
 ---------------------------------------------------------------
 Warning -- This program may not be used in any manner that
 competes with the business of Gaussian, Inc. or will provide
 assistance to any competitor of Gaussian, Inc.  The licensee
 of this program is prohibited from giving any competitor of
 Gaussian, Inc. access to this program.  By using this program,
 the user acknowledges that Gaussian, Inc. is engaged in the
 business of creating and licensing software in the field of
 computational chemistry and represents and warrants to the
 licensee that it is not a competitor of Gaussian, Inc. and that
 it will not use this program in any manner prohibited above.
 ---------------------------------------------------------------
  

 Cite this work as:
 Gaussian 16, Revision C.01,
 M. J. Frisch, G. W. Trucks, H. B. Schlegel, G. E. Scuseria, 
 M. A. Robb, J. R. Cheeseman, G. Scalmani, V. Barone, 
 G. A. Petersson, H. Nakatsuji, X. Li, M. Caricato, A. V. Marenich, 
 J. Bloino, B. G. Janesko, R. Gomperts, B. Mennucci, H. P. Hratchian, 
 J. V. Ortiz, A. F. Izmaylov, J. L. Sonnenberg, D. Williams-Young, 
 F. Ding, F. Lipparini, F. Egidi, J. Goings, B. Peng, A. Petrone, 
 T. Henderson, D. Ranasinghe, V. G. Zakrzewski, J. Gao, N. Rega, 
 G. Zheng, W. Liang, M. Hada, M. Ehara, K. Toyota, R. Fukuda, 
 J. Hasegawa, M. Ishida, T. Nakajima, Y. Honda, O. Kitao, H. Nakai, 
 T. Vreven, K. Throssell, J. A. Montgomery, Jr., J. E. Peralta, 
 F. Ogliaro, M. J. Bearpark, J. J. Heyd, E. N. Brothers, K. N. Kudin, 
 V. N. Staroverov, T. A. Keith, R. Kobayashi, J. Normand, 
 K. Raghavachari, A. P. Rendell, J. C. Burant, S. S. Iyengar, 
 J. Tomasi, M. Cossi, J. M. Millam, M. Klene, C. Adamo, R. Cammi, 
 J. W. Ochterski, R. L. Martin, K. Morokuma, O. Farkas, 
 J. B. Foresman, and D. J. Fox, Gaussian, Inc., Wallingford CT, 2019.
 
 ******************************************
 Gaussian 16:  ES64L-G16RevC.01  3-Jul-2019
                26-Feb-2024 
 ******************************************
 %nproc=40
 Will use up to   40 processors via shared memory.
 %mem=56GB
 ------------------------------------------
 #p opt freq b3lyp/def2svpp em=gd3bj nosymm
 ------------------------------------------
 1/18=20,19=15,26=3,38=1/1,3;
 2/9=110,12=2,15=1,17=6,18=5,40=1/2;
 3/5=43,7=202,11=2,25=1,30=1,71=1,74=-5,124=41/1,2,3;
 4//1;
 5/5=2,38=5/2;
 6/7=2,8=2,9=2,10=2,28=1/1;
 7/30=1/1,2,3,16;
 1/18=20,19=15,26=3/3(2);
 2/9=110,15=1/2;
 99//99;
 2/9=110,15=1/2;
 3/5=43,7=202,11=2,25=1,30=1,71=1,74=-5,124=41/1,2,3;
 4/5=5,16=3,69=1/1;
 5/5=2,38=5/2;
 7/30=1/1,2,3,16;
 1/18=20,19=15,26=3/3(-5);
 2/9=110,15=1/2;
 6/7=2,8=2,9=2,10=2,19=2,28=1/1;
 99/9=1/99;
 Leave Link    1 at Mon Feb 26 10:54:19 2024, MaxMem=  7516192768 cpu:               1.1 elap:               0.0
 (Enter /public/apps/g16-C01//g16/l101.exe)
 ----------------------
 $$$$Singlemol####0????
 ----------------------
 Symbolic Z-matrix:
 Charge =  0 Multiplicity = 1
 C                    -0.34712   3.85304  -2.08089 
 C                    -1.48438   4.24882  -1.3968 
 C                    -2.24565   3.31385  -0.721 
 C                    -1.87435   1.97515  -0.723 
 C                    -2.74052   0.97257  -0.00732 
 N                    -2.08375  -0.28574   0.21049 
 C                    -2.75122  -1.19425  -0.36506 
 C                    -2.3948   -2.60498  -0.36786 
 C                    -3.34214  -3.60667  -0.55811 
 C                    -2.9938   -4.95149  -0.5232 
 C                    -1.6886   -5.35118  -0.30212 
 C                    -0.71904  -4.37159  -0.12826 
 C                    -1.07585  -3.00795  -0.16716 
 O                    -0.0023   -2.20298  -0.01276 
 C                     1.06716  -3.01406   0.13921 
 C                     2.38684  -2.61815   0.34781 
 C                     2.7492   -1.20846   0.35066 
 N                     2.11026  -0.30168  -0.25872 
 C                     2.76498   0.95533  -0.02579 
 C                     1.87318   1.97467   0.63096 
 C                     2.20239   3.32143   0.54602 
 C                     1.41509   4.27177   1.16866 
 C                     0.29461   3.88334   1.88358 
 C                    -0.03396   2.54248   1.97118 
 C                     0.75062   1.58827   1.34855 
 C                     3.98992   0.56979   0.8899 
 C                     5.29843   0.9573    0.26756 
 C                     5.92675   2.1361    0.64856 
 C                     7.10642   2.52524   0.04042 
 C                     7.67143   1.73802  -0.94907 
 C                     7.04916   0.56211  -1.33203 
 C                     5.86486   0.1755   -0.73125 
 O                     3.86186  -0.84068   1.03843 
 C                     3.32813  -3.6248    0.54068 
 C                     2.97359  -4.96788   0.49823 
 C                     1.66774  -5.36053   0.26872 
 C                     0.70357  -4.37567   0.0947 
 O                    -3.8906   -0.82632  -1.00764 
 C                    -4.0133    0.58439  -0.85329 
 C                    -5.28746   0.96306  -0.15742 
 C                    -5.98329   2.1014   -0.5431 
 C                    -7.13099   2.47881   0.13052 
 C                    -7.59636   1.71967   1.19111 
 C                    -6.90674   0.58353   1.5791 
 C                    -5.75453   0.20912   0.91214 
 C                    -0.7353    1.5812   -1.40931 
 C                     0.02412   2.52057  -2.08404 
 H                     0.24911   4.58508  -2.60596 
 H                    -1.77627   5.28906  -1.38678 
 H                    -3.13208   3.62065  -0.18267 
 H                    -3.04254   1.38711   0.96331 
 H                    -4.36753  -3.31741  -0.72931 
 H                    -3.76153  -5.69608  -0.66992 
 H                    -1.42403  -6.39685  -0.27138 
 H                     3.11946   1.35208  -0.98609 
 H                     3.07621   3.62286  -0.01533 
 H                     1.67357   5.31806   1.09271 
 H                    -0.32233   4.6271    2.36653 
 H                    -0.90893   2.23378   2.52345 
 H                     0.47466   0.54577   1.38779 
 H                     3.88679   1.02692   1.8823 
 H                     5.48592   2.74737   1.42325 
 H                     7.58858   3.44341   0.34242 
 H                     8.59512   2.04035  -1.41993 
 H                     7.48575  -0.05525  -2.10341 
 H                     5.377    -0.74067  -1.03162 
 H                     4.35382  -3.34166   0.72023 
 H                     3.73694  -5.71667   0.64641 
 H                     1.39843  -6.40482   0.23269 
 H                    -3.96908   1.04082  -1.85006 
 H                    -5.62105   2.69089  -1.37342 
 H                    -7.66604   3.36575  -0.1757 
 H                    -8.495     2.01268   1.71351 
 H                    -7.26554  -0.0119    2.40584 
 H                    -5.21425  -0.67597   1.21639 
 H                    -0.42852   0.54687  -1.38479 
 H                     0.91272   2.20636  -2.61087 
 
 ITRead=  0  0  0  0  0  0  0  0  0  0  0  0  0  0  0  0  0  0  0  0
 ITRead=  0  0  0  0  0  0  0  0  0  0  0  0  0  0  0  0  0  0  0  0
 ITRead=  0  0  0  0  0  0  0  0  0  0  0  0  0  0  0  0  0  0  0  0
 ITRead=  0  0  0  0  0  0  0  0  0  0  0  0  0  0  0  0  0
 MicOpt= -1 -1 -1 -1 -1 -1 -1 -1 -1 -1 -1 -1 -1 -1 -1 -1 -1 -1 -1 -1
 MicOpt= -1 -1 -1 -1 -1 -1 -1 -1 -1 -1 -1 -1 -1 -1 -1 -1 -1 -1 -1 -1
 MicOpt= -1 -1 -1 -1 -1 -1 -1 -1 -1 -1 -1 -1 -1 -1 -1 -1 -1 -1 -1 -1
 MicOpt= -1 -1 -1 -1 -1 -1 -1 -1 -1 -1 -1 -1 -1 -1 -1 -1 -1
 NAtoms=     77 NQM=       77 NQMF=       0 NMMI=      0 NMMIF=      0
                NMic=       0 NMicF=      0.
                    Isotopes and Nuclear Properties:
 (Nuclear quadrupole moments (NQMom) in fm**2, nuclear magnetic moments (NMagM)
  in nuclear magnetons)

  Atom         1           2           3           4           5           6           7           8           9          10
 IAtWgt=          12          12          12          12          12          14          12          12          12          12
 AtmWgt=  12.0000000  12.0000000  12.0000000  12.0000000  12.0000000  14.0030740  12.0000000  12.0000000  12.0000000  12.0000000
 NucSpn=           0           0           0           0           0           2           0           0           0           0
 AtZEff=  -0.0000000  -0.0000000  -0.0000000  -0.0000000  -0.0000000  -0.0000000  -0.0000000  -0.0000000  -0.0000000  -0.0000000
 NQMom=    0.0000000   0.0000000   0.0000000   0.0000000   0.0000000   2.0440000   0.0000000   0.0000000   0.0000000   0.0000000
 NMagM=    0.0000000   0.0000000   0.0000000   0.0000000   0.0000000   0.4037610   0.0000000   0.0000000   0.0000000   0.0000000
 AtZNuc=   6.0000000   6.0000000   6.0000000   6.0000000   6.0000000   7.0000000   6.0000000   6.0000000   6.0000000   6.0000000

  Atom        11          12          13          14          15          16          17          18          19          20
 IAtWgt=          12          12          12          16          12          12          12          14          12          12
 AtmWgt=  12.0000000  12.0000000  12.0000000  15.9949146  12.0000000  12.0000000  12.0000000  14.0030740  12.0000000  12.0000000
 NucSpn=           0           0           0           0           0           0           0           2           0           0
 AtZEff=  -0.0000000  -0.0000000  -0.0000000  -0.0000000  -0.0000000  -0.0000000  -0.0000000  -0.0000000  -0.0000000  -0.0000000
 NQMom=    0.0000000   0.0000000   0.0000000   0.0000000   0.0000000   0.0000000   0.0000000   2.0440000   0.0000000   0.0000000
 NMagM=    0.0000000   0.0000000   0.0000000   0.0000000   0.0000000   0.0000000   0.0000000   0.4037610   0.0000000   0.0000000
 AtZNuc=   6.0000000   6.0000000   6.0000000   8.0000000   6.0000000   6.0000000   6.0000000   7.0000000   6.0000000   6.0000000

  Atom        21          22          23          24          25          26          27          28          29          30
 IAtWgt=          12          12          12          12          12          12          12          12          12          12
 AtmWgt=  12.0000000  12.0000000  12.0000000  12.0000000  12.0000000  12.0000000  12.0000000  12.0000000  12.0000000  12.0000000
 NucSpn=           0           0           0           0           0           0           0           0           0           0
 AtZEff=  -0.0000000  -0.0000000  -0.0000000  -0.0000000  -0.0000000  -0.0000000  -0.0000000  -0.0000000  -0.0000000  -0.0000000
 NQMom=    0.0000000   0.0000000   0.0000000   0.0000000   0.0000000   0.0000000   0.0000000   0.0000000   0.0000000   0.0000000
 NMagM=    0.0000000   0.0000000   0.0000000   0.0000000   0.0000000   0.0000000   0.0000000   0.0000000   0.0000000   0.0000000
 AtZNuc=   6.0000000   6.0000000   6.0000000   6.0000000   6.0000000   6.0000000   6.0000000   6.0000000   6.0000000   6.0000000

  Atom        31          32          33          34          35          36          37          38          39          40
 IAtWgt=          12          12          16          12          12          12          12          16          12          12
 AtmWgt=  12.0000000  12.0000000  15.9949146  12.0000000  12.0000000  12.0000000  12.0000000  15.9949146  12.0000000  12.0000000
 NucSpn=           0           0           0           0           0           0           0           0           0           0
 AtZEff=  -0.0000000  -0.0000000  -0.0000000  -0.0000000  -0.0000000  -0.0000000  -0.0000000  -0.0000000  -0.0000000  -0.0000000
 NQMom=    0.0000000   0.0000000   0.0000000   0.0000000   0.0000000   0.0000000   0.0000000   0.0000000   0.0000000   0.0000000
 NMagM=    0.0000000   0.0000000   0.0000000   0.0000000   0.0000000   0.0000000   0.0000000   0.0000000   0.0000000   0.0000000
 AtZNuc=   6.0000000   6.0000000   8.0000000   6.0000000   6.0000000   6.0000000   6.0000000   8.0000000   6.0000000   6.0000000

  Atom        41          42          43          44          45          46          47          48          49          50
 IAtWgt=          12          12          12          12          12          12          12           1           1           1
 AtmWgt=  12.0000000  12.0000000  12.0000000  12.0000000  12.0000000  12.0000000  12.0000000   1.0078250   1.0078250   1.0078250
 NucSpn=           0           0           0           0           0           0           0           1           1           1
 AtZEff=  -0.0000000  -0.0000000  -0.0000000  -0.0000000  -0.0000000  -0.0000000  -0.0000000  -0.0000000  -0.0000000  -0.0000000
 NQMom=    0.0000000   0.0000000   0.0000000   0.0000000   0.0000000   0.0000000   0.0000000   0.0000000   0.0000000   0.0000000
 NMagM=    0.0000000   0.0000000   0.0000000   0.0000000   0.0000000   0.0000000   0.0000000   2.7928460   2.7928460   2.7928460
 AtZNuc=   6.0000000   6.0000000   6.0000000   6.0000000   6.0000000   6.0000000   6.0000000   1.0000000   1.0000000   1.0000000

  Atom        51          52          53          54          55          56          57          58          59          60
 IAtWgt=           1           1           1           1           1           1           1           1           1           1
 AtmWgt=   1.0078250   1.0078250   1.0078250   1.0078250   1.0078250   1.0078250   1.0078250   1.0078250   1.0078250   1.0078250
 NucSpn=           1           1           1           1           1           1           1           1           1           1
 AtZEff=  -0.0000000  -0.0000000  -0.0000000  -0.0000000  -0.0000000  -0.0000000  -0.0000000  -0.0000000  -0.0000000  -0.0000000
 NQMom=    0.0000000   0.0000000   0.0000000   0.0000000   0.0000000   0.0000000   0.0000000   0.0000000   0.0000000   0.0000000
 NMagM=    2.7928460   2.7928460   2.7928460   2.7928460   2.7928460   2.7928460   2.7928460   2.7928460   2.7928460   2.7928460
 AtZNuc=   1.0000000   1.0000000   1.0000000   1.0000000   1.0000000   1.0000000   1.0000000   1.0000000   1.0000000   1.0000000

  Atom        61          62          63          64          65          66          67          68          69          70
 IAtWgt=           1           1           1           1           1           1           1           1           1           1
 AtmWgt=   1.0078250   1.0078250   1.0078250   1.0078250   1.0078250   1.0078250   1.0078250   1.0078250   1.0078250   1.0078250
 NucSpn=           1           1           1           1           1           1           1           1           1           1
 AtZEff=  -0.0000000  -0.0000000  -0.0000000  -0.0000000  -0.0000000  -0.0000000  -0.0000000  -0.0000000  -0.0000000  -0.0000000
 NQMom=    0.0000000   0.0000000   0.0000000   0.0000000   0.0000000   0.0000000   0.0000000   0.0000000   0.0000000   0.0000000
 NMagM=    2.7928460   2.7928460   2.7928460   2.7928460   2.7928460   2.7928460   2.7928460   2.7928460   2.7928460   2.7928460
 AtZNuc=   1.0000000   1.0000000   1.0000000   1.0000000   1.0000000   1.0000000   1.0000000   1.0000000   1.0000000   1.0000000

  Atom        71          72          73          74          75          76          77
 IAtWgt=           1           1           1           1           1           1           1
 AtmWgt=   1.0078250   1.0078250   1.0078250   1.0078250   1.0078250   1.0078250   1.0078250
 NucSpn=           1           1           1           1           1           1           1
 AtZEff=  -0.0000000  -0.0000000  -0.0000000  -0.0000000  -0.0000000  -0.0000000  -0.0000000
 NQMom=    0.0000000   0.0000000   0.0000000   0.0000000   0.0000000   0.0000000   0.0000000
 NMagM=    2.7928460   2.7928460   2.7928460   2.7928460   2.7928460   2.7928460   2.7928460
 AtZNuc=   1.0000000   1.0000000   1.0000000   1.0000000   1.0000000   1.0000000   1.0000000
 Leave Link  101 at Mon Feb 26 10:54:19 2024, MaxMem=  7516192768 cpu:               7.2 elap:               0.2
 (Enter /public/apps/g16-C01//g16/l103.exe)

 GradGradGradGradGradGradGradGradGradGradGradGradGradGradGradGradGradGrad
 Berny optimization.
 Initialization pass.
                           ----------------------------
                           !    Initial Parameters    !
                           ! (Angstroms and Degrees)  !
 --------------------------                            --------------------------
 ! Name  Definition              Value          Derivative Info.                !
 --------------------------------------------------------------------------------
 ! R1    R(1,2)                  1.3849         estimate D2E/DX2                !
 ! R2    R(1,47)                 1.3832         estimate D2E/DX2                !
 ! R3    R(1,48)                 1.0803         estimate D2E/DX2                !
 ! R4    R(2,3)                  1.3822         estimate D2E/DX2                !
 ! R5    R(2,49)                 1.0805         estimate D2E/DX2                !
 ! R6    R(3,4)                  1.3892         estimate D2E/DX2                !
 ! R7    R(3,50)                 1.0815         estimate D2E/DX2                !
 ! R8    R(4,5)                  1.5059         estimate D2E/DX2                !
 ! R9    R(4,46)                 1.387          estimate D2E/DX2                !
 ! R10   R(5,6)                  1.436          estimate D2E/DX2                !
 ! R11   R(5,39)                 1.5768         estimate D2E/DX2                !
 ! R12   R(5,51)                 1.0978         estimate D2E/DX2                !
 ! R13   R(6,7)                  1.2658         estimate D2E/DX2                !
 ! R14   R(7,8)                  1.4551         estimate D2E/DX2                !
 ! R15   R(7,38)                 1.3589         estimate D2E/DX2                !
 ! R16   R(8,9)                  1.3918         estimate D2E/DX2                !
 ! R17   R(8,13)                 1.3937         estimate D2E/DX2                !
 ! R18   R(9,10)                 1.3896         estimate D2E/DX2                !
 ! R19   R(9,52)                 1.0791         estimate D2E/DX2                !
 ! R20   R(10,11)                1.3828         estimate D2E/DX2                !
 ! R21   R(10,53)                1.0795         estimate D2E/DX2                !
 ! R22   R(11,12)                1.3892         estimate D2E/DX2                !
 ! R23   R(11,54)                1.0791         estimate D2E/DX2                !
 ! R24   R(12,13)                1.4101         estimate D2E/DX2                !
 ! R25   R(12,37)                1.44           estimate D2E/DX2                !
 ! R26   R(13,14)                1.3507         estimate D2E/DX2                !
 ! R27   R(14,15)                1.3508         estimate D2E/DX2                !
 ! R28   R(15,16)                1.3935         estimate D2E/DX2                !
 ! R29   R(15,37)                1.41           estimate D2E/DX2                !
 ! R30   R(16,17)                1.4555         estimate D2E/DX2                !
 ! R31   R(16,34)                1.3916         estimate D2E/DX2                !
 ! R32   R(17,18)                1.2656         estimate D2E/DX2                !
 ! R33   R(17,33)                1.3588         estimate D2E/DX2                !
 ! R34   R(18,19)                1.4363         estimate D2E/DX2                !
 ! R35   R(19,20)                1.5052         estimate D2E/DX2                !
 ! R36   R(19,26)                1.5772         estimate D2E/DX2                !
 ! R37   R(19,55)                1.0978         estimate D2E/DX2                !
 ! R38   R(20,21)                1.389          estimate D2E/DX2                !
 ! R39   R(20,25)                1.3872         estimate D2E/DX2                !
 ! R40   R(21,22)                1.3823         estimate D2E/DX2                !
 ! R41   R(21,56)                1.0814         estimate D2E/DX2                !
 ! R42   R(22,23)                1.3847         estimate D2E/DX2                !
 ! R43   R(22,57)                1.0804         estimate D2E/DX2                !
 ! R44   R(23,24)                1.3833         estimate D2E/DX2                !
 ! R45   R(23,58)                1.0803         estimate D2E/DX2                !
 ! R46   R(24,25)                1.3834         estimate D2E/DX2                !
 ! R47   R(24,59)                1.0798         estimate D2E/DX2                !
 ! R48   R(25,60)                1.0791         estimate D2E/DX2                !
 ! R49   R(26,27)                1.4999         estimate D2E/DX2                !
 ! R50   R(26,33)                1.424          estimate D2E/DX2                !
 ! R51   R(26,61)                1.0975         estimate D2E/DX2                !
 ! R52   R(27,28)                1.3891         estimate D2E/DX2                !
 ! R53   R(27,32)                1.3891         estimate D2E/DX2                !
 ! R54   R(28,29)                1.3831         estimate D2E/DX2                !
 ! R55   R(28,62)                1.0808         estimate D2E/DX2                !
 ! R56   R(29,30)                1.3849         estimate D2E/DX2                !
 ! R57   R(29,63)                1.0801         estimate D2E/DX2                !
 ! R58   R(30,31)                1.3844         estimate D2E/DX2                !
 ! R59   R(30,64)                1.08           estimate D2E/DX2                !
 ! R60   R(31,32)                1.3831         estimate D2E/DX2                !
 ! R61   R(31,65)                1.0802         estimate D2E/DX2                !
 ! R62   R(32,66)                1.0805         estimate D2E/DX2                !
 ! R63   R(34,35)                1.3897         estimate D2E/DX2                !
 ! R64   R(34,67)                1.0791         estimate D2E/DX2                !
 ! R65   R(35,36)                1.3828         estimate D2E/DX2                !
 ! R66   R(35,68)                1.0795         estimate D2E/DX2                !
 ! R67   R(36,37)                1.3892         estimate D2E/DX2                !
 ! R68   R(36,69)                1.0791         estimate D2E/DX2                !
 ! R69   R(38,39)                1.4244         estimate D2E/DX2                !
 ! R70   R(39,40)                1.5004         estimate D2E/DX2                !
 ! R71   R(39,70)                1.0972         estimate D2E/DX2                !
 ! R72   R(40,41)                1.3888         estimate D2E/DX2                !
 ! R73   R(40,45)                1.3894         estimate D2E/DX2                !
 ! R74   R(41,42)                1.3833         estimate D2E/DX2                !
 ! R75   R(41,71)                1.0808         estimate D2E/DX2                !
 ! R76   R(42,43)                1.3848         estimate D2E/DX2                !
 ! R77   R(42,72)                1.0801         estimate D2E/DX2                !
 ! R78   R(43,44)                1.3845         estimate D2E/DX2                !
 ! R79   R(43,73)                1.08           estimate D2E/DX2                !
 ! R80   R(44,45)                1.383          estimate D2E/DX2                !
 ! R81   R(44,74)                1.0802         estimate D2E/DX2                !
 ! R82   R(45,75)                1.0807         estimate D2E/DX2                !
 ! R83   R(46,47)                1.3836         estimate D2E/DX2                !
 ! R84   R(46,76)                1.0791         estimate D2E/DX2                !
 ! R85   R(47,77)                1.0798         estimate D2E/DX2                !
 ! A1    A(2,1,47)             119.7896         estimate D2E/DX2                !
 ! A2    A(2,1,48)             119.9767         estimate D2E/DX2                !
 ! A3    A(47,1,48)            120.2331         estimate D2E/DX2                !
 ! A4    A(1,2,3)              120.0324         estimate D2E/DX2                !
 ! A5    A(1,2,49)             120.1038         estimate D2E/DX2                !
 ! A6    A(3,2,49)             119.8634         estimate D2E/DX2                !
 ! A7    A(2,3,4)              120.2603         estimate D2E/DX2                !
 ! A8    A(2,3,50)             120.193          estimate D2E/DX2                !
 ! A9    A(4,3,50)             119.5459         estimate D2E/DX2                !
 ! A10   A(3,4,5)              119.1535         estimate D2E/DX2                !
 ! A11   A(3,4,46)             119.5979         estimate D2E/DX2                !
 ! A12   A(5,4,46)             121.2286         estimate D2E/DX2                !
 ! A13   A(4,5,6)              113.105          estimate D2E/DX2                !
 ! A14   A(4,5,39)             111.914          estimate D2E/DX2                !
 ! A15   A(4,5,51)             109.0896         estimate D2E/DX2                !
 ! A16   A(6,5,39)             103.5815         estimate D2E/DX2                !
 ! A17   A(6,5,51)             108.8202         estimate D2E/DX2                !
 ! A18   A(39,5,51)            110.1968         estimate D2E/DX2                !
 ! A19   A(5,6,7)              108.5904         estimate D2E/DX2                !
 ! A20   A(6,7,8)              124.5827         estimate D2E/DX2                !
 ! A21   A(6,7,38)             117.5701         estimate D2E/DX2                !
 ! A22   A(8,7,38)             117.8396         estimate D2E/DX2                !
 ! A23   A(7,8,9)              122.0955         estimate D2E/DX2                !
 ! A24   A(7,8,13)             120.7891         estimate D2E/DX2                !
 ! A25   A(9,8,13)             117.1136         estimate D2E/DX2                !
 ! A26   A(8,9,10)             121.4974         estimate D2E/DX2                !
 ! A27   A(8,9,52)             118.396          estimate D2E/DX2                !
 ! A28   A(10,9,52)            120.1055         estimate D2E/DX2                !
 ! A29   A(9,10,11)            121.3541         estimate D2E/DX2                !
 ! A30   A(9,10,53)            119.0659         estimate D2E/DX2                !
 ! A31   A(11,10,53)           119.5798         estimate D2E/DX2                !
 ! A32   A(10,11,12)           118.3561         estimate D2E/DX2                !
 ! A33   A(10,11,54)           121.0687         estimate D2E/DX2                !
 ! A34   A(12,11,54)           120.5738         estimate D2E/DX2                !
 ! A35   A(11,12,13)           120.1233         estimate D2E/DX2                !
 ! A36   A(11,12,37)           134.9819         estimate D2E/DX2                !
 ! A37   A(13,12,37)           104.8927         estimate D2E/DX2                !
 ! A38   A(8,13,12)            121.5389         estimate D2E/DX2                !
 ! A39   A(8,13,14)            126.6089         estimate D2E/DX2                !
 ! A40   A(12,13,14)           111.8431         estimate D2E/DX2                !
 ! A41   A(13,14,15)           106.5164         estimate D2E/DX2                !
 ! A42   A(14,15,16)           126.5861         estimate D2E/DX2                !
 ! A43   A(14,15,37)           111.8462         estimate D2E/DX2                !
 ! A44   A(16,15,37)           121.5532         estimate D2E/DX2                !
 ! A45   A(15,16,17)           120.7459         estimate D2E/DX2                !
 ! A46   A(15,16,34)           117.1165         estimate D2E/DX2                !
 ! A47   A(17,16,34)           122.1361         estimate D2E/DX2                !
 ! A48   A(16,17,18)           124.5605         estimate D2E/DX2                !
 ! A49   A(16,17,33)           117.8396         estimate D2E/DX2                !
 ! A50   A(18,17,33)           117.5923         estimate D2E/DX2                !
 ! A51   A(17,18,19)           108.5914         estimate D2E/DX2                !
 ! A52   A(18,19,20)           113.1634         estimate D2E/DX2                !
 ! A53   A(18,19,26)           103.5471         estimate D2E/DX2                !
 ! A54   A(18,19,55)           108.7596         estimate D2E/DX2                !
 ! A55   A(20,19,26)           111.8618         estimate D2E/DX2                !
 ! A56   A(20,19,55)           109.1612         estimate D2E/DX2                !
 ! A57   A(26,19,55)           110.2071         estimate D2E/DX2                !
 ! A58   A(19,20,21)           119.3075         estimate D2E/DX2                !
 ! A59   A(19,20,25)           121.0982         estimate D2E/DX2                !
 ! A60   A(21,20,25)           119.5708         estimate D2E/DX2                !
 ! A61   A(20,21,22)           120.2694         estimate D2E/DX2                !
 ! A62   A(20,21,56)           119.571          estimate D2E/DX2                !
 ! A63   A(22,21,56)           120.1588         estimate D2E/DX2                !
 ! A64   A(21,22,23)           120.0388         estimate D2E/DX2                !
 ! A65   A(21,22,57)           119.8594         estimate D2E/DX2                !
 ! A66   A(23,22,57)           120.1013         estimate D2E/DX2                !
 ! A67   A(22,23,24)           119.788          estimate D2E/DX2                !
 ! A68   A(22,23,58)           119.9863         estimate D2E/DX2                !
 ! A69   A(24,23,58)           120.225          estimate D2E/DX2                !
 ! A70   A(23,24,25)           120.3572         estimate D2E/DX2                !
 ! A71   A(23,24,59)           120.1321         estimate D2E/DX2                !
 ! A72   A(25,24,59)           119.5101         estimate D2E/DX2                !
 ! A73   A(20,25,24)           119.9755         estimate D2E/DX2                !
 ! A74   A(20,25,60)           119.6591         estimate D2E/DX2                !
 ! A75   A(24,25,60)           120.3287         estimate D2E/DX2                !
 ! A76   A(19,26,27)           111.9318         estimate D2E/DX2                !
 ! A77   A(19,26,33)           103.4636         estimate D2E/DX2                !
 ! A78   A(19,26,61)           110.4989         estimate D2E/DX2                !
 ! A79   A(27,26,33)           112.1867         estimate D2E/DX2                !
 ! A80   A(27,26,61)           110.4603         estimate D2E/DX2                !
 ! A81   A(33,26,61)           108.047          estimate D2E/DX2                !
 ! A82   A(26,27,28)           120.0039         estimate D2E/DX2                !
 ! A83   A(26,27,32)           120.5747         estimate D2E/DX2                !
 ! A84   A(28,27,32)           119.3657         estimate D2E/DX2                !
 ! A85   A(27,28,29)           120.2636         estimate D2E/DX2                !
 ! A86   A(27,28,62)           119.477          estimate D2E/DX2                !
 ! A87   A(29,28,62)           120.2594         estimate D2E/DX2                !
 ! A88   A(28,29,30)           120.1451         estimate D2E/DX2                !
 ! A89   A(28,29,63)           119.7998         estimate D2E/DX2                !
 ! A90   A(30,29,63)           120.0546         estimate D2E/DX2                !
 ! A91   A(29,30,31)           119.806          estimate D2E/DX2                !
 ! A92   A(29,30,64)           120.0873         estimate D2E/DX2                !
 ! A93   A(31,30,64)           120.1067         estimate D2E/DX2                !
 ! A94   A(30,31,32)           120.1417         estimate D2E/DX2                !
 ! A95   A(30,31,65)           120.0879         estimate D2E/DX2                !
 ! A96   A(32,31,65)           119.7702         estimate D2E/DX2                !
 ! A97   A(27,32,31)           120.275          estimate D2E/DX2                !
 ! A98   A(27,32,66)           119.5353         estimate D2E/DX2                !
 ! A99   A(31,32,66)           120.1885         estimate D2E/DX2                !
 ! A100  A(17,33,26)           106.7943         estimate D2E/DX2                !
 ! A101  A(16,34,35)           121.4867         estimate D2E/DX2                !
 ! A102  A(16,34,67)           118.4365         estimate D2E/DX2                !
 ! A103  A(35,34,67)           120.0756         estimate D2E/DX2                !
 ! A104  A(34,35,36)           121.3597         estimate D2E/DX2                !
 ! A105  A(34,35,68)           119.0628         estimate D2E/DX2                !
 ! A106  A(36,35,68)           119.5775         estimate D2E/DX2                !
 ! A107  A(35,36,37)           118.3541         estimate D2E/DX2                !
 ! A108  A(35,36,69)           121.0671         estimate D2E/DX2                !
 ! A109  A(37,36,69)           120.577          estimate D2E/DX2                !
 ! A110  A(12,37,15)           104.8861         estimate D2E/DX2                !
 ! A111  A(12,37,36)           134.9985         estimate D2E/DX2                !
 ! A112  A(15,37,36)           120.111          estimate D2E/DX2                !
 ! A113  A(7,38,39)            106.8066         estimate D2E/DX2                !
 ! A114  A(5,39,38)            103.4395         estimate D2E/DX2                !
 ! A115  A(5,39,40)            111.9952         estimate D2E/DX2                !
 ! A116  A(5,39,70)            110.6378         estimate D2E/DX2                !
 ! A117  A(38,39,40)           111.9231         estimate D2E/DX2                !
 ! A118  A(38,39,70)           108.0638         estimate D2E/DX2                !
 ! A119  A(40,39,70)           110.5229         estimate D2E/DX2                !
 ! A120  A(39,40,41)           120.2358         estimate D2E/DX2                !
 ! A121  A(39,40,45)           120.3678         estimate D2E/DX2                !
 ! A122  A(41,40,45)           119.3482         estimate D2E/DX2                !
 ! A123  A(40,41,42)           120.272          estimate D2E/DX2                !
 ! A124  A(40,41,71)           119.5037         estimate D2E/DX2                !
 ! A125  A(42,41,71)           120.2243         estimate D2E/DX2                !
 ! A126  A(41,42,43)           120.147          estimate D2E/DX2                !
 ! A127  A(41,42,72)           119.8001         estimate D2E/DX2                !
 ! A128  A(43,42,72)           120.0524         estimate D2E/DX2                !
 ! A129  A(42,43,44)           119.807          estimate D2E/DX2                !
 ! A130  A(42,43,73)           120.0908         estimate D2E/DX2                !
 ! A131  A(44,43,73)           120.1022         estimate D2E/DX2                !
 ! A132  A(43,44,45)           120.1314         estimate D2E/DX2                !
 ! A133  A(43,44,74)           120.091          estimate D2E/DX2                !
 ! A134  A(45,44,74)           119.7773         estimate D2E/DX2                !
 ! A135  A(40,45,44)           120.2919         estimate D2E/DX2                !
 ! A136  A(40,45,75)           119.5435         estimate D2E/DX2                !
 ! A137  A(44,45,75)           120.1637         estimate D2E/DX2                !
 ! A138  A(4,46,47)            119.9488         estimate D2E/DX2                !
 ! A139  A(4,46,76)            119.6342         estimate D2E/DX2                !
 ! A140  A(47,46,76)           120.3835         estimate D2E/DX2                !
 ! A141  A(1,47,46)            120.3708         estimate D2E/DX2                !
 ! A142  A(1,47,77)            120.1527         estimate D2E/DX2                !
 ! A143  A(46,47,77)           119.476          estimate D2E/DX2                !
 ! D1    D(47,1,2,3)            -0.0653         estimate D2E/DX2                !
 ! D2    D(47,1,2,49)          179.6882         estimate D2E/DX2                !
 ! D3    D(48,1,2,3)          -179.7897         estimate D2E/DX2                !
 ! D4    D(48,1,2,49)           -0.0362         estimate D2E/DX2                !
 ! D5    D(2,1,47,46)            0.0908         estimate D2E/DX2                !
 ! D6    D(2,1,47,77)         -179.658          estimate D2E/DX2                !
 ! D7    D(48,1,47,46)         179.8145         estimate D2E/DX2                !
 ! D8    D(48,1,47,77)           0.0657         estimate D2E/DX2                !
 ! D9    D(1,2,3,4)              0.068          estimate D2E/DX2                !
 ! D10   D(1,2,3,50)           179.7571         estimate D2E/DX2                !
 ! D11   D(49,2,3,4)          -179.6862         estimate D2E/DX2                !
 ! D12   D(49,2,3,50)            0.0029         estimate D2E/DX2                !
 ! D13   D(2,3,4,5)           -178.4902         estimate D2E/DX2                !
 ! D14   D(2,3,4,46)            -0.0951         estimate D2E/DX2                !
 ! D15   D(50,3,4,5)             1.8187         estimate D2E/DX2                !
 ! D16   D(50,3,4,46)         -179.7862         estimate D2E/DX2                !
 ! D17   D(3,4,5,6)           -164.8175         estimate D2E/DX2                !
 ! D18   D(3,4,5,39)            78.6427         estimate D2E/DX2                !
 ! D19   D(3,4,5,51)           -43.5663         estimate D2E/DX2                !
 ! D20   D(46,4,5,6)            16.8145         estimate D2E/DX2                !
 ! D21   D(46,4,5,39)          -99.7252         estimate D2E/DX2                !
 ! D22   D(46,4,5,51)          138.0658         estimate D2E/DX2                !
 ! D23   D(3,4,46,47)            0.1199         estimate D2E/DX2                !
 ! D24   D(3,4,46,76)          178.0238         estimate D2E/DX2                !
 ! D25   D(5,4,46,47)          178.4807         estimate D2E/DX2                !
 ! D26   D(5,4,46,76)           -3.6154         estimate D2E/DX2                !
 ! D27   D(4,5,6,7)           -120.3102         estimate D2E/DX2                !
 ! D28   D(39,5,6,7)             1.0558         estimate D2E/DX2                !
 ! D29   D(51,5,6,7)           118.2865         estimate D2E/DX2                !
 ! D30   D(4,5,39,38)          121.5086         estimate D2E/DX2                !
 ! D31   D(4,5,39,40)         -117.7921         estimate D2E/DX2                !
 ! D32   D(4,5,39,70)            5.9987         estimate D2E/DX2                !
 ! D33   D(6,5,39,38)           -0.6545         estimate D2E/DX2                !
 ! D34   D(6,5,39,40)          120.0448         estimate D2E/DX2                !
 ! D35   D(6,5,39,70)         -116.1644         estimate D2E/DX2                !
 ! D36   D(51,5,39,38)        -116.9175         estimate D2E/DX2                !
 ! D37   D(51,5,39,40)           3.7818         estimate D2E/DX2                !
 ! D38   D(51,5,39,70)         127.5725         estimate D2E/DX2                !
 ! D39   D(5,6,7,8)            179.8753         estimate D2E/DX2                !
 ! D40   D(5,6,7,38)            -1.158          estimate D2E/DX2                !
 ! D41   D(6,7,8,9)            155.7823         estimate D2E/DX2                !
 ! D42   D(6,7,8,13)           -23.7169         estimate D2E/DX2                !
 ! D43   D(38,7,8,9)           -23.1819         estimate D2E/DX2                !
 ! D44   D(38,7,8,13)          157.3189         estimate D2E/DX2                !
 ! D45   D(6,7,38,39)            0.6822         estimate D2E/DX2                !
 ! D46   D(8,7,38,39)          179.7202         estimate D2E/DX2                !
 ! D47   D(7,8,9,10)          -178.2708         estimate D2E/DX2                !
 ! D48   D(7,8,9,52)             1.3355         estimate D2E/DX2                !
 ! D49   D(13,8,9,10)            1.2458         estimate D2E/DX2                !
 ! D50   D(13,8,9,52)         -179.1479         estimate D2E/DX2                !
 ! D51   D(7,8,13,12)          178.1409         estimate D2E/DX2                !
 ! D52   D(7,8,13,14)           -3.053          estimate D2E/DX2                !
 ! D53   D(9,8,13,12)           -1.3824         estimate D2E/DX2                !
 ! D54   D(9,8,13,14)          177.4236         estimate D2E/DX2                !
 ! D55   D(8,9,10,11)           -0.221          estimate D2E/DX2                !
 ! D56   D(8,9,10,53)          179.6362         estimate D2E/DX2                !
 ! D57   D(52,9,10,11)        -179.8207         estimate D2E/DX2                !
 ! D58   D(52,9,10,53)           0.0366         estimate D2E/DX2                !
 ! D59   D(9,10,11,12)          -0.7021         estimate D2E/DX2                !
 ! D60   D(9,10,11,54)         179.713          estimate D2E/DX2                !
 ! D61   D(53,10,11,12)        179.4413         estimate D2E/DX2                !
 ! D62   D(53,10,11,54)         -0.1436         estimate D2E/DX2                !
 ! D63   D(10,11,12,13)          0.5594         estimate D2E/DX2                !
 ! D64   D(10,11,12,37)       -178.8215         estimate D2E/DX2                !
 ! D65   D(54,11,12,13)       -179.8535         estimate D2E/DX2                !
 ! D66   D(54,11,12,37)          0.7656         estimate D2E/DX2                !
 ! D67   D(11,12,13,8)           0.5023         estimate D2E/DX2                !
 ! D68   D(11,12,13,14)       -178.4652         estimate D2E/DX2                !
 ! D69   D(37,12,13,8)        -179.9509         estimate D2E/DX2                !
 ! D70   D(37,12,13,14)          1.0817         estimate D2E/DX2                !
 ! D71   D(11,12,37,15)        178.2199         estimate D2E/DX2                !
 ! D72   D(11,12,37,36)         -2.5812         estimate D2E/DX2                !
 ! D73   D(13,12,37,15)         -1.226          estimate D2E/DX2                !
 ! D74   D(13,12,37,36)        177.9729         estimate D2E/DX2                !
 ! D75   D(8,13,14,15)        -179.3611         estimate D2E/DX2                !
 ! D76   D(12,13,14,15)         -0.4574         estimate D2E/DX2                !
 ! D77   D(13,14,15,16)       -179.0121         estimate D2E/DX2                !
 ! D78   D(13,14,15,37)         -0.3917         estimate D2E/DX2                !
 ! D79   D(14,15,16,17)         -3.3548         estimate D2E/DX2                !
 ! D80   D(14,15,16,34)        177.0939         estimate D2E/DX2                !
 ! D81   D(37,15,16,17)        178.1479         estimate D2E/DX2                !
 ! D82   D(37,15,16,34)         -1.4034         estimate D2E/DX2                !
 ! D83   D(14,15,37,12)          1.041          estimate D2E/DX2                !
 ! D84   D(14,15,37,36)       -178.3042         estimate D2E/DX2                !
 ! D85   D(16,15,37,12)        179.7411         estimate D2E/DX2                !
 ! D86   D(16,15,37,36)          0.3959         estimate D2E/DX2                !
 ! D87   D(15,16,17,18)        -25.911          estimate D2E/DX2                !
 ! D88   D(15,16,17,33)        155.1166         estimate D2E/DX2                !
 ! D89   D(34,16,17,18)        153.6174         estimate D2E/DX2                !
 ! D90   D(34,16,17,33)        -25.355          estimate D2E/DX2                !
 ! D91   D(15,16,34,35)          1.3678         estimate D2E/DX2                !
 ! D92   D(15,16,34,67)       -179.0132         estimate D2E/DX2                !
 ! D93   D(17,16,34,35)       -178.1769         estimate D2E/DX2                !
 ! D94   D(17,16,34,67)          1.4422         estimate D2E/DX2                !
 ! D95   D(16,17,18,19)       -179.9304         estimate D2E/DX2                !
 ! D96   D(33,17,18,19)         -0.9557         estimate D2E/DX2                !
 ! D97   D(16,17,33,26)       -179.7634         estimate D2E/DX2                !
 ! D98   D(18,17,33,26)          1.1915         estimate D2E/DX2                !
 ! D99   D(17,18,19,20)       -120.9997         estimate D2E/DX2                !
 ! D100  D(17,18,19,26)          0.3122         estimate D2E/DX2                !
 ! D101  D(17,18,19,55)        117.5103         estimate D2E/DX2                !
 ! D102  D(18,19,20,21)       -160.1586         estimate D2E/DX2                !
 ! D103  D(18,19,20,25)         21.6102         estimate D2E/DX2                !
 ! D104  D(26,19,20,21)         83.3421         estimate D2E/DX2                !
 ! D105  D(26,19,20,25)        -94.889          estimate D2E/DX2                !
 ! D106  D(55,19,20,21)        -38.895          estimate D2E/DX2                !
 ! D107  D(55,19,20,25)        142.8739         estimate D2E/DX2                !
 ! D108  D(18,19,26,27)        121.3361         estimate D2E/DX2                !
 ! D109  D(18,19,26,33)          0.3396         estimate D2E/DX2                !
 ! D110  D(18,19,26,61)       -115.102          estimate D2E/DX2                !
 ! D111  D(20,19,26,27)       -116.4801         estimate D2E/DX2                !
 ! D112  D(20,19,26,33)        122.5234         estimate D2E/DX2                !
 ! D113  D(20,19,26,61)          7.0818         estimate D2E/DX2                !
 ! D114  D(55,19,26,27)          5.1567         estimate D2E/DX2                !
 ! D115  D(55,19,26,33)       -115.8398         estimate D2E/DX2                !
 ! D116  D(55,19,26,61)        128.7186         estimate D2E/DX2                !
 ! D117  D(19,20,21,22)       -178.453          estimate D2E/DX2                !
 ! D118  D(19,20,21,56)          1.8839         estimate D2E/DX2                !
 ! D119  D(25,20,21,22)         -0.1944         estimate D2E/DX2                !
 ! D120  D(25,20,21,56)       -179.8575         estimate D2E/DX2                !
 ! D121  D(19,20,25,24)        178.3639         estimate D2E/DX2                !
 ! D122  D(19,20,25,60)         -3.8317         estimate D2E/DX2                !
 ! D123  D(21,20,25,24)          0.1373         estimate D2E/DX2                !
 ! D124  D(21,20,25,60)        177.9417         estimate D2E/DX2                !
 ! D125  D(20,21,22,23)          0.1531         estimate D2E/DX2                !
 ! D126  D(20,21,22,57)       -179.5884         estimate D2E/DX2                !
 ! D127  D(56,21,22,23)        179.8142         estimate D2E/DX2                !
 ! D128  D(56,21,22,57)          0.0727         estimate D2E/DX2                !
 ! D129  D(21,22,23,24)         -0.0539         estimate D2E/DX2                !
 ! D130  D(21,22,23,58)       -179.7537         estimate D2E/DX2                !
 ! D131  D(57,22,23,24)        179.687          estimate D2E/DX2                !
 ! D132  D(57,22,23,58)         -0.0128         estimate D2E/DX2                !
 ! D133  D(22,23,24,25)         -0.0028         estimate D2E/DX2                !
 ! D134  D(22,23,24,59)       -179.7227         estimate D2E/DX2                !
 ! D135  D(58,23,24,25)        179.6963         estimate D2E/DX2                !
 ! D136  D(58,23,24,59)         -0.0236         estimate D2E/DX2                !
 ! D137  D(23,24,25,20)         -0.0395         estimate D2E/DX2                !
 ! D138  D(23,24,25,60)       -177.829          estimate D2E/DX2                !
 ! D139  D(59,24,25,20)        179.6822         estimate D2E/DX2                !
 ! D140  D(59,24,25,60)          1.8927         estimate D2E/DX2                !
 ! D141  D(19,26,27,28)         98.3258         estimate D2E/DX2                !
 ! D142  D(19,26,27,32)        -78.9428         estimate D2E/DX2                !
 ! D143  D(33,26,27,28)       -145.8719         estimate D2E/DX2                !
 ! D144  D(33,26,27,32)         36.8595         estimate D2E/DX2                !
 ! D145  D(61,26,27,28)        -25.2578         estimate D2E/DX2                !
 ! D146  D(61,26,27,32)        157.4736         estimate D2E/DX2                !
 ! D147  D(19,26,33,17)         -0.8282         estimate D2E/DX2                !
 ! D148  D(27,26,33,17)       -121.6522         estimate D2E/DX2                !
 ! D149  D(61,26,33,17)        116.3476         estimate D2E/DX2                !
 ! D150  D(26,27,28,29)       -177.433          estimate D2E/DX2                !
 ! D151  D(26,27,28,62)          2.5012         estimate D2E/DX2                !
 ! D152  D(32,27,28,29)         -0.1313         estimate D2E/DX2                !
 ! D153  D(32,27,28,62)        179.8028         estimate D2E/DX2                !
 ! D154  D(26,27,32,31)        177.8368         estimate D2E/DX2                !
 ! D155  D(26,27,32,66)         -2.5496         estimate D2E/DX2                !
 ! D156  D(28,27,32,31)          0.5509         estimate D2E/DX2                !
 ! D157  D(28,27,32,66)       -179.8355         estimate D2E/DX2                !
 ! D158  D(27,28,29,30)         -0.2694         estimate D2E/DX2                !
 ! D159  D(27,28,29,63)        179.9907         estimate D2E/DX2                !
 ! D160  D(62,28,29,30)        179.7969         estimate D2E/DX2                !
 ! D161  D(62,28,29,63)          0.057          estimate D2E/DX2                !
 ! D162  D(28,29,30,31)          0.2524         estimate D2E/DX2                !
 ! D163  D(28,29,30,64)       -179.702          estimate D2E/DX2                !
 ! D164  D(63,29,30,31)        179.9916         estimate D2E/DX2                !
 ! D165  D(63,29,30,64)          0.0372         estimate D2E/DX2                !
 ! D166  D(29,30,31,32)          0.167          estimate D2E/DX2                !
 ! D167  D(29,30,31,65)        179.9897         estimate D2E/DX2                !
 ! D168  D(64,30,31,32)       -179.8786         estimate D2E/DX2                !
 ! D169  D(64,30,31,65)         -0.0559         estimate D2E/DX2                !
 ! D170  D(30,31,32,27)         -0.571          estimate D2E/DX2                !
 ! D171  D(30,31,32,66)        179.818          estimate D2E/DX2                !
 ! D172  D(65,31,32,27)        179.6057         estimate D2E/DX2                !
 ! D173  D(65,31,32,66)         -0.0053         estimate D2E/DX2                !
 ! D174  D(16,34,35,36)         -0.3194         estimate D2E/DX2                !
 ! D175  D(16,34,35,68)        179.58           estimate D2E/DX2                !
 ! D176  D(67,34,35,36)       -179.9323         estimate D2E/DX2                !
 ! D177  D(67,34,35,68)         -0.0329         estimate D2E/DX2                !
 ! D178  D(34,35,36,37)         -0.734          estimate D2E/DX2                !
 ! D179  D(34,35,36,69)        179.7458         estimate D2E/DX2                !
 ! D180  D(68,35,36,37)        179.3671         estimate D2E/DX2                !
 ! D181  D(68,35,36,69)         -0.1531         estimate D2E/DX2                !
 ! D182  D(35,36,37,12)       -178.4147         estimate D2E/DX2                !
 ! D183  D(35,36,37,15)          0.6904         estimate D2E/DX2                !
 ! D184  D(69,36,37,12)          1.108          estimate D2E/DX2                !
 ! D185  D(69,36,37,15)       -179.787          estimate D2E/DX2                !
 ! D186  D(7,38,39,5)            0.0677         estimate D2E/DX2                !
 ! D187  D(7,38,39,40)        -120.6805         estimate D2E/DX2                !
 ! D188  D(7,38,39,70)         117.3973         estimate D2E/DX2                !
 ! D189  D(5,39,40,41)         101.7428         estimate D2E/DX2                !
 ! D190  D(5,39,40,45)         -75.7138         estimate D2E/DX2                !
 ! D191  D(38,39,40,41)       -142.6137         estimate D2E/DX2                !
 ! D192  D(38,39,40,45)         39.9297         estimate D2E/DX2                !
 ! D193  D(70,39,40,41)        -22.1124         estimate D2E/DX2                !
 ! D194  D(70,39,40,45)        160.4311         estimate D2E/DX2                !
 ! D195  D(39,40,41,42)       -177.5746         estimate D2E/DX2                !
 ! D196  D(39,40,41,71)          2.3891         estimate D2E/DX2                !
 ! D197  D(45,40,41,42)         -0.0922         estimate D2E/DX2                !
 ! D198  D(45,40,41,71)        179.8715         estimate D2E/DX2                !
 ! D199  D(39,40,45,44)        177.9699         estimate D2E/DX2                !
 ! D200  D(39,40,45,75)         -2.3786         estimate D2E/DX2                !
 ! D201  D(41,40,45,44)          0.4909         estimate D2E/DX2                !
 ! D202  D(41,40,45,75)       -179.8576         estimate D2E/DX2                !
 ! D203  D(40,41,42,43)         -0.269          estimate D2E/DX2                !
 ! D204  D(40,41,42,72)        179.9813         estimate D2E/DX2                !
 ! D205  D(71,41,42,43)        179.7676         estimate D2E/DX2                !
 ! D206  D(71,41,42,72)          0.0179         estimate D2E/DX2                !
 ! D207  D(41,42,43,44)          0.233          estimate D2E/DX2                !
 ! D208  D(41,42,43,73)       -179.721          estimate D2E/DX2                !
 ! D209  D(72,42,43,44)        179.9821         estimate D2E/DX2                !
 ! D210  D(72,42,43,73)          0.028          estimate D2E/DX2                !
 ! D211  D(42,43,44,45)          0.1654         estimate D2E/DX2                !
 ! D212  D(42,43,44,74)        179.9908         estimate D2E/DX2                !
 ! D213  D(73,43,44,45)       -179.8805         estimate D2E/DX2                !
 ! D214  D(73,43,44,74)         -0.0552         estimate D2E/DX2                !
 ! D215  D(43,44,45,40)         -0.5295         estimate D2E/DX2                !
 ! D216  D(43,44,45,75)        179.8212         estimate D2E/DX2                !
 ! D217  D(74,44,45,40)        179.6445         estimate D2E/DX2                !
 ! D218  D(74,44,45,75)         -0.0047         estimate D2E/DX2                !
 ! D219  D(4,46,47,1)           -0.1185         estimate D2E/DX2                !
 ! D220  D(4,46,47,77)         179.632          estimate D2E/DX2                !
 ! D221  D(76,46,47,1)        -178.0065         estimate D2E/DX2                !
 ! D222  D(76,46,47,77)          1.744          estimate D2E/DX2                !
 --------------------------------------------------------------------------------
 Trust Radius=3.00D-01 FncErr=1.00D-07 GrdErr=1.00D-06 EigMax=2.50D+02 EigMin=1.00D-04
 Number of steps in this run=    460 maximum allowed number of steps=    462.
 GradGradGradGradGradGradGradGradGradGradGradGradGradGradGradGradGradGrad

 Leave Link  103 at Mon Feb 26 10:54:19 2024, MaxMem=  7516192768 cpu:               0.4 elap:               0.0
 (Enter /public/apps/g16-C01//g16/l202.exe)
 Symmetry turned off by external request.
 Stoichiometry    C42H30N2O3
 Framework group  C1[X(C42H30N2O3)]
 Deg. of freedom   225
 Full point group                 C1      NOp   1
                          Input orientation:                          
 ---------------------------------------------------------------------
 Center     Atomic      Atomic             Coordinates (Angstroms)
 Number     Number       Type             X           Y           Z
 ---------------------------------------------------------------------
      1          6           0       -0.347121    3.853041   -2.080886
      2          6           0       -1.484378    4.248820   -1.396802
      3          6           0       -2.245651    3.313854   -0.721001
      4          6           0       -1.874351    1.975151   -0.722996
      5          6           0       -2.740516    0.972572   -0.007317
      6          7           0       -2.083754   -0.285739    0.210489
      7          6           0       -2.751219   -1.194252   -0.365064
      8          6           0       -2.394804   -2.604979   -0.367855
      9          6           0       -3.342136   -3.606670   -0.558106
     10          6           0       -2.993801   -4.951493   -0.523200
     11          6           0       -1.688595   -5.351177   -0.302120
     12          6           0       -0.719037   -4.371586   -0.128263
     13          6           0       -1.075853   -3.007954   -0.167156
     14          8           0       -0.002303   -2.202981   -0.012757
     15          6           0        1.067162   -3.014060    0.139205
     16          6           0        2.386841   -2.618149    0.347809
     17          6           0        2.749200   -1.208463    0.350662
     18          7           0        2.110259   -0.301683   -0.258719
     19          6           0        2.764981    0.955334   -0.025787
     20          6           0        1.873181    1.974669    0.630962
     21          6           0        2.202391    3.321430    0.546015
     22          6           0        1.415090    4.271773    1.168659
     23          6           0        0.294605    3.883344    1.883581
     24          6           0       -0.033959    2.542482    1.971184
     25          6           0        0.750624    1.588266    1.348552
     26          6           0        3.989919    0.569790    0.889903
     27          6           0        5.298434    0.957300    0.267564
     28          6           0        5.926745    2.136096    0.648555
     29          6           0        7.106424    2.525238    0.040424
     30          6           0        7.671433    1.738021   -0.949073
     31          6           0        7.049163    0.562113   -1.332032
     32          6           0        5.864859    0.175497   -0.731245
     33          8           0        3.861857   -0.840684    1.038427
     34          6           0        3.328126   -3.624800    0.540679
     35          6           0        2.973593   -4.967883    0.498225
     36          6           0        1.667743   -5.360534    0.268716
     37          6           0        0.703568   -4.375674    0.094702
     38          8           0       -3.890603   -0.826321   -1.007645
     39          6           0       -4.013301    0.584392   -0.853289
     40          6           0       -5.287463    0.963058   -0.157424
     41          6           0       -5.983288    2.101400   -0.543100
     42          6           0       -7.130987    2.478808    0.130520
     43          6           0       -7.596357    1.719670    1.191108
     44          6           0       -6.906735    0.583531    1.579104
     45          6           0       -5.754529    0.209123    0.912136
     46          6           0       -0.735295    1.581202   -1.409311
     47          6           0        0.024119    2.520574   -2.084041
     48          1           0        0.249112    4.585081   -2.605964
     49          1           0       -1.776270    5.289059   -1.386783
     50          1           0       -3.132082    3.620645   -0.182673
     51          1           0       -3.042537    1.387108    0.963309
     52          1           0       -4.367531   -3.317413   -0.729306
     53          1           0       -3.761527   -5.696076   -0.669919
     54          1           0       -1.424032   -6.396847   -0.271379
     55          1           0        3.119457    1.352076   -0.986093
     56          1           0        3.076208    3.622862   -0.015334
     57          1           0        1.673574    5.318060    1.092713
     58          1           0       -0.322330    4.627098    2.366534
     59          1           0       -0.908927    2.233775    2.523454
     60          1           0        0.474664    0.545771    1.387787
     61          1           0        3.886793    1.026919    1.882301
     62          1           0        5.485924    2.747374    1.423247
     63          1           0        7.588580    3.443405    0.342421
     64          1           0        8.595120    2.040346   -1.419931
     65          1           0        7.485750   -0.055251   -2.103409
     66          1           0        5.377001   -0.740665   -1.031622
     67          1           0        4.353818   -3.341660    0.720234
     68          1           0        3.736938   -5.716673    0.646414
     69          1           0        1.398434   -6.404820    0.232686
     70          1           0       -3.969081    1.040821   -1.850055
     71          1           0       -5.621050    2.690888   -1.373420
     72          1           0       -7.666040    3.365748   -0.175699
     73          1           0       -8.495000    2.012676    1.713511
     74          1           0       -7.265539   -0.011899    2.405841
     75          1           0       -5.214255   -0.675973    1.216390
     76          1           0       -0.428520    0.546867   -1.384789
     77          1           0        0.912718    2.206365   -2.610872
 ---------------------------------------------------------------------
 Rotational constants (GHZ):           0.0965490           0.0523652           0.0366419
 Leave Link  202 at Mon Feb 26 10:54:19 2024, MaxMem=  7516192768 cpu:               0.3 elap:               0.0
 (Enter /public/apps/g16-C01//g16/l301.exe)
 Standard basis: def2SVPP (5D, 7F)
 Ernie: Thresh=  0.10000D-02 Tol=  0.10000D-05 Strict=F.
   718 basis functions,  1295 primitive gaussians,   765 cartesian basis functions
   160 alpha electrons      160 beta electrons
       nuclear repulsion energy      5587.3390663622 Hartrees.
 IExCor=  402 DFT=T Ex+Corr=B3LYP ExCW=0 ScaHFX=  0.200000
 ScaDFX=  0.800000  0.720000  1.000000  0.810000 ScalE2=  1.000000  1.000000
 IRadAn=      5 IRanWt=     -1 IRanGd=            0 ICorTp=0 IEmpDi=141
 NAtoms=   77 NActive=   77 NUniq=   77 SFac= 1.00D+00 NAtFMM=   60 NAOKFM=T Big=T
 Integral buffers will be    131072 words long.
 Raffenetti 2 integral format.
 Two-electron integral symmetry is turned off.
 R6Disp:  Grimme-D3(BJ) Dispersion energy=       -0.2095691936 Hartrees.
 Nuclear repulsion after empirical dispersion term =     5587.1294971686 Hartrees.
 Leave Link  301 at Mon Feb 26 10:54:19 2024, MaxMem=  7516192768 cpu:               1.1 elap:               0.0
 (Enter /public/apps/g16-C01//g16/l302.exe)
 NPDir=0 NMtPBC=     1 NCelOv=     1 NCel=       1 NClECP=     1 NCelD=      1
         NCelK=      1 NCelE2=     1 NClLst=     1 CellRange=     0.0.
 One-electron integrals computed using PRISM.
   1 Symmetry operations used in ECPInt.
 ECPInt:  NShTT=   58653 NPrTT=  234971 LenC2=   46765 LenP2D=  114382.
 LDataN:  DoStor=T MaxTD1= 4 Len=   56
 NBasis=   718 RedAO= T EigKep=  1.82D-04  NBF=   718
 NBsUse=   718 1.00D-06 EigRej= -1.00D+00 NBFU=   718
 Precomputing XC quadrature grid using
 IXCGrd= 4 IRadAn=           5 IRanWt=          -1 IRanGd=           0 AccXCQ= 0.00D+00.
 Generated NRdTot=       0 NPtTot=           0 NUsed=           0 NTot=          32
 NSgBfM=   736   736   736   736   736 MxSgAt=    77 MxSgA2=    77.
 Leave Link  302 at Mon Feb 26 10:54:20 2024, MaxMem=  7516192768 cpu:              35.7 elap:               0.9
 (Enter /public/apps/g16-C01//g16/l303.exe)
 DipDrv:  MaxL=1.
 Leave Link  303 at Mon Feb 26 10:54:20 2024, MaxMem=  7516192768 cpu:               3.8 elap:               0.1
 (Enter /public/apps/g16-C01//g16/l401.exe)
 ExpMin= 1.22D-01 ExpMax= 2.27D+03 ExpMxC= 3.41D+02 IAcc=3 IRadAn=         5 AccDes= 0.00D+00
 Harris functional with IExCor=  402 and IRadAn=       5 diagonalized for initial guess.
 HarFok:  IExCor=  402 AccDes= 0.00D+00 IRadAn=         5 IDoV= 1 UseB2=F ITyADJ=14
 ICtDFT=  3500011 ScaDFX=  1.000000  1.000000  1.000000  1.000000
 FoFCou: FMM=F IPFlag=           0 FMFlag=      100000 FMFlg1=        2001
         NFxFlg=           0 DoJE=T BraDBF=F KetDBF=T FulRan=T
         wScrn=  0.000000 ICntrl=       500 IOpCl=  0 I1Cent=   200000004 NGrid=           0
         NMat0=    1 NMatS0=      1 NMatT0=    0 NMatD0=    1 NMtDS0=    0 NMtDT0=    0
 Symmetry not used in FoFCou.
 Harris En= -1952.35352788797    
 JPrj=0 DoOrth=F DoCkMO=F.
 Leave Link  401 at Mon Feb 26 10:54:22 2024, MaxMem=  7516192768 cpu:              73.5 elap:               1.9
 (Enter /public/apps/g16-C01//g16/l502.exe)
 Two-electron integral symmetry not used.
 Closed shell SCF:
 Using DIIS extrapolation, IDIIS=  1040.
 NGot=  7516192768 LenX=  7514983569 LenY=  7514397579
 Requested convergence on RMS density matrix=1.00D-08 within 128 cycles.
 Requested convergence on MAX density matrix=1.00D-06.
 Requested convergence on             energy=1.00D-06.
 No special actions if energy rises.
 Fock matrices will be formed incrementally for  20 cycles.
 Integral accuracy reduced to 1.0D-05 until final iterations.

 Cycle   1  Pass 0  IDiag  1:
 FoFJK:  IHMeth= 1 ICntrl=       0 DoSepK=F KAlg= 0 I1Cent=           0 FoldK=F
 IRaf= 920000000 NMat=       1 IRICut=       1 DoRegI=T DoRafI=F ISym2E= 0 IDoP0=0 IntGTp=1.
 FoFCou: FMM=T IPFlag=           0 FMFlag=      100000 FMFlg1=        2001
         NFxFlg=           0 DoJE=F BraDBF=F KetDBF=F FulRan=T
         wScrn=  0.000000 ICntrl=         0 IOpCl=  0 I1Cent=           0 NGrid=           0
         NMat0=    1 NMatS0=      1 NMatT0=    0 NMatD0=    1 NMtDS0=    0 NMtDT0=    0
 Symmetry not used in FoFCou.
 FMM levels:  10  Number of levels for PrismC:   9
 E= -1951.54507168953    
 DIIS: error= 2.25D-02 at cycle   1 NSaved=   1.
 NSaved= 1 IEnMin= 1 EnMin= -1951.54507168953     IErMin= 1 ErrMin= 2.25D-02
 ErrMax= 2.25D-02  0.00D+00 EMaxC= 1.00D-01 BMatC= 7.73D-01 BMatP= 7.73D-01
 IDIUse=3 WtCom= 7.75D-01 WtEn= 2.25D-01
 Coeff-Com:  0.100D+01
 Coeff-En:   0.100D+01
 Coeff:      0.100D+01
 Gap=     0.185 Goal=   None    Shift=    0.000
 GapD=    0.185 DampG=1.000 DampE=0.500 DampFc=0.5000 IDamp=-1.
 Damping current iteration by 5.00D-01
 RMSDP=4.62D-03 MaxDP=1.38D-01              OVMax= 2.60D-01

 Cycle   2  Pass 0  IDiag  1:
 RMSU=  2.09D-03    CP:  9.38D-01
 E= -1951.91801712345     Delta-E=       -0.372945433919 Rises=F Damp=T
 DIIS: error= 6.65D-03 at cycle   2 NSaved=   2.
 NSaved= 2 IEnMin= 2 EnMin= -1951.91801712345     IErMin= 2 ErrMin= 6.65D-03
 ErrMax= 6.65D-03  0.00D+00 EMaxC= 1.00D-01 BMatC= 6.58D-02 BMatP= 7.73D-01
 IDIUse=3 WtCom= 9.34D-01 WtEn= 6.65D-02
 Coeff-Com:  0.896D-01 0.910D+00
 Coeff-En:   0.135D+00 0.865D+00
 Coeff:      0.927D-01 0.907D+00
 Gap=     0.198 Goal=   None    Shift=    0.000
 RMSDP=1.62D-03 MaxDP=7.38D-02 DE=-3.73D-01 OVMax= 2.34D-01

 Cycle   3  Pass 0  IDiag  1:
 RMSU=  1.52D-03    CP:  9.04D-01  1.03D+00
 E= -1952.34318517662     Delta-E=       -0.425168053172 Rises=F Damp=F
 DIIS: error= 1.11D-02 at cycle   3 NSaved=   3.
 NSaved= 3 IEnMin= 3 EnMin= -1952.34318517662     IErMin= 2 ErrMin= 6.65D-03
 ErrMax= 1.11D-02  0.00D+00 EMaxC= 1.00D-01 BMatC= 9.16D-02 BMatP= 6.58D-02
 IDIUse=2 WtCom= 0.00D+00 WtEn= 1.00D+00
 Coeff-En:   0.000D+00 0.000D+00 0.100D+01
 Coeff:      0.000D+00 0.000D+00 0.100D+01
 Gap=     0.191 Goal=   None    Shift=    0.000
 RMSDP=1.77D-03 MaxDP=1.00D-01 DE=-4.25D-01 OVMax= 2.48D-01

 Cycle   4  Pass 0  IDiag  1:
 RMSU=  1.17D-03    CP:  9.06D-01  1.33D+00  2.30D-01
 E= -1951.98737888792     Delta-E=        0.355806288695 Rises=F Damp=F
 DIIS: error= 2.58D-02 at cycle   4 NSaved=   4.
 NSaved= 4 IEnMin= 3 EnMin= -1952.34318517662     IErMin= 2 ErrMin= 6.65D-03
 ErrMax= 2.58D-02  0.00D+00 EMaxC= 1.00D-01 BMatC= 4.52D-01 BMatP= 6.58D-02
 IDIUse=2 WtCom= 0.00D+00 WtEn= 1.00D+00
 Coeff-En:   0.000D+00 0.000D+00 0.775D+00 0.225D+00
 Coeff:      0.000D+00 0.000D+00 0.775D+00 0.225D+00
 Gap=     0.156 Goal=   None    Shift=    0.000
 RMSDP=9.08D-04 MaxDP=5.30D-02 DE= 3.56D-01 OVMax= 1.30D-01

 Cycle   5  Pass 0  IDiag  1:
 RMSU=  1.97D-04    CP:  9.04D-01  1.18D+00  6.14D-01  5.04D-01
 E= -1952.40559742680     Delta-E=       -0.418218538874 Rises=F Damp=F
 DIIS: error= 7.37D-03 at cycle   5 NSaved=   5.
 NSaved= 5 IEnMin= 5 EnMin= -1952.40559742680     IErMin= 2 ErrMin= 6.65D-03
 ErrMax= 7.37D-03  0.00D+00 EMaxC= 1.00D-01 BMatC= 2.99D-02 BMatP= 6.58D-02
 IDIUse=3 WtCom= 9.26D-01 WtEn= 7.37D-02
 Coeff-Com:  0.534D-02 0.131D-01 0.335D+00-0.247D-01 0.672D+00
 Coeff-En:   0.000D+00 0.000D+00 0.296D+00 0.000D+00 0.704D+00
 Coeff:      0.495D-02 0.122D-01 0.332D+00-0.229D-01 0.674D+00
 Gap=     0.163 Goal=   None    Shift=    0.000
 RMSDP=3.48D-04 MaxDP=1.80D-02 DE=-4.18D-01 OVMax= 4.96D-02

 Cycle   6  Pass 0  IDiag  1:
 RMSU=  9.78D-05    CP:  9.03D-01  1.12D+00  7.60D-01  3.17D-01  7.79D-01
 E= -1952.43546390569     Delta-E=       -0.029866478892 Rises=F Damp=F
 DIIS: error= 1.46D-03 at cycle   6 NSaved=   6.
 NSaved= 6 IEnMin= 6 EnMin= -1952.43546390569     IErMin= 6 ErrMin= 1.46D-03
 ErrMax= 1.46D-03  0.00D+00 EMaxC= 1.00D-01 BMatC= 6.43D-04 BMatP= 2.99D-02
 IDIUse=3 WtCom= 9.85D-01 WtEn= 1.46D-02
 Coeff-Com:  0.715D-03 0.277D-03 0.154D+00-0.548D-01 0.489D+00 0.412D+00
 Coeff-En:   0.000D+00 0.000D+00 0.000D+00 0.000D+00 0.000D+00 0.100D+01
 Coeff:      0.704D-03 0.273D-03 0.151D+00-0.540D-01 0.481D+00 0.420D+00
 Gap=     0.164 Goal=   None    Shift=    0.000
 RMSDP=5.54D-05 MaxDP=3.24D-03 DE=-2.99D-02 OVMax= 8.60D-03

 Cycle   7  Pass 0  IDiag  1:
 RMSU=  2.80D-05    CP:  9.03D-01  1.12D+00  7.57D-01  3.25D-01  8.46D-01
                    CP:  5.43D-01
 E= -1952.43618284134     Delta-E=       -0.000718935655 Rises=F Damp=F
 DIIS: error= 2.80D-04 at cycle   7 NSaved=   7.
 NSaved= 7 IEnMin= 7 EnMin= -1952.43618284134     IErMin= 7 ErrMin= 2.80D-04
 ErrMax= 2.80D-04  0.00D+00 EMaxC= 1.00D-01 BMatC= 3.33D-05 BMatP= 6.43D-04
 IDIUse=3 WtCom= 9.97D-01 WtEn= 2.80D-03
 Coeff-Com: -0.336D-04-0.375D-03 0.642D-01-0.326D-01 0.240D+00 0.254D+00
 Coeff-Com:  0.475D+00
 Coeff-En:   0.000D+00 0.000D+00 0.000D+00 0.000D+00 0.000D+00 0.000D+00
 Coeff-En:   0.100D+01
 Coeff:     -0.335D-04-0.374D-03 0.640D-01-0.325D-01 0.239D+00 0.253D+00
 Coeff:      0.477D+00
 Gap=     0.164 Goal=   None    Shift=    0.000
 RMSDP=1.48D-05 MaxDP=6.07D-04 DE=-7.19D-04 OVMax= 1.77D-03

 Cycle   8  Pass 0  IDiag  1:
 RMSU=  1.31D-05    CP:  9.03D-01  1.12D+00  7.57D-01  3.24D-01  8.48D-01
                    CP:  5.66D-01  7.75D-01
 E= -1952.43623815358     Delta-E=       -0.000055312237 Rises=F Damp=F
 DIIS: error= 5.93D-05 at cycle   8 NSaved=   8.
 NSaved= 8 IEnMin= 8 EnMin= -1952.43623815358     IErMin= 8 ErrMin= 5.93D-05
 ErrMax= 5.93D-05  0.00D+00 EMaxC= 1.00D-01 BMatC= 2.31D-06 BMatP= 3.33D-05
 IDIUse=1 WtCom= 1.00D+00 WtEn= 0.00D+00
 Coeff-Com: -0.979D-05-0.250D-03 0.233D-01-0.135D-01 0.915D-01 0.102D+00
 Coeff-Com:  0.263D+00 0.534D+00
 Coeff:     -0.979D-05-0.250D-03 0.233D-01-0.135D-01 0.915D-01 0.102D+00
 Coeff:      0.263D+00 0.534D+00
 Gap=     0.164 Goal=   None    Shift=    0.000
 RMSDP=1.01D-05 MaxDP=3.19D-04 DE=-5.53D-05 OVMax= 5.21D-04

 Cycle   9  Pass 0  IDiag  1:
 RMSU=  8.94D-06    CP:  9.03D-01  1.12D+00  7.57D-01  3.24D-01  8.54D-01
                    CP:  5.65D-01  8.70D-01  1.29D+00
 E= -1952.43623679461     Delta-E=        0.000001358970 Rises=F Damp=F
 DIIS: error= 3.74D-05 at cycle   9 NSaved=   9.
 NSaved= 9 IEnMin= 8 EnMin= -1952.43623815358     IErMin= 9 ErrMin= 3.74D-05
 ErrMax= 3.74D-05  0.00D+00 EMaxC= 1.00D-01 BMatC= 5.40D-07 BMatP= 2.31D-06
 IDIUse=1 WtCom= 1.00D+00 WtEn= 0.00D+00
 Coeff-Com:  0.287D-04-0.184D-03 0.525D-02-0.362D-02 0.216D-01 0.260D-01
 Coeff-Com:  0.955D-01 0.352D+00 0.504D+00
 Coeff:      0.287D-04-0.184D-03 0.525D-02-0.362D-02 0.216D-01 0.260D-01
 Coeff:      0.955D-01 0.352D+00 0.504D+00
 Gap=     0.164 Goal=   None    Shift=    0.000
 RMSDP=1.21D-05 MaxDP=4.23D-04 DE= 1.36D-06 OVMax= 1.95D-04

 Cycle  10  Pass 0  IDiag  1:
 RMSU=  6.48D-06    CP:  9.03D-01  1.12D+00  7.57D-01  3.25D-01  8.56D-01
                    CP:  5.74D-01  9.79D-01  1.79D+00  1.78D+00
 E= -1952.43623454768     Delta-E=        0.000002246933 Rises=F Damp=F
 DIIS: error= 2.95D-05 at cycle  10 NSaved=  10.
 NSaved=10 IEnMin= 8 EnMin= -1952.43623815358     IErMin=10 ErrMin= 2.95D-05
 ErrMax= 2.95D-05  0.00D+00 EMaxC= 1.00D-01 BMatC= 2.33D-07 BMatP= 5.40D-07
 IDIUse=1 WtCom= 1.00D+00 WtEn= 0.00D+00
 Coeff-Com:  0.282D-04-0.181D-03 0.515D-02-0.355D-02 0.211D-01 0.255D-01
 Coeff-Com:  0.935D-01 0.343D+00 0.491D+00 0.237D-01
 Coeff:      0.282D-04-0.181D-03 0.515D-02-0.355D-02 0.211D-01 0.255D-01
 Coeff:      0.935D-01 0.343D+00 0.491D+00 0.237D-01
 Gap=     0.164 Goal=   None    Shift=    0.000
 RMSDP=8.02D-07 MaxDP=3.28D-05 DE= 2.25D-06 OVMax= 2.44D-06

 Initial convergence to 1.0D-05 achieved.  Increase integral accuracy.
 Cycle  11  Pass 1  IDiag  1:
 E= -1952.43569300917     Delta-E=        0.000541538506 Rises=F Damp=F
 DIIS: error= 7.01D-04 at cycle   1 NSaved=   1.
 NSaved= 1 IEnMin= 1 EnMin= -1952.43569300917     IErMin= 1 ErrMin= 7.01D-04
 ErrMax= 7.01D-04  0.00D+00 EMaxC= 1.00D-01 BMatC= 1.43D-04 BMatP= 1.43D-04
 IDIUse=3 WtCom= 9.93D-01 WtEn= 7.01D-03
 Coeff-Com:  0.100D+01
 Coeff-En:   0.100D+01
 Coeff:      0.100D+01
 Gap=     0.164 Goal=   None    Shift=    0.000
 RMSDP=8.02D-07 MaxDP=3.28D-05 DE= 5.42D-04 OVMax= 1.37D-03

 Cycle  12  Pass 1  IDiag  1:
 RMSU=  7.87D-04    CP:  9.95D-01
 E= -1952.43586350381     Delta-E=       -0.000170494642 Rises=F Damp=F
 DIIS: error= 1.19D-05 at cycle   2 NSaved=   2.
 NSaved= 2 IEnMin= 2 EnMin= -1952.43586350381     IErMin= 2 ErrMin= 1.19D-05
 ErrMax= 1.19D-05  0.00D+00 EMaxC= 1.00D-01 BMatC= 7.48D-08 BMatP= 1.43D-04
 IDIUse=1 WtCom= 1.00D+00 WtEn= 0.00D+00
 Coeff-Com: -0.958D-02 0.101D+01
 Coeff:     -0.958D-02 0.101D+01
 Gap=     0.164 Goal=   None    Shift=    0.000
 RMSDP=9.15D-06 MaxDP=2.72D-04 DE=-1.70D-04 OVMax= 1.80D-04

 Cycle  13  Pass 1  IDiag  1:
 RMSU=  2.90D-06    CP:  9.95D-01  1.01D+00
 E= -1952.43586338740     Delta-E=        0.000000116414 Rises=F Damp=F
 DIIS: error= 2.38D-05 at cycle   3 NSaved=   3.
 NSaved= 3 IEnMin= 2 EnMin= -1952.43586350381     IErMin= 2 ErrMin= 1.19D-05
 ErrMax= 2.38D-05  0.00D+00 EMaxC= 1.00D-01 BMatC= 1.93D-07 BMatP= 7.48D-08
 IDIUse=1 WtCom= 1.00D+00 WtEn= 0.00D+00
 Coeff-Com: -0.657D-02 0.650D+00 0.356D+00
 Coeff:     -0.657D-02 0.650D+00 0.356D+00
 Gap=     0.164 Goal=   None    Shift=    0.000
 RMSDP=8.94D-07 MaxDP=5.40D-05 DE= 1.16D-07 OVMax= 1.30D-04

 Cycle  14  Pass 1  IDiag  1:
 RMSU=  7.92D-07    CP:  9.95D-01  1.01D+00  8.58D-01
 E= -1952.43586359966     Delta-E=       -0.000000212264 Rises=F Damp=F
 DIIS: error= 1.96D-06 at cycle   4 NSaved=   4.
 NSaved= 4 IEnMin= 4 EnMin= -1952.43586359966     IErMin= 4 ErrMin= 1.96D-06
 ErrMax= 1.96D-06  0.00D+00 EMaxC= 1.00D-01 BMatC= 2.86D-09 BMatP= 7.48D-08
 IDIUse=1 WtCom= 1.00D+00 WtEn= 0.00D+00
 Coeff-Com: -0.251D-02 0.245D+00 0.166D+00 0.591D+00
 Coeff:     -0.251D-02 0.245D+00 0.166D+00 0.591D+00
 Gap=     0.164 Goal=   None    Shift=    0.000
 RMSDP=1.54D-07 MaxDP=9.24D-06 DE=-2.12D-07 OVMax= 1.89D-05

 Cycle  15  Pass 1  IDiag  1:
 RMSU=  1.45D-07    CP:  9.95D-01  1.01D+00  8.69D-01  9.50D-01
 E= -1952.43586360208     Delta-E=       -0.000000002419 Rises=F Damp=F
 DIIS: error= 7.00D-07 at cycle   5 NSaved=   5.
 NSaved= 5 IEnMin= 5 EnMin= -1952.43586360208     IErMin= 5 ErrMin= 7.00D-07
 ErrMax= 7.00D-07  0.00D+00 EMaxC= 1.00D-01 BMatC= 6.04D-10 BMatP= 2.86D-09
 IDIUse=1 WtCom= 1.00D+00 WtEn= 0.00D+00
 Coeff-Com: -0.181D-03 0.160D-01 0.272D-01 0.338D+00 0.619D+00
 Coeff:     -0.181D-03 0.160D-01 0.272D-01 0.338D+00 0.619D+00
 Gap=     0.164 Goal=   None    Shift=    0.000
 RMSDP=5.44D-08 MaxDP=3.16D-06 DE=-2.42D-09 OVMax= 5.36D-06

 Cycle  16  Pass 1  IDiag  1:
 RMSU=  3.35D-08    CP:  9.95D-01  1.01D+00  8.74D-01  9.71D-01  7.61D-01
 E= -1952.43586360265     Delta-E=       -0.000000000571 Rises=F Damp=F
 DIIS: error= 2.16D-07 at cycle   6 NSaved=   6.
 NSaved= 6 IEnMin= 6 EnMin= -1952.43586360265     IErMin= 6 ErrMin= 2.16D-07
 ErrMax= 2.16D-07  0.00D+00 EMaxC= 1.00D-01 BMatC= 6.93D-11 BMatP= 6.04D-10
 IDIUse=1 WtCom= 1.00D+00 WtEn= 0.00D+00
 Coeff-Com:  0.725D-05-0.176D-02 0.895D-02 0.180D+00 0.384D+00 0.428D+00
 Coeff:      0.725D-05-0.176D-02 0.895D-02 0.180D+00 0.384D+00 0.428D+00
 Gap=     0.164 Goal=   None    Shift=    0.000
 RMSDP=1.93D-08 MaxDP=1.06D-06 DE=-5.71D-10 OVMax= 1.59D-06

 Cycle  17  Pass 1  IDiag  1:
 RMSU=  1.16D-08    CP:  9.95D-01  1.01D+00  8.76D-01  9.69D-01  7.43D-01
                    CP:  5.65D-01
 E= -1952.43586360269     Delta-E=       -0.000000000034 Rises=F Damp=F
 DIIS: error= 7.05D-08 at cycle   7 NSaved=   7.
 NSaved= 7 IEnMin= 7 EnMin= -1952.43586360269     IErMin= 7 ErrMin= 7.05D-08
 ErrMax= 7.05D-08  0.00D+00 EMaxC= 1.00D-01 BMatC= 5.81D-12 BMatP= 6.93D-11
 IDIUse=1 WtCom= 1.00D+00 WtEn= 0.00D+00
 Coeff-Com:  0.228D-04-0.274D-02 0.301D-02 0.814D-01 0.184D+00 0.271D+00
 Coeff-Com:  0.464D+00
 Coeff:      0.228D-04-0.274D-02 0.301D-02 0.814D-01 0.184D+00 0.271D+00
 Coeff:      0.464D+00
 Gap=     0.164 Goal=   None    Shift=    0.000
 RMSDP=5.27D-09 MaxDP=3.48D-07 DE=-3.37D-11 OVMax= 4.71D-07

 SCF Done:  E(RB3LYP) =  -1952.43586360     A.U. after   17 cycles
            NFock= 17  Conv=0.53D-08     -V/T= 2.0093
 KE= 1.934526150897D+03 PE=-1.570573603048D+04 EE= 6.231644518816D+03
 Leave Link  502 at Mon Feb 26 10:55:26 2024, MaxMem=  7516192768 cpu:            2542.7 elap:              64.4
 (Enter /public/apps/g16-C01//g16/l601.exe)
 Copying SCF densities to generalized density rwf, IOpCl= 0 IROHF=0.

 **********************************************************************

            Population analysis using the SCF Density.

 **********************************************************************

 Alpha  occ. eigenvalues --  -19.20526 -19.17074 -19.17032 -14.30212 -14.30172
 Alpha  occ. eigenvalues --  -10.27673 -10.27654 -10.25846 -10.25839 -10.24338
 Alpha  occ. eigenvalues --  -10.24317 -10.21455 -10.21431 -10.21172 -10.21159
 Alpha  occ. eigenvalues --  -10.20447 -10.20437 -10.20293 -10.20283 -10.19995
 Alpha  occ. eigenvalues --  -10.19974 -10.19488 -10.19484 -10.19413 -10.19403
 Alpha  occ. eigenvalues --  -10.18796 -10.18776 -10.18772 -10.18747 -10.18734
 Alpha  occ. eigenvalues --  -10.18699 -10.18618 -10.18613 -10.18583 -10.18579
 Alpha  occ. eigenvalues --  -10.17948 -10.17896 -10.17386 -10.17323 -10.17274
 Alpha  occ. eigenvalues --  -10.17213 -10.17198 -10.17120 -10.17096 -10.17013
 Alpha  occ. eigenvalues --  -10.16509 -10.16398  -1.12253  -1.09053  -1.09010
 Alpha  occ. eigenvalues --   -0.90897  -0.90802  -0.87501  -0.87209  -0.86223
 Alpha  occ. eigenvalues --   -0.86107  -0.84641  -0.84133  -0.81405  -0.80042
 Alpha  occ. eigenvalues --   -0.78391  -0.77219  -0.75530  -0.74882  -0.74674
 Alpha  occ. eigenvalues --   -0.74648  -0.74552  -0.74053  -0.73112  -0.72925
 Alpha  occ. eigenvalues --   -0.70616  -0.70547  -0.66739  -0.64954  -0.64435
 Alpha  occ. eigenvalues --   -0.64411  -0.62495  -0.62259  -0.61093  -0.61050
 Alpha  occ. eigenvalues --   -0.59934  -0.59299  -0.59149  -0.58951  -0.57969
 Alpha  occ. eigenvalues --   -0.57343  -0.56786  -0.55046  -0.54575  -0.53420
 Alpha  occ. eigenvalues --   -0.53087  -0.53062  -0.51685  -0.51622  -0.50995
 Alpha  occ. eigenvalues --   -0.49975  -0.49238  -0.49165  -0.48792  -0.48182
 Alpha  occ. eigenvalues --   -0.47262  -0.46607  -0.46427  -0.46190  -0.45972
 Alpha  occ. eigenvalues --   -0.45320  -0.45233  -0.44668  -0.44488  -0.44111
 Alpha  occ. eigenvalues --   -0.44041  -0.43154  -0.43120  -0.42817  -0.42749
 Alpha  occ. eigenvalues --   -0.42125  -0.41672  -0.41386  -0.41367  -0.41147
 Alpha  occ. eigenvalues --   -0.40495  -0.40403  -0.40204  -0.39429  -0.38880
[...]
 000007,-0.00000078,-0.00000139,0.00000016,-0.00000076,-0.00000059,0.00
 000061,0.00000038,0.00000031,0.00000049,0.00000173,-0.00000111,-0.0000
 0177,-0.00000306,0.00000189,0.00000120,-0.00000494,0.00000138,0.000000
 60,0.00000245,0.00000222,0.00000174,0.00008194,-0.00021704,0.00002362,
 -0.00038335,0.00109411,-0.00010295,-0.00048267,-0.00030558,-0.00045949
 ,0.00033516,-0.00058861,0.00025712,-0.00242395,-0.00114984,-0.00144105
 ,0.01238656,-0.07436609,0.05892774,0.00042660,-0.00154497,0.00535212,-
 0.00097380,-0.00018433,0.00018599,-0.00029929,0.00116199,0.00535637,0.
 00134640,0.02198699,-0.00199769,-0.00081408,0.00034290,-0.00219690,0.0
 0013401,0.00041116,-0.00018150,-0.00148449,-0.00148892,-0.00014163,0.0
 0000911,-0.00001801,-0.00009265,-0.00015871,-0.00007336,-0.00004086,-0
 .00013470,0.00009338,-0.00001721,0.00010236,0.00011504,0.00001199,0.00
 002932,-0.00020203,-0.00002389,0.00057273,0.00026823,0.00017821,-0.000
 66663,-0.00006240,-0.00001450,0.00020748,-0.00008397,-0.00005260,0.000
 06388,-0.00006922,0.00002185,-0.00071769,0.00110167,-0.00054588,-0.000
 49937,-0.00011829,0.00040816,-0.00010487,-0.00064990,-0.00013680,0.000
 12977,-0.00007077,-0.00009061,-0.00003812,-0.00003543,0.00004079,-0.00
 004787,0.00000745,0.00004272,-0.00002117,0.00007060,-0.00000680,0.0000
 5159,-0.00003592,-0.00004345,-0.00007748,0.00004339,0.00004105,0.00006
 082,-0.00017716,0.00009776,-0.00006297,-0.00002445,0.00005755,0.000032
 70,0.00000543,-0.00003689,-0.00000342,-0.00000191,0.00000066,0.0000187
 6,0.00000954,-0.00001088,-0.00001305,0.00001139,0.00001393,0.00003167,
 -0.00000292,-0.00001422,0.00089295,0.00011897,0.00043399,-0.00014105,0
 .00008451,-0.00001157,-0.00011427,-0.00009621,-0.00000782,0.00008603,-
 0.00010082,0.00000974,0.00002120,0.00013502,-0.00000152,0.00050011,-0.
 00034300,0.00020238,-0.00037026,0.00021139,0.00050617,-0.00011358,0.00
 002408,-0.00002722,0.00003830,0.00000425,-0.00005994,-0.00000415,-0.00
 001310,0.00000469,0.00001882,-0.00000693,-0.00001440,-0.00000548,-0.00
 000697,0.00001358,0.00005509,-0.00000596,-0.00002155,-0.05902650,0.053
 01375,0.00776409,0.00680421,-0.01998515,0.00064555,0.00017413,-0.00099
 499,0.00010734,-0.00032653,-0.00005685,-0.00050008,-0.00003188,0.00112
 577,0.00011175,0.00036095,0.00013630,-0.00017555,-0.00001010,-0.000025
 33,0.00001338,-0.00000644,0.00001955,0.00000515,-0.00000033,0.00000556
 ,-0.00000075,-0.00003025,0.00001906,-0.00001560,0.00001865,-0.00001188
 ,0.00000711,-0.00000654,0.00001358,0.00000914,-0.00000210,0.00000879,0
 .00000203,-0.00001592,0.00000697,0.00004062,0.00008446,0.00000526,-0.0
 0004714,0.00005053,0.00001524,0.00003139,-0.00000589,-0.00000505,0.000
 00305,0.00000792,0.00000913,0.00000062,0.00000817,0.00000411,-0.000002
 87,0.00000434,-0.00000227,-0.00000778,-0.00001884,0.00001387,0.0000197
 0,-0.00001113,0.00002032,0.00000416,-0.00000482,-0.00001583,-0.0000014
 5,0.00000268,-0.00000722,0.00000077,-0.00010792,0.00000999,-0.00001040
 ,0.00000036,0.00000965,0.00002256,0.00001357,-0.00000952,0.00000077,0.
 00000819,-0.00000463,-0.00000154,0.00000789,0.00000007,-0.00000892,-0.
 00002020,-0.00001665,0.00003028,0.05509613,-0.00144175,0.00033968,0.00
 299079,-0.00023145,0.00080906,-0.00004974,0.00227010,0.00075428,-0.000
 23776,0.00296480,-0.00746413,0.00088942,-0.00105653,-0.00146997,0.0003
 1490,-0.00179799,-0.00018880,0.00119777,-0.00070820,0.00029716,0.00077
 751,0.00007978,0.00010428,0.00005496,0.00000737,-0.00004549,-0.0000269
 2,0.00001926,0.00003218,-0.00001189,-0.00002061,-0.00001910,0.00000653
 ,-0.00000532,0.00009858,-0.00000554,-0.00058601,-0.00047952,0.00006973
 ,-0.00005428,0.00022107,-0.00019248,0.00062939,-0.00036464,0.00009019,
 -0.00004605,-0.00000893,-0.00003564,0.00006138,0.00053304,0.00000516,0
 .00107440,-0.00116587,0.00059305,-0.00034098,-0.00010422,-0.00021945,-
 0.00000841,-0.00002481,0.00002099,0.00001257,-0.00005327,0.00000888,-0
 .00004194,0.00002498,0.00003161,0.00001677,0.00005949,-0.00000134,0.00
 005700,-0.00007153,-0.00002967,-0.00000606,0.00000457,0.00002803,-0.00
 001388,-0.00008652,0.00000235,-0.00001764,-0.00001401,0.00001793,0.000
 00695,0.00000265,-0.00000523,-0.00000125,-0.00000235,-0.00000048,0.000
 00500,0.00000305,-0.00000249,-0.00000426,-0.00000089,0.00000234,0.0000
 1194,0.00000560,-0.00000383,0.00031662,-0.00008742,0.00021584,-0.00002
 893,-0.00001133,-0.00000683,-0.00004856,-0.00000442,-0.00000651,0.0000
 4265,-0.00003712,0.00001086,0.00000084,0.00014726,0.00000851,0.0001547
 3,-0.00011759,-0.00032242,0.00020879,-0.00002858,-0.00002052,0.0000199
 0,-0.00002499,0.00004030,0.00000881,-0.00000451,0.00001133,-0.00000726
 ,0.00000350,0.00000646,-0.00000149,0.00000616,-0.00000351,0.00000304,-
 0.00000661,-0.00000330,-0.00002245,0.00000771,0.00000727,0.04854813,-0
 .33467842,0.01528194,0.00456865,-0.01171776,-0.00004968,0.00022398,-0.
 00050536,-0.00008404,-0.00013029,-0.00008350,-0.00014608,-0.00013323,-
 0.00030646,0.00015857,0.00011103,0.00003314,-0.00005728,0.00001472,0.0
 0001259,0.00000667,0.00000267,0.00000229,0.00000171,0.00000633,0.00000
 942,0.00000022,-0.00004889,-0.00002886,0.00000591,0.00000796,0.0000034
 5,-0.00000184,0.00000046,0.00000749,0.00000392,-0.00000154,0.00000752,
 0.00000605,-0.00000622,-0.00000049,0.00000810,-0.00000644,0.00005368,-
 0.00004109,0.00000145,0.00000622,0.00000143,-0.00000258,-0.00000250,-0
 .00000126,0.00000148,0.00000190,0.00000001,0.00000177,0.00000064,-0.00
 000096,0.00000206,-0.00000006,-0.00000261,-0.00000401,0.00000325,0.000
 00391,-0.00001266,0.00001482,0.00000331,-0.00000446,-0.00000246,0.0000
 0010,-0.00000558,0.00000832,0.00000062,0.00003524,-0.00005864,0.000040
 37,-0.00000905,-0.00000205,-0.00001001,-0.00000166,0.00000047,0.,-0.00
 000017,0.00000067,-0.00000014,-0.00000144,0.00000093,0.00000177,0.0000
 0728,0.00000346,-0.00000217,-0.05410034,0.35486918,0.00517287,0.001811
 97,0.00258774,0.00009119,0.00001341,-0.00075352,0.00579386,-0.00039866
 ,0.00163035,0.00282471,-0.01728953,0.00505479,-0.00203373,-0.00070469,
 -0.00196598,0.00049096,-0.00009237,-0.00040775,0.00130164,0.00080750,0
 .00054872,-0.00009114,-0.00003993,0.00005035,0.00003557,0.00004839,0.0
 0001349,0.00003750,-0.00006397,-0.00000621,-0.00002891,-0.00004952,-0.
 00001457,0.00000774,-0.00009078,0.00002421,0.00032009,0.00019688,-0.00
 002331,0.00019279,-0.00000774,-0.00011689,-0.00048246,0.00021219,0.000
 06464,0.00011961,-0.00002521,-0.00004156,-0.00026211,0.00016310,-0.000
 15305,-0.00011167,0.00011681,-0.00051535,-0.00010301,-0.00026016,0.000
 08772,0.00002987,0.00002822,0.00005374,0.00001958,-0.00002268,-0.00000
 796,-0.00002250,0.00005929,0.00002627,-0.00001931,0.00004874,-0.000020
 95,0.00006203,-0.00002991,-0.00003547,-0.00003050,-0.00017620,-0.00000
 310,0.00003291,-0.00008493,0.00002433,-0.00003102,-0.00001419,0.000033
 23,0.00001831,0.00000848,-0.00001547,-0.00000393,-0.00000249,0.0000009
 4,0.00001054,0.00000463,-0.00000928,-0.00000644,0.00000755,-0.00000092
 ,0.00001030,0.00000583,-0.00001230,0.00025886,0.00012263,0.00022859,-0
 .00000847,0.00001652,0.00000108,0.00001136,-0.00002701,-0.00000335,-0.
 00000690,-0.00000872,-0.00000888,-0.00000628,-0.00014362,-0.00001380,-
 0.00093950,0.00032083,-0.00067861,-0.00028228,-0.00065870,0.00034400,-
 0.00000241,0.00003555,-0.00013561,-0.00002598,-0.00000601,0.00005852,-
 0.00000972,0.00002505,0.00000638,-0.00001306,0.00001684,-0.00000268,0.
 00002256,0.00001059,-0.00001686,-0.00000227,-0.00003253,0.00002342,0.0
 0645098,0.01966760,-0.04695719,-0.00303720,0.01749835,0.00314883,-0.00
 002646,0.00073021,0.00014064,-0.00053041,-0.00007661,-0.00055726,0.000
 20386,-0.00100921,0.00008905,0.00007794,0.00024043,-0.00006904,-0.0000
 0777,0.00000081,0.00000161,-0.00000578,-0.00001511,-0.00000006,-0.0000
 0335,-0.00001286,0.00000175,0.00004535,0.00006798,-0.00002076,0.000012
 11,0.00001550,-0.00000195,0.00000750,0.00001572,0.00000677,-0.00000020
 ,0.00001820,0.00001769,0.00000191,-0.00001204,0.00000628,-0.00004855,0
 .00004258,-0.00017916,0.00000279,0.00001100,-0.00000319,-0.00000339,-0
 .00000557,-0.00000122,0.00000345,0.00000296,0.00000030,0.00000471,0.00
 000104,-0.00000036,0.00000786,-0.00000274,-0.00000287,-0.00000528,-0.0
 0000445,0.00001875,0.00000641,0.00000092,0.00000605,0.00000643,-0.0000
 0726,0.00000359,0.00000265,-0.00001219,0.00000330,-0.00008317,0.000090
 81,-0.00005686,-0.00001394,0.00000673,-0.00002875,-0.00000855,0.000004
 36,0.00000141,-0.00000054,0.00000289,-0.00000232,0.00000189,-0.0000004
 1,-0.00000111,0.00001580,0.00000862,-0.00002267,-0.01281626,-0.0203795
 2,0.04043454,0.00072131,-0.00078148,0.00237238,0.00362471,0.00114694,0
 .00252481,0.00017353,-0.00044552,-0.00068809,0.00201600,-0.00271227,0.
 00436199,-0.00027843,0.00071685,0.00028511,-0.00003645,-0.00011577,-0.
 00007372,0.00015712,0.00014467,0.00011627,-0.00001343,0.00000159,-0.00
 001314,0.00002379,0.00000787,0.00000216,0.00002341,-0.00001808,-0.0000
 0297,-0.00001837,-0.00002533,-0.00000316,0.00000089,0.00001933,0.00000
 181,-0.00006368,-0.00004729,0.00000031,0.00007524,0.00001164,-0.000017
 15,-0.00003091,0.00002245,0.00000931,0.00000524,0.00000201,-0.00000328
 ,0.00003068,-0.00004386,0.00004851,0.00003105,-0.00005060,-0.00010344,
 -0.00020893,0.00003440,0.00003471,-0.00004007,0.00002143,0.00010159,0.
 00000434,-0.00000709,0.00000727,0.00001788,-0.00001754,-0.00000382,-0.
 00000112,-0.00002952,-0.00000513,0.00001228,0.00000523,0.00000608,0.00
 004291,0.00000656,-0.00002834,0.00004504,0.00002892,-0.00005025,0.0000
 2457,-0.00000502,0.00000786,0.00000280,-0.00000030,0.00000608,0.000000
 07,-0.00000456,0.00000088,-0.00000212,-0.00000236,0.00000135,-0.000000
 10,-0.00000086,0.00000422,0.00000602,0.00000615,0.00000383,-0.00005432
 ,-0.00000610,-0.00001641,0.00000951,-0.00000433,-0.00000244,0.00000654
 ,0.00000237,-0.00000161,-0.00000197,0.00000348,-0.00000200,-0.00000758
 ,-0.00001822,-0.00000129,-0.00010262,-0.00007208,-0.00007969,0.0000237
 2,0.00004824,0.00016061,-0.00001690,-0.00003092,-0.00004986,-0.0000226
 6,-0.00001307,0.00000429,0.00000367,-0.00001067,-0.00000315,-0.0000093
 4,0.00000167,0.00000607,0.00000275,0.00000338,-0.00000238,-0.00001591,
 0.00001504,-0.00000893,-0.01022065,0.00978147,0.00980136,-0.20053006,0
 .08811660,0.11752335,-0.00113913,-0.00002463,-0.00235605,-0.00002412,-
 0.00005664,0.00021265,-0.00048689,0.00000861,-0.00047067,-0.00019591,-
 0.00018589,0.00013015,0.00000330,0.00000846,0.00000239,-0.00000079,-0.
 00000491,0.00000241,0.00000071,-0.00000233,0.00000209,-0.00007706,0.00
 009486,-0.00030126,-0.00001367,0.00000543,-0.00000444,-0.00000398,-0.0
 0000288,-0.00000888,-0.00000363,-0.00000030,-0.00000373,-0.00000159,0.
 00000057,-0.00001088,-0.00001591,0.00000628,0.00000183,-0.00001833,0.0
 0000580,-0.00001341,-0.00000213,-0.00000048,-0.00000408,-0.00000174,-0
 .00000022,-0.00000016,0.00000065,0.00000060,-0.00000057,0.00000165,-0.
 00000043,-0.00000104,0.00000052,-0.00000012,0.00000045,0.00000057,0.00
 000050,0.00000234,0.00000131,-0.00000015,0.00000212,-0.00000107,-0.000
 00067,0.00000191,-0.00000787,0.00003001,0.00000216,0.00001319,-0.00000
 149,0.00001272,-0.00000119,0.00000546,0.00000194,-0.00000276,0.0000020
 2,0.00000375,-0.00000310,-0.00000066,0.00000544,0.00000567,0.00000177,
 -0.00000186,-0.00097999,-0.00054546,-0.00260207,0.20754382,0.02389174,
 -0.00767450,-0.01757578,0.00018693,-0.00537236,0.00152210,-0.00055641,
 -0.00070091,0.00051292,-0.00186171,-0.00143420,0.00265909,-0.00055538,
 0.00048202,0.00041461,0.00007195,0.00002277,-0.00009558,0.00002389,0.0
 0002245,0.00002907,-0.00000277,0.00000129,-0.00000298,0.00000447,-0.00
 000292,-0.00000105,0.00000697,-0.00000286,-0.00000152,-0.00000655,-0.0
 0001054,-0.00000087,-0.00000309,0.00001742,0.00000174,-0.00006781,-0.0
 0005013,0.00000988,0.00003207,0.00004059,-0.00003501,0.00002053,-0.000
 01711,0.00001422,0.00000421,-0.00000070,-0.00001351,0.00022389,-0.0001
 6274,0.00011525,-0.00006415,0.00007887,-0.00029996,0.00024477,0.000315
 16,-0.00005426,0.00001144,-0.00009249,-0.00001616,0.00005176,0.0000473
 5,-0.00003975,-0.00000959,-0.00002109,-0.00000924,-0.00003287,-0.00000
 622,0.00000774,-0.00001922,-0.00000449,0.00001751,-0.00000221,0.000019
 61,-0.00000375,-0.00006985,0.00010112,0.00001630,0.00001304,-0.0000030
 2,-0.00001434,0.00000400,-0.00001806,0.00000377,-0.00000128,-0.0000133
 2,0.00000350,-0.00000637,-0.00000845,0.00001086,0.00000109,-0.00000492
 ,0.00000629,0.00000711,0.00002216,0.00001717,-0.00023498,-0.00013494,-
 0.00005994,0.00001686,-0.00001285,-0.00000216,0.00000660,0.00000814,0.
 00000125,-0.00000365,0.00000213,-0.00000121,-0.00000160,-0.00000059,-0
 .00000023,-0.00002635,-0.00001768,-0.00001683,0.00001846,0.00000320,0.
 00005864,0.00000546,0.00000423,-0.00001977,-0.00000628,-0.00000890,0.0
 0001002,0.00000066,0.00000365,0.00000255,-0.00000329,0.00000520,0.0000
 0092,0.00000513,-0.00000211,-0.00000445,-0.00000720,0.00000175,-0.0000
 0144,-0.01422791,0.01141277,0.01040697,0.08794077,-0.10829134,-0.06017
 121,-0.00076414,0.00129253,-0.00017425,0.00106749,-0.00050756,-0.00083
 317,-0.00003397,0.00006460,-0.00013857,-0.00012415,-0.00011262,0.00012
 743,0.00000160,0.00000186,0.00000096,0.00000134,-0.00000003,0.00000096
 ,-0.00000021,0.00000105,0.00000068,-0.00011777,-0.00001553,0.00007537,
 -0.00001835,-0.00003092,-0.00000222,0.00001117,0.00000785,0.00000858,-
 0.00000322,-0.00000196,0.00000992,-0.00000066,0.00000229,0.00000162,-0
 .00000668,-0.00000045,0.00001207,0.00001160,-0.00001675,0.00000823,-0.
 00000203,0.00000160,-0.00000432,-0.00000433,-0.00000018,-0.00000412,-0
 .00000529,0.00000036,-0.00000294,-0.00000191,0.00000390,-0.00000254,0.
 00000316,-0.00000447,-0.00000719,-0.00000084,0.00000130,-0.00000052,-0
 .00000106,0.00000251,0.00000067,-0.00000007,0.00000165,0.00000016,-0.0
 0000993,0.00000216,-0.00002096,-0.00000324,-0.00000205,-0.00000621,-0.
 00000329,0.00000075,0.00000038,0.00000030,0.00000004,-0.00000073,-0.00
 000017,0.00000054,-0.00000015,0.00000158,0.00000229,-0.00000010,0.0000
 0830,0.00077945,-0.00074020,-0.09502858,0.10998331,-0.00060854,0.00156
 390,0.00398161,0.00248641,0.00068310,0.00497335,-0.00049376,0.00081439
 ,-0.00044321,0.00516689,0.00301918,0.00284447,0.00035606,-0.00090133,-
 0.00017603,0.00001144,0.00022229,0.00001071,-0.00007542,-0.00024517,-0
 .00003519,0.00000959,0.00002018,-0.00000467,-0.00004485,-0.00002217,-0
 .00000977,-0.00004464,0.00002855,-0.00000403,0.00003147,0.00004016,0.0
 0000281,0.00001547,-0.00006155,-0.00000394,0.00016244,0.00012424,0.000
 01481,-0.00024652,-0.00002461,0.00000679,0.00015042,-0.00011285,0.0000
 1087,0.00002032,-0.00001706,0.00000179,-0.00028945,0.00045091,-0.00017
 974,-0.00001919,-0.00039503,0.00056248,0.00010924,0.00012647,-0.000423
 93,0.00014722,-0.00019319,-0.00000154,0.00000359,0.00005066,0.00003489
 ,0.00000842,-0.00001089,-0.00000604,-0.00006890,0.00002791,0.00001832,
 -0.00004841,0.00000939,-0.00000902,-0.00000856,0.00006214,0.00000107,-
 0.00013049,-0.00009170,0.00008850,-0.00004461,-0.00001753,0.00002662,0
 .00002667,-0.00001610,-0.00002516,-0.00000356,-0.00000679,0.00000287,0
 .00000767,0.00000665,-0.00000555,-0.00001236,0.00000315,0.00002027,0.0
 0003113,0.00000826,0.00000163,0.00038422,-0.00006069,0.00014361,-0.000
 06506,0.00003184,-0.00001134,-0.00005578,-0.00004168,-0.00000339,0.000
 03958,-0.00004699,0.00000392,0.00000982,0.00005651,-0.00000340,0.00008
 881,0.00013271,0.00002566,-0.00004404,0.00002291,-0.00003327,-0.000056
 23,0.00002064,0.00003374,0.00000666,-0.00001175,0.00000343,-0.00000209
 ,0.00000573,-0.00001006,0.00000798,-0.00001149,-0.00000189,-0.00001146
 ,0.00000814,0.00000659,0.00002904,-0.00001509,-0.00001100,0.01244137,-
 0.00850923,-0.00479536,0.11699915,-0.05924126,-0.12293912,-0.00232901,
 -0.00071626,-0.00221941,0.00005568,0.00013514,0.00021757,-0.00051275,-
 0.00010993,-0.00066483,0.00012704,0.00008870,-0.00016651,-0.00000813,-
 0.00001128,0.00000306,-0.00000365,0.00000359,0.00000051,0.00000090,0.0
 0000091,0.00000076,-0.00046851,-0.00021867,-0.00016155,-0.00002176,-0.
 00005043,-0.00000316,0.00000014,0.00001538,0.00001166,-0.00000367,0.00
 000783,0.00001869,-0.00001088,-0.00000142,0.00003485,0.00004075,-0.000
 00803,0.00000620,0.00006696,0.00000183,0.00003781,-0.00000666,-0.00000
 297,-0.00000121,0.00000534,0.00000813,-0.00000013,0.00000765,0.0000043
 8,-0.00000329,0.00000447,-0.00000254,-0.00000751,-0.00001653,0.0000165
 0,0.00000769,-0.00000836,0.00001491,0.00000248,-0.00000052,-0.00000900
 ,0.00000063,-0.00000069,-0.00000454,0.00000107,-0.00003873,0.00002178,
 0.00000517,-0.00000307,0.00001040,-0.00000077,0.00000151,-0.00000382,-
 0.00000002,0.00000477,-0.00000102,-0.00000151,0.00000546,0.00000198,-0
 .00000442,-0.00000590,-0.00000218,0.00000265,-0.00242181,-0.00096507,-
 0.00187484,-0.13083721,0.06428982,0.12107418\\0.00000158,-0.00000209,-
 0.00000178,-0.00000253,0.00000110,0.00000056,0.00000119,0.00000299,0.0
 0000121,-0.00000197,0.00000106,0.00000069,0.00000680,0.00000277,0.0000
 0249,-0.00000427,-0.00000340,-0.00000347,0.00000725,-0.00000144,0.0000
 0048,0.00000033,-0.00000582,0.00000133,-0.00000068,0.00000137,0.000002
 29,-0.00000234,-0.00000103,-0.00000015,0.00000187,-0.00000128,0.000002
 55,-0.00000029,-0.00000014,-0.00000180,-0.00000257,0.00000500,-0.00000
 358,0.00000116,-0.00000166,0.00000009,0.00000200,0.00000518,0.00000359
 ,-0.00000234,-0.00000361,-0.00000104,-0.00000563,-0.00000234,-0.000001
 77,0.00000605,-0.00000204,0.00000355,-0.00000371,0.00000130,-0.0000053
 4,-0.00000081,-0.00000300,0.00000169,-0.00000007,0.00000385,-0.0000005
 7,0.00000396,0.00000125,-0.00000205,-0.00000316,-0.00000345,0.00000216
 ,-0.00000365,0.00000519,0.00000208,0.00000259,-0.00000236,-0.00000504,
 0.00000445,-0.00001560,0.00000583,-0.00000114,-0.00000118,-0.00000316,
 0.00000241,0.00000264,0.00000112,-0.00000153,0.00000094,0.00000250,0.0
 0000116,-0.00000196,-0.00000297,0.00000290,0.00000146,-0.00000168,-0.0
 0000242,-0.00000096,0.00000194,-0.00000033,0.00001445,-0.00000022,0.00
 000213,0.00000077,-0.00000249,0.00000249,-0.00000070,0.00000016,-0.000
 00214,-0.00000151,-0.00000206,0.00000090,0.,0.00000116,-0.00000147,0.0
 0001534,0.00000412,-0.00000787,-0.00001609,-0.00000464,0.00000177,-0.0
 0000336,0.00000383,-0.00000273,0.00000456,-0.00000117,0.00000227,0.000
 00054,-0.00000312,-0.00000157,-0.00000280,0.00000328,-0.00000365,0.000
 00284,0.00000126,0.00000129,-0.00000097,-0.00000244,-0.00000200,-0.000
 00258,0.00000364,0.00000243,0.00000263,-0.00000196,0.00000065,0.000000
 72,0.00000021,-0.00000018,0.00000095,-0.00000004,-0.00000030,-0.000000
 03,-0.00000087,-0.00000104,-0.00000059,0.00000131,-0.00000071,0.,0.000
 00024,-0.00000056,-0.00000112,0.00000011,0.00000070,-0.00000078,-0.000
 00029,-0.00000003,-0.00000084,-0.00000030,0.00000066,0.00000005,0.0000
 0043,0.00000019,0.00000125,0.00000038,-0.00000060,0.00000094,-0.000000
 14,-0.00000004,-0.00000121,0.00000006,0.00000075,-0.00000024,0.0000027
 9,-0.00000118,0.00000258,-0.00000052,-0.00000049,0.00000054,-0.0000002
 9,0.00000039,0.00000105,-0.00000054,0.00000086,0.00000036,-0.00000061,
 0.00000021,-0.00000078,-0.00000109,-0.00000096,-0.00000024,-0.00000142
 ,0.00000042,0.00000044,-0.00000006,0.00000058,-0.00000111,-0.00000003,
 -0.00000084,-0.00000080,0.00000011,0.00000316,0.00000248,-0.00000059,0
 .00000054,0.00000078,0.00000033,-0.00000029,0.00000117,0.00000052,-0.0
 0000063,0.00000050,0.00000067,-0.00000021,-0.00000075,0.00000109,0.000
 00189,0.00000009,0.00000083,-0.00000131,-0.00000034,-0.00000397,0.0000
 0023,-0.00000092,0.00000057\\\@
 The archive entry for this job was punched.


 Where a calculator on the ENIAC is equipped with 18,000
 vacuum tubes and weighs 30 tons, computers inthe future
 may  have only 1,000 vacuum tubes and weigh only 1 1/2 tons.
              ---Popular Mechanics, March 1949
 Job cpu time:       0 days 12 hours 31 minutes 58.3 seconds.
 Elapsed time:       0 days  0 hours 18 minutes 53.7 seconds.
 File lengths (MBytes):  RWF=   4263 Int=      0 D2E=      0 Chk=     46 Scr=      1
 Normal termination of Gaussian 16 at Mon Feb 26 12:05:07 2024.
