 Entering Gaussian System, Link 0=g16
 Initial command:
 /public/apps/g16-C01//g16/l1.exe "/public/home/ljq/tmp/Gau-47608.inp" -scrdir="/public/home/ljq/tmp/"
 Entering Link 1 = /public/apps/g16-C01//g16/l1.exe PID=     47609.
  
 Copyright (c) 1988-2019, Gaussian, Inc.  All Rights Reserved.
  
 This is part of the Gaussian(R) 16 program.  It is based on
 the Gaussian(R) 09 system (copyright 2009, Gaussian, Inc.),
 the Gaussian(R) 03 system (copyright 2003, Gaussian, Inc.),
 the Gaussian(R) 98 system (copyright 1998, Gaussian, Inc.),
 the Gaussian(R) 94 system (copyright 1995, Gaussian, Inc.),
 the Gaussian 92(TM) system (copyright 1992, Gaussian, Inc.),
 the Gaussian 90(TM) system (copyright 1990, Gaussian, Inc.),
 the Gaussian 88(TM) system (copyright 1988, Gaussian, Inc.),
 the Gaussian 86(TM) system (copyright 1986, Carnegie Mellon
 University), and the Gaussian 82(TM) system (copyright 1983,
 Carnegie Mellon University). Gaussian is a federally registered
 trademark of Gaussian, Inc.
  
 This software contains proprietary and confidential information,
 including trade secrets, belonging to Gaussian, Inc.
  
 This software is provided under written license and may be
 used, copied, transmitted, or stored only in accord with that
 written license.
  
 The following legend is applicable only to US Government
 contracts under FAR:
  
                    RESTRICTED RIGHTS LEGEND
  
 Use, reproduction and disclosure by the US Government is
 subject to restrictions as set forth in subparagraphs (a)
 and (c) of the Commercial Computer Software - Restricted
 Rights clause in FAR 52.227-19.
  
 Gaussian, Inc.
 340 Quinnipiac St., Bldg. 40, Wallingford CT 06492
  
  
 ---------------------------------------------------------------
 Warning -- This program may not be used in any manner that
 competes with the business of Gaussian, Inc. or will provide
 assistance to any competitor of Gaussian, Inc.  The licensee
 of this program is prohibited from giving any competitor of
 Gaussian, Inc. access to this program.  By using this program,
 the user acknowledges that Gaussian, Inc. is engaged in the
 business of creating and licensing software in the field of
 computational chemistry and represents and warrants to the
 licensee that it is not a competitor of Gaussian, Inc. and that
 it will not use this program in any manner prohibited above.
 ---------------------------------------------------------------
  

 Cite this work as:
 Gaussian 16, Revision C.01,
 M. J. Frisch, G. W. Trucks, H. B. Schlegel, G. E. Scuseria, 
 M. A. Robb, J. R. Cheeseman, G. Scalmani, V. Barone, 
 G. A. Petersson, H. Nakatsuji, X. Li, M. Caricato, A. V. Marenich, 
 J. Bloino, B. G. Janesko, R. Gomperts, B. Mennucci, H. P. Hratchian, 
 J. V. Ortiz, A. F. Izmaylov, J. L. Sonnenberg, D. Williams-Young, 
 F. Ding, F. Lipparini, F. Egidi, J. Goings, B. Peng, A. Petrone, 
 T. Henderson, D. Ranasinghe, V. G. Zakrzewski, J. Gao, N. Rega, 
 G. Zheng, W. Liang, M. Hada, M. Ehara, K. Toyota, R. Fukuda, 
 J. Hasegawa, M. Ishida, T. Nakajima, Y. Honda, O. Kitao, H. Nakai, 
 T. Vreven, K. Throssell, J. A. Montgomery, Jr., J. E. Peralta, 
 F. Ogliaro, M. J. Bearpark, J. J. Heyd, E. N. Brothers, K. N. Kudin, 
 V. N. Staroverov, T. A. Keith, R. Kobayashi, J. Normand, 
 K. Raghavachari, A. P. Rendell, J. C. Burant, S. S. Iyengar, 
 J. Tomasi, M. Cossi, J. M. Millam, M. Klene, C. Adamo, R. Cammi, 
 J. W. Ochterski, R. L. Martin, K. Morokuma, O. Farkas, 
 J. B. Foresman, and D. J. Fox, Gaussian, Inc., Wallingford CT, 2019.
 
 ******************************************
 Gaussian 16:  ES64L-G16RevC.01  3-Jul-2019
                25-Feb-2024 
 ******************************************
 %nproc=40
 Will use up to   40 processors via shared memory.
 %mem=56GB
 ------------------------------------------
 #p opt freq b3lyp/def2svpp em=gd3bj nosymm
 ------------------------------------------
 1/18=20,19=15,26=3,38=1/1,3;
 2/9=110,12=2,15=1,17=6,18=5,40=1/2;
 3/5=43,7=202,11=2,25=1,30=1,71=1,74=-5,124=41/1,2,3;
 4//1;
 5/5=2,38=5/2;
 6/7=2,8=2,9=2,10=2,28=1/1;
 7/30=1/1,2,3,16;
 1/18=20,19=15,26=3/3(2);
 2/9=110,15=1/2;
 99//99;
 2/9=110,15=1/2;
 3/5=43,7=202,11=2,25=1,30=1,71=1,74=-5,124=41/1,2,3;
 4/5=5,16=3,69=1/1;
 5/5=2,38=5/2;
 7/30=1/1,2,3,16;
 1/18=20,19=15,26=3/3(-5);
 2/9=110,15=1/2;
 6/7=2,8=2,9=2,10=2,19=2,28=1/1;
 99/9=1/99;
 Leave Link    1 at Sun Feb 25 21:54:22 2024, MaxMem=  7516192768 cpu:               1.2 elap:               0.0
 (Enter /public/apps/g16-C01//g16/l101.exe)
 ----------------------
 $$$$Singlemol####0????
 ----------------------
 Symbolic Z-matrix:
 Charge =  0 Multiplicity = 1
 C                     4.38144  -3.7815    0.56671 
 C                     3.22068  -3.07856   0.83618 
 C                     2.93877  -1.91088   0.14956 
 C                     3.81413  -1.44073  -0.81796 
 C                     3.55863  -0.1358   -1.52982 
 N                     2.21166   0.33206  -1.35526 
 C                     2.2445    1.48461  -0.83691 
 C                     1.0783    2.28777  -0.47117 
 C                     1.2484    3.52996   0.14361 
 C                     0.11893   4.24532   0.50762 
 C                    -1.12813   3.70724   0.24526 
 C                    -1.18819   2.4631   -0.38817 
 C                    -2.49011   1.85502  -0.67206 
 N                    -3.5667    2.2058   -0.0971 
 C                    -4.62727   1.35022  -0.56825 
 C                    -5.26865   0.58129   0.55815 
 C                    -4.49048   0.04403   1.57483 
 C                    -5.07153  -0.7195    2.56992 
 C                    -6.43552  -0.95452   2.55937 
 C                    -7.21838  -0.41068   1.55615 
 C                    -6.63764   0.35507   0.56121 
 C                    -3.9002    0.40923  -1.61093 
 C                    -3.99966  -1.05108  -1.26053 
 C                    -5.19191  -1.7268   -1.49044 
 C                    -5.32576  -3.04973  -1.11462 
 C                    -4.2673   -3.71217  -0.51543 
 C                    -3.07231  -3.04815  -0.30366 
 C                    -2.93748  -1.72094  -0.67119 
 O                    -2.55295   0.86839  -1.58117 
 N                    -0.11425   1.77152  -0.73255 
 O                     3.46773   2.0239   -0.58558 
 C                     4.43893   1.05188  -0.9642 
 C                     5.2897    0.64186   0.20476 
 C                     6.64001   0.3747    0.02556 
 C                     7.40981  -0.07235   1.08378 
 C                     6.83811  -0.25043   2.33173 
 C                     5.49538   0.02819   2.51922 
 C                     4.7234    0.47022   1.46118 
 C                     4.96824  -2.1606   -1.09962 
 C                     5.25248  -3.32246  -0.40697 
 H                     4.60576  -4.68821   1.10908 
 H                     2.53285  -3.43807   1.58755 
 H                     2.03118  -1.36067   0.34745 
 H                     3.74475  -0.27487  -2.60147 
 H                     2.24255   3.90462   0.32815 
 H                     0.21286   5.20724   0.9904 
 H                    -2.04423   4.20779   0.51162 
 H                    -5.38649   1.96875  -1.0601 
 H                    -3.42696   0.23093   1.58542 
 H                    -4.45656  -1.13588   3.35411 
 H                    -6.88821  -1.55655   3.33343 
 H                    -8.28458  -0.58402   1.54727 
 H                    -7.25274   0.77814  -0.22064 
 H                    -4.29358   0.57781  -2.6212 
 H                    -6.01678  -1.21112  -1.96072 
 H                    -6.25804  -3.56579  -1.29068 
 H                    -4.37385  -4.7458   -0.22083 
 H                    -2.23953  -3.56339   0.15189 
 H                    -2.00243  -1.20391  -0.51555 
 H                     5.06315   1.48847  -1.75245 
 H                     7.08853   0.51516  -0.94774 
 H                     8.45875  -0.28143   0.93383 
 H                     7.4389   -0.60236   3.15716 
 H                     5.04534  -0.10425   3.49196 
 H                     3.67526   0.68513   1.60901 
 H                     5.64782  -1.80659  -1.86163 
 H                     6.15569  -3.87204  -0.628 
 
 ITRead=  0  0  0  0  0  0  0  0  0  0  0  0  0  0  0  0  0  0  0  0
 ITRead=  0  0  0  0  0  0  0  0  0  0  0  0  0  0  0  0  0  0  0  0
 ITRead=  0  0  0  0  0  0  0  0  0  0  0  0  0  0  0  0  0  0  0  0
 ITRead=  0  0  0  0  0  0  0
 MicOpt= -1 -1 -1 -1 -1 -1 -1 -1 -1 -1 -1 -1 -1 -1 -1 -1 -1 -1 -1 -1
 MicOpt= -1 -1 -1 -1 -1 -1 -1 -1 -1 -1 -1 -1 -1 -1 -1 -1 -1 -1 -1 -1
 MicOpt= -1 -1 -1 -1 -1 -1 -1 -1 -1 -1 -1 -1 -1 -1 -1 -1 -1 -1 -1 -1
 MicOpt= -1 -1 -1 -1 -1 -1 -1
 NAtoms=     67 NQM=       67 NQMF=       0 NMMI=      0 NMMIF=      0
                NMic=       0 NMicF=      0.
                    Isotopes and Nuclear Properties:
 (Nuclear quadrupole moments (NQMom) in fm**2, nuclear magnetic moments (NMagM)
  in nuclear magnetons)

  Atom         1           2           3           4           5           6           7           8           9          10
 IAtWgt=          12          12          12          12          12          14          12          12          12          12
 AtmWgt=  12.0000000  12.0000000  12.0000000  12.0000000  12.0000000  14.0030740  12.0000000  12.0000000  12.0000000  12.0000000
 NucSpn=           0           0           0           0           0           2           0           0           0           0
 AtZEff=  -0.0000000  -0.0000000  -0.0000000  -0.0000000  -0.0000000  -0.0000000  -0.0000000  -0.0000000  -0.0000000  -0.0000000
 NQMom=    0.0000000   0.0000000   0.0000000   0.0000000   0.0000000   2.0440000   0.0000000   0.0000000   0.0000000   0.0000000
 NMagM=    0.0000000   0.0000000   0.0000000   0.0000000   0.0000000   0.4037610   0.0000000   0.0000000   0.0000000   0.0000000
 AtZNuc=   6.0000000   6.0000000   6.0000000   6.0000000   6.0000000   7.0000000   6.0000000   6.0000000   6.0000000   6.0000000

  Atom        11          12          13          14          15          16          17          18          19          20
 IAtWgt=          12          12          12          14          12          12          12          12          12          12
 AtmWgt=  12.0000000  12.0000000  12.0000000  14.0030740  12.0000000  12.0000000  12.0000000  12.0000000  12.0000000  12.0000000
 NucSpn=           0           0           0           2           0           0           0           0           0           0
 AtZEff=  -0.0000000  -0.0000000  -0.0000000  -0.0000000  -0.0000000  -0.0000000  -0.0000000  -0.0000000  -0.0000000  -0.0000000
 NQMom=    0.0000000   0.0000000   0.0000000   2.0440000   0.0000000   0.0000000   0.0000000   0.0000000   0.0000000   0.0000000
 NMagM=    0.0000000   0.0000000   0.0000000   0.4037610   0.0000000   0.0000000   0.0000000   0.0000000   0.0000000   0.0000000
 AtZNuc=   6.0000000   6.0000000   6.0000000   7.0000000   6.0000000   6.0000000   6.0000000   6.0000000   6.0000000   6.0000000

  Atom        21          22          23          24          25          26          27          28          29          30
 IAtWgt=          12          12          12          12          12          12          12          12          16          14
 AtmWgt=  12.0000000  12.0000000  12.0000000  12.0000000  12.0000000  12.0000000  12.0000000  12.0000000  15.9949146  14.0030740
 NucSpn=           0           0           0           0           0           0           0           0           0           2
 AtZEff=  -0.0000000  -0.0000000  -0.0000000  -0.0000000  -0.0000000  -0.0000000  -0.0000000  -0.0000000  -0.0000000  -0.0000000
 NQMom=    0.0000000   0.0000000   0.0000000   0.0000000   0.0000000   0.0000000   0.0000000   0.0000000   0.0000000   2.0440000
 NMagM=    0.0000000   0.0000000   0.0000000   0.0000000   0.0000000   0.0000000   0.0000000   0.0000000   0.0000000   0.4037610
 AtZNuc=   6.0000000   6.0000000   6.0000000   6.0000000   6.0000000   6.0000000   6.0000000   6.0000000   8.0000000   7.0000000

  Atom        31          32          33          34          35          36          37          38          39          40
 IAtWgt=          16          12          12          12          12          12          12          12          12          12
 AtmWgt=  15.9949146  12.0000000  12.0000000  12.0000000  12.0000000  12.0000000  12.0000000  12.0000000  12.0000000  12.0000000
 NucSpn=           0           0           0           0           0           0           0           0           0           0
 AtZEff=  -0.0000000  -0.0000000  -0.0000000  -0.0000000  -0.0000000  -0.0000000  -0.0000000  -0.0000000  -0.0000000  -0.0000000
 NQMom=    0.0000000   0.0000000   0.0000000   0.0000000   0.0000000   0.0000000   0.0000000   0.0000000   0.0000000   0.0000000
 NMagM=    0.0000000   0.0000000   0.0000000   0.0000000   0.0000000   0.0000000   0.0000000   0.0000000   0.0000000   0.0000000
 AtZNuc=   8.0000000   6.0000000   6.0000000   6.0000000   6.0000000   6.0000000   6.0000000   6.0000000   6.0000000   6.0000000

  Atom        41          42          43          44          45          46          47          48          49          50
 IAtWgt=           1           1           1           1           1           1           1           1           1           1
 AtmWgt=   1.0078250   1.0078250   1.0078250   1.0078250   1.0078250   1.0078250   1.0078250   1.0078250   1.0078250   1.0078250
 NucSpn=           1           1           1           1           1           1           1           1           1           1
 AtZEff=  -0.0000000  -0.0000000  -0.0000000  -0.0000000  -0.0000000  -0.0000000  -0.0000000  -0.0000000  -0.0000000  -0.0000000
 NQMom=    0.0000000   0.0000000   0.0000000   0.0000000   0.0000000   0.0000000   0.0000000   0.0000000   0.0000000   0.0000000
 NMagM=    2.7928460   2.7928460   2.7928460   2.7928460   2.7928460   2.7928460   2.7928460   2.7928460   2.7928460   2.7928460
 AtZNuc=   1.0000000   1.0000000   1.0000000   1.0000000   1.0000000   1.0000000   1.0000000   1.0000000   1.0000000   1.0000000

  Atom        51          52          53          54          55          56          57          58          59          60
 IAtWgt=           1           1           1           1           1           1           1           1           1           1
 AtmWgt=   1.0078250   1.0078250   1.0078250   1.0078250   1.0078250   1.0078250   1.0078250   1.0078250   1.0078250   1.0078250
 NucSpn=           1           1           1           1           1           1           1           1           1           1
 AtZEff=  -0.0000000  -0.0000000  -0.0000000  -0.0000000  -0.0000000  -0.0000000  -0.0000000  -0.0000000  -0.0000000  -0.0000000
 NQMom=    0.0000000   0.0000000   0.0000000   0.0000000   0.0000000   0.0000000   0.0000000   0.0000000   0.0000000   0.0000000
 NMagM=    2.7928460   2.7928460   2.7928460   2.7928460   2.7928460   2.7928460   2.7928460   2.7928460   2.7928460   2.7928460
 AtZNuc=   1.0000000   1.0000000   1.0000000   1.0000000   1.0000000   1.0000000   1.0000000   1.0000000   1.0000000   1.0000000

  Atom        61          62          63          64          65          66          67
 IAtWgt=           1           1           1           1           1           1           1
 AtmWgt=   1.0078250   1.0078250   1.0078250   1.0078250   1.0078250   1.0078250   1.0078250
 NucSpn=           1           1           1           1           1           1           1
 AtZEff=  -0.0000000  -0.0000000  -0.0000000  -0.0000000  -0.0000000  -0.0000000  -0.0000000
 NQMom=    0.0000000   0.0000000   0.0000000   0.0000000   0.0000000   0.0000000   0.0000000
 NMagM=    2.7928460   2.7928460   2.7928460   2.7928460   2.7928460   2.7928460   2.7928460
 AtZNuc=   1.0000000   1.0000000   1.0000000   1.0000000   1.0000000   1.0000000   1.0000000
 Leave Link  101 at Sun Feb 25 21:54:22 2024, MaxMem=  7516192768 cpu:              13.8 elap:               0.4
 (Enter /public/apps/g16-C01//g16/l103.exe)

 GradGradGradGradGradGradGradGradGradGradGradGradGradGradGradGradGradGrad
 Berny optimization.
 Initialization pass.
                           ----------------------------
                           !    Initial Parameters    !
                           ! (Angstroms and Degrees)  !
 --------------------------                            --------------------------
 ! Name  Definition              Value          Derivative Info.                !
 --------------------------------------------------------------------------------
 ! R1    R(1,2)                  1.3835         estimate D2E/DX2                !
 ! R2    R(1,40)                 1.3847         estimate D2E/DX2                !
 ! R3    R(1,41)                 1.0801         estimate D2E/DX2                !
 ! R4    R(2,3)                  1.3836         estimate D2E/DX2                !
 ! R5    R(2,42)                 1.0802         estimate D2E/DX2                !
 ! R6    R(3,4)                  1.3869         estimate D2E/DX2                !
 ! R7    R(3,43)                 1.0796         estimate D2E/DX2                !
 ! R8    R(4,5)                  1.5083         estimate D2E/DX2                !
 ! R9    R(4,39)                 1.3891         estimate D2E/DX2                !
 ! R10   R(5,6)                  1.4366         estimate D2E/DX2                !
 ! R11   R(5,32)                 1.5829         estimate D2E/DX2                !
 ! R12   R(5,44)                 1.0966         estimate D2E/DX2                !
 ! R13   R(6,7)                  1.2642         estimate D2E/DX2                !
 ! R14   R(7,8)                  1.4625         estimate D2E/DX2                !
 ! R15   R(7,31)                 1.3603         estimate D2E/DX2                !
 ! R16   R(8,9)                  1.3964         estimate D2E/DX2                !
 ! R17   R(8,30)                 1.3255         estimate D2E/DX2                !
 ! R18   R(9,10)                 1.3856         estimate D2E/DX2                !
 ! R19   R(9,45)                 1.0783         estimate D2E/DX2                !
 ! R20   R(10,11)                1.3833         estimate D2E/DX2                !
 ! R21   R(10,46)                1.0804         estimate D2E/DX2                !
 ! R22   R(11,12)                1.3974         estimate D2E/DX2                !
 ! R23   R(11,47)                1.0774         estimate D2E/DX2                !
 ! R24   R(12,13)                1.4647         estimate D2E/DX2                !
 ! R25   R(12,30)                1.323          estimate D2E/DX2                !
 ! R26   R(13,14)                1.2699         estimate D2E/DX2                !
 ! R27   R(13,29)                1.3431         estimate D2E/DX2                !
 ! R28   R(14,15)                1.4418         estimate D2E/DX2                !
 ! R29   R(15,16)                1.5071         estimate D2E/DX2                !
 ! R30   R(15,22)                1.5815         estimate D2E/DX2                !
 ! R31   R(15,48)                1.0959         estimate D2E/DX2                !
 ! R32   R(16,17)                1.3885         estimate D2E/DX2                !
 ! R33   R(16,21)                1.3876         estimate D2E/DX2                !
 ! R34   R(17,18)                1.3823         estimate D2E/DX2                !
 ! R35   R(17,49)                1.0799         estimate D2E/DX2                !
 ! R36   R(18,19)                1.3841         estimate D2E/DX2                !
 ! R37   R(18,50)                1.0801         estimate D2E/DX2                !
 ! R38   R(19,20)                1.3839         estimate D2E/DX2                !
 ! R39   R(19,51)                1.0801         estimate D2E/DX2                !
 ! R40   R(20,21)                1.3833         estimate D2E/DX2                !
 ! R41   R(20,52)                1.0802         estimate D2E/DX2                !
 ! R42   R(21,53)                1.081          estimate D2E/DX2                !
 ! R43   R(22,23)                1.505          estimate D2E/DX2                !
 ! R44   R(22,29)                1.4237         estimate D2E/DX2                !
 ! R45   R(22,54)                1.0972         estimate D2E/DX2                !
 ! R46   R(23,24)                1.3896         estimate D2E/DX2                !
 ! R47   R(23,28)                1.3872         estimate D2E/DX2                !
 ! R48   R(24,25)                1.3818         estimate D2E/DX2                !
 ! R49   R(24,55)                1.0805         estimate D2E/DX2                !
 ! R50   R(25,26)                1.385          estimate D2E/DX2                !
 ! R51   R(25,56)                1.08           estimate D2E/DX2                !
 ! R52   R(26,27)                1.3834         estimate D2E/DX2                !
 ! R53   R(26,57)                1.0801         estimate D2E/DX2                !
 ! R54   R(27,28)                1.3837         estimate D2E/DX2                !
 ! R55   R(27,58)                1.0801         estimate D2E/DX2                !
 ! R56   R(28,59)                1.0797         estimate D2E/DX2                !
 ! R57   R(31,32)                1.4253         estimate D2E/DX2                !
 ! R58   R(32,33)                1.5028         estimate D2E/DX2                !
 ! R59   R(32,60)                1.0962         estimate D2E/DX2                !
 ! R60   R(33,34)                1.3881         estimate D2E/DX2                !
 ! R61   R(33,38)                1.3888         estimate D2E/DX2                !
 ! R62   R(34,35)                1.3829         estimate D2E/DX2                !
 ! R63   R(34,61)                1.0808         estimate D2E/DX2                !
 ! R64   R(35,36)                1.3842         estimate D2E/DX2                !
 ! R65   R(35,62)                1.08           estimate D2E/DX2                !
 ! R66   R(36,37)                1.3841         estimate D2E/DX2                !
 ! R67   R(36,63)                1.0799         estimate D2E/DX2                !
 ! R68   R(37,38)                1.3823         estimate D2E/DX2                !
 ! R69   R(37,64)                1.08           estimate D2E/DX2                !
 ! R70   R(38,65)                1.0801         estimate D2E/DX2                !
 ! R71   R(39,40)                1.3822         estimate D2E/DX2                !
 ! R72   R(39,66)                1.0807         estimate D2E/DX2                !
 ! R73   R(40,67)                1.0801         estimate D2E/DX2                !
 ! A1    A(2,1,40)             119.7546         estimate D2E/DX2                !
 ! A2    A(2,1,41)             120.1959         estimate D2E/DX2                !
 ! A3    A(40,1,41)            120.0485         estimate D2E/DX2                !
 ! A4    A(1,2,3)              120.2038         estimate D2E/DX2                !
 ! A5    A(1,2,42)             120.0402         estimate D2E/DX2                !
 ! A6    A(3,2,42)             119.7555         estimate D2E/DX2                !
 ! A7    A(2,3,4)              120.2446         estimate D2E/DX2                !
 ! A8    A(2,3,43)             120.6913         estimate D2E/DX2                !
 ! A9    A(4,3,43)             119.0586         estimate D2E/DX2                !
 ! A10   A(3,4,5)              121.0406         estimate D2E/DX2                !
 ! A11   A(3,4,39)             119.3529         estimate D2E/DX2                !
 ! A12   A(5,4,39)             119.5653         estimate D2E/DX2                !
 ! A13   A(4,5,6)              112.5355         estimate D2E/DX2                !
 ! A14   A(4,5,32)             112.7258         estimate D2E/DX2                !
 ! A15   A(4,5,44)             108.8309         estimate D2E/DX2                !
 ! A16   A(6,5,32)             103.5136         estimate D2E/DX2                !
 ! A17   A(6,5,44)             108.6147         estimate D2E/DX2                !
 ! A18   A(32,5,44)            110.4868         estimate D2E/DX2                !
 ! A19   A(5,6,7)              108.8077         estimate D2E/DX2                !
 ! A20   A(6,7,8)              125.628          estimate D2E/DX2                !
 ! A21   A(6,7,31)             117.4241         estimate D2E/DX2                !
 ! A22   A(8,7,31)             116.9455         estimate D2E/DX2                !
 ! A23   A(7,8,9)              120.0992         estimate D2E/DX2                !
 ! A24   A(7,8,30)             117.0144         estimate D2E/DX2                !
 ! A25   A(9,8,30)             122.8791         estimate D2E/DX2                !
 ! A26   A(8,9,10)             118.3999         estimate D2E/DX2                !
 ! A27   A(8,9,45)             119.7846         estimate D2E/DX2                !
 ! A28   A(10,9,45)            121.8144         estimate D2E/DX2                !
 ! A29   A(9,10,11)            118.9607         estimate D2E/DX2                !
 ! A30   A(9,10,46)            120.4107         estimate D2E/DX2                !
 ! A31   A(11,10,46)           120.6285         estimate D2E/DX2                !
 ! A32   A(10,11,12)           118.1014         estimate D2E/DX2                !
 ! A33   A(10,11,47)           122.612          estimate D2E/DX2                !
 ! A34   A(12,11,47)           119.2864         estimate D2E/DX2                !
 ! A35   A(11,12,13)           119.7145         estimate D2E/DX2                !
 ! A36   A(11,12,30)           123.2662         estimate D2E/DX2                !
 ! A37   A(13,12,30)           117.0057         estimate D2E/DX2                !
 ! A38   A(12,13,14)           123.444          estimate D2E/DX2                !
 ! A39   A(12,13,29)           118.5389         estimate D2E/DX2                !
 ! A40   A(14,13,29)           118.0157         estimate D2E/DX2                !
 ! A41   A(13,14,15)           108.1643         estimate D2E/DX2                !
 ! A42   A(14,15,16)           111.8125         estimate D2E/DX2                !
 ! A43   A(14,15,22)           103.3171         estimate D2E/DX2                !
 ! A44   A(14,15,48)           108.7449         estimate D2E/DX2                !
 ! A45   A(16,15,22)           112.6322         estimate D2E/DX2                !
 ! A46   A(16,15,48)           109.1828         estimate D2E/DX2                !
 ! A47   A(22,15,48)           111.0029         estimate D2E/DX2                !
 ! A48   A(15,16,17)           120.409          estimate D2E/DX2                !
 ! A49   A(15,16,21)           120.3113         estimate D2E/DX2                !
 ! A50   A(17,16,21)           119.2262         estimate D2E/DX2                !
 ! A51   A(16,17,18)           120.3483         estimate D2E/DX2                !
 ! A52   A(16,17,49)           119.4844         estimate D2E/DX2                !
 ! A53   A(18,17,49)           120.1667         estimate D2E/DX2                !
 ! A54   A(17,18,19)           120.1677         estimate D2E/DX2                !
 ! A55   A(17,18,50)           119.7536         estimate D2E/DX2                !
 ! A56   A(19,18,50)           120.0782         estimate D2E/DX2                !
 ! A57   A(18,19,20)           119.7534         estimate D2E/DX2                !
 ! A58   A(18,19,51)           120.1469         estimate D2E/DX2                !
 ! A59   A(20,19,51)           120.0993         estimate D2E/DX2                !
 ! A60   A(19,20,21)           120.0971         estimate D2E/DX2                !
 ! A61   A(19,20,52)           120.0828         estimate D2E/DX2                !
 ! A62   A(21,20,52)           119.82           estimate D2E/DX2                !
 ! A63   A(16,21,20)           120.4            estimate D2E/DX2                !
 ! A64   A(16,21,53)           119.7347         estimate D2E/DX2                !
 ! A65   A(20,21,53)           119.8651         estimate D2E/DX2                !
 ! A66   A(15,22,23)           113.1682         estimate D2E/DX2                !
 ! A67   A(15,22,29)           103.2602         estimate D2E/DX2                !
 ! A68   A(15,22,54)           110.5369         estimate D2E/DX2                !
 ! A69   A(23,22,29)           111.7528         estimate D2E/DX2                !
 ! A70   A(23,22,54)           109.8623         estimate D2E/DX2                !
 ! A71   A(29,22,54)           107.9976         estimate D2E/DX2                !
 ! A72   A(22,23,24)           119.3406         estimate D2E/DX2                !
 ! A73   A(22,23,28)           121.1211         estimate D2E/DX2                !
 ! A74   A(24,23,28)           119.5019         estimate D2E/DX2                !
 ! A75   A(23,24,25)           120.244          estimate D2E/DX2                !
 ! A76   A(23,24,55)           119.6654         estimate D2E/DX2                !
 ! A77   A(25,24,55)           120.0899         estimate D2E/DX2                !
 ! A78   A(24,25,26)           120.104          estimate D2E/DX2                !
 ! A79   A(24,25,56)           119.7859         estimate D2E/DX2                !
 ! A80   A(26,25,56)           120.1101         estimate D2E/DX2                !
 ! A81   A(25,26,27)           119.7884         estimate D2E/DX2                !
 ! A82   A(25,26,57)           120.0233         estimate D2E/DX2                !
 ! A83   A(27,26,57)           120.1871         estimate D2E/DX2                !
 ! A84   A(26,27,28)           120.258          estimate D2E/DX2                !
 ! A85   A(26,27,58)           120.108          estimate D2E/DX2                !
 ! A86   A(28,27,58)           119.6338         estimate D2E/DX2                !
 ! A87   A(23,28,27)           120.0925         estimate D2E/DX2                !
 ! A88   A(23,28,59)           119.5453         estimate D2E/DX2                !
 ! A89   A(27,28,59)           120.3559         estimate D2E/DX2                !
 ! A90   A(13,29,22)           107.1784         estimate D2E/DX2                !
 ! A91   A(8,30,12)            118.3862         estimate D2E/DX2                !
 ! A92   A(7,31,32)            107.0558         estimate D2E/DX2                !
 ! A93   A(5,32,31)            103.1608         estimate D2E/DX2                !
 ! A94   A(5,32,33)            112.8355         estimate D2E/DX2                !
 ! A95   A(5,32,60)            111.0133         estimate D2E/DX2                !
 ! A96   A(31,32,33)           111.42           estimate D2E/DX2                !
 ! A97   A(31,32,60)           107.9043         estimate D2E/DX2                !
 ! A98   A(33,32,60)           110.221          estimate D2E/DX2                !
 ! A99   A(32,33,34)           120.1856         estimate D2E/DX2                !
 ! A100  A(32,33,38)           120.437          estimate D2E/DX2                !
 ! A101  A(34,33,38)           119.3189         estimate D2E/DX2                !
 ! A102  A(33,34,35)           120.3283         estimate D2E/DX2                !
 ! A103  A(33,34,61)           119.6647         estimate D2E/DX2                !
 ! A104  A(35,34,61)           120.0069         estimate D2E/DX2                !
 ! A105  A(34,35,36)           120.1058         estimate D2E/DX2                !
 ! A106  A(34,35,62)           119.8013         estimate D2E/DX2                !
 ! A107  A(36,35,62)           120.0929         estimate D2E/DX2                !
 ! A108  A(35,36,37)           119.7965         estimate D2E/DX2                !
 ! A109  A(35,36,63)           120.0853         estimate D2E/DX2                !
 ! A110  A(37,36,63)           120.1178         estimate D2E/DX2                !
 ! A111  A(36,37,38)           120.1634         estimate D2E/DX2                !
 ! A112  A(36,37,64)           120.1059         estimate D2E/DX2                !
 ! A113  A(38,37,64)           119.7298         estimate D2E/DX2                !
 ! A114  A(33,38,37)           120.2815         estimate D2E/DX2                !
 ! A115  A(33,38,65)           119.6647         estimate D2E/DX2                !
 ! A116  A(37,38,65)           120.0537         estimate D2E/DX2                !
 ! A117  A(4,39,40)            120.3229         estimate D2E/DX2                !
 ! A118  A(4,39,66)            119.716          estimate D2E/DX2                !
 ! A119  A(40,39,66)           119.9606         estimate D2E/DX2                !
 ! A120  A(1,40,39)            120.11           estimate D2E/DX2                !
 ! A121  A(1,40,67)            120.0811         estimate D2E/DX2                !
 ! A122  A(39,40,67)           119.8089         estimate D2E/DX2                !
 ! D1    D(40,1,2,3)            -0.9097         estimate D2E/DX2                !
 ! D2    D(40,1,2,42)          179.3597         estimate D2E/DX2                !
 ! D3    D(41,1,2,3)           179.4446         estimate D2E/DX2                !
 ! D4    D(41,1,2,42)           -0.2861         estimate D2E/DX2                !
 ! D5    D(2,1,40,39)            0.5063         estimate D2E/DX2                !
 ! D6    D(2,1,40,67)         -179.4346         estimate D2E/DX2                !
 ! D7    D(41,1,40,39)        -179.8474         estimate D2E/DX2                !
 ! D8    D(41,1,40,67)           0.2117         estimate D2E/DX2                !
 ! D9    D(1,2,3,4)              0.3269         estimate D2E/DX2                !
 ! D10   D(1,2,3,43)           179.466          estimate D2E/DX2                !
 ! D11   D(42,2,3,4)          -179.9417         estimate D2E/DX2                !
 ! D12   D(42,2,3,43)           -0.8026         estimate D2E/DX2                !
 ! D13   D(2,3,4,5)           -177.0004         estimate D2E/DX2                !
 ! D14   D(2,3,4,39)             0.6544         estimate D2E/DX2                !
 ! D15   D(43,3,4,5)             3.8466         estimate D2E/DX2                !
 ! D16   D(43,3,4,39)         -178.4987         estimate D2E/DX2                !
 ! D17   D(3,4,5,6)            -15.1697         estimate D2E/DX2                !
 ! D18   D(3,4,5,32)           101.451          estimate D2E/DX2                !
 ! D19   D(3,4,5,44)          -135.61           estimate D2E/DX2                !
 ! D20   D(39,4,5,6)           167.1804         estimate D2E/DX2                !
 ! D21   D(39,4,5,32)          -76.1989         estimate D2E/DX2                !
 ! D22   D(39,4,5,44)           46.7401         estimate D2E/DX2                !
 ! D23   D(3,4,39,40)           -1.058          estimate D2E/DX2                !
 ! D24   D(3,4,39,66)          179.1887         estimate D2E/DX2                !
 ! D25   D(5,4,39,40)          176.6318         estimate D2E/DX2                !
 ! D26   D(5,4,39,66)           -3.1215         estimate D2E/DX2                !
 ! D27   D(4,5,6,7)            122.3089         estimate D2E/DX2                !
 ! D28   D(32,5,6,7)             0.3109         estimate D2E/DX2                !
 ! D29   D(44,5,6,7)          -117.1264         estimate D2E/DX2                !
 ! D30   D(4,5,32,31)         -123.2269         estimate D2E/DX2                !
 ! D31   D(4,5,32,33)           -2.8684         estimate D2E/DX2                !
 ! D32   D(4,5,32,60)          121.4304         estimate D2E/DX2                !
 ! D33   D(6,5,32,31)           -1.3561         estimate D2E/DX2                !
 ! D34   D(6,5,32,33)          119.0024         estimate D2E/DX2                !
 ! D35   D(6,5,32,60)         -116.6988         estimate D2E/DX2                !
 ! D36   D(44,5,32,31)         114.7637         estimate D2E/DX2                !
 ! D37   D(44,5,32,33)        -124.8778         estimate D2E/DX2                !
 ! D38   D(44,5,32,60)          -0.579          estimate D2E/DX2                !
 ! D39   D(5,6,7,8)           -178.423          estimate D2E/DX2                !
 ! D40   D(5,6,7,31)             0.9977         estimate D2E/DX2                !
 ! D41   D(6,7,8,9)            177.5501         estimate D2E/DX2                !
 ! D42   D(6,7,8,30)            -1.4907         estimate D2E/DX2                !
 ! D43   D(31,7,8,9)            -1.8731         estimate D2E/DX2                !
 ! D44   D(31,7,8,30)          179.0861         estimate D2E/DX2                !
 ! D45   D(6,7,31,32)           -1.9667         estimate D2E/DX2                !
 ! D46   D(8,7,31,32)          177.5051         estimate D2E/DX2                !
 ! D47   D(7,8,9,10)          -178.2912         estimate D2E/DX2                !
 ! D48   D(7,8,9,45)             1.3376         estimate D2E/DX2                !
 ! D49   D(30,8,9,10)            0.6913         estimate D2E/DX2                !
 ! D50   D(30,8,9,45)         -179.68           estimate D2E/DX2                !
 ! D51   D(7,8,30,12)          178.648          estimate D2E/DX2                !
 ! D52   D(9,8,30,12)           -0.3639         estimate D2E/DX2                !
 ! D53   D(8,9,10,11)           -0.2366         estimate D2E/DX2                !
 ! D54   D(8,9,10,46)          179.6471         estimate D2E/DX2                !
 ! D55   D(45,9,10,11)        -179.8574         estimate D2E/DX2                !
 ! D56   D(45,9,10,46)           0.0262         estimate D2E/DX2                !
 ! D57   D(9,10,11,12)          -0.4739         estimate D2E/DX2                !
 ! D58   D(9,10,11,47)         179.3805         estimate D2E/DX2                !
 ! D59   D(46,10,11,12)        179.6427         estimate D2E/DX2                !
 ! D60   D(46,10,11,47)         -0.5029         estimate D2E/DX2                !
 ! D61   D(10,11,12,13)        179.4538         estimate D2E/DX2                !
 ! D62   D(10,11,12,30)          0.8412         estimate D2E/DX2                !
 ! D63   D(47,11,12,13)         -0.4056         estimate D2E/DX2                !
 ! D64   D(47,11,12,30)       -179.0181         estimate D2E/DX2                !
 ! D65   D(11,12,13,14)        -18.3363         estimate D2E/DX2                !
 ! D66   D(11,12,13,29)        162.1032         estimate D2E/DX2                !
 ! D67   D(30,12,13,14)        160.3617         estimate D2E/DX2                !
 ! D68   D(30,12,13,29)        -19.1989         estimate D2E/DX2                !
 ! D69   D(11,12,30,8)          -0.4198         estimate D2E/DX2                !
 ! D70   D(13,12,30,8)        -179.0673         estimate D2E/DX2                !
 ! D71   D(12,13,14,15)       -176.9494         estimate D2E/DX2                !
 ! D72   D(29,13,14,15)          2.6133         estimate D2E/DX2                !
 ! D73   D(12,13,29,22)        176.8108         estimate D2E/DX2                !
 ! D74   D(14,13,29,22)         -2.7739         estimate D2E/DX2                !
 ! D75   D(13,14,15,16)        120.0998         estimate D2E/DX2                !
 ! D76   D(13,14,15,22)         -1.2781         estimate D2E/DX2                !
 ! D77   D(13,14,15,48)       -119.2654         estimate D2E/DX2                !
 ! D78   D(14,15,16,17)        -40.3729         estimate D2E/DX2                !
 ! D79   D(14,15,16,21)        142.3097         estimate D2E/DX2                !
 ! D80   D(22,15,16,17)         75.4547         estimate D2E/DX2                !
 ! D81   D(22,15,16,21)       -101.8628         estimate D2E/DX2                !
 ! D82   D(48,15,16,17)       -160.7524         estimate D2E/DX2                !
 ! D83   D(48,15,16,21)         21.9302         estimate D2E/DX2                !
 ! D84   D(14,15,22,23)        120.7691         estimate D2E/DX2                !
 ! D85   D(14,15,22,29)         -0.2286         estimate D2E/DX2                !
 ! D86   D(14,15,22,54)       -115.5228         estimate D2E/DX2                !
 ! D87   D(16,15,22,23)         -0.0536         estimate D2E/DX2                !
 ! D88   D(16,15,22,29)       -121.0513         estimate D2E/DX2                !
 ! D89   D(16,15,22,54)        123.6545         estimate D2E/DX2                !
 ! D90   D(48,15,22,23)       -122.8324         estimate D2E/DX2                !
 ! D91   D(48,15,22,29)        116.17           estimate D2E/DX2                !
 ! D92   D(48,15,22,54)          0.8758         estimate D2E/DX2                !
 ! D93   D(15,16,17,18)       -176.6393         estimate D2E/DX2                !
 ! D94   D(15,16,17,49)          3.6458         estimate D2E/DX2                !
 ! D95   D(21,16,17,18)          0.7071         estimate D2E/DX2                !
 ! D96   D(21,16,17,49)       -179.0079         estimate D2E/DX2                !
 ! D97   D(15,16,21,20)        176.5479         estimate D2E/DX2                !
 ! D98   D(15,16,21,53)         -3.2906         estimate D2E/DX2                !
 ! D99   D(17,16,21,20)         -0.8011         estimate D2E/DX2                !
 ! D100  D(17,16,21,53)        179.3604         estimate D2E/DX2                !
 ! D101  D(16,17,18,19)          0.0231         estimate D2E/DX2                !
 ! D102  D(16,17,18,50)        179.7684         estimate D2E/DX2                !
 ! D103  D(49,17,18,19)        179.7362         estimate D2E/DX2                !
 ! D104  D(49,17,18,50)         -0.5186         estimate D2E/DX2                !
 ! D105  D(17,18,19,20)         -0.6656         estimate D2E/DX2                !
 ! D106  D(17,18,19,51)        179.597          estimate D2E/DX2                !
 ! D107  D(50,18,19,20)        179.5899         estimate D2E/DX2                !
 ! D108  D(50,18,19,51)         -0.1475         estimate D2E/DX2                !
 ! D109  D(18,19,20,21)          0.5718         estimate D2E/DX2                !
 ! D110  D(18,19,20,52)       -179.5018         estimate D2E/DX2                !
 ! D111  D(51,19,20,21)       -179.6907         estimate D2E/DX2                !
 ! D112  D(51,19,20,52)          0.2357         estimate D2E/DX2                !
 ! D113  D(19,20,21,16)          0.165          estimate D2E/DX2                !
 ! D114  D(19,20,21,53)       -179.9968         estimate D2E/DX2                !
 ! D115  D(52,20,21,16)       -179.7616         estimate D2E/DX2                !
 ! D116  D(52,20,21,53)          0.0767         estimate D2E/DX2                !
 ! D117  D(15,22,23,24)         76.3731         estimate D2E/DX2                !
 ! D118  D(15,22,23,28)       -101.4242         estimate D2E/DX2                !
 ! D119  D(29,22,23,24)       -167.5626         estimate D2E/DX2                !
 ! D120  D(29,22,23,28)         14.6402         estimate D2E/DX2                !
 ! D121  D(54,22,23,24)        -47.7045         estimate D2E/DX2                !
 ! D122  D(54,22,23,28)        134.4982         estimate D2E/DX2                !
 ! D123  D(15,22,29,13)          1.57           estimate D2E/DX2                !
 ! D124  D(23,22,29,13)       -120.3834         estimate D2E/DX2                !
 ! D125  D(54,22,29,13)        118.6685         estimate D2E/DX2                !
 ! D126  D(22,23,24,25)       -176.7655         estimate D2E/DX2                !
 ! D127  D(22,23,24,55)          2.9371         estimate D2E/DX2                !
 ! D128  D(28,23,24,25)          1.0678         estimate D2E/DX2                !
 ! D129  D(28,23,24,55)       -179.2295         estimate D2E/DX2                !
 ! D130  D(22,23,28,27)        177.1284         estimate D2E/DX2                !
 ! D131  D(22,23,28,59)         -3.7823         estimate D2E/DX2                !
 ! D132  D(24,23,28,27)         -0.6653         estimate D2E/DX2                !
 ! D133  D(24,23,28,59)        178.424          estimate D2E/DX2                !
 ! D134  D(23,24,25,26)         -0.4918         estimate D2E/DX2                !
 ! D135  D(23,24,25,56)        179.5792         estimate D2E/DX2                !
 ! D136  D(55,24,25,26)        179.8068         estimate D2E/DX2                !
 ! D137  D(55,24,25,56)         -0.1222         estimate D2E/DX2                !
 ! D138  D(24,25,26,27)         -0.4908         estimate D2E/DX2                !
 ! D139  D(24,25,26,57)        179.9073         estimate D2E/DX2                !
 ! D140  D(56,25,26,27)        179.438          estimate D2E/DX2                !
 ! D141  D(56,25,26,57)         -0.1639         estimate D2E/DX2                !
 ! D142  D(25,26,27,28)          0.8937         estimate D2E/DX2                !
 ! D143  D(25,26,27,58)       -179.2327         estimate D2E/DX2                !
 ! D144  D(57,26,27,28)       -179.5051         estimate D2E/DX2                !
 ! D145  D(57,26,27,58)          0.3686         estimate D2E/DX2                !
 ! D146  D(26,27,28,23)         -0.3132         estimate D2E/DX2                !
 ! D147  D(26,27,28,59)       -179.395          estimate D2E/DX2                !
 ! D148  D(58,27,28,23)        179.8126         estimate D2E/DX2                !
 ! D149  D(58,27,28,59)          0.7307         estimate D2E/DX2                !
 ! D150  D(7,31,32,5)            1.8756         estimate D2E/DX2                !
 ! D151  D(7,31,32,33)        -119.4469         estimate D2E/DX2                !
 ! D152  D(7,31,32,60)         119.4268         estimate D2E/DX2                !
 ! D153  D(5,32,33,34)         101.2436         estimate D2E/DX2                !
 ! D154  D(5,32,33,38)         -75.9554         estimate D2E/DX2                !
 ! D155  D(31,32,33,34)       -143.2527         estimate D2E/DX2                !
 ! D156  D(31,32,33,38)         39.5483         estimate D2E/DX2                !
 ! D157  D(60,32,33,34)        -23.4886         estimate D2E/DX2                !
 ! D158  D(60,32,33,38)        159.3123         estimate D2E/DX2                !
 ! D159  D(32,33,34,35)       -176.4978         estimate D2E/DX2                !
 ! D160  D(32,33,34,61)          3.3342         estimate D2E/DX2                !
 ! D161  D(38,33,34,35)          0.7326         estimate D2E/DX2                !
 ! D162  D(38,33,34,61)       -179.4355         estimate D2E/DX2                !
 ! D163  D(32,33,38,37)        176.7408         estimate D2E/DX2                !
 ! D164  D(32,33,38,65)         -3.3351         estimate D2E/DX2                !
 ! D165  D(34,33,38,37)         -0.4824         estimate D2E/DX2                !
 ! D166  D(34,33,38,65)        179.4417         estimate D2E/DX2                !
 ! D167  D(33,34,35,36)         -0.2955         estimate D2E/DX2                !
 ! D168  D(33,34,35,62)        179.7528         estimate D2E/DX2                !
 ! D169  D(61,34,35,36)        179.8731         estimate D2E/DX2                !
 ! D170  D(61,34,35,62)         -0.0786         estimate D2E/DX2                !
 ! D171  D(34,35,36,37)         -0.397          estimate D2E/DX2                !
 ! D172  D(34,35,36,63)        179.8183         estimate D2E/DX2                !
 ! D173  D(62,35,36,37)        179.5545         estimate D2E/DX2                !
 ! D174  D(62,35,36,63)         -0.2302         estimate D2E/DX2                !
 ! D175  D(35,36,37,38)          0.647          estimate D2E/DX2                !
 ! D176  D(35,36,37,64)       -179.6937         estimate D2E/DX2                !
 ! D177  D(63,36,37,38)       -179.5685         estimate D2E/DX2                !
 ! D178  D(63,36,37,64)          0.0909         estimate D2E/DX2                !
 ! D179  D(36,37,38,33)         -0.2054         estimate D2E/DX2                !
 ! D180  D(36,37,38,65)        179.8708         estimate D2E/DX2                !
 ! D181  D(64,37,38,33)       -179.866          estimate D2E/DX2                !
 ! D182  D(64,37,38,65)          0.2102         estimate D2E/DX2                !
 ! D183  D(4,39,40,1)            0.4808         estimate D2E/DX2                !
 ! D184  D(4,39,40,67)        -179.5782         estimate D2E/DX2                !
 ! D185  D(66,39,40,1)        -179.7665         estimate D2E/DX2                !
 ! D186  D(66,39,40,67)          0.1745         estimate D2E/DX2                !
 --------------------------------------------------------------------------------
 Trust Radius=3.00D-01 FncErr=1.00D-07 GrdErr=1.00D-06 EigMax=2.50D+02 EigMin=1.00D-04
 Number of steps in this run=    391 maximum allowed number of steps=    402.
 GradGradGradGradGradGradGradGradGradGradGradGradGradGradGradGradGradGrad

 Leave Link  103 at Sun Feb 25 21:54:22 2024, MaxMem=  7516192768 cpu:               0.9 elap:               0.0
 (Enter /public/apps/g16-C01//g16/l202.exe)
 Symmetry turned off by external request.
 Stoichiometry    C35H27N3O2
 Framework group  C1[X(C35H27N3O2)]
 Deg. of freedom   195
 Full point group                 C1      NOp   1
                          Input orientation:                          
 ---------------------------------------------------------------------
 Center     Atomic      Atomic             Coordinates (Angstroms)
 Number     Number       Type             X           Y           Z
 ---------------------------------------------------------------------
      1          6           0        4.381441   -3.781495    0.566709
      2          6           0        3.220682   -3.078562    0.836180
      3          6           0        2.938770   -1.910878    0.149564
      4          6           0        3.814125   -1.440728   -0.817961
      5          6           0        3.558633   -0.135797   -1.529816
      6          7           0        2.211663    0.332057   -1.355262
      7          6           0        2.244495    1.484606   -0.836912
      8          6           0        1.078303    2.287770   -0.471171
      9          6           0        1.248405    3.529956    0.143606
     10          6           0        0.118926    4.245321    0.507617
     11          6           0       -1.128134    3.707242    0.245262
     12          6           0       -1.188187    2.463096   -0.388167
     13          6           0       -2.490107    1.855021   -0.672058
     14          7           0       -3.566698    2.205804   -0.097100
     15          6           0       -4.627272    1.350224   -0.568247
     16          6           0       -5.268651    0.581289    0.558153
     17          6           0       -4.490479    0.044031    1.574828
     18          6           0       -5.071535   -0.719498    2.569921
     19          6           0       -6.435521   -0.954521    2.559370
     20          6           0       -7.218376   -0.410676    1.556149
     21          6           0       -6.637639    0.355066    0.561206
     22          6           0       -3.900202    0.409227   -1.610925
     23          6           0       -3.999657   -1.051083   -1.260530
     24          6           0       -5.191907   -1.726802   -1.490438
     25          6           0       -5.325760   -3.049725   -1.114618
     26          6           0       -4.267299   -3.712173   -0.515430
     27          6           0       -3.072311   -3.048150   -0.303659
     28          6           0       -2.937482   -1.720936   -0.671190
     29          8           0       -2.552947    0.868389   -1.581171
     30          7           0       -0.114250    1.771523   -0.732553
     31          8           0        3.467734    2.023903   -0.585578
     32          6           0        4.438933    1.051881   -0.964197
     33          6           0        5.289698    0.641860    0.204762
     34          6           0        6.640007    0.374704    0.025562
     35          6           0        7.409813   -0.072351    1.083779
     36          6           0        6.838111   -0.250432    2.331726
     37          6           0        5.495383    0.028193    2.519223
     38          6           0        4.723395    0.470217    1.461181
     39          6           0        4.968239   -2.160597   -1.099618
     40          6           0        5.252479   -3.322463   -0.406968
     41          1           0        4.605757   -4.688209    1.109080
     42          1           0        2.532853   -3.438069    1.587554
     43          1           0        2.031175   -1.360671    0.347451
     44          1           0        3.744754   -0.274866   -2.601471
     45          1           0        2.242547    3.904623    0.328148
     46          1           0        0.212857    5.207244    0.990401
     47          1           0       -2.044229    4.207792    0.511624
     48          1           0       -5.386489    1.968746   -1.060102
     49          1           0       -3.426957    0.230926    1.585424
     50          1           0       -4.456559   -1.135884    3.354105
     51          1           0       -6.888210   -1.556545    3.333427
     52          1           0       -8.284577   -0.584019    1.547265
     53          1           0       -7.252738    0.778135   -0.220639
     54          1           0       -4.293579    0.577810   -2.621204
     55          1           0       -6.016781   -1.211119   -1.960715
     56          1           0       -6.258035   -3.565792   -1.290678
     57          1           0       -4.373850   -4.745798   -0.220832
     58          1           0       -2.239531   -3.563386    0.151886
     59          1           0       -2.002430   -1.203912   -0.515554
     60          1           0        5.063147    1.488470   -1.752447
     61          1           0        7.088534    0.515162   -0.947740
     62          1           0        8.458745   -0.281427    0.933834
     63          1           0        7.438902   -0.602356    3.157161
     64          1           0        5.045341   -0.104249    3.491963
     65          1           0        3.675260    0.685130    1.609008
     66          1           0        5.647824   -1.806586   -1.861633
     67          1           0        6.155690   -3.872041   -0.628004
 ---------------------------------------------------------------------
 Rotational constants (GHZ):           0.1703765           0.0464883           0.0411233
 Leave Link  202 at Sun Feb 25 21:54:22 2024, MaxMem=  7516192768 cpu:               1.3 elap:               0.0
 (Enter /public/apps/g16-C01//g16/l301.exe)
 Standard basis: def2SVPP (5D, 7F)
 Ernie: Thresh=  0.10000D-02 Tol=  0.10000D-05 Strict=F.
   614 basis functions,  1108 primitive gaussians,   654 cartesian basis functions
   137 alpha electrons      137 beta electrons
       nuclear repulsion energy      4188.9258296484 Hartrees.
 IExCor=  402 DFT=T Ex+Corr=B3LYP ExCW=0 ScaHFX=  0.200000
 ScaDFX=  0.800000  0.720000  1.000000  0.810000 ScalE2=  1.000000  1.000000
 IRadAn=      5 IRanWt=     -1 IRanGd=            0 ICorTp=0 IEmpDi=141
 NAtoms=   67 NActive=   67 NUniq=   67 SFac= 1.00D+00 NAtFMM=   60 NAOKFM=T Big=T
 Integral buffers will be    131072 words long.
 Raffenetti 2 integral format.
 Two-electron integral symmetry is turned off.
 R6Disp:  Grimme-D3(BJ) Dispersion energy=       -0.1743742532 Hartrees.
 Nuclear repulsion after empirical dispersion term =     4188.7514553952 Hartrees.
 Leave Link  301 at Sun Feb 25 21:54:22 2024, MaxMem=  7516192768 cpu:               2.5 elap:               0.1
 (Enter /public/apps/g16-C01//g16/l302.exe)
 NPDir=0 NMtPBC=     1 NCelOv=     1 NCel=       1 NClECP=     1 NCelD=      1
         NCelK=      1 NCelE2=     1 NClLst=     1 CellRange=     0.0.
 One-electron integrals computed using PRISM.
   1 Symmetry operations used in ECPInt.
 ECPInt:  NShTT=   43365 NPrTT=  173767 LenC2=   33886 LenP2D=   84457.
 LDataN:  DoStor=T MaxTD1= 4 Len=   56
 NBasis=   614 RedAO= T EigKep=  2.18D-04  NBF=   614
 NBsUse=   614 1.00D-06 EigRej= -1.00D+00 NBFU=   614
 Precomputing XC quadrature grid using
 IXCGrd= 4 IRadAn=           5 IRanWt=          -1 IRanGd=           0 AccXCQ= 0.00D+00.
 Generated NRdTot=       0 NPtTot=           0 NUsed=           0 NTot=          32
 NSgBfM=   626   626   626   626   626 MxSgAt=    67 MxSgA2=    67.
 Leave Link  302 at Sun Feb 25 21:54:23 2024, MaxMem=  7516192768 cpu:              29.1 elap:               0.8
 (Enter /public/apps/g16-C01//g16/l303.exe)
 DipDrv:  MaxL=1.
 Leave Link  303 at Sun Feb 25 21:54:23 2024, MaxMem=  7516192768 cpu:               3.4 elap:               0.1
 (Enter /public/apps/g16-C01//g16/l401.exe)
 ExpMin= 1.22D-01 ExpMax= 2.27D+03 ExpMxC= 3.41D+02 IAcc=3 IRadAn=         5 AccDes= 0.00D+00
 Harris functional with IExCor=  402 and IRadAn=       5 diagonalized for initial guess.
 HarFok:  IExCor=  402 AccDes= 0.00D+00 IRadAn=         5 IDoV= 1 UseB2=F ITyADJ=14
 ICtDFT=  3500011 ScaDFX=  1.000000  1.000000  1.000000  1.000000
 FoFCou: FMM=F IPFlag=           0 FMFlag=      100000 FMFlg1=        2001
         NFxFlg=           0 DoJE=T BraDBF=F KetDBF=T FulRan=T
         wScrn=  0.000000 ICntrl=       500 IOpCl=  0 I1Cent=   200000004 NGrid=           0
         NMat0=    1 NMatS0=      1 NMatT0=    0 NMatD0=    1 NMtDS0=    0 NMtDT0=    0
 Symmetry not used in FoFCou.
 Harris En= -1663.49303628235    
 JPrj=0 DoOrth=F DoCkMO=F.
 Leave Link  401 at Sun Feb 25 21:54:25 2024, MaxMem=  7516192768 cpu:              58.0 elap:               1.5
 (Enter /public/apps/g16-C01//g16/l502.exe)
 Two-electron integral symmetry not used.
 Closed shell SCF:
 Using DIIS extrapolation, IDIIS=  1040.
 NGot=  7516192768 LenX=  7515304122 LenY=  7514875752
 Requested convergence on RMS density matrix=1.00D-08 within 128 cycles.
 Requested convergence on MAX density matrix=1.00D-06.
 Requested convergence on             energy=1.00D-06.
 No special actions if energy rises.
 Fock matrices will be formed incrementally for  20 cycles.
 Integral accuracy reduced to 1.0D-05 until final iterations.

 Cycle   1  Pass 0  IDiag  1:
 FoFJK:  IHMeth= 1 ICntrl=       0 DoSepK=F KAlg= 0 I1Cent=           0 FoldK=F
 IRaf= 900000000 NMat=       1 IRICut=       1 DoRegI=T DoRafI=F ISym2E= 0 IDoP0=0 IntGTp=1.
 FoFCou: FMM=T IPFlag=           0 FMFlag=      100000 FMFlg1=        2001
         NFxFlg=           0 DoJE=F BraDBF=F KetDBF=F FulRan=T
         wScrn=  0.000000 ICntrl=         0 IOpCl=  0 I1Cent=           0 NGrid=           0
         NMat0=    1 NMatS0=      1 NMatT0=    0 NMatD0=    1 NMtDS0=    0 NMtDT0=    0
 Symmetry not used in FoFCou.
 FMM levels:  10  Number of levels for PrismC:   9
 E= -1662.79853769516    
 DIIS: error= 3.11D-02 at cycle   1 NSaved=   1.
 NSaved= 1 IEnMin= 1 EnMin= -1662.79853769516     IErMin= 1 ErrMin= 3.11D-02
 ErrMax= 3.11D-02  0.00D+00 EMaxC= 1.00D-01 BMatC= 6.68D-01 BMatP= 6.68D-01
 IDIUse=3 WtCom= 6.89D-01 WtEn= 3.11D-01
 Coeff-Com:  0.100D+01
 Coeff-En:   0.100D+01
 Coeff:      0.100D+01
 Gap=     0.160 Goal=   None    Shift=    0.000
 GapD=    0.160 DampG=1.000 DampE=0.500 DampFc=0.5000 IDamp=-1.
 Damping current iteration by 5.00D-01
 RMSDP=5.12D-03 MaxDP=1.77D-01              OVMax= 2.10D-01

 Cycle   2  Pass 0  IDiag  1:
 RMSU=  2.36D-03    CP:  9.41D-01
 E= -1663.12242822271     Delta-E=       -0.323890527550 Rises=F Damp=T
 DIIS: error= 6.03D-03 at cycle   2 NSaved=   2.
 NSaved= 2 IEnMin= 2 EnMin= -1663.12242822271     IErMin= 2 ErrMin= 6.03D-03
 ErrMax= 6.03D-03  0.00D+00 EMaxC= 1.00D-01 BMatC= 5.31D-02 BMatP= 6.68D-01
 IDIUse=3 WtCom= 9.40D-01 WtEn= 6.03D-02
 Coeff-Com:  0.879D-01 0.912D+00
 Coeff-En:   0.129D+00 0.871D+00
 Coeff:      0.904D-01 0.910D+00
 Gap=     0.187 Goal=   None    Shift=    0.000
 RMSDP=1.66D-03 MaxDP=1.00D-01 DE=-3.24D-01 OVMax= 1.70D-01

 Cycle   3  Pass 0  IDiag  1:
 RMSU=  1.58D-03    CP:  9.11D-01  9.33D-01
 E= -1663.50225108928     Delta-E=       -0.379822866573 Rises=F Damp=F
 DIIS: error= 9.18D-03 at cycle   3 NSaved=   3.
 NSaved= 3 IEnMin= 3 EnMin= -1663.50225108928     IErMin= 2 ErrMin= 6.03D-03
 ErrMax= 9.18D-03  0.00D+00 EMaxC= 1.00D-01 BMatC= 6.52D-02 BMatP= 5.31D-02
 IDIUse=3 WtCom= 9.45D-02 WtEn= 9.05D-01
 Coeff-Com: -0.697D-02 0.531D+00 0.476D+00
 Coeff-En:   0.000D+00 0.000D+00 0.100D+01
 Coeff:     -0.659D-03 0.502D-01 0.950D+00
 Gap=     0.159 Goal=   None    Shift=    0.000
 RMSDP=1.57D-03 MaxDP=1.09D-01 DE=-3.80D-01 OVMax= 2.37D-01

 Cycle   4  Pass 0  IDiag  1:
 RMSU=  1.17D-03    CP:  9.09D-01  1.18D+00  4.50D-01
 E= -1663.29622339320     Delta-E=        0.206027696083 Rises=F Damp=F
 DIIS: error= 2.22D-02 at cycle   4 NSaved=   4.
 NSaved= 4 IEnMin= 3 EnMin= -1663.50225108928     IErMin= 2 ErrMin= 6.03D-03
 ErrMax= 2.22D-02  0.00D+00 EMaxC= 1.00D-01 BMatC= 2.87D-01 BMatP= 5.31D-02
 IDIUse=2 WtCom= 0.00D+00 WtEn= 1.00D+00
 Coeff-En:   0.000D+00 0.000D+00 0.757D+00 0.243D+00
 Coeff:      0.000D+00 0.000D+00 0.757D+00 0.243D+00
 Gap=     0.174 Goal=   None    Shift=    0.000
 RMSDP=8.02D-04 MaxDP=5.56D-02 DE= 2.06D-01 OVMax= 1.01D-01

 Cycle   5  Pass 0  IDiag  1:
 RMSU=  2.32D-04    CP:  9.08D-01  1.07D+00  6.96D-01  4.77D-01
 E= -1663.54846357919     Delta-E=       -0.252240185990 Rises=F Damp=F
 DIIS: error= 5.04D-03 at cycle   5 NSaved=   5.
 NSaved= 5 IEnMin= 5 EnMin= -1663.54846357919     IErMin= 5 ErrMin= 5.04D-03
 ErrMax= 5.04D-03  0.00D+00 EMaxC= 1.00D-01 BMatC= 1.68D-02 BMatP= 5.31D-02
 IDIUse=3 WtCom= 9.50D-01 WtEn= 5.04D-02
 Coeff-Com:  0.812D-02 0.423D-03 0.324D+00-0.482D-02 0.672D+00
 Coeff-En:   0.000D+00 0.000D+00 0.252D+00 0.000D+00 0.748D+00
 Coeff:      0.771D-02 0.402D-03 0.321D+00-0.457D-02 0.676D+00
 Gap=     0.170 Goal=   None    Shift=    0.000
 RMSDP=2.85D-04 MaxDP=1.81D-02 DE=-2.52D-01 OVMax= 3.49D-02

 Cycle   6  Pass 0  IDiag  1:
 RMSU=  8.59D-05    CP:  9.08D-01  1.03D+00  7.99D-01  3.20D-01  8.03D-01
 E= -1663.56405034980     Delta-E=       -0.015586770613 Rises=F Damp=F
 DIIS: error= 6.95D-04 at cycle   6 NSaved=   6.
 NSaved= 6 IEnMin= 6 EnMin= -1663.56405034980     IErMin= 6 ErrMin= 6.95D-04
 ErrMax= 6.95D-04  0.00D+00 EMaxC= 1.00D-01 BMatC= 2.45D-04 BMatP= 1.68D-02
 IDIUse=3 WtCom= 9.93D-01 WtEn= 6.95D-03
 Coeff-Com:  0.359D-02-0.935D-02 0.140D+00-0.305D-01 0.428D+00 0.469D+00
 Coeff-En:   0.000D+00 0.000D+00 0.000D+00 0.000D+00 0.000D+00 0.100D+01
 Coeff:      0.357D-02-0.928D-02 0.139D+00-0.303D-01 0.425D+00 0.472D+00
 Gap=     0.171 Goal=   None    Shift=    0.000
 RMSDP=4.53D-05 MaxDP=2.35D-03 DE=-1.56D-02 OVMax= 4.01D-03

 Cycle   7  Pass 0  IDiag  1:
 RMSU=  2.47D-05    CP:  9.08D-01  1.03D+00  8.01D-01  3.27D-01  8.08D-01
                    CP:  5.72D-01
 E= -1663.56431983757     Delta-E=       -0.000269487764 Rises=F Damp=F
 DIIS: error= 2.64D-04 at cycle   7 NSaved=   7.
 NSaved= 7 IEnMin= 7 EnMin= -1663.56431983757     IErMin= 7 ErrMin= 2.64D-04
 ErrMax= 2.64D-04  0.00D+00 EMaxC= 1.00D-01 BMatC= 2.10D-05 BMatP= 2.45D-04
 IDIUse=3 WtCom= 9.97D-01 WtEn= 2.64D-03
 Coeff-Com:  0.163D-02-0.545D-02 0.612D-01-0.203D-01 0.215D+00 0.290D+00
 Coeff-Com:  0.458D+00
 Coeff-En:   0.000D+00 0.000D+00 0.000D+00 0.000D+00 0.000D+00 0.000D+00
 Coeff-En:   0.100D+01
 Coeff:      0.163D-02-0.543D-02 0.611D-01-0.202D-01 0.215D+00 0.289D+00
 Coeff:      0.460D+00
 Gap=     0.170 Goal=   None    Shift=    0.000
 RMSDP=1.35D-05 MaxDP=6.10D-04 DE=-2.69D-04 OVMax= 1.09D-03

 Cycle   8  Pass 0  IDiag  1:
 RMSU=  1.14D-05    CP:  9.08D-01  1.03D+00  8.00D-01  3.26D-01  8.18D-01
                    CP:  6.07D-01  7.61D-01
 E= -1663.56434776473     Delta-E=       -0.000027927159 Rises=F Damp=F
 DIIS: error= 6.06D-05 at cycle   8 NSaved=   8.
 NSaved= 8 IEnMin= 8 EnMin= -1663.56434776473     IErMin= 8 ErrMin= 6.06D-05
 ErrMax= 6.06D-05  0.00D+00 EMaxC= 1.00D-01 BMatC= 1.62D-06 BMatP= 2.10D-05
 IDIUse=1 WtCom= 1.00D+00 WtEn= 0.00D+00
 Coeff-Com:  0.601D-03-0.200D-02 0.195D-01-0.869D-02 0.757D-01 0.108D+00
 Coeff-Com:  0.256D+00 0.550D+00
 Coeff:      0.601D-03-0.200D-02 0.195D-01-0.869D-02 0.757D-01 0.108D+00
 Coeff:      0.256D+00 0.550D+00
 Gap=     0.170 Goal=   None    Shift=    0.000
 RMSDP=1.13D-05 MaxDP=3.71D-04 DE=-2.79D-05 OVMax= 2.86D-04

 Cycle   9  Pass 0  IDiag  1:
 RMSU=  8.73D-06    CP:  9.08D-01  1.03D+00  8.00D-01  3.26D-01  8.23D-01
                    CP:  6.04D-01  9.22D-01  1.51D+00
 E= -1663.56434919246     Delta-E=       -0.000001427735 Rises=F Damp=F
 DIIS: error= 3.96D-05 at cycle   9 NSaved=   9.
 NSaved= 9 IEnMin= 9 EnMin= -1663.56434919246     IErMin= 9 ErrMin= 3.96D-05
 ErrMax= 3.96D-05  0.00D+00 EMaxC= 1.00D-01 BMatC= 3.59D-07 BMatP= 1.62D-06
 IDIUse=1 WtCom= 1.00D+00 WtEn= 0.00D+00
 Coeff-Com:  0.300D-03-0.936D-03 0.874D-02-0.440D-02 0.350D-01 0.511D-01
 Coeff-Com:  0.136D+00 0.368D+00 0.406D+00
 Coeff:      0.300D-03-0.936D-03 0.874D-02-0.440D-02 0.350D-01 0.511D-01
 Coeff:      0.136D+00 0.368D+00 0.406D+00
 Gap=     0.170 Goal=   None    Shift=    0.000
 RMSDP=1.28D-05 MaxDP=3.78D-04 DE=-1.43D-06 OVMax= 8.11D-05

 Cycle  10  Pass 0  IDiag  1:
 RMSU=  5.61D-06    CP:  9.08D-01  1.03D+00  8.00D-01  3.26D-01  8.24D-01
                    CP:  6.12D-01  1.08D+00  2.19D+00  1.87D+00
 E= -1663.56434707391     Delta-E=        0.000002118552 Rises=F Damp=F
 DIIS: error= 6.56D-05 at cycle  10 NSaved=  10.
 NSaved=10 IEnMin= 9 EnMin= -1663.56434919246     IErMin= 9 ErrMin= 3.96D-05
 ErrMax= 6.56D-05  0.00D+00 EMaxC= 1.00D-01 BMatC= 4.69D-07 BMatP= 3.59D-07
 IDIUse=1 WtCom= 1.00D+00 WtEn= 0.00D+00
 Coeff-Com:  0.309D-03-0.936D-03 0.845D-02-0.468D-02 0.350D-01 0.521D-01
 Coeff-Com:  0.152D+00 0.458D+00 0.709D+00-0.409D+00
 Coeff:      0.309D-03-0.936D-03 0.845D-02-0.468D-02 0.350D-01 0.521D-01
 Coeff:      0.152D+00 0.458D+00 0.709D+00-0.409D+00
 Gap=     0.170 Goal=   None    Shift=    0.000
 RMSDP=1.53D-05 MaxDP=4.73D-04 DE= 2.12D-06 OVMax= 4.97D-05

 Cycle  11  Pass 0  IDiag  1:
 RMSU=  5.21D-06    CP:  9.08D-01  1.03D+00  8.00D-01  3.26D-01  8.24D-01
                    CP:  6.05D-01  9.05D-01  1.44D+00  8.32D-01 -3.30D-02
 E= -1663.56434918043     Delta-E=       -0.000002106524 Rises=F Damp=F
 DIIS: error= 3.59D-05 at cycle  11 NSaved=  11.
 NSaved=11 IEnMin= 9 EnMin= -1663.56434919246     IErMin=11 ErrMin= 3.59D-05
 ErrMax= 3.59D-05  0.00D+00 EMaxC= 1.00D-01 BMatC= 2.47D-07 BMatP= 3.59D-07
 IDIUse=1 WtCom= 1.00D+00 WtEn= 0.00D+00
 Coeff-Com:  0.212D-03-0.622D-03 0.531D-02-0.318D-02 0.225D-01 0.338D-01
 Coeff-Com:  0.105D+00 0.351D+00 0.686D+00-0.682D+00 0.483D+00
 Coeff:      0.212D-03-0.622D-03 0.531D-02-0.318D-02 0.225D-01 0.338D-01
 Coeff:      0.105D+00 0.351D+00 0.686D+00-0.682D+00 0.483D+00
 Gap=     0.170 Goal=   None    Shift=    0.000
 RMSDP=1.03D-05 MaxDP=5.22D-04 DE=-2.11D-06 OVMax= 5.30D-05

 Cycle  12  Pass 0  IDiag  1:
 RMSU=  6.25D-06    CP:  9.08D-01  1.03D+00  8.00D-01  3.26D-01  8.24D-01
                    CP:  6.05D-01  8.59D-01  1.25D+00  4.47D-01 -9.05D-01
                    CP:  1.97D+00
 E= -1663.56435273694     Delta-E=       -0.000003556512 Rises=F Damp=F
 DIIS: error= 5.07D-05 at cycle  12 NSaved=  12.
 NSaved=12 IEnMin=12 EnMin= -1663.56435273694     IErMin=11 ErrMin= 3.59D-05
 ErrMax= 5.07D-05  0.00D+00 EMaxC= 1.00D-01 BMatC= 2.12D-07 BMatP= 2.47D-07
 IDIUse=1 WtCom= 1.00D+00 WtEn= 0.00D+00
 Coeff-Com:  0.225D-03-0.644D-03 0.536D-02-0.338D-02 0.231D-01 0.349D-01
 Coeff-Com:  0.113D+00 0.397D+00 0.839D+00-0.890D+00 0.782D+00-0.301D+00
 Coeff:      0.225D-03-0.644D-03 0.536D-02-0.338D-02 0.231D-01 0.349D-01
 Coeff:      0.113D+00 0.397D+00 0.839D+00-0.890D+00 0.782D+00-0.301D+00
 Gap=     0.170 Goal=   None    Shift=    0.000
 RMSDP=6.65D-06 MaxDP=2.57D-04 DE=-3.56D-06 OVMax= 2.36D-05

 Initial convergence to 1.0D-05 achieved.  Increase integral accuracy.
 Cycle  13  Pass 1  IDiag  1:
 E= -1663.56418410916     Delta-E=        0.000168627786 Rises=F Damp=F
 DIIS: error= 3.19D-04 at cycle   1 NSaved=   1.
 NSaved= 1 IEnMin= 1 EnMin= -1663.56418410916     IErMin= 1 ErrMin= 3.19D-04
 ErrMax= 3.19D-04  0.00D+00 EMaxC= 1.00D-01 BMatC= 4.28D-05 BMatP= 4.28D-05
 IDIUse=3 WtCom= 9.97D-01 WtEn= 3.19D-03
 Coeff-Com:  0.100D+01
 Coeff-En:   0.100D+01
 Coeff:      0.100D+01
 Gap=     0.170 Goal=   None    Shift=    0.000
 RMSDP=6.65D-06 MaxDP=2.57D-04 DE= 1.69D-04 OVMax= 1.12D-03

 Cycle  14  Pass 1  IDiag  1:
 RMSU=  2.95D-04    CP:  9.99D-01
 E= -1663.56423211366     Delta-E=       -0.000048004504 Rises=F Damp=F
 DIIS: error= 6.70D-06 at cycle   2 NSaved=   2.
 NSaved= 2 IEnMin= 2 EnMin= -1663.56423211366     IErMin= 2 ErrMin= 6.70D-06
 ErrMax= 6.70D-06  0.00D+00 EMaxC= 1.00D-01 BMatC= 3.55D-08 BMatP= 4.28D-05
 IDIUse=1 WtCom= 1.00D+00 WtEn= 0.00D+00
 Coeff-Com: -0.914D-02 0.101D+01
 Coeff:     -0.914D-02 0.101D+01
 Gap=     0.170 Goal=   None    Shift=    0.000
 RMSDP=4.05D-06 MaxDP=1.13D-04 DE=-4.80D-05 OVMax= 1.28D-04

 Cycle  15  Pass 1  IDiag  1:
 RMSU=  1.69D-06    CP:  9.99D-01  1.01D+00
 E= -1663.56423204102     Delta-E=        0.000000072640 Rises=F Damp=F
 DIIS: error= 1.67D-05 at cycle   3 NSaved=   3.
 NSaved= 3 IEnMin= 2 EnMin= -1663.56423211366     IErMin= 2 ErrMin= 6.70D-06
 ErrMax= 1.67D-05  0.00D+00 EMaxC= 1.00D-01 BMatC= 1.19D-07 BMatP= 3.55D-08
 IDIUse=1 WtCom= 1.00D+00 WtEn= 0.00D+00
 Coeff-Com: -0.678D-02 0.670D+00 0.337D+00
 Coeff:     -0.678D-02 0.670D+00 0.337D+00
 Gap=     0.170 Goal=   None    Shift=    0.000
 RMSDP=7.40D-07 MaxDP=6.52D-05 DE= 7.26D-08 OVMax= 9.88D-05

 Cycle  16  Pass 1  IDiag  1:
 RMSU=  5.82D-07    CP:  9.99D-01  1.01D+00  7.30D-01
 E= -1663.56423215297     Delta-E=       -0.000000111942 Rises=F Damp=F
 DIIS: error= 2.56D-06 at cycle   4 NSaved=   4.
 NSaved= 4 IEnMin= 4 EnMin= -1663.56423215297     IErMin= 4 ErrMin= 2.56D-06
 ErrMax= 2.56D-06  0.00D+00 EMaxC= 1.00D-01 BMatC= 2.06D-09 BMatP= 3.55D-08
 IDIUse=1 WtCom= 1.00D+00 WtEn= 0.00D+00
 Coeff-Com: -0.322D-02 0.313D+00 0.183D+00 0.506D+00
 Coeff:     -0.322D-02 0.313D+00 0.183D+00 0.506D+00
 Gap=     0.170 Goal=   None    Shift=    0.000
 RMSDP=1.38D-07 MaxDP=9.36D-06 DE=-1.12D-07 OVMax= 1.40D-05

 Cycle  17  Pass 1  IDiag  1:
 RMSU=  1.33D-07    CP:  9.99D-01  1.01D+00  7.41D-01  9.50D-01
 E= -1663.56423215455     Delta-E=       -0.000000001584 Rises=F Damp=F
 DIIS: error= 8.16D-07 at cycle   5 NSaved=   5.
 NSaved= 5 IEnMin= 5 EnMin= -1663.56423215455     IErMin= 5 ErrMin= 8.16D-07
 ErrMax= 8.16D-07  0.00D+00 EMaxC= 1.00D-01 BMatC= 4.08D-10 BMatP= 2.06D-09
 IDIUse=1 WtCom= 1.00D+00 WtEn= 0.00D+00
 Coeff-Com: -0.453D-03 0.418D-01 0.374D-01 0.321D+00 0.600D+00
 Coeff:     -0.453D-03 0.418D-01 0.374D-01 0.321D+00 0.600D+00
 Gap=     0.170 Goal=   None    Shift=    0.000
 RMSDP=5.36D-08 MaxDP=2.67D-06 DE=-1.58D-09 OVMax= 6.24D-06

 Cycle  18  Pass 1  IDiag  1:
 RMSU=  3.84D-08    CP:  9.99D-01  1.01D+00  7.46D-01  9.73D-01  7.52D-01
 E= -1663.56423215492     Delta-E=       -0.000000000369 Rises=F Damp=F
 DIIS: error= 2.41D-07 at cycle   6 NSaved=   6.
 NSaved= 6 IEnMin= 6 EnMin= -1663.56423215492     IErMin= 6 ErrMin= 2.41D-07
 ErrMax= 2.41D-07  0.00D+00 EMaxC= 1.00D-01 BMatC= 5.51D-11 BMatP= 4.08D-10
 IDIUse=1 WtCom= 1.00D+00 WtEn= 0.00D+00
 Coeff-Com:  0.280D-05-0.171D-02 0.715D-02 0.153D+00 0.372D+00 0.469D+00
 Coeff:      0.280D-05-0.171D-02 0.715D-02 0.153D+00 0.372D+00 0.469D+00
 Gap=     0.170 Goal=   None    Shift=    0.000
 RMSDP=1.84D-08 MaxDP=8.77D-07 DE=-3.69D-10 OVMax= 2.22D-06

 Cycle  19  Pass 1  IDiag  1:
 RMSU=  9.59D-09    CP:  9.99D-01  1.01D+00  7.48D-01  9.71D-01  7.56D-01
                    CP:  6.00D-01
 E= -1663.56423215501     Delta-E=       -0.000000000091 Rises=F Damp=F
 DIIS: error= 5.19D-08 at cycle   7 NSaved=   7.
 NSaved= 7 IEnMin= 7 EnMin= -1663.56423215501     IErMin= 7 ErrMin= 5.19D-08
 ErrMax= 5.19D-08  0.00D+00 EMaxC= 1.00D-01 BMatC= 2.49D-12 BMatP= 5.51D-11
 IDIUse=1 WtCom= 1.00D+00 WtEn= 0.00D+00
 Coeff-Com:  0.274D-04-0.336D-02 0.197D-02 0.696D-01 0.178D+00 0.264D+00
 Coeff-Com:  0.489D+00
 Coeff:      0.274D-04-0.336D-02 0.197D-02 0.696D-01 0.178D+00 0.264D+00
 Coeff:      0.489D+00
 Gap=     0.170 Goal=   None    Shift=    0.000
 RMSDP=4.39D-09 MaxDP=2.67D-07 DE=-9.09D-11 OVMax= 4.40D-07

 SCF Done:  E(RB3LYP) =  -1663.56423216     A.U. after   19 cycles
            NFock= 19  Conv=0.44D-08     -V/T= 2.0092
 KE= 1.648348407230D+03 PE=-1.223815506465D+04 EE= 4.737490969873D+03
 Leave Link  502 at Sun Feb 25 21:55:05 2024, MaxMem=  7516192768 cpu:            1590.5 elap:              40.4
 (Enter /public/apps/g16-C01//g16/l601.exe)
 Copying SCF densities to generalized density rwf, IOpCl= 0 IROHF=0.

 **********************************************************************

            Population analysis using the SCF Density.

 **********************************************************************

 Alpha  occ. eigenvalues --  -19.17495 -19.17099 -14.33391 -14.30812 -14.30681
 Alpha  occ. eigenvalues --  -10.27676 -10.27665 -10.24988 -10.24683 -10.24259
 Alpha  occ. eigenvalues --  -10.24226 -10.22141 -10.22077 -10.21533 -10.20879
 Alpha  occ. eigenvalues --  -10.20754 -10.19295 -10.18754 -10.18638 -10.18632
 Alpha  occ. eigenvalues --  -10.18614 -10.18532 -10.18481 -10.18396 -10.18385
 Alpha  occ. eigenvalues --  -10.18002 -10.17992 -10.17956 -10.17955 -10.17933
 Alpha  occ. eigenvalues --  -10.17907 -10.17898 -10.17852 -10.17784 -10.17739
 Alpha  occ. eigenvalues --  -10.17722 -10.17678 -10.17654 -10.17395 -10.17351
 Alpha  occ. eigenvalues --   -1.09602  -1.09461  -0.96446  -0.91164  -0.90955
 Alpha  occ. eigenvalues --   -0.86368  -0.85924  -0.84809  -0.84661  -0.81781
 Alpha  occ. eigenvalues --   -0.81486  -0.79532  -0.77290  -0.74908  -0.74687
 Alpha  occ. eigenvalues --   -0.74506  -0.73971  -0.73680  -0.73597  -0.72294
 Alpha  occ. eigenvalues --   -0.70951  -0.66544  -0.66380  -0.64528  -0.64429
 Alpha  occ. eigenvalues --   -0.61292  -0.60915  -0.60537  -0.60038  -0.59853
 Alpha  occ. eigenvalues --   -0.59548  -0.57904  -0.57757  -0.57280  -0.55744
 Alpha  occ. eigenvalues --   -0.53858  -0.53314  -0.53013  -0.52074  -0.51529
 Alpha  occ. eigenvalues --   -0.51143  -0.50392  -0.49896  -0.48933  -0.48024
 Alpha  occ. eigenvalues --   -0.47175  -0.46829  -0.46030  -0.45410  -0.45255
 Alpha  occ. eigenvalues --   -0.45080  -0.44991  -0.44568  -0.43715  -0.43247
 Alpha  occ. eigenvalues --   -0.43103  -0.42770  -0.42608  -0.42279  -0.42116
 Alpha  occ. eigenvalues --   -0.42021  -0.41857  -0.41297  -0.40962  -0.40553
 Alpha  occ. eigenvalues --   -0.40036  -0.39461  -0.38989  -0.38719  -0.37671
 Alpha  occ. eigenvalues --   -0.36454  -0.36041  -0.35850  -0.35588  -0.34991
 Alpha  occ. eigenvalues --   -0.34936  -0.34616  -0.34487  -0.34300  -0.34261
 Alpha  occ. eigenvalues --   -0.34145  -0.33855  -0.30876  -0.29270  -0.28544
 Alpha  occ. eigenvalues --   -0.28377  -0.26861  -0.26625  -0.26196  -0.25913
 Alpha  occ. eigenvalues --   -0.25236  -0.25133  -0.24880  -0.24508  -0.24320
 Alpha  occ. eigenvalues --   -0.23669  -0.23328
 Alpha virt. eigenvalues --   -0.06298  -0.05737  -0.01908  -0.01533  -0.01443
 Alpha virt. eigenvalues --   -0.00871   0.00129   0.00272   0.00977   0.01138
 Alpha virt. eigenvalues --    0.02398   0.04977   0.05477   0.06662   0.06996
 Alpha virt. eigenvalues --    0.07034   0.07602   0.07843   0.08441   0.08846
 Alpha virt. eigenvalues --    0.09372   0.10510   0.10781   0.11127   0.11407
 Alpha virt. eigenvalues --    0.11586   0.11876   0.12767   0.12935   0.13441
 Alpha virt. eigenvalues --    0.13812   0.13915   0.14389   0.14658   0.14741
 Alpha virt. eigenvalues --    0.14885   0.15208   0.15274   0.15470   0.16155
 Alpha virt. eigenvalues --    0.16873   0.17367   0.17477   0.18182   0.18475
 Alpha virt. eigenvalues --    0.19280   0.20090   0.20775   0.21235   0.21656
 Alpha virt. eigenvalues --    0.23443   0.24876   0.25601   0.25846   0.26870
 Alpha virt. eigenvalues --    0.27679   0.28047   0.28330   0.28603   0.28946
 Alpha virt. eigenvalues --    0.29135   0.29516   0.29767   0.29949   0.30171
 Alpha virt. eigenvalues --    0.30354   0.30709   0.30729   0.31086   0.31490
 Alpha virt. eigenvalues --    0.31764   0.32316   0.32980   0.33214   0.33556
 Alpha virt. eigenvalues --    0.33890   0.34688   0.34885   0.35214   0.35987
 Alpha virt. eigenvalues --    0.36869   0.36920   0.37305   0.37946   0.38852
 Alpha virt. eigenvalues --    0.39529   0.39773   0.40335   0.40750   0.41253
 Alpha virt. eigenvalues --    0.42055   0.42753   0.43281   0.43804   0.44074
 Alpha virt. eigenvalues --    0.44413   0.44578   0.44908   0.45086   0.45105
 Alpha virt. eigenvalues --    0.45192   0.45389   0.45457   0.45712   0.47089
 Alpha virt. eigenvalues --    0.47433   0.47576   0.47821   0.48592   0.48658
 Alpha virt. eigenvalues --    0.48762   0.48970   0.49114   0.49543   0.49880
 Alpha virt. eigenvalues --    0.50326   0.50488   0.50891   0.51492   0.51629
 Alpha virt. eigenvalues --    0.51836   0.52671   0.53065   0.53288   0.53934
 Alpha virt. eigenvalues --    0.54881   0.55116   0.55484   0.56003   0.56176
 Alpha virt. eigenvalues --    0.56637   0.57260   0.57545   0.57705   0.58100
 Alpha virt. eigenvalues --    0.58247   0.58899   0.59106   0.59549   0.60134
 Alpha virt. eigenvalues --    0.60688   0.61121   0.61313   0.61489   0.62371
 Alpha virt. eigenvalues --    0.62455   0.62525   0.62752   0.64092   0.64565
 Alpha virt. eigenvalues --    0.65005   0.65121   0.65478   0.65794   0.66215
 Alpha virt. eigenvalues --    0.66683   0.66914   0.67375   0.67824   0.67858
 Alpha virt. eigenvalues --    0.67965   0.68373   0.68747   0.68839   0.69051
 Alpha virt. eigenvalues --    0.69324   0.69412   0.69673   0.69796   0.69923
 Alpha virt. eigenvalues --    0.70100   0.70786   0.70852   0.71081   0.71659
 Alpha virt. eigenvalues --    0.71799   0.72042   0.72145   0.72393   0.72695
 Alpha virt. eigenvalues --    0.72938   0.73793   0.74145   0.74307   0.74546
 Alpha virt. eigenvalues --    0.74886   0.75166   0.75511   0.75766   0.76133
 Alpha virt. eigenvalues --    0.76293   0.76466   0.76934   0.77366   0.77757
 Alpha virt. eigenvalues --    0.78079   0.78229   0.78626   0.78997   0.79095
 Alpha virt. eigenvalues --    0.80343   0.80496   0.80800   0.81573   0.82235
 Alpha virt. eigenvalues --    0.82882   0.83348   0.84024   0.85673   0.85911
 Alpha virt. eigenvalues --    0.86016   0.86388   0.86483   0.87094   0.88345
 Alpha virt. eigenvalues --    0.89231   0.89689   0.91272   0.91610   0.91844
 Alpha virt. eigenvalues --    0.93059   0.93438   0.93953   0.94433   0.94771
 Alpha virt. eigenvalues --    0.95925   0.96070   0.96553   0.98392   0.99154
 Alpha virt. eigenvalues --    1.02353   1.02611   1.03620   1.04358   1.04842
 Alpha virt. eigenvalues --    1.05738   1.07193   1.08507   1.08907   1.09426
 Alpha virt. eigenvalues --    1.09768   1.10007   1.10426   1.12064   1.12579
 Alpha virt. eigenvalues --    1.14424   1.15249   1.17458   1.18468   1.19099
 Alpha virt. eigenvalues --    1.20023   1.21514   1.21834   1.22830   1.24920
 Alpha virt. eigenvalues --    1.25655   1.26383   1.26760   1.27448   1.27546
 Alpha virt. eigenvalues --    1.28790   1.29874   1.30667   1.31513   1.31925
 Alpha virt. eigenvalues --    1.33208   1.34002   1.34781   1.36185   1.36905
 Alpha virt. eigenvalues --    1.37549   1.40023   1.40376   1.42071   1.42817
 Alpha virt. eigenvalues --    1.42999   1.43612   1.44371   1.46481   1.46713
 Alpha virt. eigenvalues --    1.47296   1.47572   1.47700   1.48032   1.48434
 Alpha virt. eigenvalues --    1.48688   1.49064   1.49285   1.49613   1.49894
 Alpha virt. eigenvalues --    1.50495   1.50947   1.50978   1.51233   1.52216
 Alpha virt. eigenvalues --    1.53670   1.54478   1.54590   1.55075   1.55686
 Alpha virt. eigenvalues --    1.56114   1.58303   1.60423   1.62803   1.63781
 Alpha virt. eigenvalues --    1.64420   1.65848   1.67627   1.70205   1.70873
 Alpha virt. eigenvalues --    1.72086   1.73153   1.74170   1.75846   1.75901
 Alpha virt. eigenvalues --    1.76971   1.77018   1.77365   1.78539   1.79256
 Alpha virt. eigenvalues --    1.80265   1.81032   1.81251   1.82331   1.82565
 Alpha virt. eigenvalues --    1.82809   1.83127   1.83786   1.84487   1.85239
 Alpha virt. eigenvalues --    1.85522   1.85638   1.86116   1.87041   1.87540
 Alpha virt. eigenvalues --    1.88319   1.89020   1.89137   1.90199   1.91102
 Alpha virt. eigenvalues --    1.91201   1.93162   1.95488   1.96142   1.98220
 Alpha virt. eigenvalues --    1.98738   1.98969   2.00261   2.00386   2.00634
 Alpha virt. eigenvalues --    2.02501   2.02566   2.04048   2.04360   2.06444
 Alpha virt. eigenvalues --    2.06983   2.07596   2.08269   2.09189   2.09550
 Alpha virt. eigenvalues --    2.09988   2.10292   2.11825   2.12688   2.12985
 Alpha virt. eigenvalues --    2.13342   2.14014   2.14159   2.15336   2.15699
 Alpha virt. eigenvalues --    2.16621   2.16671   2.18168   2.18521   2.18821
[...]
 1,-0.00002380,-0.00001761,-0.00005318,0.00005325,-0.00012985,-0.000008
 35,-0.00011068,-0.00000389,-0.00000202,-0.00006916,0.00003822,0.000004
 24,-0.00000028,0.00000262,-0.00000385,0.00000151,0.00000033,-0.0000055
 0,-0.00000922,-0.00000614,-0.00000145,0.00000756,-0.00000272,-0.000001
 08,-0.00000033,0.00000350,-0.00000125,0.00000023,0.00000090,-0.0000005
 9,-0.00000004,0.00000084,0.00000134,0.00000092,0.00000083,-0.00000136,
 -0.00000733,-0.00000048,0.00000247,0.00000020,0.00000090,0.00000190,-0
 .00000060,0.00000057,-0.00000408,-0.00000614,-0.00000048,-0.00000074,-
 0.00000430,-0.00000588,0.00000201,0.00001971,-0.00000925,0.00017436,-0
 .00015874,-0.00005662,-0.00023917,0.00033300,0.00016495,-0.00023975,-0
 .00088734,-0.00030488,0.00050385,0.00000012,-0.00014424,-0.00146074,-0
 .00348170,-0.00139115,-0.06476944,0.04196110,-0.00014336,0.00007133,0.
 00001211,0.00000297,-0.00016342,0.00014116,0.00003269,0.00009167,-0.00
 001046,-0.00004907,-0.00010846,-0.00010610,0.00003127,0.00017455,-0.00
 047644,0.00003380,0.00025269,0.00020607,-0.00166371,-0.00007994,-0.001
 01473,-0.00001647,0.00010336,0.00010834,0.00005443,-0.00004605,-0.0000
 4130,-0.00004649,0.00003935,0.00001310,0.00007014,0.00001955,0.0000099
 1,-0.00000527,-0.00006997,-0.00002666,-0.00007259,-0.00002484,-0.00000
 225,0.00005519,0.00003226,-0.00002141,-0.00001414,-0.00002134,0.000003
 74,-0.00000432,-0.00000487,0.00001260,0.00000318,0.00000295,-0.0000079
 3,0.00000343,-0.00000539,0.00000609,0.00000227,0.00000144,-0.00000307,
 -0.00000100,-0.00000087,-0.00000183,-0.00000109,0.00000376,-0.00000921
 ,-0.00001859,-0.00000874,0.00000274,0.00000392,0.00000633,-0.00000262,
 0.00000204,0.00000172,-0.00000029,0.00000351,0.00000218,-0.00000043,0.
 00000635,-0.00000656,0.00000013,-0.00001161,0.00000937,-0.00000666,-0.
 00000054,-0.00001542,0.00000111,0.00004397,0.00001351,-0.00000812,0.00
 003872,-0.00004113,-0.00000755,-0.00007082,-0.00016142,0.00087724,0.00
 110116,-0.00176911,0.00005766,0.02812073,-0.00621917,-0.00194468,0.000
 85307,0.00290142,-0.00458943,-0.00043015,0.00020456,-0.00092215,-0.001
 88170,0.00333580,-0.00196727,-0.02143206,0.00445722,0.00948254,0.06853
 859,-0.00894898,-0.07551443,0.00018315,-0.00003881,0.00001443,-0.00000
 782,0.00009574,-0.00009592,-0.00000910,0.00003002,-0.00000010,0.000034
 12,0.00002874,-0.00001697,-0.00013317,-0.00000595,-0.00003398,-0.00000
 464,0.00000952,0.00005602,-0.00000712,0.00004604,0.00002970,0.00000705
 ,-0.00001702,-0.00000246,0.00000435,-0.00000378,0.00000165,0.00000909,
 0.00000560,0.00000427,0.00000128,-0.00000333,0.00000858,-0.00000024,0.
 00000396,-0.00000168,0.00000147,0.00000197,-0.00000058,0.00000148,0.00
 000154,-0.00000008,-0.00000259,0.00000021,0.00000064,0.00000243,0.0000
 0159,0.00000205,0.00000304,0.00000006,0.00000153,0.00000356,0.00000244
 ,0.00000093,-0.00000220,0.00000261,0.00000094,-0.00000481,-0.00000795,
 0.00000397,-0.00001632,0.00000081,0.00000173,0.00006037,-0.00002920,0.
 00028731,0.00143951,-0.00019447,-0.00034050,-0.00004984,-0.00028984,-0
 .00000370,-0.00096284,0.00029639,0.00030063,0.00016655,-0.00159425,0.0
 0067180,-0.07381768,0.00758079,0.07481447,0.00290320,0.00147160,0.0019
 2419,0.00011069,0.00028296,-0.00070723,-0.00050029,0.00527817,0.001581
 82,-0.01374398,-0.00579199,0.01523332,-0.00052645,-0.00238463,0.000222
 51,0.00020113,0.00002610,-0.00050549,-0.00003995,-0.00014551,-0.000052
 15,-0.00001881,-0.00006150,0.00001701,0.00001076,-0.00001085,-0.000002
 94,-0.00000182,0.00000084,-0.00000792,0.00000454,0.00000110,0.00000474
 ,0.00000933,-0.00001000,-0.00000086,-0.00000598,-0.00001066,-0.0000021
 1,0.00000422,0.00001086,-0.00000330,0.00000234,-0.00000452,-0.00000230
 ,-0.00000206,-0.00000082,0.00000119,0.00000407,0.00000317,-0.00000048,
 -0.00000128,0.00000023,0.00000177,0.00000066,0.00000176,-0.00000118,0.
 00000005,0.00000068,-0.00000028,0.00000037,0.00000070,0.00000122,-0.00
 000575,-0.00001888,0.00000997,0.00000414,-0.00000464,-0.00000068,-0.00
 001015,-0.00000034,-0.00000355,-0.00000493,-0.00000168,-0.00000202,-0.
 00001142,0.00001501,-0.00001124,0.00004630,-0.00002398,0.00000381,-0.0
 0001307,0.00000911,-0.00001140,0.00000560,0.00001710,-0.00000575,0.000
 00762,0.00001992,-0.00002040,0.00019717,-0.00011217,-0.00007852,-0.000
 11955,0.00035731,0.00027243,-0.00005708,-0.00017313,-0.00024556,-0.000
 30047,-0.00040780,-0.00043381,0.00007843,-0.00021276,0.00023122,0.0001
 4807,0.00006312,-0.00014907,-0.00020078,0.00012713,-0.00013308,-0.0000
 2972,-0.00004519,0.00033306,-0.21031768,-0.03268275,0.13858993,0.00340
 610,0.00175301,-0.00111573,0.00008194,0.00016231,-0.00001554,-0.000291
 19,-0.00031394,-0.00034489,-0.00065368,-0.00040837,0.00085496,0.000297
 46,0.00056127,-0.00108920,-0.00000102,0.00000378,0.00000671,0.00000107
 ,-0.00000086,0.00000076,0.00000016,-0.00000133,0.00000173,-0.00000200,
 0.00000291,0.00000103,0.00000061,-0.00000357,0.,0.00000143,0.00000019,
 -0.00000233,-0.00000006,-0.00000084,0.00000022,-0.00000118,-0.00000041
 ,-0.00000036,-0.00000051,0.00000015,-0.00000126,-0.00000293,0.00000468
 ,-0.00000182,-0.00000407,0.00000022,0.00000038,-0.00000530,-0.00000071
 ,0.00000072,0.00000351,0.00000195,0.00000427,0.00001108,0.00002681,0.0
 0000675,0.00000992,-0.00001872,0.00001832,0.00004586,0.00002078,-0.000
 03100,0.00006553,0.00001909,-0.00001779,-0.00001536,0.00000423,-0.0000
 0628,-0.00000049,-0.00000430,-0.00001216,-0.00001026,-0.00000454,-0.00
 001543,0.00001594,-0.00003213,-0.00003108,0.21964189,0.00236433,-0.002
 50657,0.00448908,0.00033422,-0.00093779,-0.00004636,0.00419815,-0.0013
 6832,0.00189599,0.01539449,0.00787723,-0.01308777,-0.00051766,-0.00036
 907,-0.00191272,-0.00036270,0.00043761,0.00015101,-0.00003599,-0.00005
 555,-0.00006681,0.00005546,-0.00001914,-0.00001144,-0.00003051,0.00002
 803,0.00001245,0.00001609,-0.00000855,-0.00000435,-0.00002823,-0.00000
 668,-0.00000850,0.00000470,0.00003396,0.00001074,0.00003671,0.00003136
 ,0.00002735,-0.00002477,-0.00002251,-0.00000345,0.00000485,0.00001142,
 0.00000418,0.00000073,-0.00000016,-0.00000448,-0.00000006,-0.00000126,
 0.00000074,0.00000012,-0.00000094,0.00000014,-0.00000069,-0.00000057,0
 .00000016,-0.00000012,-0.00000042,0.00000008,-0.00000030,-0.00000214,0
 .00000152,0.00001342,0.00001871,-0.00000246,-0.00000729,0.00000356,-0.
 00000154,0.00000469,0.00000048,0.00000041,0.00000517,0.00000165,-0.000
 00164,0.00000612,-0.00001472,0.00000315,-0.00001081,0.00001864,-0.0000
 0418,0.00000473,-0.00000345,0.00000025,-0.00002489,-0.00002978,-0.0000
 1193,-0.00003256,-0.00000889,0.00001323,-0.00006799,0.00010412,0.00005
 004,0.00012493,-0.00049009,0.00008635,-0.00000540,-0.00023544,-0.00023
 179,-0.00013727,-0.00022767,-0.00025656,-0.00007849,-0.00000481,0.0000
 2150,0.00000503,-0.00003090,0.00003780,-0.00004334,0.00001642,-0.00000
 871,0.00008570,0.00006816,0.00010686,-0.03271504,-0.06363653,0.0392183
 8,-0.02150945,-0.00048614,0.01701153,-0.00090316,-0.00010581,0.0008616
 5,-0.00029871,-0.00016049,-0.00036868,0.00086564,0.00030777,-0.0006591
 5,0.00023899,0.00004874,0.00014849,0.00000222,-0.00001256,-0.00000569,
 -0.00000192,0.00000271,0.00000209,-0.00000020,0.00000128,0.00000092,-0
 .00000303,-0.00000390,-0.00000338,-0.00000085,0.00000240,-0.00000011,0
 .00000008,0.00000018,0.00000025,-0.00000017,-0.00000011,0.00000060,-0.
 00000093,-0.00000009,0.00000025,0.00000038,0.00000081,-0.00000018,-0.0
 0000131,-0.00000325,-0.00000063,0.00000081,0.00000128,0.00000079,0.000
 00109,-0.00000064,0.00000138,0.00000150,0.00000196,0.00000278,0.000004
 77,-0.00002319,0.00000424,-0.00000380,0.00001576,-0.00000821,-0.000025
 74,-0.00010971,-0.00004262,-0.00007893,-0.00006829,0.00004249,0.000044
 69,0.00001126,0.00000788,0.00000503,-0.00000270,0.00002396,0.00000170,
 -0.00000932,0.00000972,-0.00001434,0.00001131,0.00002154,0.03405266,0.
 06179389,0.00118249,0.00529527,0.00306222,-0.00072767,-0.00021142,-0.0
 0003221,0.00230260,0.00121906,0.00421973,0.00160886,0.00213004,0.00100
 329,-0.00207239,-0.00096817,-0.00125802,-0.00003714,-0.00004049,-0.000
 05892,0.00023730,0.00025722,0.00018374,-0.00001580,0.00001669,0.000018
 17,0.00000826,-0.00000116,-0.00000542,0.00000041,0.00000297,0.00000041
 ,0.00000182,-0.00000506,-0.00000332,-0.00000893,0.00000440,-0.00000108
 ,0.00000679,0.00002147,0.00002420,-0.00000071,-0.00001207,-0.00000940,
 -0.00000293,0.00000441,0.00000535,0.00000025,-0.00000163,0.00000012,-0
 .00000035,-0.00000173,-0.00000111,0.00000109,-0.00000171,-0.00000062,-
 0.00000013,-0.00000165,0.00000034,-0.00000076,-0.00000116,-0.00000046,
 -0.00000048,-0.00000072,-0.00000270,0.00000634,0.00001966,-0.00000494,
 -0.00000346,0.00000153,-0.00000105,0.00000649,-0.00000083,0.00000217,0
 .00000196,-0.00000046,-0.00000005,0.00001134,-0.00001150,0.00000457,-0
 .00002922,0.00001960,-0.00000479,0.00001155,0.00000069,-0.00000093,-0.
 00000683,-0.00002614,-0.00001159,-0.00000166,-0.00001600,0.00000086,-0
 .00034134,-0.00000079,-0.00018701,0.00026605,-0.00053510,0.00060396,0.
 00033356,0.00007642,0.00008735,-0.00004013,0.00012820,0.00024021,-0.00
 019894,0.00026208,-0.00009511,-0.00002163,0.00003385,-0.00006372,-0.00
 001761,-0.00005907,0.00000509,0.00006903,0.00010805,-0.00007182,0.1375
 1394,0.03848736,-0.15512312,0.01408732,0.00169441,-0.00651143,0.000670
 65,0.00007909,-0.00037675,-0.00033896,-0.00037979,-0.00063348,0.000127
 15,0.00024826,0.00002455,0.00028256,-0.00033098,-0.00016206,0.00000282
 ,-0.00000554,0.00000078,0.00000109,-0.00000237,-0.00000033,0.00000007,
 0.00000101,-0.00000034,0.00000188,-0.00000281,-0.00000139,0.00000007,0
 .00000278,0.00000176,-0.00000105,0.00000112,0.00000161,0.00000002,0.00
 000124,0.00000001,0.00000083,0.00000080,0.00000056,-0.00000038,0.00000
 047,0.00000112,0.00000062,-0.00000386,0.00000111,0.00000328,-0.0000002
 7,0.00000125,0.00000361,0.00000095,0.00000070,-0.00000444,-0.00000276,
 0.00000029,0.00000390,-0.00001496,0.00000010,-0.00000664,0.00001184,-0
 .00000441,-0.00013465,-0.00013287,-0.00006932,-0.00005514,-0.00014671,
 0.00005460,-0.00001261,-0.00002663,-0.00001337,0.00000496,-0.00001159,
 0.00001871,-0.00000399,0.00001026,0.00003177,-0.00004073,0.00003248,0.
 00004965,-0.15259552,-0.04541079,0.15685828,-0.01277541,0.01705696,0.0
 0035467,-0.00054680,-0.00071789,0.00551392,0.00018582,-0.00084520,-0.0
 0000994,0.00290495,0.00102947,0.00222451,0.00008385,-0.00022675,0.0002
 4392,-0.00002780,0.00008225,0.00000600,0.00000525,-0.00009379,-0.00011
 632,0.00001179,-0.00001945,-0.00000281,-0.00001452,0.00000861,0.000005
 79,0.00000506,-0.00000434,-0.00000304,-0.00001052,-0.00000264,-0.00000
 156,0.00001214,0.00001070,0.00000522,0.00002122,0.00000649,0.00000579,
 -0.00001755,-0.00000636,0.00000115,0.00000716,0.00000576,-0.00000022,-
 0.00000071,-0.00000013,-0.00000301,0.00000378,0.00000173,0.00000118,-0
 .00000182,0.,0.00000070,0.00000038,0.00000111,-0.00000101,0.,0.0000002
 1,-0.00000006,-0.00000012,-0.00000116,0.00000293,0.00000617,-0.0000018
 8,0.00000411,0.00000036,-0.00000270,0.00000111,-0.00000619,-0.00000108
 ,-0.00000227,-0.00000212,-0.00000365,-0.00000222,-0.00001008,0.0000174
 5,-0.00001240,0.00003922,-0.00001455,-0.00000048,-0.00001097,0.0000015
 4,-0.00000755,-0.00001497,-0.00000312,-0.00000358,-0.00001326,0.000013
 52,-0.00000370,0.00000133,0.00002979,0.00003479,-0.00001877,-0.0000144
 8,-0.00003079,-0.00000594,-0.00003007,-0.00000389,0.00000355,0.0000125
 6,0.00002435,-0.00000772,0.00001736,0.00000836,0.00000100,0.00000247,-
 0.00002180,-0.00000934,0.00001052,-0.00001526,0.00000722,0.00001076,0.
 00000696,0.00356206,-0.00176851,0.00123275,-0.21023660,0.14103148,0.02
 797193,-0.00010877,-0.00132176,-0.00183956,-0.00064627,0.00080521,0.00
 005754,-0.00025147,-0.00018371,-0.00039514,0.00001964,0.00004267,-0.00
 002068,0.00000088,-0.00000578,-0.00000175,-0.00000074,0.00000172,0.000
 00153,-0.00000036,0.00000051,0.00000120,-0.00000412,-0.00000053,-0.000
 00152,-0.00000027,-0.00000143,-0.00000075,0.00000193,0.00000029,-0.000
 00154,-0.00000086,-0.00000106,0.00000104,-0.00000198,-0.00000041,-0.00
 000025,0.00000025,0.00000054,-0.00000111,-0.00000229,0.00000139,-0.000
 00193,-0.00000295,0.00000056,0.00000032,-0.00000630,-0.00000109,0.0000
 0106,0.00000254,0.00000015,0.00000706,0.00000738,0.00000599,0.00001656
 ,0.00000758,-0.00000681,0.00000646,0.00001555,0.00001949,0.00000254,-0
 .00000205,-0.00000311,-0.00000218,0.00000049,-0.00000621,-0.00000299,0
 .00000870,-0.00000031,0.00000534,-0.00000782,-0.00000141,0.00000167,0.
 00000175,-0.00001438,-0.00000643,-0.00042194,-0.00091257,-0.00203873,0
 .21826039,-0.00598313,0.00745994,0.00172019,0.00027922,0.00215287,0.00
 283969,-0.00087916,-0.00010700,0.00026056,0.00008071,-0.00167735,0.005
 47337,0.00094302,0.00000357,-0.00034995,-0.00005769,-0.00058576,0.0000
 6256,0.00030064,0.00018793,0.00015717,-0.00006166,0.00006034,-0.000021
 26,0.00003584,-0.00002735,-0.00001234,-0.00001357,0.00000697,0.0000085
 1,0.00002737,0.00000076,0.00000169,-0.00001936,-0.00002583,-0.00000585
 ,-0.00003107,-0.00001116,-0.00000449,0.00002420,0.00001222,-0.00000550
 ,-0.00000794,-0.00000827,0.00000077,-0.00000076,-0.00000139,0.00000510
 ,-0.00000077,0.00000027,-0.00000262,0.00000170,-0.00000143,0.00000149,
 0.00000066,-0.00000009,-0.00000050,-0.00000038,-0.00000048,-0.00000061
 ,-0.00000034,0.00000160,-0.00000414,-0.00000856,-0.00000198,-0.0000007
 7,0.00000160,0.00000219,-0.00000055,0.00000144,0.00000080,0.00000056,0
 .00000105,0.00000025,0.00000013,0.00000367,-0.00000288,0.00000067,-0.0
 0001178,0.00000420,-0.00000089,0.00000276,-0.00000487,0.00000167,0.000
 01967,0.00000652,0.00000066,0.00003210,-0.00001470,-0.00000261,-0.0002
 6664,-0.00006366,-0.00013627,0.00014158,-0.00008044,0.00012323,0.00006
 762,-0.00002555,0.00005681,0.00003040,0.00002877,0.00001735,-0.0000306
 8,0.00006317,0.00004961,-0.00001950,0.00008640,-0.00005517,0.00003941,
 0.00001137,-0.00000965,-0.00001254,-0.00000162,-0.00001500,0.02120927,
 -0.01262134,-0.00412755,0.14083723,-0.17209445,-0.01026656,-0.00071748
 ,-0.00029579,-0.00193274,-0.00028052,0.00023893,0.00016358,-0.00015748
 ,-0.00024437,-0.00039300,0.00000848,0.00002053,-0.00000301,0.00000009,
 0.00000627,0.00000272,0.00000262,-0.00000438,-0.00000255,0.00000010,-0
 .00000045,-0.00000180,0.00000461,0.00000178,0.00000201,0.00000055,-0.0
 0000086,0.00000247,-0.00000072,0.00000087,0.00000008,0.00000064,0.0000
 0109,-0.00000053,0.00000131,0.00000077,0.00000012,-0.00000086,-0.00000
 018,0.00000082,0.00000166,0.00000023,0.00000148,0.00000198,-0.00000044
 ,0.00000042,0.00000211,0.00000138,0.00000005,-0.00000224,0.00000034,0.
 00000018,0.00000077,-0.00000398,0.00000037,-0.00000730,0.00000051,-0.0
 0000148,-0.00005206,-0.00003114,-0.00001703,0.00001328,-0.00001117,-0.
 00000256,-0.00004047,-0.00002864,-0.00000796,-0.00001896,-0.00001838,-
 0.00002431,-0.00000183,-0.00000364,-0.00000369,-0.00001564,0.00000767,
 0.00002569,-0.00140739,0.00011746,-0.00180491,-0.15401090,0.17751309,0
 .01490135,-0.01405463,0.00248392,0.00497239,0.00339492,0.00132858,0.00
 006360,0.00031166,-0.00094775,0.00272654,0.00514584,0.00228790,-0.0006
 1224,0.00031276,0.00044421,-0.00004450,0.00024615,-0.00009048,-0.00006
 280,-0.00004871,-0.00012658,0.00002728,-0.00003044,0.00002282,-0.00001
 693,0.00001266,0.00000469,0.00000651,-0.00000107,-0.00000377,-0.000015
 55,-0.00000262,-0.00000278,0.00000800,0.00001928,0.00000241,0.00002174
 ,0.00002456,0.00002370,-0.00001273,-0.00001673,-0.00000619,0.00000126,
 0.00000742,0.00000498,0.00000058,-0.00000071,-0.00000250,-0.00000032,-
 0.00000175,0.00000005,0.00000064,-0.00000114,-0.00000080,-0.00000073,-
 0.00000157,0.00000057,-0.00000038,-0.00000080,-0.00000015,-0.00000020,
 -0.00000150,-0.00000048,0.00001138,0.00001973,-0.00000374,-0.00000143,
 -0.00000394,0.00000024,0.00000439,-0.00000340,0.00000188,-0.00000248,-
 0.00000142,-0.00000201,0.00000781,-0.00000648,0.00000301,-0.00003196,0
 .00000144,0.00000446,0.00001665,0.00000732,0.00000015,-0.00001698,-0.0
 0002666,-0.00001125,-0.00002167,-0.00000201,0.00000384,0.00000877,-0.0
 0000399,0.00001119,-0.00000730,-0.00007006,-0.00004031,-0.00001619,-0.
 00004311,-0.00001910,-0.00000040,-0.00000778,0.00001655,-0.00002598,0.
 00000833,0.00003405,0.00001049,0.00002544,-0.00001150,0.00001234,0.000
 03428,-0.00001893,0.00004385,-0.00000337,0.00001224,-0.01342950,0.0113
 6632,0.00571280,0.02813125,-0.01026105,-0.05057784,-0.00224038,-0.0014
 9755,-0.00159140,0.00077785,-0.00058427,0.00006587,-0.00037850,-0.0003
 7766,-0.00051129,0.00002257,-0.00002649,-0.00003712,0.00000072,-0.0000
 0504,-0.00000074,-0.00000103,0.00000094,0.00000096,0.00000040,0.000001
 13,0.00000123,-0.00000064,-0.00000334,-0.00000234,-0.00000021,0.000003
 04,0.00000045,-0.00000089,0.00000058,0.00000141,0.,0.00000068,0.000000
 24,0.00000006,0.00000032,0.00000052,0.,0.00000065,0.00000050,-0.000000
 47,-0.00000364,0.00000014,0.00000169,-0.00000039,0.00000130,0.00000221
 ,0.00000024,0.00000118,-0.00000516,-0.00000467,0.00000099,0.00001095,0
 .00000707,-0.00001297,0.00000281,0.00000677,-0.00000189,0.00002115,0.0
 0001682,-0.00000619,0.00000033,0.00001913,-0.00001479,0.00000441,-0.00
 000725,0.00000607,-0.00001859,-0.00001440,-0.00001546,0.00000762,-0.00
 001315,-0.00000609,-0.00000511,0.00000903,-0.00000384,-0.00166231,-0.0
 0210781,-0.00179835,-0.03319604,0.00823608,0.04338355\\0.00000112,-0.0
 0000091,0.00000073,-0.00000172,0.00000073,0.00000142,-0.00000020,-0.00
 000077,0.00000194,-0.00000163,0.00000242,-0.00000476,0.00001231,-0.000
 00196,0.00000673,-0.00000672,0.00000336,0.00000151,-0.00000472,-0.0000
 0485,-0.00000534,0.00000392,0.00000162,0.00000091,0.00000021,-0.000001
 46,-0.00000097,-0.00000021,0.00000131,-0.00000061,-0.00000216,-0.00000
 222,-0.00000198,-0.00000465,0.00000276,0.00000391,0.00000153,0.0000022
 6,0.00000111,0.00000189,-0.00000463,-0.00000697,0.00000086,0.00000397,
 0.00001422,0.00000030,0.00000186,-0.00000528,0.00000227,0.00000083,-0.
 00000070,0.00000039,-0.00000021,0.00000124,-0.00000041,0.00000007,0.00
 000127,-0.00000068,0.00000014,0.00000015,-0.00000061,-0.00000141,-0.00
 000124,-0.00000378,-0.00001592,-0.00000681,0.00000512,0.00001291,-0.00
 000156,-0.00000102,-0.00000102,-0.00000093,-0.00000087,-0.00000192,0.0
 0000170,-0.00000220,-0.00000136,0.00000005,0.00000201,0.00000214,-0.00
 000028,-0.00000245,-0.00000165,0.00000555,0.00000054,0.00000004,-0.000
 00122,-0.00000029,-0.00000345,-0.00000216,-0.00000051,0.00000893,0.000
 00730,0.00000027,-0.00000806,-0.00001353,0.00000297,0.00000159,-0.0000
 0056,-0.00000263,0.00000170,-0.00000160,0.00000158,-0.00000130,0.00000
 397,0.00000391,0.00000031,-0.00000187,-0.00000423,0.00000181,0.0000004
 1,0.00000007,-0.00000120,0.00000302,0.00000081,-0.00000123,0.00000125,
 -0.00000023,-0.00000041,0.00000110,0.00000057,0.00000022,0.00000138,-0
 .00000073,0.00000060,-0.00000003,-0.00000014,0.00000029,0.00000056,-0.
 00000085,-0.00000065,-0.00000043,0.00000001,0.00000029,-0.00000061,-0.
 00000037,0.00000002,-0.00000097,0.00000092,0.00000159,-0.00000121,0.00
 000102,-0.00000037,-0.00000530,-0.00000016,-0.00000061,0.00000073,0.00
 000025,0.00000109,0.,-0.00000061,0.00000045,-0.00000034,-0.00000006,-0
 .00000001,-0.00000006,0.00000055,0.00000011,-0.00000035,-0.00000230,0.
 00000046,0.00000177,-0.00000087,0.00000132,-0.00000057,0.00000027,-0.0
 0000012,0.00000028,0.00000107,0.00000019,0.00000110,-0.00000030,-0.000
 00089,0.00000118,0.00000050,0.00000055,-0.00000335,0.00000143,-0.00000
 082,0.00000220,0.00000012,-0.00000033,0.00000021,-0.00000011,0.0000003
 8,-0.00000007,-0.00000045,0.00000036,0.00000072,0.,0.00000080,0.000000
 34,0.00000024,0.00000063,0.00000022,-0.00000021,-0.00000027,0.00000034
 ,0.00000006,-0.00000013,0.00000116\\\@
 The archive entry for this job was punched.


 THE MORE POWERFUL THE METHOD, THE MORE CATASTROPHIC THE ERRORS.
     -- M.D. KAMEN
 Job cpu time:       0 days  7 hours 48 minutes 38.7 seconds.
 Elapsed time:       0 days  0 hours 11 minutes 46.7 seconds.
 File lengths (MBytes):  RWF=   2763 Int=      0 D2E=      0 Chk=     34 Scr=      1
 Normal termination of Gaussian 16 at Sun Feb 25 22:27:38 2024.
