 Entering Gaussian System, Link 0=g16
 Initial command:
 /public/apps/g16-C01//g16/l1.exe "/public/home/ljq/tmp/Gau-52827.inp" -scrdir="/public/home/ljq/tmp/"
 Entering Link 1 = /public/apps/g16-C01//g16/l1.exe PID=     52829.
  
 Copyright (c) 1988-2019, Gaussian, Inc.  All Rights Reserved.
  
 This is part of the Gaussian(R) 16 program.  It is based on
 the Gaussian(R) 09 system (copyright 2009, Gaussian, Inc.),
 the Gaussian(R) 03 system (copyright 2003, Gaussian, Inc.),
 the Gaussian(R) 98 system (copyright 1998, Gaussian, Inc.),
 the Gaussian(R) 94 system (copyright 1995, Gaussian, Inc.),
 the Gaussian 92(TM) system (copyright 1992, Gaussian, Inc.),
 the Gaussian 90(TM) system (copyright 1990, Gaussian, Inc.),
 the Gaussian 88(TM) system (copyright 1988, Gaussian, Inc.),
 the Gaussian 86(TM) system (copyright 1986, Carnegie Mellon
 University), and the Gaussian 82(TM) system (copyright 1983,
 Carnegie Mellon University). Gaussian is a federally registered
 trademark of Gaussian, Inc.
  
 This software contains proprietary and confidential information,
 including trade secrets, belonging to Gaussian, Inc.
  
 This software is provided under written license and may be
 used, copied, transmitted, or stored only in accord with that
 written license.
  
 The following legend is applicable only to US Government
 contracts under FAR:
  
                    RESTRICTED RIGHTS LEGEND
  
 Use, reproduction and disclosure by the US Government is
 subject to restrictions as set forth in subparagraphs (a)
 and (c) of the Commercial Computer Software - Restricted
 Rights clause in FAR 52.227-19.
  
 Gaussian, Inc.
 340 Quinnipiac St., Bldg. 40, Wallingford CT 06492
  
  
 ---------------------------------------------------------------
 Warning -- This program may not be used in any manner that
 competes with the business of Gaussian, Inc. or will provide
 assistance to any competitor of Gaussian, Inc.  The licensee
 of this program is prohibited from giving any competitor of
 Gaussian, Inc. access to this program.  By using this program,
 the user acknowledges that Gaussian, Inc. is engaged in the
 business of creating and licensing software in the field of
 computational chemistry and represents and warrants to the
 licensee that it is not a competitor of Gaussian, Inc. and that
 it will not use this program in any manner prohibited above.
 ---------------------------------------------------------------
  

 Cite this work as:
 Gaussian 16, Revision C.01,
 M. J. Frisch, G. W. Trucks, H. B. Schlegel, G. E. Scuseria, 
 M. A. Robb, J. R. Cheeseman, G. Scalmani, V. Barone, 
 G. A. Petersson, H. Nakatsuji, X. Li, M. Caricato, A. V. Marenich, 
 J. Bloino, B. G. Janesko, R. Gomperts, B. Mennucci, H. P. Hratchian, 
 J. V. Ortiz, A. F. Izmaylov, J. L. Sonnenberg, D. Williams-Young, 
 F. Ding, F. Lipparini, F. Egidi, J. Goings, B. Peng, A. Petrone, 
 T. Henderson, D. Ranasinghe, V. G. Zakrzewski, J. Gao, N. Rega, 
 G. Zheng, W. Liang, M. Hada, M. Ehara, K. Toyota, R. Fukuda, 
 J. Hasegawa, M. Ishida, T. Nakajima, Y. Honda, O. Kitao, H. Nakai, 
 T. Vreven, K. Throssell, J. A. Montgomery, Jr., J. E. Peralta, 
 F. Ogliaro, M. J. Bearpark, J. J. Heyd, E. N. Brothers, K. N. Kudin, 
 V. N. Staroverov, T. A. Keith, R. Kobayashi, J. Normand, 
 K. Raghavachari, A. P. Rendell, J. C. Burant, S. S. Iyengar, 
 J. Tomasi, M. Cossi, J. M. Millam, M. Klene, C. Adamo, R. Cammi, 
 J. W. Ochterski, R. L. Martin, K. Morokuma, O. Farkas, 
 J. B. Foresman, and D. J. Fox, Gaussian, Inc., Wallingford CT, 2019.
 
 ******************************************
 Gaussian 16:  ES64L-G16RevC.01  3-Jul-2019
                25-Feb-2024 
 ******************************************
 %nproc=40
 Will use up to   40 processors via shared memory.
 %mem=56GB
 ------------------------------------------
 #p opt freq b3lyp/def2svpp em=gd3bj nosymm
 ------------------------------------------
 1/18=20,19=15,26=3,38=1/1,3;
 2/9=110,12=2,15=1,17=6,18=5,40=1/2;
 3/5=43,7=202,11=2,25=1,30=1,71=1,74=-5,124=41/1,2,3;
 4//1;
 5/5=2,38=5/2;
 6/7=2,8=2,9=2,10=2,28=1/1;
 7/30=1/1,2,3,16;
 1/18=20,19=15,26=3/3(2);
 2/9=110,15=1/2;
 99//99;
 2/9=110,15=1/2;
 3/5=43,7=202,11=2,25=1,30=1,71=1,74=-5,124=41/1,2,3;
 4/5=5,16=3,69=1/1;
 5/5=2,38=5/2;
 7/30=1/1,2,3,16;
 1/18=20,19=15,26=3/3(-5);
 2/9=110,15=1/2;
 6/7=2,8=2,9=2,10=2,19=2,28=1/1;
 99/9=1/99;
 Leave Link    1 at Sun Feb 25 22:28:14 2024, MaxMem=  7516192768 cpu:               1.4 elap:               0.0
 (Enter /public/apps/g16-C01//g16/l101.exe)
 ----------------------
 $$$$Singlemol####0????
 ----------------------
 Symbolic Z-matrix:
 Charge =  0 Multiplicity = 1
 C                    -3.67505  -0.75509  -1.09758 
 C                    -2.81197   0.36287  -0.52237 
 C                    -2.72106   0.33942   1.02997 
 O                    -1.33655   0.14725   1.29766 
 C                    -0.72268   0.09054   0.09279 
 C                     0.72368  -0.09594   0.09528 
 N                     1.43842  -0.23941  -0.93794 
 C                     2.81448  -0.37186  -0.51285 
 C                     3.66789   0.7409   -1.11225 
 C                     2.72277  -0.31433   1.03854 
 O                     1.33747  -0.12095   1.30125 
 N                    -1.43672   0.21145  -0.9438 
 H                    -3.32438  -1.72133  -0.7424 
 H                    -3.6074   -0.74048  -2.18125 
 H                    -4.71155  -0.61717  -0.79979 
 H                    -3.17782   1.32599  -0.89436 
 H                    -3.28137  -0.49157   1.46738 
 H                    -3.03989   1.27646   1.4933 
 H                     3.18862  -1.33972  -0.86347 
 H                     3.30666   1.71143  -0.77998 
 H                     3.60228   0.70074  -2.19538 
 H                     4.70515   0.62048  -0.80962 
 H                     3.28001   0.52788   1.45798 
 H                     3.0445   -1.23997   1.52242 
 
 ITRead=  0  0  0  0  0  0  0  0  0  0  0  0  0  0  0  0  0  0  0  0
 ITRead=  0  0  0  0
 MicOpt= -1 -1 -1 -1 -1 -1 -1 -1 -1 -1 -1 -1 -1 -1 -1 -1 -1 -1 -1 -1
 MicOpt= -1 -1 -1 -1
 NAtoms=     24 NQM=       24 NQMF=       0 NMMI=      0 NMMIF=      0
                NMic=       0 NMicF=      0.
                    Isotopes and Nuclear Properties:
 (Nuclear quadrupole moments (NQMom) in fm**2, nuclear magnetic moments (NMagM)
  in nuclear magnetons)

  Atom         1           2           3           4           5           6           7           8           9          10
 IAtWgt=          12          12          12          16          12          12          14          12          12          12
 AtmWgt=  12.0000000  12.0000000  12.0000000  15.9949146  12.0000000  12.0000000  14.0030740  12.0000000  12.0000000  12.0000000
 NucSpn=           0           0           0           0           0           0           2           0           0           0
 AtZEff=  -0.0000000  -0.0000000  -0.0000000  -0.0000000  -0.0000000  -0.0000000  -0.0000000  -0.0000000  -0.0000000  -0.0000000
 NQMom=    0.0000000   0.0000000   0.0000000   0.0000000   0.0000000   0.0000000   2.0440000   0.0000000   0.0000000   0.0000000
 NMagM=    0.0000000   0.0000000   0.0000000   0.0000000   0.0000000   0.0000000   0.4037610   0.0000000   0.0000000   0.0000000
 AtZNuc=   6.0000000   6.0000000   6.0000000   8.0000000   6.0000000   6.0000000   7.0000000   6.0000000   6.0000000   6.0000000

  Atom        11          12          13          14          15          16          17          18          19          20
 IAtWgt=          16          14           1           1           1           1           1           1           1           1
 AtmWgt=  15.9949146  14.0030740   1.0078250   1.0078250   1.0078250   1.0078250   1.0078250   1.0078250   1.0078250   1.0078250
 NucSpn=           0           2           1           1           1           1           1           1           1           1
 AtZEff=  -0.0000000  -0.0000000  -0.0000000  -0.0000000  -0.0000000  -0.0000000  -0.0000000  -0.0000000  -0.0000000  -0.0000000
 NQMom=    0.0000000   2.0440000   0.0000000   0.0000000   0.0000000   0.0000000   0.0000000   0.0000000   0.0000000   0.0000000
 NMagM=    0.0000000   0.4037610   2.7928460   2.7928460   2.7928460   2.7928460   2.7928460   2.7928460   2.7928460   2.7928460
 AtZNuc=   8.0000000   7.0000000   1.0000000   1.0000000   1.0000000   1.0000000   1.0000000   1.0000000   1.0000000   1.0000000

  Atom        21          22          23          24
 IAtWgt=           1           1           1           1
 AtmWgt=   1.0078250   1.0078250   1.0078250   1.0078250
 NucSpn=           1           1           1           1
 AtZEff=  -0.0000000  -0.0000000  -0.0000000  -0.0000000
 NQMom=    0.0000000   0.0000000   0.0000000   0.0000000
 NMagM=    2.7928460   2.7928460   2.7928460   2.7928460
 AtZNuc=   1.0000000   1.0000000   1.0000000   1.0000000
 Leave Link  101 at Sun Feb 25 22:28:14 2024, MaxMem=  7516192768 cpu:               4.1 elap:               0.2
 (Enter /public/apps/g16-C01//g16/l103.exe)

 GradGradGradGradGradGradGradGradGradGradGradGradGradGradGradGradGradGrad
 Berny optimization.
 Initialization pass.
                           ----------------------------
                           !    Initial Parameters    !
                           ! (Angstroms and Degrees)  !
 --------------------------                            --------------------------
 ! Name  Definition              Value          Derivative Info.                !
 --------------------------------------------------------------------------------
 ! R1    R(1,2)                  1.525          estimate D2E/DX2                !
 ! R2    R(1,13)                 1.0875         estimate D2E/DX2                !
 ! R3    R(1,14)                 1.0859         estimate D2E/DX2                !
 ! R4    R(1,15)                 1.0872         estimate D2E/DX2                !
 ! R5    R(2,3)                  1.5552         estimate D2E/DX2                !
 ! R6    R(2,12)                 1.4463         estimate D2E/DX2                !
 ! R7    R(2,16)                 1.0954         estimate D2E/DX2                !
 ! R8    R(3,4)                  1.4232         estimate D2E/DX2                !
 ! R9    R(3,17)                 1.0935         estimate D2E/DX2                !
 ! R10   R(3,18)                 1.0929         estimate D2E/DX2                !
 ! R11   R(4,5)                  1.3534         estimate D2E/DX2                !
 ! R12   R(5,6)                  1.4583         estimate D2E/DX2                !
 ! R13   R(5,12)                 1.2645         estimate D2E/DX2                !
 ! R14   R(6,7)                  1.2645         estimate D2E/DX2                !
 ! R15   R(6,11)                 1.3534         estimate D2E/DX2                !
 ! R16   R(7,8)                  1.4463         estimate D2E/DX2                !
 ! R17   R(8,9)                  1.5251         estimate D2E/DX2                !
 ! R18   R(8,10)                 1.5552         estimate D2E/DX2                !
 ! R19   R(8,19)                 1.0953         estimate D2E/DX2                !
 ! R20   R(9,20)                 1.0876         estimate D2E/DX2                !
 ! R21   R(9,21)                 1.0859         estimate D2E/DX2                !
 ! R22   R(9,22)                 1.0872         estimate D2E/DX2                !
 ! R23   R(10,11)                1.4232         estimate D2E/DX2                !
 ! R24   R(10,23)                1.0935         estimate D2E/DX2                !
 ! R25   R(10,24)                1.0929         estimate D2E/DX2                !
 ! A1    A(2,1,13)             110.2215         estimate D2E/DX2                !
 ! A2    A(2,1,14)             109.3476         estimate D2E/DX2                !
 ! A3    A(2,1,15)             110.0748         estimate D2E/DX2                !
 ! A4    A(13,1,14)            108.5299         estimate D2E/DX2                !
 ! A5    A(13,1,15)            109.3083         estimate D2E/DX2                !
 ! A6    A(14,1,15)            109.3314         estimate D2E/DX2                !
 ! A7    A(1,2,3)              113.4865         estimate D2E/DX2                !
 ! A8    A(1,2,12)             110.5783         estimate D2E/DX2                !
 ! A9    A(1,2,16)             109.1147         estimate D2E/DX2                !
 ! A10   A(3,2,12)             103.5142         estimate D2E/DX2                !
 ! A11   A(3,2,16)             111.8247         estimate D2E/DX2                !
 ! A12   A(12,2,16)            108.1007         estimate D2E/DX2                !
 ! A13   A(2,3,4)              104.2799         estimate D2E/DX2                !
 ! A14   A(2,3,17)             112.3815         estimate D2E/DX2                !
 ! A15   A(2,3,18)             113.1538         estimate D2E/DX2                !
 ! A16   A(4,3,17)             108.6999         estimate D2E/DX2                !
 ! A17   A(4,3,18)             108.653          estimate D2E/DX2                !
 ! A18   A(17,3,18)            109.4203         estimate D2E/DX2                !
 ! A19   A(3,4,5)              106.2272         estimate D2E/DX2                !
 ! A20   A(4,5,6)              116.9799         estimate D2E/DX2                !
 ! A21   A(4,5,12)             118.0116         estimate D2E/DX2                !
 ! A22   A(6,5,12)             125.0065         estimate D2E/DX2                !
 ! A23   A(5,6,7)              125.009          estimate D2E/DX2                !
 ! A24   A(5,6,11)             116.9795         estimate D2E/DX2                !
 ! A25   A(7,6,11)             118.011          estimate D2E/DX2                !
 ! A26   A(6,7,8)              107.9397         estimate D2E/DX2                !
 ! A27   A(7,8,9)              110.4913         estimate D2E/DX2                !
 ! A28   A(7,8,10)             103.5155         estimate D2E/DX2                !
 ! A29   A(7,8,19)             108.1703         estimate D2E/DX2                !
 ! A30   A(9,8,10)             113.4584         estimate D2E/DX2                !
 ! A31   A(9,8,19)             109.1346         estimate D2E/DX2                !
 ! A32   A(10,8,19)            111.8501         estimate D2E/DX2                !
 ! A33   A(8,9,20)             110.1931         estimate D2E/DX2                !
 ! A34   A(8,9,21)             109.3447         estimate D2E/DX2                !
 ! A35   A(8,9,22)             110.1004         estimate D2E/DX2                !
 ! A36   A(20,9,21)            108.5231         estimate D2E/DX2                !
 ! A37   A(20,9,22)            109.3099         estimate D2E/DX2                !
 ! A38   A(21,9,22)            109.3421         estimate D2E/DX2                !
 ! A39   A(8,10,11)            104.2748         estimate D2E/DX2                !
 ! A40   A(8,10,23)            112.4009         estimate D2E/DX2                !
 ! A41   A(8,10,24)            113.1393         estimate D2E/DX2                !
 ! A42   A(11,10,23)           108.6978         estimate D2E/DX2                !
 ! A43   A(11,10,24)           108.6564         estimate D2E/DX2                !
 ! A44   A(23,10,24)           109.4192         estimate D2E/DX2                !
 ! A45   A(6,11,10)            106.2283         estimate D2E/DX2                !
 ! A46   A(2,12,5)             107.9436         estimate D2E/DX2                !
 ! D1    D(13,1,2,3)           -54.8075         estimate D2E/DX2                !
 ! D2    D(13,1,2,12)           60.997          estimate D2E/DX2                !
 ! D3    D(13,1,2,16)          179.7702         estimate D2E/DX2                !
 ! D4    D(14,1,2,3)          -174.0355         estimate D2E/DX2                !
 ! D5    D(14,1,2,12)          -58.2309         estimate D2E/DX2                !
 ! D6    D(14,1,2,16)           60.5423         estimate D2E/DX2                !
 ! D7    D(15,1,2,3)            65.8415         estimate D2E/DX2                !
 ! D8    D(15,1,2,12)         -178.354          estimate D2E/DX2                !
 ! D9    D(15,1,2,16)          -59.5808         estimate D2E/DX2                !
 ! D10   D(1,2,3,4)            118.5092         estimate D2E/DX2                !
 ! D11   D(1,2,3,17)             0.9544         estimate D2E/DX2                !
 ! D12   D(1,2,3,18)          -123.5998         estimate D2E/DX2                !
 ! D13   D(12,2,3,4)            -1.3972         estimate D2E/DX2                !
 ! D14   D(12,2,3,17)         -118.952          estimate D2E/DX2                !
 ! D15   D(12,2,3,18)          116.4938         estimate D2E/DX2                !
 ! D16   D(16,2,3,4)          -117.5301         estimate D2E/DX2                !
 ! D17   D(16,2,3,17)          124.9151         estimate D2E/DX2                !
 ! D18   D(16,2,3,18)            0.3609         estimate D2E/DX2                !
 ! D19   D(1,2,12,5)          -120.378          estimate D2E/DX2                !
 ! D20   D(3,2,12,5)             1.496          estimate D2E/DX2                !
 ! D21   D(16,2,12,5)          120.2349         estimate D2E/DX2                !
 ! D22   D(2,3,4,5)              0.8369         estimate D2E/DX2                !
 ! D23   D(17,3,4,5)           120.9005         estimate D2E/DX2                !
 ! D24   D(18,3,4,5)          -120.1037         estimate D2E/DX2                !
 ! D25   D(3,4,5,6)            179.6372         estimate D2E/DX2                !
 ! D26   D(3,4,5,12)             0.1243         estimate D2E/DX2                !
 ! D27   D(4,5,6,7)            176.1263         estimate D2E/DX2                !
 ! D28   D(4,5,6,11)            -3.6083         estimate D2E/DX2                !
 ! D29   D(12,5,6,7)            -4.3988         estimate D2E/DX2                !
 ! D30   D(12,5,6,11)          175.8666         estimate D2E/DX2                !
 ! D31   D(4,5,12,2)            -1.1115         estimate D2E/DX2                !
 ! D32   D(6,5,12,2)           179.4185         estimate D2E/DX2                !
 ! D33   D(5,6,7,8)            179.0103         estimate D2E/DX2                !
 ! D34   D(11,6,7,8)            -1.2576         estimate D2E/DX2                !
 ! D35   D(5,6,11,10)          179.8815         estimate D2E/DX2                !
 ! D36   D(7,6,11,10)            0.1277         estimate D2E/DX2                !
 ! D37   D(6,7,8,9)           -120.0923         estimate D2E/DX2                !
 ! D38   D(6,7,8,10)             1.7043         estimate D2E/DX2                !
 ! D39   D(6,7,8,19)           120.5046         estimate D2E/DX2                !
 ! D40   D(7,8,9,20)            60.8093         estimate D2E/DX2                !
 ! D41   D(7,8,9,21)           -58.3912         estimate D2E/DX2                !
 ! D42   D(7,8,9,22)          -178.5414         estimate D2E/DX2                !
 ! D43   D(10,8,9,20)          -54.9217         estimate D2E/DX2                !
 ! D44   D(10,8,9,21)         -174.1221         estimate D2E/DX2                !
 ! D45   D(10,8,9,22)           65.7276         estimate D2E/DX2                !
 ! D46   D(19,8,9,20)          179.6279         estimate D2E/DX2                !
 ! D47   D(19,8,9,21)           60.4274         estimate D2E/DX2                !
 ! D48   D(19,8,9,22)          -59.7229         estimate D2E/DX2                !
 ! D49   D(7,8,10,11)           -1.5993         estimate D2E/DX2                !
 ! D50   D(7,8,10,23)         -119.1582         estimate D2E/DX2                !
 ! D51   D(7,8,10,24)          116.2851         estimate D2E/DX2                !
 ! D52   D(9,8,10,11)          118.1879         estimate D2E/DX2                !
 ! D53   D(9,8,10,23)            0.6291         estimate D2E/DX2                !
 ! D54   D(9,8,10,24)         -123.9277         estimate D2E/DX2                !
 ! D55   D(19,8,10,11)        -117.8264         estimate D2E/DX2                !
 ! D56   D(19,8,10,23)         124.6147         estimate D2E/DX2                !
 ! D57   D(19,8,10,24)           0.058          estimate D2E/DX2                !
 ! D58   D(8,10,11,6)            0.9654         estimate D2E/DX2                !
 ! D59   D(23,10,11,6)         121.0477         estimate D2E/DX2                !
 ! D60   D(24,10,11,6)        -119.9571         estimate D2E/DX2                !
 --------------------------------------------------------------------------------
 Trust Radius=3.00D-01 FncErr=1.00D-07 GrdErr=1.00D-06 EigMax=2.50D+02 EigMin=1.00D-04
 Number of steps in this run=    141 maximum allowed number of steps=    144.
 GradGradGradGradGradGradGradGradGradGradGradGradGradGradGradGradGradGrad

 Leave Link  103 at Sun Feb 25 22:28:15 2024, MaxMem=  7516192768 cpu:               1.5 elap:               0.1
 (Enter /public/apps/g16-C01//g16/l202.exe)
                          Input orientation:                          
 ---------------------------------------------------------------------
 Center     Atomic      Atomic             Coordinates (Angstroms)
 Number     Number       Type             X           Y           Z
 ---------------------------------------------------------------------
      1          6           0       -3.675049   -0.755089   -1.097582
      2          6           0       -2.811971    0.362870   -0.522368
      3          6           0       -2.721059    0.339420    1.029965
      4          8           0       -1.336546    0.147247    1.297662
      5          6           0       -0.722675    0.090542    0.092785
      6          6           0        0.723679   -0.095941    0.095277
      7          7           0        1.438423   -0.239405   -0.937942
      8          6           0        2.814479   -0.371864   -0.512850
      9          6           0        3.667886    0.740899   -1.112251
     10          6           0        2.722769   -0.314326    1.038544
     11          8           0        1.337467   -0.120954    1.301253
     12          7           0       -1.436717    0.211446   -0.943800
     13          1           0       -3.324384   -1.721330   -0.742396
     14          1           0       -3.607398   -0.740476   -2.181251
     15          1           0       -4.711550   -0.617169   -0.799793
     16          1           0       -3.177820    1.325987   -0.894357
     17          1           0       -3.281369   -0.491569    1.467375
     18          1           0       -3.039887    1.276463    1.493297
     19          1           0        3.188621   -1.339719   -0.863473
     20          1           0        3.306662    1.711425   -0.779978
     21          1           0        3.602279    0.700740   -2.195384
     22          1           0        4.705149    0.620483   -0.809619
     23          1           0        3.280013    0.527879    1.457982
     24          1           0        3.044496   -1.239967    1.522415
 ---------------------------------------------------------------------
                    Distance matrix (angstroms):
                    1          2          3          4          5
     1  C    0.000000
     2  C    1.524994   0.000000
     3  C    2.575753   1.555170   0.000000
     4  O    3.466987   2.352845   1.423190   0.000000
     5  C    3.293718   2.194934   2.221213   1.353433   0.000000
     6  C    4.605019   3.618399   3.595748   2.397790   1.458328
     7  N    5.141888   4.312921   4.637778   3.584394   2.416942
     8  C    6.527078   5.674228   5.790370   4.558337   3.618297
     9  C    7.493790   6.517623   6.750474   5.586094   4.599141
    10  C    6.759392   5.790370   5.482948   4.093682   3.595756
    11  O    5.593018   4.558236   4.093553   2.687432   2.397772
    12  N    2.442943   1.446326   2.358317   2.244617   1.264509
    13  H    1.087541   2.157515   2.784233   3.406599   3.278612
    14  H    1.085877   2.145220   3.501954   4.248253   3.766093
    15  H    1.087214   2.155421   2.867949   4.046517   4.148334
    16  H    2.149282   1.095361   2.210195   3.095911   2.920361
    17  H    2.608339   2.215734   1.093534   2.054075   2.962308
    18  H    3.353101   2.224748   1.092876   2.052991   2.955895
    19  H    6.892501   6.246780   6.428758   5.230555   4.272975
    20  H    7.411400   6.270776   6.441406   5.321900   4.429959
    21  H    7.502274   6.637450   7.107604   6.074514   4.930850
    22  H    8.497225   7.527016   7.655823   6.416125   5.527788
    23  H    7.519960   6.407908   6.019267   4.634997   4.251651
    24  H    7.228539   6.406905   5.998216   4.600914   4.243309
                    6          7          8          9         10
     6  C    0.000000
     7  N    1.264509   0.000000
     8  C    2.194857   1.446298   0.000000
     9  C    3.290407   2.441697   1.525066   0.000000
    10  C    2.221217   2.358316   1.555167   2.575396   0.000000
    11  O    1.353418   2.244597   2.352762   3.463906   1.423190
    12  N    2.416915   2.910280   4.312614   5.134751   4.637612
    13  H    4.441891   4.991860   6.289625   7.422345   6.459061
    14  H    4.935203   5.220843   6.645295   7.501133   7.114752
    15  H    5.533041   6.163113   7.535491   8.494523   7.664222
    16  H    4.268835   4.874633   6.239863   6.874118   6.422125
    17  H    4.252009   5.303355   6.410537   7.514359   6.022042
    18  H    4.242921   5.316393   6.404312   7.215950   5.995466
    19  H    2.922691   2.068678   1.095291   2.149548   2.210456
    20  H    3.271765   2.705736   2.157242   1.087570   2.784173
    21  H    3.764062   2.673445   2.145234   1.085861   3.501741
    22  H    4.145383   3.380440   2.155796   1.087199   2.866950
    23  H    2.963268   3.117793   2.215951   2.608049   1.093507
    24  H    2.954947   3.103861   2.224593   3.354685   1.092909
                   11         12         13         14         15
    11  O    0.000000
    12  N    3.584250   0.000000
    13  H    5.335781   2.709146   0.000000
    14  H    6.079748   2.673817   1.764221   0.000000
    15  H    6.422712   3.381105   1.773893   1.772789   0.000000
    16  H    5.225147   2.067870   3.054622   2.472024   2.477322
    17  H    4.636658   3.116205   2.529279   3.671610   2.683513
    18  H    4.599009   3.105456   3.750470   4.229943   3.411534
    19  H    3.098096   4.879172   6.525299   6.948489   7.933400
    20  H    3.401009   4.977592   7.466993   7.468575   8.349519
    21  H    4.246295   5.215108   7.480392   7.352329   8.532544
    22  H    4.043117   6.156934   8.364329   8.534168   9.497689
    23  H    2.054029   5.302474   7.315645   7.892349   8.382945
    24  H    2.053059   5.316962   6.776704   7.629831   8.120146
                   16         17         18         19         20
    16  H    0.000000
    17  H    2.981947   0.000000
    18  H    2.392148   1.784635   0.000000
    19  H    6.902066   6.929140   7.154934   0.000000
    20  H    6.496934   7.301091   6.755417   3.054568   0.000000
    21  H    6.932052   7.888093   7.619462   2.471553   1.764156
    22  H    7.914930   8.378892   8.106745   2.478941   1.773922
    23  H    6.919110   6.640113   6.364178   2.980844   2.531789
    24  H    7.151372   6.370220   6.584298   2.392318   3.752394
                   21         22         23         24
    21  H    0.000000
    22  H    1.772881   0.000000
    23  H    3.671624   2.679851   0.000000
    24  H    4.230779   3.414297   1.784629   0.000000
 Symmetry turned off by external request.
 Stoichiometry    C8H12N2O2
 Framework group  C1[X(C8H12N2O2)]
 Deg. of freedom    66
 Full point group                 C1      NOp   1
 Rotational constants (GHZ):           2.5353198           0.5007796           0.4449197
 Leave Link  202 at Sun Feb 25 22:28:15 2024, MaxMem=  7516192768 cpu:               1.6 elap:               0.1
 (Enter /public/apps/g16-C01//g16/l301.exe)
 Standard basis: def2SVPP (5D, 7F)
 Ernie: Thresh=  0.10000D-02 Tol=  0.10000D-05 Strict=F.
   192 basis functions,   348 primitive gaussians,   204 cartesian basis functions
    45 alpha electrons       45 beta electrons
       nuclear repulsion energy       721.0620025417 Hartrees.
 IExCor=  402 DFT=T Ex+Corr=B3LYP ExCW=0 ScaHFX=  0.200000
 ScaDFX=  0.800000  0.720000  1.000000  0.810000 ScalE2=  1.000000  1.000000
 IRadAn=      5 IRanWt=     -1 IRanGd=            0 ICorTp=0 IEmpDi=141
 NAtoms=   24 NActive=   24 NUniq=   24 SFac= 1.00D+00 NAtFMM=   60 NAOKFM=F Big=F
 Integral buffers will be    131072 words long.
 Raffenetti 2 integral format.
 Two-electron integral symmetry is turned off.
 R6Disp:  Grimme-D3(BJ) Dispersion energy=       -0.0381159533 Hartrees.
 Nuclear repulsion after empirical dispersion term =      721.0238865883 Hartrees.
 Leave Link  301 at Sun Feb 25 22:28:15 2024, MaxMem=  7516192768 cpu:               1.1 elap:               0.0
 (Enter /public/apps/g16-C01//g16/l302.exe)
 NPDir=0 NMtPBC=     1 NCelOv=     1 NCel=       1 NClECP=     1 NCelD=      1
         NCelK=      1 NCelE2=     1 NClLst=     1 CellRange=     0.0.
 One-electron integrals computed using PRISM.
   1 Symmetry operations used in ECPInt.
 ECPInt:  NShTT=    4656 NPrTT=   18720 LenC2=    4509 LenP2D=   13069.
 LDataN:  DoStor=T MaxTD1= 4 Len=   56
 NBasis=   192 RedAO= T EigKep=  9.97D-04  NBF=   192
 NBsUse=   192 1.00D-06 EigRej= -1.00D+00 NBFU=   192
 Precomputing XC quadrature grid using
 IXCGrd= 4 IRadAn=           5 IRanWt=          -1 IRanGd=           0 AccXCQ= 0.00D+00.
 Generated NRdTot=       0 NPtTot=           0 NUsed=           0 NTot=          32
 NSgBfM=   202   202   202   202   202 MxSgAt=    24 MxSgA2=    24.
 Leave Link  302 at Sun Feb 25 22:28:15 2024, MaxMem=  7516192768 cpu:              11.1 elap:               0.3
 (Enter /public/apps/g16-C01//g16/l303.exe)
 DipDrv:  MaxL=1.
 Leave Link  303 at Sun Feb 25 22:28:15 2024, MaxMem=  7516192768 cpu:               4.5 elap:               0.1
 (Enter /public/apps/g16-C01//g16/l401.exe)
 ExpMin= 1.22D-01 ExpMax= 2.27D+03 ExpMxC= 3.41D+02 IAcc=3 IRadAn=         5 AccDes= 0.00D+00
 Harris functional with IExCor=  402 and IRadAn=       5 diagonalized for initial guess.
 HarFok:  IExCor=  402 AccDes= 0.00D+00 IRadAn=         5 IDoV= 1 UseB2=F ITyADJ=14
 ICtDFT=  3500011 ScaDFX=  1.000000  1.000000  1.000000  1.000000
 FoFCou: FMM=F IPFlag=           0 FMFlag=      100000 FMFlg1=           0
         NFxFlg=           0 DoJE=T BraDBF=F KetDBF=T FulRan=T
         wScrn=  0.000000 ICntrl=       500 IOpCl=  0 I1Cent=   200000004 NGrid=           0
         NMat0=    1 NMatS0=      1 NMatT0=    0 NMatD0=    1 NMtDS0=    0 NMtDT0=    0
 Symmetry not used in FoFCou.
 Harris En= -571.558396531885    
 JPrj=0 DoOrth=F DoCkMO=F.
 Leave Link  401 at Sun Feb 25 22:28:16 2024, MaxMem=  7516192768 cpu:              13.8 elap:               0.4
 (Enter /public/apps/g16-C01//g16/l502.exe)
 Two-electron integral symmetry not used.
 Closed shell SCF:
 Using DIIS extrapolation, IDIIS=  1040.
 NGot=  7516192768 LenX=  7516098894 LenY=  7516056837
 Requested convergence on RMS density matrix=1.00D-08 within 128 cycles.
 Requested convergence on MAX density matrix=1.00D-06.
 Requested convergence on             energy=1.00D-06.
 No special actions if energy rises.
 Fock matrices will be formed incrementally for  20 cycles.
 Integral accuracy reduced to 1.0D-05 until final iterations.

 Cycle   1  Pass 0  IDiag  1:
 FoFJK:  IHMeth= 1 ICntrl=       0 DoSepK=F KAlg= 0 I1Cent=           0 FoldK=F
 IRaf= 920000000 NMat=       1 IRICut=       1 DoRegI=T DoRafI=F ISym2E= 0 IDoP0=0 IntGTp=1.
 FoFCou: FMM=F IPFlag=           0 FMFlag=      100000 FMFlg1=           0
         NFxFlg=           0 DoJE=F BraDBF=F KetDBF=F FulRan=T
         wScrn=  0.000000 ICntrl=         0 IOpCl=  0 I1Cent=           0 NGrid=           0
         NMat0=    1 NMatS0=      1 NMatT0=    0 NMatD0=    1 NMtDS0=    0 NMtDT0=    0
 Symmetry not used in FoFCou.
 E= -571.315775539147    
 DIIS: error= 3.28D-02 at cycle   1 NSaved=   1.
 NSaved= 1 IEnMin= 1 EnMin= -571.315775539147     IErMin= 1 ErrMin= 3.28D-02
 ErrMax= 3.28D-02  0.00D+00 EMaxC= 1.00D-01 BMatC= 2.67D-01 BMatP= 2.67D-01
 IDIUse=3 WtCom= 6.72D-01 WtEn= 3.28D-01
 Coeff-Com:  0.100D+01
 Coeff-En:   0.100D+01
 Coeff:      0.100D+01
 Gap=     0.157 Goal=   None    Shift=    0.000
 GapD=    0.157 DampG=1.000 DampE=0.500 DampFc=0.5000 IDamp=-1.
 Damping current iteration by 5.00D-01
 RMSDP=7.49D-03 MaxDP=1.78D-01              OVMax= 2.66D-01

 Cycle   2  Pass 0  IDiag  1:
 RMSU=  3.74D-03    CP:  9.90D-01
 E= -571.400650272933     Delta-E=       -0.084874733786 Rises=F Damp=T
 DIIS: error= 1.09D-02 at cycle   2 NSaved=   2.
 NSaved= 2 IEnMin= 2 EnMin= -571.400650272933     IErMin= 2 ErrMin= 1.09D-02
 ErrMax= 1.09D-02  0.00D+00 EMaxC= 1.00D-01 BMatC= 3.70D-02 BMatP= 2.67D-01
 IDIUse=3 WtCom= 8.91D-01 WtEn= 1.09D-01
 Coeff-Com:  0.190D+00 0.810D+00
 Coeff-En:   0.301D+00 0.699D+00
 Coeff:      0.202D+00 0.798D+00
 Gap=     0.228 Goal=   None    Shift=    0.000
 RMSDP=2.50D-03 MaxDP=6.38D-02 DE=-8.49D-02 OVMax= 2.38D-01

 Cycle   3  Pass 0  IDiag  1:
 RMSU=  2.36D-03    CP:  9.82D-01  7.87D-01
 E= -571.544062595070     Delta-E=       -0.143412322137 Rises=F Damp=F
 DIIS: error= 1.17D-02 at cycle   3 NSaved=   3.
 NSaved= 3 IEnMin= 3 EnMin= -571.544062595070     IErMin= 2 ErrMin= 1.09D-02
 ErrMax= 1.17D-02  0.00D+00 EMaxC= 1.00D-01 BMatC= 4.34D-02 BMatP= 3.70D-02
 IDIUse=2 WtCom= 0.00D+00 WtEn= 1.00D+00
 Coeff-En:   0.000D+00 0.000D+00 0.100D+01
 Coeff:      0.000D+00 0.000D+00 0.100D+01
 Gap=     0.192 Goal=   None    Shift=    0.000
 RMSDP=3.65D-03 MaxDP=9.89D-02 DE=-1.43D-01 OVMax= 2.25D-01

 Cycle   4  Pass 0  IDiag  1:
 RMSU=  1.71D-03    CP:  9.92D-01  1.23D+00 -1.73D-01
 E= -571.378522846932     Delta-E=        0.165539748138 Rises=F Damp=F
 DIIS: error= 3.20D-02 at cycle   4 NSaved=   4.
 NSaved= 4 IEnMin= 3 EnMin= -571.544062595070     IErMin= 2 ErrMin= 1.09D-02
 ErrMax= 3.20D-02  0.00D+00 EMaxC= 1.00D-01 BMatC= 2.34D-01 BMatP= 3.70D-02
 IDIUse=2 WtCom= 0.00D+00 WtEn= 1.00D+00
 Coeff-En:   0.000D+00 0.000D+00 0.784D+00 0.216D+00
 Coeff:      0.000D+00 0.000D+00 0.784D+00 0.216D+00
 Gap=     0.212 Goal=   None    Shift=    0.000
 RMSDP=1.95D-03 MaxDP=5.26D-02 DE= 1.66D-01 OVMax= 1.01D-01

 Cycle   5  Pass 0  IDiag  1:
 RMSU=  2.63D-04    CP:  9.87D-01  9.18D-01  3.83D-01  5.10D-01
 E= -571.568984794282     Delta-E=       -0.190461947350 Rises=F Damp=F
 DIIS: error= 8.06D-03 at cycle   5 NSaved=   5.
 NSaved= 5 IEnMin= 5 EnMin= -571.568984794282     IErMin= 5 ErrMin= 8.06D-03
 ErrMax= 8.06D-03  0.00D+00 EMaxC= 1.00D-01 BMatC= 1.64D-02 BMatP= 3.70D-02
 IDIUse=3 WtCom= 9.19D-01 WtEn= 8.06D-02
 Coeff-Com: -0.732D-02 0.357D-01 0.268D+00-0.117D+00 0.821D+00
 Coeff-En:   0.000D+00 0.000D+00 0.319D+00 0.000D+00 0.681D+00
 Coeff:     -0.673D-02 0.329D-01 0.272D+00-0.107D+00 0.809D+00
 Gap=     0.200 Goal=   None    Shift=    0.000
 RMSDP=6.88D-04 MaxDP=1.82D-02 DE=-1.90D-01 OVMax= 4.28D-02

 Cycle   6  Pass 0  IDiag  1:
 RMSU=  6.20D-05    CP:  9.85D-01  8.51D-01  6.05D-01  2.99D-01  8.97D-01
 E= -571.583524807548     Delta-E=       -0.014540013266 Rises=F Damp=F
 DIIS: error= 1.72D-04 at cycle   6 NSaved=   6.
 NSaved= 6 IEnMin= 6 EnMin= -571.583524807548     IErMin= 6 ErrMin= 1.72D-04
 ErrMax= 1.72D-04  0.00D+00 EMaxC= 1.00D-01 BMatC= 1.62D-05 BMatP= 1.64D-02
 IDIUse=3 WtCom= 9.98D-01 WtEn= 1.72D-03
 Coeff-Com: -0.450D-02 0.120D-01 0.921D-01-0.521D-01 0.339D+00 0.614D+00
 Coeff-En:   0.000D+00 0.000D+00 0.000D+00 0.000D+00 0.000D+00 0.100D+01
 Coeff:     -0.449D-02 0.120D-01 0.920D-01-0.520D-01 0.338D+00 0.614D+00
 Gap=     0.200 Goal=   None    Shift=    0.000
 RMSDP=2.64D-05 MaxDP=6.67D-04 DE=-1.45D-02 OVMax= 1.13D-03

 Cycle   7  Pass 0  IDiag  1:
 RMSU=  1.31D-05    CP:  9.85D-01  8.54D-01  6.02D-01  3.05D-01  8.97D-01
                    CP:  7.61D-01
 E= -571.583539290271     Delta-E=       -0.000014482723 Rises=F Damp=F
 DIIS: error= 4.94D-05 at cycle   7 NSaved=   7.
 NSaved= 7 IEnMin= 7 EnMin= -571.583539290271     IErMin= 7 ErrMin= 4.94D-05
 ErrMax= 4.94D-05  0.00D+00 EMaxC= 1.00D-01 BMatC= 8.50D-07 BMatP= 1.62D-05
 IDIUse=1 WtCom= 1.00D+00 WtEn= 0.00D+00
 Coeff-Com: -0.874D-03 0.110D-02 0.187D-01-0.105D-01 0.702D-01 0.247D+00
 Coeff-Com:  0.674D+00
 Coeff:     -0.874D-03 0.110D-02 0.187D-01-0.105D-01 0.702D-01 0.247D+00
 Coeff:      0.674D+00
 Gap=     0.201 Goal=   None    Shift=    0.000
 RMSDP=6.46D-06 MaxDP=1.39D-04 DE=-1.45D-05 OVMax= 1.28D-04

 Initial convergence to 1.0D-05 achieved.  Increase integral accuracy.
 Cycle   8  Pass 1  IDiag  1:
 E= -571.583542890596     Delta-E=       -0.000003600325 Rises=F Damp=F
 DIIS: error= 2.47D-05 at cycle   1 NSaved=   1.
 NSaved= 1 IEnMin= 1 EnMin= -571.583542890596     IErMin= 1 ErrMin= 2.47D-05
 ErrMax= 2.47D-05  0.00D+00 EMaxC= 1.00D-01 BMatC= 1.25D-07 BMatP= 1.25D-07
 IDIUse=1 WtCom= 1.00D+00 WtEn= 0.00D+00
 Coeff-Com:  0.100D+01
 Coeff:      0.100D+01
 Gap=     0.201 Goal=   None    Shift=    0.000
 RMSDP=6.46D-06 MaxDP=1.39D-04 DE=-3.60D-06 OVMax= 1.39D-04

 Cycle   9  Pass 1  IDiag  1:
 RMSU=  1.77D-05    CP:  1.00D+00
 E= -571.583542931070     Delta-E=       -0.000000040474 Rises=F Damp=F
 DIIS: error= 1.80D-05 at cycle   2 NSaved=   2.
 NSaved= 2 IEnMin= 2 EnMin= -571.583542931070     IErMin= 2 ErrMin= 1.80D-05
 ErrMax= 1.80D-05  0.00D+00 EMaxC= 1.00D-01 BMatC= 1.08D-07 BMatP= 1.25D-07
 IDIUse=1 WtCom= 1.00D+00 WtEn= 0.00D+00
 Coeff-Com:  0.475D+00 0.525D+00
 Coeff:      0.475D+00 0.525D+00
 Gap=     0.201 Goal=   None    Shift=    0.000
 RMSDP=3.06D-06 MaxDP=7.58D-05 DE=-4.05D-08 OVMax= 1.79D-04

 Cycle  10  Pass 1  IDiag  1:
 RMSU=  3.05D-06    CP:  1.00D+00  9.92D-01
 E= -571.583542990855     Delta-E=       -0.000000059785 Rises=F Damp=F
 DIIS: error= 1.36D-05 at cycle   3 NSaved=   3.
 NSaved= 3 IEnMin= 3 EnMin= -571.583542990855     IErMin= 3 ErrMin= 1.36D-05
 ErrMax= 1.36D-05  0.00D+00 EMaxC= 1.00D-01 BMatC= 4.71D-08 BMatP= 1.08D-07
 IDIUse=1 WtCom= 1.00D+00 WtEn= 0.00D+00
 Coeff-Com:  0.864D-01 0.386D+00 0.528D+00
 Coeff:      0.864D-01 0.386D+00 0.528D+00
 Gap=     0.201 Goal=   None    Shift=    0.000
 RMSDP=1.42D-06 MaxDP=4.00D-05 DE=-5.98D-08 OVMax= 9.04D-05

 Cycle  11  Pass 1  IDiag  1:
 RMSU=  1.04D-06    CP:  1.00D+00  1.01D+00  6.97D-01
 E= -571.583543027827     Delta-E=       -0.000000036972 Rises=F Damp=F
 DIIS: error= 3.33D-06 at cycle   4 NSaved=   4.
 NSaved= 4 IEnMin= 4 EnMin= -571.583543027827     IErMin= 4 ErrMin= 3.33D-06
 ErrMax= 3.33D-06  0.00D+00 EMaxC= 1.00D-01 BMatC= 4.71D-09 BMatP= 4.71D-08
 IDIUse=1 WtCom= 1.00D+00 WtEn= 0.00D+00
 Coeff-Com: -0.287D-02 0.179D+00 0.329D+00 0.494D+00
 Coeff:     -0.287D-02 0.179D+00 0.329D+00 0.494D+00
 Gap=     0.201 Goal=   None    Shift=    0.000
 RMSDP=4.91D-07 MaxDP=9.59D-06 DE=-3.70D-08 OVMax= 1.68D-05

 Cycle  12  Pass 1  IDiag  1:
 RMSU=  1.10D-07    CP:  1.00D+00  1.01D+00  6.85D-01  5.40D-01
 E= -571.583543032231     Delta-E=       -0.000000004404 Rises=F Damp=F
 DIIS: error= 3.54D-07 at cycle   5 NSaved=   5.
 NSaved= 5 IEnMin= 5 EnMin= -571.583543032231     IErMin= 5 ErrMin= 3.54D-07
 ErrMax= 3.54D-07  0.00D+00 EMaxC= 1.00D-01 BMatC= 5.16D-11 BMatP= 4.71D-09
 IDIUse=1 WtCom= 1.00D+00 WtEn= 0.00D+00
 Coeff-Com: -0.277D-02 0.913D-01 0.169D+00 0.265D+00 0.477D+00
 Coeff:     -0.277D-02 0.913D-01 0.169D+00 0.265D+00 0.477D+00
 Gap=     0.201 Goal=   None    Shift=    0.000
 RMSDP=4.22D-08 MaxDP=8.34D-07 DE=-4.40D-09 OVMax= 1.01D-06

 Cycle  13  Pass 1  IDiag  1:
 RMSU=  3.42D-08    CP:  1.00D+00  1.01D+00  6.84D-01  5.40D-01  7.82D-01
 E= -571.583543032276     Delta-E=       -0.000000000045 Rises=F Damp=F
 DIIS: error= 6.54D-08 at cycle   6 NSaved=   6.
 NSaved= 6 IEnMin= 6 EnMin= -571.583543032276     IErMin= 6 ErrMin= 6.54D-08
 ErrMax= 6.54D-08  0.00D+00 EMaxC= 1.00D-01 BMatC= 1.52D-12 BMatP= 5.16D-11
 IDIUse=1 WtCom= 1.00D+00 WtEn= 0.00D+00
 Coeff-Com: -0.923D-03 0.262D-01 0.479D-01 0.793D-01 0.194D+00 0.653D+00
 Coeff:     -0.923D-03 0.262D-01 0.479D-01 0.793D-01 0.194D+00 0.653D+00
 Gap=     0.201 Goal=   None    Shift=    0.000
 RMSDP=8.60D-09 MaxDP=1.76D-07 DE=-4.52D-11 OVMax= 2.57D-07

 SCF Done:  E(RB3LYP) =  -571.583543032     A.U. after   13 cycles
            NFock= 13  Conv=0.86D-08     -V/T= 2.0084
 KE= 5.668124510701D+02 PE=-2.773360992704D+03 EE= 9.139411120131D+02
 Leave Link  502 at Sun Feb 25 22:28:19 2024, MaxMem=  7516192768 cpu:             118.3 elap:               3.1
 (Enter /public/apps/g16-C01//g16/l601.exe)
 Copying SCF densities to generalized density rwf, IOpCl= 0 IROHF=0.

 **********************************************************************

            Population analysis using the SCF Density.

 **********************************************************************

 Alpha  occ. eigenvalues --  -19.16966 -19.16955 -14.30745 -14.30737 -10.27950
 Alpha  occ. eigenvalues --  -10.27935 -10.23789 -10.23788 -10.21962 -10.21960
 Alpha  occ. eigenvalues --  -10.17424 -10.17422  -1.09982  -1.08254  -0.91574
 Alpha  occ. eigenvalues --   -0.89829  -0.80646  -0.76810  -0.71451  -0.69032
 Alpha  occ. eigenvalues --   -0.64239  -0.61073  -0.59844  -0.54875  -0.52601
 Alpha  occ. eigenvalues --   -0.51445  -0.49801  -0.46992  -0.46720  -0.45205
 Alpha  occ. eigenvalues --   -0.43315  -0.41862  -0.41515  -0.40379  -0.39228
 Alpha  occ. eigenvalues --   -0.39094  -0.37680  -0.37367  -0.35408  -0.34557
 Alpha  occ. eigenvalues --   -0.33851  -0.28084  -0.26931  -0.26582  -0.24239
 Alpha virt. eigenvalues --   -0.04187   0.05706   0.06079   0.08815   0.09054
 Alpha virt. eigenvalues --    0.09296   0.09978   0.11201   0.11590   0.12139
 Alpha virt. eigenvalues --    0.13296   0.13467   0.14106   0.14159   0.15485
 Alpha virt. eigenvalues --    0.15846   0.15899   0.19894   0.20846   0.22460
 Alpha virt. eigenvalues --    0.24657   0.25031   0.27293   0.30513   0.36051
 Alpha virt. eigenvalues --    0.38447   0.40060   0.40324   0.41257   0.42095
 Alpha virt. eigenvalues --    0.43890   0.45992   0.47722   0.48403   0.51320
 Alpha virt. eigenvalues --    0.51799   0.53627   0.54301   0.56414   0.57041
 Alpha virt. eigenvalues --    0.58133   0.59326   0.59935   0.62156   0.63316
 Alpha virt. eigenvalues --    0.63739   0.64653   0.65536   0.65865   0.66892
 Alpha virt. eigenvalues --    0.67215   0.67555   0.68713   0.69502   0.69951
 Alpha virt. eigenvalues --    0.70460   0.70585   0.71398   0.72731   0.73731
 Alpha virt. eigenvalues --    0.74213   0.75020   0.76121   0.78535   0.80876
 Alpha virt. eigenvalues --    0.81635   0.85325   0.85439   0.89937   0.91086
 Alpha virt. eigenvalues --    0.91261   0.94516   0.96166   0.98547   1.05411
 Alpha virt. eigenvalues --    1.06438   1.09213   1.10812   1.13950   1.16578
 Alpha virt. eigenvalues --    1.29307   1.30125   1.34671   1.38371   1.41490
 Alpha virt. eigenvalues --    1.47173   1.47762   1.51173   1.53985   1.56789
 Alpha virt. eigenvalues --    1.62605   1.65307   1.70359   1.71920   1.77046
 Alpha virt. eigenvalues --    1.77958   1.78680   1.82086   1.84435   1.85226
 Alpha virt. eigenvalues --    1.85542   1.88354   1.91099   1.91757   1.95201
 Alpha virt. eigenvalues --    1.98368   1.99639   1.99936   2.00152   2.01337
 Alpha virt. eigenvalues --    2.03240   2.07113   2.10031   2.13247   2.13312
 Alpha virt. eigenvalues --    2.17517   2.17651   2.21579   2.21683   2.27281
 Alpha virt. eigenvalues --    2.28921   2.36631   2.44547   2.47117   2.52672
 Alpha virt. eigenvalues --    2.53779   2.57000   2.63071   2.63130   2.66414
 Alpha virt. eigenvalues --    2.73863   2.76394   2.83637   2.87206   2.90219
 Alpha virt. eigenvalues --    2.91365   2.93028   3.01545   3.02662   3.07395
 Alpha virt. eigenvalues --    3.14393   3.15924   3.25525   3.29108   3.46978
 Alpha virt. eigenvalues --    3.50480   3.71455
          Condensed to atoms (all electrons):
               1          2          3          4          5          6
     1  C    4.834889   0.411575  -0.040722   0.003182  -0.001076  -0.001049
     2  C    0.411575   4.808729   0.337117  -0.071217  -0.079170   0.022019
     3  C   -0.040722   0.337117   4.777996   0.336748  -0.110163   0.001008
     4  O    0.003182  -0.071217   0.336748   7.857564   0.422794  -0.104454
     5  C   -0.001076  -0.079170  -0.110163   0.422794   5.308012  -0.074093
     6  C   -0.001049   0.022019   0.001008  -0.104454  -0.074093   5.307939
     7  N    0.000027  -0.000374  -0.000067   0.000955  -0.123079   0.646066
     8  C   -0.000000   0.000005   0.000040  -0.000165   0.022077  -0.078999
     9  C    0.000000  -0.000000  -0.000000   0.000001  -0.001050  -0.001081
    10  C   -0.000000   0.000040  -0.000000  -0.000097   0.001025  -0.110191
    11  O    0.000001  -0.000165  -0.000096   0.005461  -0.104522   0.422895
    12  N   -0.067563   0.376467  -0.060683  -0.098606   0.646330  -0.123089
    13  H    0.364537  -0.012963  -0.010569   0.000192   0.004781  -0.000670
    14  H    0.363423  -0.014077   0.009556  -0.000069  -0.000774  -0.000155
    15  H    0.358916  -0.016645  -0.003098  -0.000038  -0.000053   0.000029
    16  H   -0.033933   0.343339  -0.024293   0.003320   0.004548  -0.000792
    17  H   -0.011371  -0.013620   0.353539  -0.029444   0.008212   0.000177
    18  H    0.005790   0.001031   0.342672  -0.029609   0.007671   0.000248
    19  H   -0.000000  -0.000000  -0.000001   0.000003  -0.000803   0.004465
    20  H   -0.000000  -0.000001  -0.000001   0.000000  -0.000690   0.004852
    21  H   -0.000000   0.000000  -0.000000   0.000000  -0.000154  -0.000784
    22  H   -0.000000   0.000000   0.000000  -0.000000   0.000028  -0.000056
    23  H   -0.000000  -0.000001   0.000001  -0.000000   0.000174   0.008191
    24  H    0.000000  -0.000001   0.000000   0.000003   0.000250   0.007694
               7          8          9         10         11         12
     1  C    0.000027  -0.000000   0.000000  -0.000000   0.000001  -0.067563
     2  C   -0.000374   0.000005  -0.000000   0.000040  -0.000165   0.376467
     3  C   -0.000067   0.000040  -0.000000  -0.000000  -0.000096  -0.060683
     4  O    0.000955  -0.000165   0.000001  -0.000097   0.005461  -0.098606
     5  C   -0.123079   0.022077  -0.001050   0.001025  -0.104522   0.646330
     6  C    0.646066  -0.078999  -0.001081  -0.110191   0.422895  -0.123089
     7  N    6.457122   0.376074  -0.067836  -0.060640  -0.098575   0.003430
     8  C    0.376074   4.809685   0.411129   0.336855  -0.071240  -0.000374
     9  C   -0.067836   0.411129   4.835570  -0.040607   0.003185   0.000029
    10  C   -0.060640   0.336855  -0.040607   4.778080   0.336756  -0.000067
    11  O   -0.098575  -0.071240   0.003185   0.336756   7.857502   0.000952
    12  N    0.003430  -0.000374   0.000029  -0.000067   0.000952   6.456567
    13  H   -0.000012  -0.000001  -0.000000  -0.000001   0.000000  -0.001445
    14  H    0.000004   0.000000  -0.000000  -0.000000   0.000000   0.005320
    15  H   -0.000000   0.000000  -0.000000   0.000000  -0.000000   0.005966
    16  H    0.000021  -0.000000  -0.000000  -0.000001   0.000003  -0.028562
    17  H    0.000002  -0.000001  -0.000000   0.000001  -0.000000   0.002723
    18  H    0.000001  -0.000001   0.000000   0.000000   0.000003   0.002004
    19  H   -0.028327   0.343540  -0.033986  -0.024359   0.003310   0.000020
    20  H   -0.001474  -0.013000   0.364612  -0.010513   0.000203  -0.000013
    21  H    0.005353  -0.014106   0.363412   0.009556  -0.000070   0.000004
    22  H    0.005990  -0.016704   0.358889  -0.003120  -0.000040  -0.000000
    23  H    0.002783  -0.013534  -0.011403   0.353539  -0.029402   0.000002
    24  H    0.001947   0.000931   0.005831   0.342695  -0.029660   0.000001
              13         14         15         16         17         18
     1  C    0.364537   0.363423   0.358916  -0.033933  -0.011371   0.005790
     2  C   -0.012963  -0.014077  -0.016645   0.343339  -0.013620   0.001031
     3  C   -0.010569   0.009556  -0.003098  -0.024293   0.353539   0.342672
     4  O    0.000192  -0.000069  -0.000038   0.003320  -0.029444  -0.029609
     5  C    0.004781  -0.000774  -0.000053   0.004548   0.008212   0.007671
     6  C   -0.000670  -0.000155   0.000029  -0.000792   0.000177   0.000248
     7  N   -0.000012   0.000004  -0.000000   0.000021   0.000002   0.000001
     8  C   -0.000001   0.000000   0.000000  -0.000000  -0.000001  -0.000001
     9  C   -0.000000  -0.000000  -0.000000  -0.000000  -0.000000   0.000000
    10  C   -0.000001  -0.000000   0.000000  -0.000001   0.000001   0.000000
    11  O    0.000000   0.000000  -0.000000   0.000003  -0.000000   0.000003
    12  N   -0.001445   0.005320   0.005966  -0.028562   0.002723   0.002004
    13  H    0.600224  -0.021498  -0.024338   0.008578   0.007181  -0.000094
    14  H   -0.021498   0.575078  -0.017631  -0.005561   0.000242  -0.000524
    15  H   -0.024338  -0.017631   0.609425  -0.003652   0.001940  -0.000174
    16  H    0.008578  -0.005561  -0.003652   0.664928   0.006931  -0.012903
    17  H    0.007181   0.000242   0.001940   0.006931   0.627555  -0.037793
    18  H   -0.000094  -0.000524  -0.000174  -0.012903  -0.037793   0.631668
    19  H    0.000000   0.000000   0.000000   0.000000   0.000000   0.000000
    20  H    0.000000   0.000000   0.000000   0.000000   0.000000   0.000000
    21  H    0.000000  -0.000000  -0.000000   0.000000   0.000000   0.000000
    22  H    0.000000  -0.000000   0.000000   0.000000   0.000000  -0.000000
    23  H    0.000000   0.000000   0.000000   0.000000   0.000000  -0.000000
    24  H    0.000000   0.000000  -0.000000   0.000000  -0.000000   0.000000
              19         20         21         22         23         24
     1  C   -0.000000  -0.000000  -0.000000  -0.000000  -0.000000   0.000000
     2  C   -0.000000  -0.000001   0.000000   0.000000  -0.000001  -0.000001
     3  C   -0.000001  -0.000001  -0.000000   0.000000   0.000001   0.000000
     4  O    0.000003   0.000000   0.000000  -0.000000  -0.000000   0.000003
     5  C   -0.000803  -0.000690  -0.000154   0.000028   0.000174   0.000250
     6  C    0.004465   0.004852  -0.000784  -0.000056   0.008191   0.007694
     7  N   -0.028327  -0.001474   0.005353   0.005990   0.002783   0.001947
     8  C    0.343540  -0.013000  -0.014106  -0.016704  -0.013534   0.000931
     9  C   -0.033986   0.364612   0.363412   0.358889  -0.011403   0.005831
    10  C   -0.024359  -0.010513   0.009556  -0.003120   0.353539   0.342695
    11  O    0.003310   0.000203  -0.000070  -0.000040  -0.029402  -0.029660
    12  N    0.000020  -0.000013   0.000004  -0.000000   0.000002   0.000001
    13  H    0.000000   0.000000   0.000000   0.000000   0.000000   0.000000
    14  H    0.000000   0.000000  -0.000000  -0.000000   0.000000   0.000000
    15  H    0.000000   0.000000  -0.000000   0.000000   0.000000  -0.000000
    16  H    0.000000   0.000000   0.000000   0.000000   0.000000   0.000000
    17  H    0.000000   0.000000   0.000000   0.000000   0.000000  -0.000000
    18  H    0.000000   0.000000   0.000000  -0.000000  -0.000000   0.000000
    19  H    0.664674   0.008571  -0.005585  -0.003611   0.006909  -0.012869
    20  H    0.008571   0.600156  -0.021497  -0.024333   0.007094  -0.000091
    21  H   -0.005585  -0.021497   0.575117  -0.017620   0.000244  -0.000524
    22  H   -0.003611  -0.024333  -0.017620   0.609415   0.001987  -0.000181
    23  H    0.006909   0.007094   0.000244   0.001987   0.627447  -0.037816
    24  H   -0.012869  -0.000091  -0.000524  -0.000181  -0.037816   0.631812
 Mulliken charges:
               1
     1  C   -0.186626
     2  C   -0.092089
     3  C    0.091017
     4  O   -0.296523
     5  C    0.069723
     6  C    0.069830
     7  N   -0.119391
     8  C   -0.092210
     9  C   -0.186697
    10  C    0.091048
    11  O   -0.296498
    12  N   -0.119412
    13  H    0.086096
    14  H    0.106667
    15  H    0.089353
    16  H    0.078029
    17  H    0.083725
    18  H    0.090009
    19  H    0.078051
    20  H    0.086123
    21  H    0.106654
    22  H    0.089357
    23  H    0.083785
    24  H    0.089979
 Sum of Mulliken charges =  -0.00000
 Mulliken charges with hydrogens summed into heavy atoms:
               1
     1  C    0.095491
     2  C   -0.014060
     3  C    0.264751
     4  O   -0.296523
     5  C    0.069723
     6  C    0.069830
     7  N   -0.119391
     8  C   -0.014159
     9  C    0.095437
    10  C    0.264812
    11  O   -0.296498
    12  N   -0.119412
 Electronic spatial extent (au):  <R**2>=           2578.4086
 Charge=             -0.0000 electrons
 Dipole moment (field-independent basis, Debye):
    X=              0.0001    Y=              0.0287    Z=              1.3873  Tot=              1.3876
 Quadrupole moment (field-independent basis, Debye-Ang):
   XX=            -52.8499   YY=            -68.9543   ZZ=            -78.4064
   XY=             -2.1101   XZ=              0.0313   YZ=             -0.1192
 Traceless Quadrupole moment (field-independent basis, Debye-Ang):
   XX=             13.8870   YY=             -2.2175   ZZ=            -11.6695
   XY=             -2.1101   XZ=              0.0313   YZ=             -0.1192
 Octapole moment (field-independent basis, Debye-Ang**2):
  XXX=              0.0994  YYY=              0.1484  ZZZ=             12.4219  XYY=             -0.0359
  XXY=              0.1314  XXZ=             10.8299  XZZ=              0.0287  YZZ=              0.0107
  YYZ=              6.4593  XYZ=             -0.8844
 Hexadecapole moment (field-independent basis, Debye-Ang**3):
 XXXX=          -2600.6734 YYYY=           -183.9089 ZZZZ=           -506.6943 XXXY=            -64.9156
 XXXZ=              0.2356 YYYX=            -40.2623 YYYZ=             -1.5139 ZZZX=             -0.0963
 ZZZY=             -1.7051 XXYY=           -485.5513 XXZZ=           -530.1773 YYZZ=           -112.6133
 XXYZ=             -0.4374 YYXZ=              0.0145 ZZXY=            -12.5068
 N-N= 7.210238865883D+02 E-N=-2.773360996622D+03  KE= 5.668124510701D+02
 No NMR shielding tensors so no spin-rotation constants.
 Leave Link  601 at Sun Feb 25 22:28:19 2024, MaxMem=  7516192768 cpu:               6.7 elap:               0.2
 (Enter /public/apps/g16-C01//g16/l701.exe)
 ... and contract with generalized density number  0.
 Compute integral first derivatives.
 R6Disp: Adding Grimme-D3(BJ) dispersion energy 1st derivatives to the gradient.
   1 Symmetry operations used in ECPInt.
 ECPInt:  NShTT=    4656 NPrTT=   18720 LenC2=    4509 LenP2D=   13069.
 LDataN:  DoStor=T MaxTD1= 5 Len=  102
 Leave Link  701 at Sun Feb 25 22:28:20 2024, MaxMem=  7516192768 cpu:               7.8 elap:               0.2
 (Enter /public/apps/g16-C01//g16/l702.exe)
 L702 exits ... SP integral derivatives will be done elsewhere.
 Leave Link  702 at Sun Feb 25 22:28:20 2024, MaxMem=  7516192768 cpu:               1.2 elap:               0.1
 (Enter /public/apps/g16-C01//g16/l703.exe)
 Integral derivatives from FoFJK, PRISM(SPDF).
 Compute integral first derivatives, UseDBF=F ICtDFT=           0.
 Calling FoFJK, ICntrl=      2127 FMM=F ISym2X=0 I1Cent= 0 IOpClX= 0 NMat=1 NMatS=1 NMatT=0.
 FoFJK:  IHMeth= 1 ICntrl=    2127 DoSepK=F KAlg= 0 I1Cent=           0 FoldK=F
 IRaf=         0 NMat=       1 IRICut=       1 DoRegI=T DoRafI=F ISym2E= 0 IDoP0=0 IntGTp=1.
 FoFCou: FMM=F IPFlag=           0 FMFlag=      100000 FMFlg1=         800
         NFxFlg=           0 DoJE=F BraDBF=F KetDBF=F FulRan=T
         wScrn=  0.000000 ICntrl=      2127 IOpCl=  0 I1Cent=           0 NGrid=           0
         NMat0=    1 NMatS0=      1 NMatT0=    0 NMatD0=    1 NMtDS0=    0 NMtDT0=    0
 Symmetry not used in FoFCou.
 Leave Link  703 at Sun Feb 25 22:28:21 2024, MaxMem=  7516192768 cpu:              30.9 elap:               0.9
 (Enter /public/apps/g16-C01//g16/l716.exe)
 Dipole        = 5.56602881D-05 1.12803474D-02 5.45799817D-01
 -------------------------------------------------------------------
 Center     Atomic                   Forces (Hartrees/Bohr)
 Number     Number              X              Y              Z
 -------------------------------------------------------------------
      1        6           0.005212507    0.009948292    0.002579650
      2        6          -0.002239719   -0.006228003    0.005167461
      3        6          -0.004360836    0.002517334   -0.004174179
      4        8           0.008248439   -0.001307296    0.008154532
      5        6          -0.010130530    0.002235838    0.002991128
      6        6           0.010126047   -0.002139390    0.003033634
      7        7          -0.007232834   -0.001071888   -0.015665477
      8        6           0.002215039    0.006417149    0.005053138
      9        6          -0.005118111   -0.009917276    0.002780833
     10        6           0.004363501   -0.002674847   -0.004117440
     11        8          -0.008254906    0.001525288    0.008132690
     12        7           0.007211116    0.000601313   -0.015676551
     13        1           0.002992872   -0.010100515    0.003601661
     14        1          -0.000515790   -0.001065946   -0.011516114
     15        1          -0.011767545   -0.000024316    0.002534514
     16        1          -0.003195411    0.005553359   -0.001303225
     17        1          -0.003404670   -0.004563356    0.003779726
     18        1          -0.002127836    0.005058089    0.003834131
     19        1           0.003217446   -0.005578702   -0.001177389
     20        1          -0.003067163    0.010138132    0.003362434
     21        1           0.000533901    0.000818333   -0.011548816
     22        1           0.011772273    0.000168567    0.002553591
     23        1           0.003389643    0.004655269    0.003670480
     24        1           0.002132567   -0.004965427    0.003949587
 -------------------------------------------------------------------
 Cartesian Forces:  Max     0.015676551 RMS     0.006089893
 Leave Link  716 at Sun Feb 25 22:28:21 2024, MaxMem=  7516192768 cpu:               1.5 elap:               0.1
 (Enter /public/apps/g16-C01//g16/l103.exe)

 GradGradGradGradGradGradGradGradGradGradGradGradGradGradGradGradGradGrad
 Berny optimization.
 FormGI is forming the generalized inverse of G from B-inverse, IUseBI=4.
 Internal  Forces:  Max     0.014297447 RMS     0.004130361
 Search for a local minimum.
 Step number   1 out of a maximum of  141
 All quantities printed in internal units (Hartrees-Bohrs-Radians)
 RMS Force = .41304D-02 SwitMx=.10000D-02 MixMth= 1
 Mixed Optimization -- RFO/linear search
 Second derivative matrix not updated -- first step.
 ITU=  0
     Eigenvalues ---    0.00434   0.00435   0.00602   0.00602   0.01317
     Eigenvalues ---    0.01892   0.01892   0.02544   0.02544   0.04100
     Eigenvalues ---    0.04101   0.04814   0.04818   0.05141   0.05149
     Eigenvalues ---    0.05677   0.05679   0.05718   0.05719   0.05828
     Eigenvalues ---    0.05828   0.07748   0.07751   0.10776   0.10777
     Eigenvalues ---    0.11215   0.11215   0.15400   0.15404   0.16000
     Eigenvalues ---    0.16000   0.16000   0.16000   0.16000   0.16000
     Eigenvalues ---    0.20040   0.20060   0.24649   0.24649   0.24999
     Eigenvalues ---    0.25000   0.26669   0.26670   0.29884   0.29891
     Eigenvalues ---    0.34200   0.34208   0.34407   0.34410   0.34479
     Eigenvalues ---    0.34482   0.35095   0.35098   0.35137   0.35138
     Eigenvalues ---    0.35293   0.35295   0.37104   0.37105   0.37174
     Eigenvalues ---    0.40958   0.40958   0.51068   0.51068   0.73752
     Eigenvalues ---    0.73753
 RFO step:  Lambda=-6.39726850D-03 EMin= 4.34371289D-03
 Linear search not attempted -- first point.
 Iteration  1 RMS(Cart)=  0.03904500 RMS(Int)=  0.00025081
 Iteration  2 RMS(Cart)=  0.00055054 RMS(Int)=  0.00004941
 Iteration  3 RMS(Cart)=  0.00000021 RMS(Int)=  0.00004941
 ITry= 1 IFail=0 DXMaxC= 1.68D-01 DCOld= 1.00D+10 DXMaxT= 3.00D-01 DXLimC= 3.00D+00 Rises=F
 Variable       Old X    -DE/DX   Delta X   Delta X   Delta X     New X
                                 (Linear)    (Quad)   (Total)
    R1        2.88182   0.00428   0.00000   0.01400   0.01400   2.89582
    R2        2.05515   0.01112   0.00000   0.03110   0.03110   2.08626
    R3        2.05201   0.01145   0.00000   0.03185   0.03185   2.08386
    R4        2.05454   0.01191   0.00000   0.03329   0.03329   2.08783
    R5        2.93884   0.00548   0.00000   0.01564   0.01565   2.95449
    R6        2.73316   0.01269   0.00000   0.03118   0.03122   2.76438
    R7        2.06993   0.00639   0.00000   0.01835   0.01835   2.08828
    R8        2.68944   0.00846   0.00000   0.01952   0.01949   2.70893
    R9        2.06648   0.00672   0.00000   0.01919   0.01919   2.08567
   R10        2.06524   0.00658   0.00000   0.01874   0.01874   2.08398
   R11        2.55762   0.00524   0.00000   0.01145   0.01143   2.56904
   R12        2.75584   0.01430   0.00000   0.03781   0.03781   2.79365
   R13        2.38958   0.00973   0.00000   0.01348   0.01348   2.40306
   R14        2.38958   0.00973   0.00000   0.01349   0.01350   2.40307
   R15        2.55759   0.00524   0.00000   0.01146   0.01143   2.56902
   R16        2.73311   0.01272   0.00000   0.03126   0.03129   2.76440
   R17        2.88196   0.00431   0.00000   0.01411   0.01411   2.89607
   R18        2.93884   0.00549   0.00000   0.01563   0.01564   2.95448
   R19        2.06980   0.00641   0.00000   0.01838   0.01838   2.08818
   R20        2.05521   0.01109   0.00000   0.03104   0.03104   2.08625
   R21        2.05198   0.01146   0.00000   0.03188   0.03188   2.08386
   R22        2.05451   0.01192   0.00000   0.03333   0.03333   2.08783
   R23        2.68944   0.00846   0.00000   0.01954   0.01951   2.70895
   R24        2.06643   0.00672   0.00000   0.01917   0.01917   2.08560
   R25        2.06530   0.00658   0.00000   0.01874   0.01874   2.08404
    A1        1.92373  -0.00006   0.00000  -0.00139  -0.00139   1.92234
    A2        1.90848   0.00211   0.00000   0.01391   0.01385   1.92232
    A3        1.92117   0.00199   0.00000   0.01180   0.01175   1.93292
    A4        1.89420  -0.00100   0.00000  -0.00572  -0.00572   1.88848
    A5        1.90779  -0.00131   0.00000  -0.01021  -0.01020   1.89759
    A6        1.90819  -0.00180   0.00000  -0.00873  -0.00885   1.89934
    A7        1.98071   0.00050   0.00000   0.00834   0.00814   1.98886
    A8        1.92995  -0.00020   0.00000   0.01063   0.01048   1.94043
    A9        1.90441  -0.00045   0.00000  -0.01276  -0.01276   1.89165
   A10        1.80666   0.00155   0.00000   0.00993   0.00983   1.81650
   A11        1.95171  -0.00118   0.00000  -0.01607  -0.01607   1.93564
   A12        1.88671  -0.00016   0.00000   0.00136   0.00145   1.88816
   A13        1.82003   0.00042   0.00000  -0.00632  -0.00630   1.81373
   A14        1.96143   0.00070   0.00000   0.00795   0.00792   1.96935
   A15        1.97491   0.00083   0.00000   0.00877   0.00876   1.98367
   A16        1.89717  -0.00059   0.00000  -0.00211  -0.00210   1.89507
   A17        1.89635  -0.00042   0.00000  -0.00098  -0.00096   1.89539
   A18        1.90974  -0.00096   0.00000  -0.00778  -0.00782   1.90192
   A19        1.85401  -0.00019   0.00000   0.00044   0.00040   1.85441
   A20        2.04168  -0.00474   0.00000  -0.02033  -0.02035   2.02134
   A21        2.05969   0.00238   0.00000   0.01306   0.01306   2.07275
   A22        2.18178   0.00236   0.00000   0.00734   0.00732   2.18910
   A23        2.18182   0.00236   0.00000   0.00731   0.00731   2.18913
   A24        2.04168  -0.00474   0.00000  -0.02036  -0.02036   2.02132
   A25        2.05968   0.00238   0.00000   0.01306   0.01306   2.07274
   A26        1.88390  -0.00416   0.00000  -0.01733  -0.01723   1.86667
   A27        1.92844  -0.00013   0.00000   0.01138   0.01121   1.93965
   A28        1.80669   0.00152   0.00000   0.00988   0.00977   1.81646
   A29        1.88793  -0.00019   0.00000   0.00082   0.00091   1.88883
   A30        1.98022   0.00051   0.00000   0.00860   0.00840   1.98862
   A31        1.90476  -0.00048   0.00000  -0.01294  -0.01293   1.89182
   A32        1.95215  -0.00117   0.00000  -0.01627  -0.01627   1.93589
   A33        1.92323  -0.00002   0.00000  -0.00112  -0.00111   1.92212
   A34        1.90842   0.00214   0.00000   0.01408   0.01402   1.92244
   A35        1.92161   0.00194   0.00000   0.01143   0.01137   1.93299
   A36        1.89409  -0.00101   0.00000  -0.00567  -0.00567   1.88841
   A37        1.90782  -0.00131   0.00000  -0.01023  -0.01022   1.89760
   A38        1.90838  -0.00180   0.00000  -0.00883  -0.00895   1.89943
   A39        1.81994   0.00044   0.00000  -0.00628  -0.00626   1.81368
   A40        1.96177   0.00067   0.00000   0.00783   0.00781   1.96958
   A41        1.97465   0.00085   0.00000   0.00886   0.00885   1.98350
   A42        1.89713  -0.00058   0.00000  -0.00200  -0.00199   1.89514
   A43        1.89641  -0.00045   0.00000  -0.00113  -0.00111   1.89530
   A44        1.90973  -0.00095   0.00000  -0.00775  -0.00779   1.90194
   A45        1.85403  -0.00020   0.00000   0.00042   0.00037   1.85440
   A46        1.88397  -0.00418   0.00000  -0.01735  -0.01726   1.86672
    D1       -0.95657  -0.00109   0.00000  -0.01546  -0.01549  -0.97206
    D2        1.06460   0.00104   0.00000   0.00933   0.00939   1.07398
    D3        3.13758   0.00044   0.00000   0.00950   0.00949  -3.13612
    D4       -3.03749  -0.00114   0.00000  -0.01619  -0.01620  -3.05369
    D5       -1.01632   0.00099   0.00000   0.00859   0.00868  -1.00765
    D6        1.05666   0.00040   0.00000   0.00876   0.00878   1.06544
    D7        1.14915  -0.00147   0.00000  -0.02145  -0.02152   1.12763
    D8       -3.11286   0.00066   0.00000   0.00334   0.00335  -3.10951
    D9       -1.03988   0.00006   0.00000   0.00351   0.00346  -1.03643
   D10        2.06838   0.00059   0.00000   0.01656   0.01657   2.08495
   D11        0.01666   0.00070   0.00000   0.01887   0.01890   0.03556
   D12       -2.15722   0.00077   0.00000   0.01599   0.01599  -2.14123
   D13       -0.02439  -0.00041   0.00000  -0.00706  -0.00710  -0.03148
   D14       -2.07610  -0.00031   0.00000  -0.00476  -0.00477  -2.08088
   D15        2.03320  -0.00024   0.00000  -0.00764  -0.00768   2.02552
   D16       -2.05129  -0.00056   0.00000  -0.00680  -0.00679  -2.05808
   D17        2.18018  -0.00045   0.00000  -0.00449  -0.00446   2.17572
   D18        0.00630  -0.00038   0.00000  -0.00737  -0.00737  -0.00107
   D19       -2.10099  -0.00096   0.00000  -0.01397  -0.01403  -2.11502
   D20        0.02611   0.00045   0.00000   0.00729   0.00729   0.03340
   D21        2.09849  -0.00019   0.00000  -0.00549  -0.00551   2.09299
   D22        0.01461   0.00019   0.00000   0.00430   0.00431   0.01892
   D23        2.11011   0.00094   0.00000   0.00912   0.00912   2.11923
   D24       -2.09620  -0.00079   0.00000  -0.00200  -0.00199  -2.09820
   D25        3.13526   0.00029   0.00000   0.00787   0.00784  -3.14008
   D26        0.00217   0.00016   0.00000   0.00047   0.00048   0.00265
   D27        3.07398  -0.00002   0.00000   0.00022   0.00023   3.07422
   D28       -0.06298  -0.00003   0.00000  -0.00359  -0.00355  -0.06652
   D29       -0.07677   0.00012   0.00000   0.00821   0.00817  -0.06860
   D30        3.06945   0.00011   0.00000   0.00441   0.00439   3.07384
   D31       -0.01940  -0.00038   0.00000  -0.00523  -0.00522  -0.02462
   D32        3.13144  -0.00049   0.00000  -0.01314  -0.01321   3.11823
   D33        3.12432  -0.00035   0.00000  -0.00804  -0.00807   3.11625
   D34       -0.02195  -0.00035   0.00000  -0.00427  -0.00427  -0.02622
   D35        3.13952   0.00013   0.00000   0.00304   0.00303  -3.14063
   D36        0.00223   0.00012   0.00000  -0.00049  -0.00047   0.00175
   D37       -2.09601  -0.00099   0.00000  -0.01507  -0.01513  -2.11114
   D38        0.02975   0.00044   0.00000   0.00679   0.00680   0.03655
   D39        2.10320  -0.00022   0.00000  -0.00649  -0.00650   2.09670
   D40        1.06132   0.00106   0.00000   0.01061   0.01068   1.07200
   D41       -1.01912   0.00100   0.00000   0.00955   0.00964  -1.00948
   D42       -3.11614   0.00068   0.00000   0.00453   0.00455  -3.11158
   D43       -0.95856  -0.00108   0.00000  -0.01469  -0.01473  -0.97329
   D44       -3.03900  -0.00115   0.00000  -0.01576  -0.01577  -3.05477
   D45        1.14716  -0.00147   0.00000  -0.02078  -0.02086   1.12631
   D46        3.13510   0.00046   0.00000   0.01047   0.01045  -3.13764
   D47        1.05466   0.00039   0.00000   0.00940   0.00941   1.06407
   D48       -1.04236   0.00007   0.00000   0.00438   0.00433  -1.03803
   D49       -0.02791  -0.00044   0.00000  -0.00711  -0.00715  -0.03506
   D50       -2.07970  -0.00034   0.00000  -0.00490  -0.00491  -2.08462
   D51        2.02956  -0.00027   0.00000  -0.00780  -0.00784   2.02172
   D52        2.06277   0.00064   0.00000   0.01748   0.01749   2.08026
   D53        0.01098   0.00074   0.00000   0.01969   0.01972   0.03070
   D54       -2.16295   0.00081   0.00000   0.01679   0.01679  -2.14615
   D55       -2.05646  -0.00053   0.00000  -0.00608  -0.00607  -2.06253
   D56        2.17494  -0.00044   0.00000  -0.00387  -0.00384   2.17110
   D57        0.00101  -0.00036   0.00000  -0.00677  -0.00677  -0.00575
   D58        0.01685   0.00023   0.00000   0.00482   0.00483   0.02168
   D59        2.11268   0.00096   0.00000   0.00957   0.00958   2.12226
   D60       -2.09365  -0.00078   0.00000  -0.00153  -0.00153  -2.09517
         Item               Value     Threshold  Converged?
 Maximum Force            0.014297     0.000450     NO 
 RMS     Force            0.004130     0.000300     NO 
 Maximum Displacement     0.167979     0.001800     NO 
 RMS     Displacement     0.039229     0.001200     NO 
 Predicted change in Energy=-3.281797D-03
 Lowest energy point so far.  Saving SCF results.
 GradGradGradGradGradGradGradGradGradGradGradGradGradGradGradGradGradGrad

 Leave Link  103 at Sun Feb 25 22:28:22 2024, MaxMem=  7516192768 cpu:              29.0 elap:               0.8
 (Enter /public/apps/g16-C01//g16/l202.exe)
                          Input orientation:                          
 ---------------------------------------------------------------------
 Center     Atomic      Atomic             Coordinates (Angstroms)
 Number     Number       Type             X           Y           Z
 ---------------------------------------------------------------------
      1          6           0       -3.728163   -0.756568   -1.092827
      2          6           0       -2.840817    0.354197   -0.520917
      3          6           0       -2.725953    0.335372    1.038194
      4          8           0       -1.325152    0.148471    1.278523
      5          6           0       -0.732908    0.097373    0.055895
      6          6           0        0.732861   -0.094972    0.058155
      7          7           0        1.459136   -0.238134   -0.975830
      8          6           0        2.841109   -0.362358   -0.512500
      9          6           0        3.724587    0.739394   -1.107708
     10          6           0        2.725803   -0.310486    1.045823
     11          8           0        1.325090   -0.117217    1.281642
     12          7           0       -1.459110    0.216488   -0.981179
     13          1           0       -3.370190   -1.743235   -0.750544
     14          1           0       -3.693307   -0.740821   -2.194897
     15          1           0       -4.776002   -0.627007   -0.767411
     16          1           0       -3.227317    1.326642   -0.876092
     17          1           0       -3.276631   -0.503266    1.498156
     18          1           0       -3.042272    1.277303    1.516591
     19          1           0        3.231048   -1.340716   -0.846906
     20          1           0        3.361856    1.731722   -0.787516
     21          1           0        3.691170    0.699459   -2.209211
     22          1           0        4.772551    0.621570   -0.778243
     23          1           0        3.277195    0.536967    1.488364
     24          1           0        3.040912   -1.242583    1.543949
 ---------------------------------------------------------------------
                    Distance matrix (angstroms):
                    1          2          3          4          5
     1  C    0.000000
     2  C    1.532404   0.000000
     3  C    2.595767   1.563449   0.000000
     4  O    3.495262   2.361683   1.433504   0.000000
     5  C    3.319688   2.200444   2.234678   1.359479   0.000000
     6  C    4.654374   3.648048   3.620645   2.404991   1.478337
     7  N    5.214454   4.364333   4.679763   3.603309   2.445829
     8  C    6.606626   5.726937   5.820967   4.563599   3.648016
     9  C    7.601421   6.602820   6.810110   5.616329   4.651389
    10  C    6.813698   5.820974   5.489885   4.083507   3.620634
    11  O    5.619807   4.563577   4.083510   2.663528   2.404966
    12  N    2.471417   1.462846   2.386816   2.264690   1.271644
    13  H    1.103999   2.175359   2.816955   3.446425   3.315636
    14  H    1.102733   2.174399   3.542152   4.296934   3.812165
    15  H    1.104830   2.183681   2.896391   4.086022   4.189173
    16  H    2.153505   1.105071   2.213249   3.106233   2.932879
    17  H    2.642203   2.236478   1.103687   2.069123   2.985199
    18  H    3.378778   2.245918   1.102794   2.068681   2.976413
    19  H    6.988012   6.312412   6.469060   5.243480   4.312319
    20  H    7.520184   6.359387   6.507260   5.361273   4.488823
    21  H    7.642828   6.755471   7.201226   6.134440   5.006563
    22  H    8.617445   7.622407   7.720681   6.452604   5.592910
    23  H    7.576993   6.442103   6.023378   4.623480   4.280904
    24  H    7.280740   6.434914   6.000206   4.589989   4.272178
                    6          7          8          9         10
     6  C    0.000000
     7  N    1.271651   0.000000
     8  C    2.200421   1.462858   0.000000
     9  C    3.317503   2.470874   1.532535   0.000000
    10  C    2.234671   2.386789   1.563444   2.595673   0.000000
    11  O    1.359468   2.264679   2.361642   3.492902   1.433513
    12  N    2.445804   2.953451   4.364242   5.211541   4.679737
    13  H    4.495085   5.063445   6.367395   7.525083   6.514663
    14  H    5.008426   5.318505   6.758128   7.641870   7.203640
    15  H    5.595730   6.250729   7.625969   8.616431   7.724318
    16  H    4.310083   4.941793   6.309574   6.980507   6.466343
    17  H    4.279759   5.349617   6.441222   7.573096   6.022539
    18  H    4.273383   5.363897   6.435827   7.277821   6.001115
    19  H    2.934613   2.090928   1.105018   2.153708   2.213385
    20  H    3.311130   2.745202   2.175312   1.103997   2.817146
    21  H    3.810991   2.717035   2.174600   1.102733   3.542199
    22  H    4.187134   3.428826   2.183851   1.104834   2.895708
    23  H    2.986383   3.158856   2.236608   2.642106   1.103654
    24  H    2.975180   3.140099   2.245818   3.380374   1.102827
                   11         12         13         14         15
    11  O    0.000000
    12  N    3.603260   0.000000
    13  H    5.368367   2.746986   0.000000
    14  H    6.136735   2.716835   1.787567   0.000000
    15  H    6.456147   3.429133   1.795149   1.795243   0.000000
    16  H    5.240702   2.090465   3.075763   2.496156   2.495391
    17  H    4.622959   3.157298   2.569616   3.724069   2.719599
    18  H    4.590614   3.141748   3.790921   4.274554   3.442220
    19  H    3.108110   4.943733   6.614201   7.079806   8.039189
    20  H    3.442151   5.057189   7.576090   7.607202   8.472824
    21  H    4.295503   5.316644   7.612967   7.523637   8.690874
    22  H    4.083372   6.248110   8.479228   8.691017   9.629846
    23  H    2.069156   5.351069   7.375619   7.986680   8.443775
    24  H    2.068647   5.362402   6.827707   7.718837   8.174685
                   16         17         18         19         20
    16  H    0.000000
    17  H    2.998007   0.000000
    18  H    2.400335   1.796021   0.000000
    19  H    6.987570   6.967821   7.196852   0.000000
    20  H    6.602208   7.368106   6.821163   3.075795   0.000000
    21  H    7.073615   7.983819   7.717172   2.495977   1.787521
    22  H    8.031476   8.440177   8.171151   2.496300   1.795155
    23  H    6.965840   6.635873   6.362748   2.996883   2.571816
    24  H    7.193624   6.360821   6.584505   2.400410   3.792786
                   21         22         23         24
    21  H    0.000000
    22  H    1.795306   0.000000
    23  H    3.724223   2.716754   0.000000
    24  H    4.275578   3.444737   1.796028   0.000000
 Symmetry turned off by external request.
 Stoichiometry    C8H12N2O2
 Framework group  C1[X(C8H12N2O2)]
 Deg. of freedom    66
 Full point group                 C1      NOp   1
 Rotational constants (GHZ):           2.5272944           0.4915892           0.4373699
 Leave Link  202 at Sun Feb 25 22:28:22 2024, MaxMem=  7516192768 cpu:               1.1 elap:               0.0
 (Enter /public/apps/g16-C01//g16/l301.exe)
 Standard basis: def2SVPP (5D, 7F)
 Ernie: Thresh=  0.10000D-02 Tol=  0.10000D-05 Strict=F.
   192 basis functions,   348 primitive gaussians,   204 cartesian basis functions
    45 alpha electrons       45 beta electrons
       nuclear repulsion energy       715.5890822596 Hartrees.
 IExCor=  402 DFT=T Ex+Corr=B3LYP ExCW=0 ScaHFX=  0.200000
 ScaDFX=  0.800000  0.720000  1.000000  0.810000 ScalE2=  1.000000  1.000000
 IRadAn=      5 IRanWt=     -1 IRanGd=            0 ICorTp=0 IEmpDi=141
 NAtoms=   24 NActive=   24 NUniq=   24 SFac= 1.00D+00 NAtFMM=   60 NAOKFM=F Big=F
 Integral buffers will be    131072 words long.
 Raffenetti 2 integral format.
 Two-electron integral symmetry is turned off.
 R6Disp:  Grimme-D3(BJ) Dispersion energy=       -0.0378186663 Hartrees.
 Nuclear repulsion after empirical dispersion term =      715.5512635934 Hartrees.
 Leave Link  301 at Sun Feb 25 22:28:22 2024, MaxMem=  7516192768 cpu:               1.8 elap:               0.1
 (Enter /public/apps/g16-C01//g16/l302.exe)
 NPDir=0 NMtPBC=     1 NCelOv=     1 NCel=       1 NClECP=     1 NCelD=      1
         NCelK=      1 NCelE2=     1 NClLst=     1 CellRange=     0.0.
 One-electron integrals computed using PRISM.
   1 Symmetry operations used in ECPInt.
 ECPInt:  NShTT=    4656 NPrTT=   18720 LenC2=    4492 LenP2D=   13006.
 LDataN:  DoStor=T MaxTD1= 4 Len=   56
 NBasis=   192 RedAO= T EigKep=  1.07D-03  NBF=   192
 NBsUse=   192 1.00D-06 EigRej= -1.00D+00 NBFU=   192
 Precomputing XC quadrature grid using
 IXCGrd= 4 IRadAn=           5 IRanWt=          -1 IRanGd=           0 AccXCQ= 0.00D+00.
 Generated NRdTot=       0 NPtTot=           0 NUsed=           0 NTot=          32
 NSgBfM=   202   202   202   202   202 MxSgAt=    24 MxSgA2=    24.
 Leave Link  302 at Sun Feb 25 22:28:22 2024, MaxMem=  7516192768 cpu:              15.8 elap:               0.5
 (Enter /public/apps/g16-C01//g16/l303.exe)
 DipDrv:  MaxL=1.
 Leave Link  303 at Sun Feb 25 22:28:23 2024, MaxMem=  7516192768 cpu:               3.8 elap:               0.1
 (Enter /public/apps/g16-C01//g16/l401.exe)
 Initial guess from the checkpoint file:  "/public/home/ljq/tmp/Gau-52829.chk"
 B after Tr=    -0.000517    0.002101   -0.020155
         Rot=    1.000000    0.000085   -0.000011   -0.000069 Ang=   0.01 deg.
 Guess basis will be translated and rotated to current coordinates.
 JPrj=2 DoOrth=T DoCkMO=T.
 Generating alternative initial guess.
 ExpMin= 1.22D-01 ExpMax= 2.27D+03 ExpMxC= 3.41D+02 IAcc=3 IRadAn=         5 AccDes= 0.00D+00
 Harris functional with IExCor=  402 and IRadAn=       5 diagonalized for initial guess.
 HarFok:  IExCor=  402 AccDes= 0.00D+00 IRadAn=         5 IDoV= 1 UseB2=F ITyADJ=14
 ICtDFT=  3500011 ScaDFX=  1.000000  1.000000  1.000000  1.000000
 FoFCou: FMM=F IPFlag=           0 FMFlag=      100000 FMFlg1=           0
         NFxFlg=           0 DoJE=T BraDBF=F KetDBF=T FulRan=T
         wScrn=  0.000000 ICntrl=       500 IOpCl=  0 I1Cent=   200000004 NGrid=           0
[...]
 10806,-0.00169065,-0.00378135,0.00211642,0.00553667,0.00034600,-0.0023
 0738,-0.00007530,-0.00042453,0.00010640,-0.00004617,0.00015254,0.00006
 075,0.00011287,-0.00003198,0.00008481,-0.00008690,0.00011384,0.0001351
 6,0.00000554,-0.00058258,0.00008287,-0.00012242,-0.02302506,0.02906562
 ,-0.00985851,-0.00198092,-0.00359635,-0.00177599,0.00057432,0.00081759
 ,0.00006013,0.00082286,0.00064007,0.00050946,0.08460923,0.00578773,-0.
 02380317,0.00687323,0.06836897,-0.24852793,0.07836594,-0.00074139,0.00
 268131,-0.00184733,-0.00134642,-0.00087088,0.00016605,-0.00074162,-0.0
 0011914,-0.00272527,0.00016885,-0.00003926,-0.00007925,0.00005195,0.00
 001300,0.00010779,-0.00004134,-0.00001431,-0.00002034,0.00000996,-0.00
 002725,0.00002831,-0.00004619,0.00001361,0.00000302,0.00016886,0.00002
 105,0.00002544,0.00665575,0.00166247,0.00042194,-0.00339096,-0.0023676
 4,-0.00210592,0.00031272,0.00070685,-0.00028291,-0.00013678,0.00108638
 ,0.00044017,-0.07500624,0.26684238,0.00259711,-0.01170338,0.00385884,-
 0.02532932,0.07781425,-0.08079860,-0.00569793,0.02576893,-0.01107773,-
 0.00459886,0.00128095,-0.00070275,0.00331111,-0.00165892,-0.00256557,-
 0.00068307,0.00107580,-0.00008504,0.00019464,-0.00011460,-0.00003186,-
 0.00009761,0.00001130,-0.00006854,0.00002351,-0.00001755,0.00005266,0.
 00000050,-0.00002443,0.00000273,0.00011234,-0.00006888,0.00015214,0.00
 350001,-0.01168203,0.00703158,-0.00156988,-0.00207749,0.00008000,0.000
 51723,-0.00010286,0.00062873,0.00019689,0.00076969,0.00027803,0.028522
 92,-0.07923475,0.08627172,0.00077451,-0.00009112,-0.00126184,0.0036783
 6,0.00209005,-0.00063456,-0.09114075,-0.08285331,0.04833266,-0.0349684
 9,-0.02135988,0.01670595,-0.00178594,-0.00323698,-0.00762999,0.0002582
 2,0.00042527,0.00093623,-0.00047828,0.00019966,-0.00006611,0.00000353,
 -0.00013121,0.00006194,-0.00004956,0.00004859,-0.00004253,0.00014765,-
 0.00002455,0.00002419,-0.00022351,0.00008508,-0.00000397,0.00114621,0.
 00084284,0.00064132,0.00005861,0.00026477,0.00021741,-0.00020730,0.000
 00296,-0.00018896,0.00022301,0.00036540,0.00018829,0.00046974,0.000151
 07,-0.00081056,0.11468808,-0.00068845,0.00130496,-0.00145402,0.0024529
 0,0.00186716,-0.00059081,-0.09052267,-0.21954659,0.08908526,0.00100459
 ,0.01284915,-0.00383730,0.00171449,-0.00064850,-0.00102045,0.00005384,
 -0.00031311,-0.00010570,-0.00003660,0.00000754,0.00000240,0.00003786,0
 .00004428,0.00001183,0.00000575,-0.00000308,-0.00000527,0.00005730,-0.
 00002110,0.00000809,-0.00010591,0.00002931,-0.00002570,0.00004280,-0.0
 0059786,-0.00037357,0.00038313,0.00050314,0.00030834,-0.00001659,0.000
 13863,-0.00019302,0.00034384,0.00009099,0.00024711,-0.00041737,0.00091
 053,0.00001716,0.09694745,0.22234365,0.00101520,0.00169748,0.00202004,
 0.00939628,0.02306079,-0.01060929,0.05205089,0.08798669,-0.10014179,-0
 .00597426,-0.00541060,0.00830050,-0.00053084,-0.00148815,-0.00380666,-
 0.00016491,0.00044924,0.00005357,0.00014343,-0.00004634,-0.00005219,-0
 .00004721,-0.00001548,0.00001425,0.00000145,-0.00000485,0.00000390,-0.
 00001357,-0.00000003,0.00000356,0.00010190,-0.00003174,0.00006282,0.00
 261797,-0.00000577,-0.00148665,0.00007875,-0.00097826,-0.00024883,0.00
 008608,-0.00011098,0.00046678,-0.00050460,-0.00002566,-0.00021800,0.00
 026584,-0.00019105,-0.00452708,-0.05247447,-0.09419131,0.10277413,0.00
 014575,-0.00038738,-0.00052986,0.00380470,-0.00300505,-0.00028620,-0.0
 6531398,0.05638814,0.03086550,-0.02857574,0.02980436,0.01764141,-0.002
 24362,0.00292480,-0.00767875,0.00014956,-0.00050100,0.00110558,-0.0005
 7325,-0.00008694,-0.00004719,0.00001045,0.00011816,0.00007298,-0.00001
 211,0.00003657,-0.00001728,0.00014296,-0.00000595,0.00003337,-0.000190
 12,-0.00000991,0.00000789,0.00088846,-0.00086342,0.00071557,-0.0000124
 0,0.00029629,0.00002744,-0.00025136,0.00015512,-0.00024208,0.00004752,
 0.00001871,0.00003124,0.00067051,-0.00028860,-0.00027477,0.00752937,-0
 .01121296,-0.00608827,0.08393330,0.00013716,0.00038164,-0.00061205,-0.
 00124577,0.00376316,0.00310067,0.06528613,-0.25330413,-0.09798349,0.00
 583175,0.00705316,0.00018892,-0.00142130,-0.00048886,0.00279642,-0.000
 08532,-0.00012365,-0.00003860,0.00009012,0.00004102,0.00002887,-0.0000
 3431,0.00000479,-0.00002186,0.00001049,-0.00001642,0.00001162,-0.00007
 742,-0.00000678,-0.00001274,0.00012827,0.00000800,0.00002299,-0.001041
 45,-0.00034765,0.00048064,0.00001210,0.00043345,0.00017980,-0.00014444
 ,0.00004928,-0.00011750,-0.00006018,-0.00004490,0.00003214,-0.00035217
 ,0.00181462,-0.00004559,0.00627086,-0.01897515,-0.01068622,-0.07335312
 ,0.25974676,0.00090234,0.00090435,-0.00358075,0.00636652,-0.02400766,-
 0.00818725,0.03567719,-0.09775601,-0.09899729,-0.00512841,0.00685177,0
 .00787224,-0.00026253,0.00112799,-0.00429483,-0.00029207,-0.00039625,0
 .00009421,0.00013973,0.00004070,-0.00003490,-0.00005225,0.00002714,0.0
 0001563,0.00001188,-0.00001817,0.00000545,-0.00000728,-0.00000393,0.00
 001013,0.00012052,0.00000817,0.00007867,0.00248638,-0.00097032,-0.0021
 9585,0.00017458,0.00004767,0.00007012,-0.00076803,-0.00066125,-0.00051
 616,-0.00019506,-0.00002952,0.00004012,0.00009963,0.00003482,0.0014859
 7,-0.00399192,0.01212305,0.00737780,-0.03530868,0.10266943,0.10074302,
 -0.00003190,0.00008655,0.00008505,0.00015247,0.00005847,-0.00011399,0.
 00011387,0.00013515,-0.00000831,-0.00058273,0.00008537,0.00012045,0.00
 034532,-0.00230471,0.00012473,-0.00378098,0.00199654,-0.00557743,-0.02
 303552,0.02925711,0.00924866,-0.06654631,0.06809181,0.02573807,0.00656
 190,-0.02029577,-0.00561842,0.00094071,0.00143337,0.00028159,0.0013362
 3,-0.00006828,0.00169286,-0.00042428,0.00010713,0.00004391,0.00001343,
 -0.00001754,0.00000751,0.00000756,-0.00000211,-0.00001691,-0.00005401,
 -0.00003491,-0.00000882,-0.00014203,0.00002817,0.00005453,-0.00003471,
 -0.00002296,0.00002506,-0.00006674,0.00001314,0.00000603,0.08467060,0.
 00000945,-0.00002740,-0.00002662,-0.00003930,-0.00001417,0.00001919,-0
 .00004617,0.00001401,-0.00000327,0.00016636,0.00002204,-0.00002272,0.0
 0018263,-0.00006044,0.00007876,-0.00080965,-0.00002920,0.00266977,0.00
 656922,0.00190973,-0.00031227,0.06895830,-0.25166565,-0.07480590,0.005
 74272,-0.02369587,-0.00630252,-0.00062274,0.00217986,0.00157382,-0.001
 25256,-0.00089914,-0.00015865,0.00004791,0.00001317,-0.00010859,-0.000
 00357,0.00000679,-0.00000349,-0.00000251,-0.00000054,0.00000660,0.0000
 1711,0.00001188,0.00000421,0.00002701,-0.00000428,-0.00001561,0.000018
 47,0.00000677,-0.00000750,0.00000532,-0.00000351,-0.00000434,-0.075655
 81,0.27001595,-0.00002369,0.00001920,0.00005283,0.00009847,-0.00001233
 ,-0.00006866,0.00000038,0.00002424,0.00000230,-0.00011586,0.00007164,0
 .00015121,0.00067939,-0.00107656,-0.00006367,-0.00329766,0.00160580,-0
 .00265960,-0.00364618,0.01179483,0.00679486,0.02393239,-0.07425394,-0.
 07762358,-0.00271995,0.01227036,0.00374626,0.00572733,-0.02603546,-0.0
 1057101,0.00462737,-0.00128100,-0.00067642,-0.00019569,0.00011352,-0.0
 0003208,0.00000697,-0.00000295,-0.00000113,0.00000544,0.00000326,-0.00
 000212,-0.00002336,-0.00001053,-0.00000632,-0.00005513,0.00001613,0.00
 002010,-0.00000144,-0.00000603,0.00000250,-0.00001955,0.00000769,0.000
 00199,-0.02698815,0.07540225,0.08305612,0.00000759,-0.00001195,-0.0000
 1251,-0.00003846,0.00000174,0.00001401,-0.00002953,0.00000271,0.000003
 72,0.00009085,-0.00000964,-0.00005236,-0.00018507,-0.00000315,0.000068
 95,0.00006202,0.00015296,0.00103272,0.00265462,0.00030460,-0.00092657,
 0.00479286,-0.02016156,-0.00610100,-0.07388328,0.07609467,0.02498810,0
 .00079663,0.00031490,-0.00086937,-0.00039364,-0.00020050,-0.00045553,0
 .00007602,0.00001154,-0.00001534,-0.00000222,0.00000288,-0.00000035,-0
 .00000321,0.00000027,0.00000185,0.00001067,0.00000546,0.00000128,0.000
 01342,-0.00000372,-0.00000691,0.00000971,0.00000456,-0.00000356,0.0000
 0639,-0.00000451,-0.00000136,-0.00197921,-0.00335778,0.00163880,0.0747
 3423,-0.00000345,0.00000070,0.00000581,0.00001650,-0.00000342,-0.00000
 722,0.00000314,-0.00000446,0.00000324,-0.00007021,0.00003494,0.0000245
 5,0.00015286,-0.00030223,0.00004906,-0.00068231,0.00032099,-0.00010313
 ,0.00147275,0.00229836,0.00022929,0.00689540,-0.02360549,-0.00698826,0
 .07335543,-0.26006968,-0.07157504,-0.00012852,0.00069412,-0.00180076,0
 .00008958,-0.00008133,0.00048586,-0.00006576,0.00005827,-0.00002143,0.
 00000288,0.00000330,-0.00000301,0.00000238,-0.00000154,0.00000086,-0.0
 0000380,0.00000046,0.00000015,-0.00001770,0.00000692,0.00000278,-0.000
 00151,0.00000263,-0.00000099,-0.00000998,0.00000395,0.00000364,-0.0035
 5899,-0.00228178,0.00212621,-0.07748646,0.28201880,-0.00000274,0.00000
 160,-0.00000077,-0.00001423,-0.00001200,0.00000404,0.00000967,-0.00001
 172,-0.00000237,-0.00000271,-0.00001023,-0.00005293,0.00000634,0.00008
 880,0.00004565,0.00017083,-0.00019650,0.00065463,-0.00097593,-0.000356
 46,-0.00010771,-0.00368674,0.01246357,0.00284476,0.02496820,-0.0735573
 3,-0.07369472,-0.00017012,0.00122319,0.00126766,-0.00081233,-0.0000536
 0,-0.00024074,-0.00000908,0.00003256,-0.00002808,0.00000029,0.00000292
 ,-0.00000107,-0.00000051,-0.00000243,-0.00000087,0.00000074,-0.0000003
 2,-0.00000002,-0.00000714,0.00000333,-0.00000126,-0.00000057,0.0000029
 9,-0.00000202,0.00000027,-0.00000047,0.00000267,0.00184972,0.00215539,
 -0.00000738,-0.02888629,0.07650039,0.07292393,0.00000791,-0.00000918,-
 0.00000771,-0.00005250,0.00000654,0.00000712,-0.00001095,0.00000272,-0
 .00000706,0.00007861,-0.00001216,-0.00011264,-0.00013038,-0.00008611,0
 .00013318,0.00047300,-0.00000756,0.00134539,0.00188563,0.00093376,-0.0
 0044440,-0.00048634,0.00129965,0.02129400,-0.04731037,0.00048955,-0.00
 805553,-0.00089955,-0.00346564,0.00018818,-0.00149527,0.00034082,-0.00
 029112,0.00006697,0.00001976,-0.00005208,-0.00000321,0.00000239,0.0000
 0046,-0.00000667,-0.00000076,-0.00000082,0.00001046,0.00000331,-0.0000
 0056,0.00000757,-0.00000262,-0.00000539,0.00000845,0.00000383,-0.00000
 420,0.00000492,-0.00000414,-0.00000326,0.00057377,0.00030167,-0.000523
 55,-0.00031028,-0.00074392,0.01012631,0.04584624,0.00000032,0.00000283
 ,0.00000011,0.00000126,0.00000675,-0.00000102,0.00002832,-0.00000239,-
 0.00000715,-0.00003660,0.00001703,-0.00001726,-0.00001515,-0.00010710,
 0.00000821,0.00066609,-0.00017488,0.00072079,0.00123046,0.00084006,-0.
 00111767,0.00079106,0.00037145,0.02602403,0.00036602,-0.04887637,-0.00
 996153,-0.00287589,-0.00268059,-0.00052288,-0.00144662,0.00019321,0.00
 078802,-0.00004032,-0.00000579,-0.00001164,0.00000023,-0.00000151,0.00
 000244,-0.00000075,0.00000117,-0.00000186,-0.00000173,-0.00000170,-0.0
 0000033,-0.00000174,-0.00000075,-0.00000329,-0.00000365,-0.00000171,0.
 00000231,-0.00000584,0.00000213,0.00000023,0.00081613,0.00071495,0.000
 10075,-0.00176393,0.00148330,-0.02799066,0.00245923,0.04892545,0.00000
 535,-0.00000759,-0.00000811,-0.00000649,0.00000077,0.00000359,-0.00004
 536,0.00000914,0.00000140,0.00007101,-0.00000428,0.00006686,-0.0000944
 7,0.00001170,-0.00009155,-0.00020700,-0.00007534,-0.00063147,-0.000764
 35,-0.00081636,0.00136985,-0.00042452,-0.00085283,-0.01154285,-0.00490
 192,-0.00724331,-0.31766396,0.00002198,0.00183745,0.00065350,0.0008699
 4,0.00022397,0.00047881,0.00008742,-0.00001646,0.00006870,-0.00000186,
 -0.00000085,-0.00000091,0.00000083,0.00000194,0.00000487,0.00000590,0.
 00000404,0.00000109,0.00001695,-0.00000663,-0.00000191,0.00000693,0.00
 000114,-0.00000096,0.00000593,-0.00000236,-0.00000145,-0.00007709,0.00
 028108,0.00062044,-0.00046216,0.00037763,-0.00621000,0.00509876,0.0063
 6090,0.33876503,-0.00002866,0.00003633,0.00004110,0.00011192,-0.000013
 86,-0.00004642,0.00008600,-0.00002920,0.00000754,-0.00031979,0.0000491
 9,0.00012315,0.00058903,0.00025587,-0.00004976,-0.00075665,-0.00032269
 ,-0.00286751,-0.00271925,-0.00386271,0.00318317,-0.01573179,0.00561173
 ,-0.00679786,-0.27895638,0.03518498,-0.07574920,-0.00051918,-0.0004181
 4,-0.00049868,0.00148403,0.00017564,0.00137693,-0.00026483,-0.00001869
 ,0.00001186,0.00001067,-0.00000382,-0.00000065,0.00001045,-0.00000186,
 -0.00000586,-0.00003316,-0.00001516,-0.00000432,-0.00005404,0.00001761
 ,0.00002301,-0.00003037,-0.00000835,0.00000733,-0.00002240,0.00001361,
 0.00000868,0.00082299,-0.00014085,-0.00019404,-0.00648159,0.00022362,-
 0.00230254,0.00220072,-0.00033339,0.00036623,0.30033018,-0.00002127,0.
 00002114,0.00002126,0.00004686,-0.00002491,-0.00001798,0.00003145,-0.0
 0003748,0.00002135,-0.00024652,0.00002294,0.00004151,0.00040872,0.0003
 9332,0.00023608,-0.00159588,0.00033661,-0.00114700,-0.00325801,-0.0032
 0493,0.00294969,-0.02204407,0.00429685,-0.00935123,0.03774294,-0.05468
 744,0.01244234,-0.00014966,0.00031079,-0.00019534,0.00068300,-0.000332
 86,0.00041400,-0.00016209,0.00000417,-0.00005687,0.00000544,0.00000046
 ,0.00000031,0.00000332,-0.00000178,-0.00000399,-0.00001508,-0.00000919
 ,-0.00000411,-0.00003476,0.00001202,0.00001016,-0.00002178,0.00000152,
 0.00000096,-0.00001523,0.00000566,0.00000680,0.00062883,0.00106124,-0.
 00078588,0.02571596,-0.00152229,0.01022772,-0.00138445,-0.00091525,-0.
 00038871,-0.03669824,0.05422796,0.00001121,-0.00000881,-0.00001227,-0.
 00001043,0.00002062,0.00001184,0.00000964,0.00002280,-0.00001035,0.000
 07760,0.00000094,-0.00001209,-0.00017594,-0.00039696,-0.00012438,0.000
 82258,-0.00019906,0.00107694,0.00101828,0.00217387,-0.00062213,0.01290
 335,-0.00245398,0.00298514,-0.07721527,0.01142055,-0.07396662,0.000661
 24,-0.00036552,0.00059803,-0.00101561,0.00034737,-0.00002961,0.0000334
 4,0.00000995,0.00002026,-0.00000139,-0.00000016,-0.00000002,0.00000050
 ,0.00000039,0.00000117,0.00000463,0.00000437,0.00000374,0.00000954,-0.
 00000459,-0.00000644,0.00000850,-0.00000244,0.00000143,0.00000224,-0.0
 0000113,-0.00000136,-0.00052229,-0.00045639,0.00030361,0.01030222,-0.0
 0021630,0.00279857,-0.02937070,0.00485975,-0.00580906,0.08267544,-0.01
 447151,0.07296512,-0.00004954,0.00004948,0.00004150,0.00000352,-0.0001
 3252,-0.00005920,0.00014766,-0.00002490,-0.00002365,-0.00022339,0.0000
 8505,0.00000207,0.00025865,0.00040569,-0.00094588,-0.00179197,-0.00307
 378,0.00769391,0.00114596,0.00082760,-0.00065563,0.00368468,0.00210442
 ,0.00059872,0.00077398,-0.00006504,0.00126246,-0.09119959,-0.08387900,
 -0.04664542,-0.03496274,-0.02168638,-0.01626494,-0.00047868,0.00020098
 ,0.00006175,0.00000972,-0.00000151,0.00000061,0.00000844,-0.00000380,-
 0.00000685,-0.00003038,-0.00002195,-0.00000806,-0.00003470,0.00001850,
 0.00000106,-0.00003419,-0.00000804,0.00000546,-0.00004233,0.00001986,0
 .00001079,0.00046825,0.00016852,0.00080686,0.00006384,0.00026226,-0.00
 022746,-0.00020699,0.00000684,0.00018875,0.00022424,0.00036227,-0.0001
 9695,0.11473979,0.00000574,-0.00000289,0.00000539,0.00003883,0.0000443
 6,-0.00001243,0.00005749,-0.00002120,-0.00000755,-0.00010783,0.0000304
 5,0.00002635,0.00005701,-0.00032003,0.00011425,0.00172796,-0.00059649,
 0.00095387,-0.00000872,-0.00059012,0.00035753,0.00225714,0.00140055,0.
 00034336,-0.00070858,0.00130160,0.00146848,-0.09162919,-0.22308933,-0.
 08655549,0.00114566,0.01304515,0.00374041,-0.00003917,0.00000836,-0.00
 000364,0.00000463,0.00000259,-0.00000308,0.00000390,-0.00000178,-0.000
 00112,-0.00000848,0.00000156,0.00000244,-0.00002344,0.00000705,0.00000
 593,-0.00000813,-0.00000390,0.00000009,-0.00001261,0.00001081,0.000001
 74,-0.00042260,0.00091092,-0.00012974,0.00038255,0.00051686,-0.0003234
 1,-0.00001834,0.00014468,0.00019960,0.00035433,0.00008642,-0.00025322,
 0.09804605,0.22610612,-0.00000158,0.00000502,0.00000370,0.00004650,0.0
 0001485,0.00001420,0.00001243,0.00000059,0.00000372,-0.00009986,0.0000
 3245,0.00006168,0.00016405,-0.00044146,0.00006059,0.00049563,0.0014188
 2,-0.00385943,-0.00262012,-0.00001369,-0.00149849,-0.00945520,-0.02330
 004,-0.01013393,-0.00099943,-0.00168180,0.00202433,-0.05021106,-0.0854
 5353,-0.09655031,0.00595226,0.00530827,0.00811045,-0.00014278,0.000045
 06,-0.00005302,0.00000347,0.00000089,-0.00000198,0.00000412,-0.0000023
 0,-0.00000089,-0.00000717,-0.00000098,0.00000140,-0.00002461,0.0000074
 2,0.00000223,-0.00000530,0.00000007,0.00000412,-0.00001002,0.00000258,
 0.00000799,-0.00025571,0.00007776,-0.00452515,-0.00008340,0.00096171,-
 0.00026707,-0.00008560,0.00011739,0.00046041,0.00049639,0.00001944,-0.
 00021165,0.05050339,0.09165138,0.09894915,-0.00001208,0.00003691,0.000
 01650,0.00001049,0.00011660,-0.00007540,0.00014301,-0.00000652,-0.0000
 3323,-0.00019009,-0.00001018,-0.00000774,0.00014953,-0.00052430,-0.001
 09376,-0.00223707,0.00308212,0.00761890,0.00088923,-0.00088064,-0.0006
 9845,0.00380231,-0.00299877,0.00035057,0.00014666,-0.00037620,0.000540
 14,-0.06524991,0.05564281,-0.03197429,-0.02857425,0.02945021,-0.018260
 30,-0.00057276,-0.00008607,0.00004905,0.00000641,-0.00000999,-0.000000
 05,0.00000492,-0.00000596,-0.00000581,-0.00002239,-0.00001526,-0.00000
 192,-0.00006673,0.00000573,0.00001944,-0.00004234,-0.00001244,0.000010
 26,-0.00002982,0.00001065,0.00000656,0.00067131,-0.00028377,0.00028083
 ,-0.00001235,0.00029582,-0.00003396,-0.00025173,0.00015963,0.00023923,
 0.00004787,0.00001826,-0.00003184,0.00752578,-0.01109417,0.00632360,0.
 08386401,0.00001026,-0.00001631,-0.00001117,-0.00003323,0.00000472,0.0
 0002210,-0.00007737,-0.00000649,0.00001310,0.00012592,0.00000740,-0.00
 002151,-0.00007943,-0.00011464,0.00004346,-0.00141428,-0.00057544,-0.0
 0287522,-0.00109111,-0.00033935,-0.00051664,-0.00137637,0.00419225,-0.
 00335557,0.00011830,0.00037522,0.00053006,0.06443247,-0.24923471,0.101
 10294,0.00595426,0.00689799,-0.00016390,0.00008754,0.00003957,-0.00003
 041,-0.00000448,0.00000389,0.00000044,-0.00000407,0.00000218,0.0000022
 9,0.00001345,0.00000555,0.00000100,0.00001304,-0.00000358,-0.00000758,
 0.00001966,0.00001074,-0.00000264,0.00001054,-0.00000737,-0.00000003,-
 0.00035409,0.00181467,0.00003853,0.00000840,0.00042859,-0.00018735,-0.
 00012835,0.00006500,0.00010538,-0.00005595,-0.00004497,-0.00003054,0.0
 0633937,-0.01899171,0.01123011,-0.07251448,0.25548677,-0.00001207,0.00
 001861,0.00000529,0.00005287,-0.00002689,0.00001572,0.00000890,0.00000
 432,0.00000975,-0.00012298,-0.00000675,0.00007916,0.00029359,0.0004006
 1,0.00008470,0.00029223,-0.00120998,-0.00420758,-0.00246297,0.00093109
 ,-0.00220172,-0.00632109,0.02375742,-0.00861783,-0.00090529,-0.0009872
 7,-0.00357686,-0.03696545,0.10087734,-0.10311557,0.00499259,-0.0068254
 8,0.00801632,-0.00014158,-0.00004232,-0.00003347,0.00000146,-0.0000036
 7,0.00000274,0.00000334,-0.00000031,-0.00000149,-0.00000894,-0.0000069
 3,-0.00000124,-0.00000629,0.00000445,0.00000206,-0.00001119,-0.0000018
 1,0.00000807,-0.00000677,0.00000025,0.00000381,-0.00009105,-0.00004097
 ,0.00148489,-0.00017492,-0.00005505,0.00007511,0.00077120,0.00065034,-
 0.00053233,0.00019605,0.00003099,0.00004013,0.00385670,-0.01158114,0.0
 0739795,0.03676167,-0.10588686,0.10506240\\0.00001110,0.00000766,-0.00
 000018,-0.00002440,-0.00000656,0.00000446,0.00000739,-0.00000075,0.000
 00082,-0.00001408,0.00000266,0.00000634,-0.00000285,-0.00000994,-0.000
 02408,0.00000293,0.00000531,-0.00002434,-0.00001833,-0.00000099,0.0000
 1088,0.00002326,0.00000635,0.00000275,-0.00001175,-0.00000791,0.000000
 75,-0.00000774,0.00000084,0.00000112,0.00001460,-0.00000137,0.00000641
 ,0.00001984,0.00000452,0.00001084,-0.00000398,0.00000475,-0.00000254,-
 0.00000337,-0.00000116,0.00000514,0.00000253,-0.00000259,-0.00000194,0
 .00000542,-0.00000304,0.00000132,0.00000165,0.00000401,0.00000057,-0.0
 0000100,-0.00000128,-0.00000072,-0.00000506,0.00000314,0.00000078,0.00
 000426,-0.00000430,-0.00000187,0.00000312,0.00000176,0.00000536,-0.000
 00276,0.00000257,-0.00000180,-0.00000151,-0.00000453,0.00000094,0.0000
 0073,0.00000083,-0.00000099\\\@
 The archive entry for this job was punched.


 WE DON'T KNOW ONE MILLIONTH OF ONE PERCENT ABOUT
 ANYTHING.
                                     T. A. EDISON.
 Job cpu time:       0 days  0 hours 15 minutes  9.2 seconds.
 Elapsed time:       0 days  0 hours  0 minutes 23.9 seconds.
 File lengths (MBytes):  RWF=    115 Int=      0 D2E=      0 Chk=      5 Scr=      1
 Normal termination of Gaussian 16 at Sun Feb 25 22:30:09 2024.
