 Entering Gaussian System, Link 0=g16
 Initial command:
 /public/apps/g16-C01//g16/l1.exe "/public/home/ljq/tmp/Gau-129082.inp" -scrdir="/public/home/ljq/tmp/"
 Entering Link 1 = /public/apps/g16-C01//g16/l1.exe PID=    129083.
  
 Copyright (c) 1988-2019, Gaussian, Inc.  All Rights Reserved.
  
 This is part of the Gaussian(R) 16 program.  It is based on
 the Gaussian(R) 09 system (copyright 2009, Gaussian, Inc.),
 the Gaussian(R) 03 system (copyright 2003, Gaussian, Inc.),
 the Gaussian(R) 98 system (copyright 1998, Gaussian, Inc.),
 the Gaussian(R) 94 system (copyright 1995, Gaussian, Inc.),
 the Gaussian 92(TM) system (copyright 1992, Gaussian, Inc.),
 the Gaussian 90(TM) system (copyright 1990, Gaussian, Inc.),
 the Gaussian 88(TM) system (copyright 1988, Gaussian, Inc.),
 the Gaussian 86(TM) system (copyright 1986, Carnegie Mellon
 University), and the Gaussian 82(TM) system (copyright 1983,
 Carnegie Mellon University). Gaussian is a federally registered
 trademark of Gaussian, Inc.
  
 This software contains proprietary and confidential information,
 including trade secrets, belonging to Gaussian, Inc.
  
 This software is provided under written license and may be
 used, copied, transmitted, or stored only in accord with that
 written license.
  
 The following legend is applicable only to US Government
 contracts under FAR:
  
                    RESTRICTED RIGHTS LEGEND
  
 Use, reproduction and disclosure by the US Government is
 subject to restrictions as set forth in subparagraphs (a)
 and (c) of the Commercial Computer Software - Restricted
 Rights clause in FAR 52.227-19.
  
 Gaussian, Inc.
 340 Quinnipiac St., Bldg. 40, Wallingford CT 06492
  
  
 ---------------------------------------------------------------
 Warning -- This program may not be used in any manner that
 competes with the business of Gaussian, Inc. or will provide
 assistance to any competitor of Gaussian, Inc.  The licensee
 of this program is prohibited from giving any competitor of
 Gaussian, Inc. access to this program.  By using this program,
 the user acknowledges that Gaussian, Inc. is engaged in the
 business of creating and licensing software in the field of
 computational chemistry and represents and warrants to the
 licensee that it is not a competitor of Gaussian, Inc. and that
 it will not use this program in any manner prohibited above.
 ---------------------------------------------------------------
  

 Cite this work as:
 Gaussian 16, Revision C.01,
 M. J. Frisch, G. W. Trucks, H. B. Schlegel, G. E. Scuseria, 
 M. A. Robb, J. R. Cheeseman, G. Scalmani, V. Barone, 
 G. A. Petersson, H. Nakatsuji, X. Li, M. Caricato, A. V. Marenich, 
 J. Bloino, B. G. Janesko, R. Gomperts, B. Mennucci, H. P. Hratchian, 
 J. V. Ortiz, A. F. Izmaylov, J. L. Sonnenberg, D. Williams-Young, 
 F. Ding, F. Lipparini, F. Egidi, J. Goings, B. Peng, A. Petrone, 
 T. Henderson, D. Ranasinghe, V. G. Zakrzewski, J. Gao, N. Rega, 
 G. Zheng, W. Liang, M. Hada, M. Ehara, K. Toyota, R. Fukuda, 
 J. Hasegawa, M. Ishida, T. Nakajima, Y. Honda, O. Kitao, H. Nakai, 
 T. Vreven, K. Throssell, J. A. Montgomery, Jr., J. E. Peralta, 
 F. Ogliaro, M. J. Bearpark, J. J. Heyd, E. N. Brothers, K. N. Kudin, 
 V. N. Staroverov, T. A. Keith, R. Kobayashi, J. Normand, 
 K. Raghavachari, A. P. Rendell, J. C. Burant, S. S. Iyengar, 
 J. Tomasi, M. Cossi, J. M. Millam, M. Klene, C. Adamo, R. Cammi, 
 J. W. Ochterski, R. L. Martin, K. Morokuma, O. Farkas, 
 J. B. Foresman, and D. J. Fox, Gaussian, Inc., Wallingford CT, 2019.
 
 ******************************************
 Gaussian 16:  ES64L-G16RevC.01  3-Jul-2019
                26-Feb-2024 
 ******************************************
 %nproc=40
 Will use up to   40 processors via shared memory.
 %mem=56GB
 ------------------------------------------
 #p opt freq b3lyp/def2svpp em=gd3bj nosymm
 ------------------------------------------
 1/18=20,19=15,26=3,38=1/1,3;
 2/9=110,12=2,15=1,17=6,18=5,40=1/2;
 3/5=43,7=202,11=2,25=1,30=1,71=1,74=-5,124=41/1,2,3;
 4//1;
 5/5=2,38=5/2;
 6/7=2,8=2,9=2,10=2,28=1/1;
 7/30=1/1,2,3,16;
 1/18=20,19=15,26=3/3(2);
 2/9=110,15=1/2;
 99//99;
 2/9=110,15=1/2;
 3/5=43,7=202,11=2,25=1,30=1,71=1,74=-5,124=41/1,2,3;
 4/5=5,16=3,69=1/1;
 5/5=2,38=5/2;
 7/30=1/1,2,3,16;
 1/18=20,19=15,26=3/3(-5);
 2/9=110,15=1/2;
 6/7=2,8=2,9=2,10=2,19=2,28=1/1;
 99/9=1/99;
 Leave Link    1 at Mon Feb 26 02:03:56 2024, MaxMem=  7516192768 cpu:               1.5 elap:               0.0
 (Enter /public/apps/g16-C01//g16/l101.exe)
 ----------------------
 $$$$Singlemol####0????
 ----------------------
 Symbolic Z-matrix:
 Charge =  0 Multiplicity = 1
 C                    -2.3862    4.58938   1.83743 
 C                    -1.54867   3.35055   1.74064 
 C                    -2.12575   2.09657   1.59184 
 C                    -1.34863   0.96106   1.47814 
 C                     0.04245   1.05611   1.48314 
 N                     0.82168  -0.07918   1.29937 
 C                     2.13883  -0.27892   1.8742 
 C                     2.50326  -1.70414   1.37662 
 C                     3.89361  -1.75199   0.73578 
 C                     4.36955  -3.16524   0.38246 
 C                     3.63939  -3.70482  -0.8434 
 C                     5.87888  -3.1627    0.14198 
 N                     1.45386  -2.05182   0.43904 
 C                     0.57921  -1.12815   0.44353 
 C                    -0.5931   -1.12226  -0.43801 
 N                    -1.4779   -2.03622  -0.43269 
 C                    -2.52212  -1.67892  -1.37251 
 C                    -3.91439  -1.71362  -0.73511 
 C                    -4.4043   -3.12258  -0.38366 
 C                    -5.91434  -3.1068   -0.14816 
 C                    -3.68294  -3.66886   0.84445 
 C                    -2.14284  -0.25764  -1.8701 
 N                    -0.82347  -0.07199  -1.29563 
 C                    -0.03142   1.05396  -1.48176 
 C                     1.35897   0.94276  -1.47648 
 C                     2.14865   2.06834  -1.59451 
 C                     1.58587   3.32913  -1.74845 
 C                     2.44459   4.55381  -1.83857 
 C                     0.20155   3.42563  -1.80506 
 C                    -0.6015    2.31015  -1.67917 
 C                     0.62733   2.30675   1.67599 
 C                    -0.16252   3.43132   1.79734 
 H                    -3.44012   4.34103   1.93442 
 H                    -2.08767   5.1891    2.69571 
 H                    -2.25691   5.20066   0.94404 
 H                    -3.20284   2.00352   1.5749 
 H                    -1.81393  -0.00903   1.39089 
 H                     2.09773  -0.19982   2.96303 
 H                     2.85222   0.45995   1.48923 
 H                     2.47144  -2.43115   2.19771 
 H                     4.59468  -1.30793   1.44814 
 H                     3.8915   -1.13561  -0.16624 
 H                     4.15509  -3.82074   1.23364 
 H                     3.91994  -4.73944  -1.02758 
 H                     3.89797  -3.11771  -1.72276 
 H                     2.56605  -3.64612  -0.69085 
 H                     6.13116  -2.48994  -0.67536 
 H                     6.41581  -2.83921   1.03156 
 H                     6.22156  -4.16098  -0.11988 
 H                    -2.49522  -2.4066   -2.19322 
 H                    -3.90876  -1.09759   0.16712 
 H                    -4.6094   -1.26276  -1.44912 
 H                    -4.1929   -3.77979  -1.23428 
 H                    -6.16337  -2.43289   0.66924 
 H                    -6.26675  -4.10233   0.11121 
 H                    -6.4454   -2.77739  -1.03909 
 H                    -3.94097  -3.08106   1.72351 
 H                    -2.60861  -3.61758   0.69622 
 H                    -3.9715   -4.70171   1.02614 
 H                    -2.84814   0.4888   -1.48473 
 H                    -2.10128  -0.17885  -2.9589 
 H                     1.81279  -0.03253  -1.38671 
 H                     3.22471   1.96395  -1.57804 
 H                     3.44414   4.30396  -2.18649 
 H                     2.00781   5.28459  -2.51571 
 H                     2.53407   5.01928  -0.85609 
 H                    -0.25823   4.39383  -1.94313 
 H                    -1.67418   2.4186   -1.71262 
 H                     1.70129   2.40246   1.70862 
 H                     0.30697   4.39548   1.93098 
 
 ITRead=  0  0  0  0  0  0  0  0  0  0  0  0  0  0  0  0  0  0  0  0
 ITRead=  0  0  0  0  0  0  0  0  0  0  0  0  0  0  0  0  0  0  0  0
 ITRead=  0  0  0  0  0  0  0  0  0  0  0  0  0  0  0  0  0  0  0  0
 ITRead=  0  0  0  0  0  0  0  0  0  0
 MicOpt= -1 -1 -1 -1 -1 -1 -1 -1 -1 -1 -1 -1 -1 -1 -1 -1 -1 -1 -1 -1
 MicOpt= -1 -1 -1 -1 -1 -1 -1 -1 -1 -1 -1 -1 -1 -1 -1 -1 -1 -1 -1 -1
 MicOpt= -1 -1 -1 -1 -1 -1 -1 -1 -1 -1 -1 -1 -1 -1 -1 -1 -1 -1 -1 -1
 MicOpt= -1 -1 -1 -1 -1 -1 -1 -1 -1 -1
 NAtoms=     70 NQM=       70 NQMF=       0 NMMI=      0 NMMIF=      0
                NMic=       0 NMicF=      0.
                    Isotopes and Nuclear Properties:
 (Nuclear quadrupole moments (NQMom) in fm**2, nuclear magnetic moments (NMagM)
  in nuclear magnetons)

  Atom         1           2           3           4           5           6           7           8           9          10
 IAtWgt=          12          12          12          12          12          14          12          12          12          12
 AtmWgt=  12.0000000  12.0000000  12.0000000  12.0000000  12.0000000  14.0030740  12.0000000  12.0000000  12.0000000  12.0000000
 NucSpn=           0           0           0           0           0           2           0           0           0           0
 AtZEff=  -0.0000000  -0.0000000  -0.0000000  -0.0000000  -0.0000000  -0.0000000  -0.0000000  -0.0000000  -0.0000000  -0.0000000
 NQMom=    0.0000000   0.0000000   0.0000000   0.0000000   0.0000000   2.0440000   0.0000000   0.0000000   0.0000000   0.0000000
 NMagM=    0.0000000   0.0000000   0.0000000   0.0000000   0.0000000   0.4037610   0.0000000   0.0000000   0.0000000   0.0000000
 AtZNuc=   6.0000000   6.0000000   6.0000000   6.0000000   6.0000000   7.0000000   6.0000000   6.0000000   6.0000000   6.0000000

  Atom        11          12          13          14          15          16          17          18          19          20
 IAtWgt=          12          12          14          12          12          14          12          12          12          12
 AtmWgt=  12.0000000  12.0000000  14.0030740  12.0000000  12.0000000  14.0030740  12.0000000  12.0000000  12.0000000  12.0000000
 NucSpn=           0           0           2           0           0           2           0           0           0           0
 AtZEff=  -0.0000000  -0.0000000  -0.0000000  -0.0000000  -0.0000000  -0.0000000  -0.0000000  -0.0000000  -0.0000000  -0.0000000
 NQMom=    0.0000000   0.0000000   2.0440000   0.0000000   0.0000000   2.0440000   0.0000000   0.0000000   0.0000000   0.0000000
 NMagM=    0.0000000   0.0000000   0.4037610   0.0000000   0.0000000   0.4037610   0.0000000   0.0000000   0.0000000   0.0000000
 AtZNuc=   6.0000000   6.0000000   7.0000000   6.0000000   6.0000000   7.0000000   6.0000000   6.0000000   6.0000000   6.0000000

  Atom        21          22          23          24          25          26          27          28          29          30
 IAtWgt=          12          12          14          12          12          12          12          12          12          12
 AtmWgt=  12.0000000  12.0000000  14.0030740  12.0000000  12.0000000  12.0000000  12.0000000  12.0000000  12.0000000  12.0000000
 NucSpn=           0           0           2           0           0           0           0           0           0           0
 AtZEff=  -0.0000000  -0.0000000  -0.0000000  -0.0000000  -0.0000000  -0.0000000  -0.0000000  -0.0000000  -0.0000000  -0.0000000
 NQMom=    0.0000000   0.0000000   2.0440000   0.0000000   0.0000000   0.0000000   0.0000000   0.0000000   0.0000000   0.0000000
 NMagM=    0.0000000   0.0000000   0.4037610   0.0000000   0.0000000   0.0000000   0.0000000   0.0000000   0.0000000   0.0000000
 AtZNuc=   6.0000000   6.0000000   7.0000000   6.0000000   6.0000000   6.0000000   6.0000000   6.0000000   6.0000000   6.0000000

  Atom        31          32          33          34          35          36          37          38          39          40
 IAtWgt=          12          12           1           1           1           1           1           1           1           1
 AtmWgt=  12.0000000  12.0000000   1.0078250   1.0078250   1.0078250   1.0078250   1.0078250   1.0078250   1.0078250   1.0078250
 NucSpn=           0           0           1           1           1           1           1           1           1           1
 AtZEff=  -0.0000000  -0.0000000  -0.0000000  -0.0000000  -0.0000000  -0.0000000  -0.0000000  -0.0000000  -0.0000000  -0.0000000
 NQMom=    0.0000000   0.0000000   0.0000000   0.0000000   0.0000000   0.0000000   0.0000000   0.0000000   0.0000000   0.0000000
 NMagM=    0.0000000   0.0000000   2.7928460   2.7928460   2.7928460   2.7928460   2.7928460   2.7928460   2.7928460   2.7928460
 AtZNuc=   6.0000000   6.0000000   1.0000000   1.0000000   1.0000000   1.0000000   1.0000000   1.0000000   1.0000000   1.0000000

  Atom        41          42          43          44          45          46          47          48          49          50
 IAtWgt=           1           1           1           1           1           1           1           1           1           1
 AtmWgt=   1.0078250   1.0078250   1.0078250   1.0078250   1.0078250   1.0078250   1.0078250   1.0078250   1.0078250   1.0078250
 NucSpn=           1           1           1           1           1           1           1           1           1           1
 AtZEff=  -0.0000000  -0.0000000  -0.0000000  -0.0000000  -0.0000000  -0.0000000  -0.0000000  -0.0000000  -0.0000000  -0.0000000
 NQMom=    0.0000000   0.0000000   0.0000000   0.0000000   0.0000000   0.0000000   0.0000000   0.0000000   0.0000000   0.0000000
 NMagM=    2.7928460   2.7928460   2.7928460   2.7928460   2.7928460   2.7928460   2.7928460   2.7928460   2.7928460   2.7928460
 AtZNuc=   1.0000000   1.0000000   1.0000000   1.0000000   1.0000000   1.0000000   1.0000000   1.0000000   1.0000000   1.0000000

  Atom        51          52          53          54          55          56          57          58          59          60
 IAtWgt=           1           1           1           1           1           1           1           1           1           1
 AtmWgt=   1.0078250   1.0078250   1.0078250   1.0078250   1.0078250   1.0078250   1.0078250   1.0078250   1.0078250   1.0078250
 NucSpn=           1           1           1           1           1           1           1           1           1           1
 AtZEff=  -0.0000000  -0.0000000  -0.0000000  -0.0000000  -0.0000000  -0.0000000  -0.0000000  -0.0000000  -0.0000000  -0.0000000
 NQMom=    0.0000000   0.0000000   0.0000000   0.0000000   0.0000000   0.0000000   0.0000000   0.0000000   0.0000000   0.0000000
 NMagM=    2.7928460   2.7928460   2.7928460   2.7928460   2.7928460   2.7928460   2.7928460   2.7928460   2.7928460   2.7928460
 AtZNuc=   1.0000000   1.0000000   1.0000000   1.0000000   1.0000000   1.0000000   1.0000000   1.0000000   1.0000000   1.0000000

  Atom        61          62          63          64          65          66          67          68          69          70
 IAtWgt=           1           1           1           1           1           1           1           1           1           1
 AtmWgt=   1.0078250   1.0078250   1.0078250   1.0078250   1.0078250   1.0078250   1.0078250   1.0078250   1.0078250   1.0078250
 NucSpn=           1           1           1           1           1           1           1           1           1           1
 AtZEff=  -0.0000000  -0.0000000  -0.0000000  -0.0000000  -0.0000000  -0.0000000  -0.0000000  -0.0000000  -0.0000000  -0.0000000
 NQMom=    0.0000000   0.0000000   0.0000000   0.0000000   0.0000000   0.0000000   0.0000000   0.0000000   0.0000000   0.0000000
 NMagM=    2.7928460   2.7928460   2.7928460   2.7928460   2.7928460   2.7928460   2.7928460   2.7928460   2.7928460   2.7928460
 AtZNuc=   1.0000000   1.0000000   1.0000000   1.0000000   1.0000000   1.0000000   1.0000000   1.0000000   1.0000000   1.0000000
 Leave Link  101 at Mon Feb 26 02:03:56 2024, MaxMem=  7516192768 cpu:               8.0 elap:               0.2
 (Enter /public/apps/g16-C01//g16/l103.exe)

 GradGradGradGradGradGradGradGradGradGradGradGradGradGradGradGradGradGrad
 Berny optimization.
 Initialization pass.
                           ----------------------------
                           !    Initial Parameters    !
                           ! (Angstroms and Degrees)  !
 --------------------------                            --------------------------
 ! Name  Definition              Value          Derivative Info.                !
 --------------------------------------------------------------------------------
 ! R1    R(1,2)                  1.4985         estimate D2E/DX2                !
 ! R2    R(1,33)                 1.0871         estimate D2E/DX2                !
 ! R3    R(1,34)                 1.0888         estimate D2E/DX2                !
 ! R4    R(1,35)                 1.0902         estimate D2E/DX2                !
 ! R5    R(2,3)                  1.3884         estimate D2E/DX2                !
 ! R6    R(2,32)                 1.3897         estimate D2E/DX2                !
 ! R7    R(3,4)                  1.3807         estimate D2E/DX2                !
 ! R8    R(3,36)                 1.0812         estimate D2E/DX2                !
 ! R9    R(4,5)                  1.3943         estimate D2E/DX2                !
 ! R10   R(4,37)                 1.0794         estimate D2E/DX2                !
 ! R11   R(5,6)                  1.3892         estimate D2E/DX2                !
 ! R12   R(5,31)                 1.3941         estimate D2E/DX2                !
 ! R13   R(6,7)                  1.4509         estimate D2E/DX2                !
 ! R14   R(6,14)                 1.3754         estimate D2E/DX2                !
 ! R15   R(7,8)                  1.5529         estimate D2E/DX2                !
 ! R16   R(7,38)                 1.0925         estimate D2E/DX2                !
 ! R17   R(7,39)                 1.0968         estimate D2E/DX2                !
 ! R18   R(8,9)                  1.5317         estimate D2E/DX2                !
 ! R19   R(8,13)                 1.4495         estimate D2E/DX2                !
 ! R20   R(8,40)                 1.0972         estimate D2E/DX2                !
 ! R21   R(9,10)                 1.5325         estimate D2E/DX2                !
 ! R22   R(9,41)                 1.0937         estimate D2E/DX2                !
 ! R23   R(9,42)                 1.0925         estimate D2E/DX2                !
 ! R24   R(10,11)                1.5255         estimate D2E/DX2                !
 ! R25   R(10,12)                1.5284         estimate D2E/DX2                !
 ! R26   R(10,43)                1.0955         estimate D2E/DX2                !
 ! R27   R(11,44)                1.0877         estimate D2E/DX2                !
 ! R28   R(11,45)                1.0885         estimate D2E/DX2                !
 ! R29   R(11,46)                1.0857         estimate D2E/DX2                !
 ! R30   R(12,47)                1.0883         estimate D2E/DX2                !
 ! R31   R(12,48)                1.0883         estimate D2E/DX2                !
 ! R32   R(12,49)                1.0875         estimate D2E/DX2                !
 ! R33   R(13,14)                1.2721         estimate D2E/DX2                !
 ! R34   R(14,15)                1.4668         estimate D2E/DX2                !
 ! R35   R(15,16)                1.2721         estimate D2E/DX2                !
 ! R36   R(15,23)                1.3754         estimate D2E/DX2                !
 ! R37   R(16,17)                1.4496         estimate D2E/DX2                !
 ! R38   R(17,18)                1.5316         estimate D2E/DX2                !
 ! R39   R(17,22)                1.5529         estimate D2E/DX2                !
 ! R40   R(17,50)                1.0972         estimate D2E/DX2                !
 ! R41   R(18,19)                1.5326         estimate D2E/DX2                !
 ! R42   R(18,51)                1.0925         estimate D2E/DX2                !
 ! R43   R(18,52)                1.0937         estimate D2E/DX2                !
 ! R44   R(19,20)                1.5284         estimate D2E/DX2                !
 ! R45   R(19,21)                1.5255         estimate D2E/DX2                !
 ! R46   R(19,53)                1.0955         estimate D2E/DX2                !
 ! R47   R(20,54)                1.0883         estimate D2E/DX2                !
 ! R48   R(20,55)                1.0875         estimate D2E/DX2                !
 ! R49   R(20,56)                1.0883         estimate D2E/DX2                !
 ! R50   R(21,57)                1.0885         estimate D2E/DX2                !
 ! R51   R(21,58)                1.0857         estimate D2E/DX2                !
 ! R52   R(21,59)                1.0877         estimate D2E/DX2                !
 ! R53   R(22,23)                1.4509         estimate D2E/DX2                !
 ! R54   R(22,60)                1.0969         estimate D2E/DX2                !
 ! R55   R(22,61)                1.0924         estimate D2E/DX2                !
 ! R56   R(23,24)                1.3892         estimate D2E/DX2                !
 ! R57   R(24,25)                1.3948         estimate D2E/DX2                !
 ! R58   R(24,30)                1.3936         estimate D2E/DX2                !
 ! R59   R(25,26)                1.38           estimate D2E/DX2                !
 ! R60   R(25,62)                1.0794         estimate D2E/DX2                !
 ! R61   R(26,27)                1.3892         estimate D2E/DX2                !
 ! R62   R(26,63)                1.0812         estimate D2E/DX2                !
 ! R63   R(27,28)                1.4985         estimate D2E/DX2                !
 ! R64   R(27,29)                1.3888         estimate D2E/DX2                !
 ! R65   R(28,64)                1.0875         estimate D2E/DX2                !
 ! R66   R(28,65)                1.0878         estimate D2E/DX2                !
 ! R67   R(28,66)                1.0908         estimate D2E/DX2                !
 ! R68   R(29,30)                1.3802         estimate D2E/DX2                !
 ! R69   R(29,67)                1.0807         estimate D2E/DX2                !
 ! R70   R(30,68)                1.0787         estimate D2E/DX2                !
 ! R71   R(31,32)                1.3796         estimate D2E/DX2                !
 ! R72   R(31,69)                1.0787         estimate D2E/DX2                !
 ! R73   R(32,70)                1.0807         estimate D2E/DX2                !
 ! A1    A(2,1,33)             111.0226         estimate D2E/DX2                !
 ! A2    A(2,1,34)             110.6734         estimate D2E/DX2                !
 ! A3    A(2,1,35)             110.1406         estimate D2E/DX2                !
 ! A4    A(33,1,34)            108.7429         estimate D2E/DX2                !
 ! A5    A(33,1,35)            108.4317         estimate D2E/DX2                !
 ! A6    A(34,1,35)            107.7361         estimate D2E/DX2                !
 ! A7    A(1,2,3)              121.4188         estimate D2E/DX2                !
 ! A8    A(1,2,32)             120.4517         estimate D2E/DX2                !
 ! A9    A(3,2,32)             118.1295         estimate D2E/DX2                !
 ! A10   A(2,3,4)              121.1777         estimate D2E/DX2                !
 ! A11   A(2,3,36)             119.5683         estimate D2E/DX2                !
 ! A12   A(4,3,36)             119.2508         estimate D2E/DX2                !
 ! A13   A(3,4,5)              120.3439         estimate D2E/DX2                !
 ! A14   A(3,4,37)             120.2093         estimate D2E/DX2                !
 ! A15   A(5,4,37)             119.4456         estimate D2E/DX2                !
 ! A16   A(4,5,6)              120.2274         estimate D2E/DX2                !
 ! A17   A(4,5,31)             118.7003         estimate D2E/DX2                !
 ! A18   A(6,5,31)             121.0723         estimate D2E/DX2                !
 ! A19   A(5,6,7)              124.7012         estimate D2E/DX2                !
 ! A20   A(5,6,14)             127.3526         estimate D2E/DX2                !
 ! A21   A(7,6,14)             107.5527         estimate D2E/DX2                !
 ! A22   A(6,7,8)              102.2647         estimate D2E/DX2                !
 ! A23   A(6,7,38)             110.5325         estimate D2E/DX2                !
 ! A24   A(6,7,39)             111.017          estimate D2E/DX2                !
 ! A25   A(8,7,38)             113.2424         estimate D2E/DX2                !
 ! A26   A(8,7,39)             110.6796         estimate D2E/DX2                !
 ! A27   A(38,7,39)            108.9964         estimate D2E/DX2                !
 ! A28   A(7,8,9)              112.0702         estimate D2E/DX2                !
 ! A29   A(7,8,13)             104.9211         estimate D2E/DX2                !
 ! A30   A(7,8,40)             111.195          estimate D2E/DX2                !
 ! A31   A(9,8,13)             112.2739         estimate D2E/DX2                !
 ! A32   A(9,8,40)             108.5867         estimate D2E/DX2                !
 ! A33   A(13,8,40)            107.7058         estimate D2E/DX2                !
 ! A34   A(8,9,10)             114.0271         estimate D2E/DX2                !
 ! A35   A(8,9,41)             107.2579         estimate D2E/DX2                !
 ! A36   A(8,9,42)             109.0304         estimate D2E/DX2                !
 ! A37   A(10,9,41)            108.9968         estimate D2E/DX2                !
 ! A38   A(10,9,42)            109.3009         estimate D2E/DX2                !
 ! A39   A(41,9,42)            108.0551         estimate D2E/DX2                !
 ! A40   A(9,10,11)            111.2723         estimate D2E/DX2                !
 ! A41   A(9,10,12)            109.964          estimate D2E/DX2                !
 ! A42   A(9,10,43)            108.1712         estimate D2E/DX2                !
 ! A43   A(11,10,12)           110.2938         estimate D2E/DX2                !
 ! A44   A(11,10,43)           108.604          estimate D2E/DX2                !
 ! A45   A(12,10,43)           108.4554         estimate D2E/DX2                !
 ! A46   A(10,11,44)           110.4302         estimate D2E/DX2                !
 ! A47   A(10,11,45)           110.1646         estimate D2E/DX2                !
 ! A48   A(10,11,46)           109.9477         estimate D2E/DX2                !
 ! A49   A(44,11,45)           108.3597         estimate D2E/DX2                !
 ! A50   A(44,11,46)           109.2817         estimate D2E/DX2                !
 ! A51   A(45,11,46)           108.6145         estimate D2E/DX2                !
 ! A52   A(10,12,47)           110.3732         estimate D2E/DX2                !
 ! A53   A(10,12,48)           111.0459         estimate D2E/DX2                !
 ! A54   A(10,12,49)           110.3377         estimate D2E/DX2                !
 ! A55   A(47,12,48)           108.4093         estimate D2E/DX2                !
 ! A56   A(47,12,49)           108.2764         estimate D2E/DX2                !
 ! A57   A(48,12,49)           108.3154         estimate D2E/DX2                !
 ! A58   A(8,13,14)            108.743          estimate D2E/DX2                !
 ! A59   A(6,14,13)            115.7707         estimate D2E/DX2                !
 ! A60   A(6,14,15)            120.7855         estimate D2E/DX2                !
 ! A61   A(13,14,15)           123.3899         estimate D2E/DX2                !
 ! A62   A(14,15,16)           123.4015         estimate D2E/DX2                !
 ! A63   A(14,15,23)           120.7768         estimate D2E/DX2                !
 ! A64   A(16,15,23)           115.7695         estimate D2E/DX2                !
 ! A65   A(15,16,17)           108.7376         estimate D2E/DX2                !
 ! A66   A(16,17,18)           112.2979         estimate D2E/DX2                !
 ! A67   A(16,17,22)           104.9155         estimate D2E/DX2                !
 ! A68   A(16,17,50)           107.6875         estimate D2E/DX2                !
 ! A69   A(18,17,22)           112.0923         estimate D2E/DX2                !
 ! A70   A(18,17,50)           108.5761         estimate D2E/DX2                !
 ! A71   A(22,17,50)           111.182          estimate D2E/DX2                !
 ! A72   A(17,18,19)           114.0069         estimate D2E/DX2                !
 ! A73   A(17,18,51)           109.0397         estimate D2E/DX2                !
 ! A74   A(17,18,52)           107.2554         estimate D2E/DX2                !
 ! A75   A(19,18,51)           109.309          estimate D2E/DX2                !
 ! A76   A(19,18,52)           109.0001         estimate D2E/DX2                !
 ! A77   A(51,18,52)           108.058          estimate D2E/DX2                !
 ! A78   A(18,19,20)           109.9791         estimate D2E/DX2                !
 ! A79   A(18,19,21)           111.2653         estimate D2E/DX2                !
 ! A80   A(18,19,53)           108.1668         estimate D2E/DX2                !
 ! A81   A(20,19,21)           110.2955         estimate D2E/DX2                !
 ! A82   A(20,19,53)           108.4504         estimate D2E/DX2                !
 ! A83   A(21,19,53)           108.6033         estimate D2E/DX2                !
 ! A84   A(19,20,54)           110.3782         estimate D2E/DX2                !
 ! A85   A(19,20,55)           110.3333         estimate D2E/DX2                !
 ! A86   A(19,20,56)           111.0468         estimate D2E/DX2                !
 ! A87   A(54,20,55)           108.2761         estimate D2E/DX2                !
 ! A88   A(54,20,56)           108.4089         estimate D2E/DX2                !
 ! A89   A(55,20,56)           108.3144         estimate D2E/DX2                !
 ! A90   A(19,21,57)           110.1628         estimate D2E/DX2                !
 ! A91   A(19,21,58)           109.9435         estimate D2E/DX2                !
 ! A92   A(19,21,59)           110.431          estimate D2E/DX2                !
 ! A93   A(57,21,58)           108.6215         estimate D2E/DX2                !
 ! A94   A(57,21,59)           108.36           estimate D2E/DX2                !
 ! A95   A(58,21,59)           109.2797         estimate D2E/DX2                !
 ! A96   A(17,22,23)           102.2594         estimate D2E/DX2                !
 ! A97   A(17,22,60)           110.684          estimate D2E/DX2                !
 ! A98   A(17,22,61)           113.2451         estimate D2E/DX2                !
 ! A99   A(23,22,60)           111.0098         estimate D2E/DX2                !
 ! A100  A(23,22,61)           110.5351         estimate D2E/DX2                !
 ! A101  A(60,22,61)           108.9987         estimate D2E/DX2                !
 ! A102  A(15,23,22)           107.5466         estimate D2E/DX2                !
 ! A103  A(15,23,24)           127.3719         estimate D2E/DX2                !
 ! A104  A(22,23,24)           124.6895         estimate D2E/DX2                !
 ! A105  A(23,24,25)           120.2138         estimate D2E/DX2                !
 ! A106  A(23,24,30)           121.0888         estimate D2E/DX2                !
 ! A107  A(25,24,30)           118.6973         estimate D2E/DX2                !
 ! A108  A(24,25,26)           120.3348         estimate D2E/DX2                !
 ! A109  A(24,25,62)           119.4342         estimate D2E/DX2                !
 ! A110  A(26,25,62)           120.2295         estimate D2E/DX2                !
 ! A111  A(25,26,27)           121.1902         estimate D2E/DX2                !
 ! A112  A(25,26,63)           119.303          estimate D2E/DX2                !
 ! A113  A(27,26,63)           119.503          estimate D2E/DX2                !
 ! A114  A(26,27,28)           121.0807         estimate D2E/DX2                !
 ! A115  A(26,27,29)           118.1225         estimate D2E/DX2                !
 ! A116  A(28,27,29)           120.7945         estimate D2E/DX2                !
 ! A117  A(27,28,64)           110.9898         estimate D2E/DX2                !
 ! A118  A(27,28,65)           110.8789         estimate D2E/DX2                !
 ! A119  A(27,28,66)           109.9735         estimate D2E/DX2                !
 ! A120  A(64,28,65)           108.9206         estimate D2E/DX2                !
 ! A121  A(64,28,66)           108.1071         estimate D2E/DX2                !
 ! A122  A(65,28,66)           107.8737         estimate D2E/DX2                !
 ! A123  A(27,29,30)           121.336          estimate D2E/DX2                !
 ! A124  A(27,29,67)           119.4418         estimate D2E/DX2                !
 ! A125  A(30,29,67)           119.2207         estimate D2E/DX2                !
 ! A126  A(24,30,29)           120.2271         estimate D2E/DX2                !
 ! A127  A(24,30,68)           120.1218         estimate D2E/DX2                !
 ! A128  A(29,30,68)           119.6375         estimate D2E/DX2                !
 ! A129  A(5,31,32)            120.2154         estimate D2E/DX2                !
 ! A130  A(5,31,69)            120.0987         estimate D2E/DX2                !
 ! A131  A(32,31,69)           119.6714         estimate D2E/DX2                !
 ! A132  A(2,32,31)            121.3402         estimate D2E/DX2                !
 ! A133  A(2,32,70)            119.3567         estimate D2E/DX2                !
 ! A134  A(31,32,70)           119.3012         estimate D2E/DX2                !
 ! D1    D(33,1,2,3)             9.0172         estimate D2E/DX2                !
 ! D2    D(33,1,2,32)         -171.0304         estimate D2E/DX2                !
 ! D3    D(34,1,2,3)           129.8773         estimate D2E/DX2                !
 ! D4    D(34,1,2,32)          -50.1703         estimate D2E/DX2                !
 ! D5    D(35,1,2,3)          -111.0974         estimate D2E/DX2                !
 ! D6    D(35,1,2,32)           68.855          estimate D2E/DX2                !
 ! D7    D(1,2,3,4)            178.7792         estimate D2E/DX2                !
 ! D8    D(1,2,3,36)            -1.8775         estimate D2E/DX2                !
 ! D9    D(32,2,3,4)            -1.1742         estimate D2E/DX2                !
 ! D10   D(32,2,3,36)          178.1691         estimate D2E/DX2                !
 ! D11   D(1,2,32,31)         -178.3309         estimate D2E/DX2                !
 ! D12   D(1,2,32,70)            1.1546         estimate D2E/DX2                !
 ! D13   D(3,2,32,31)            1.623          estimate D2E/DX2                !
 ! D14   D(3,2,32,70)         -178.8915         estimate D2E/DX2                !
 ! D15   D(2,3,4,5)             -1.3298         estimate D2E/DX2                !
 ! D16   D(2,3,4,37)           178.2804         estimate D2E/DX2                !
 ! D17   D(36,3,4,5)           179.3249         estimate D2E/DX2                !
 ! D18   D(36,3,4,37)           -1.0649         estimate D2E/DX2                !
 ! D19   D(3,4,5,6)           -176.6687         estimate D2E/DX2                !
 ! D20   D(3,4,5,31)             3.3643         estimate D2E/DX2                !
 ! D21   D(37,4,5,6)             3.7181         estimate D2E/DX2                !
 ! D22   D(37,4,5,31)         -176.2489         estimate D2E/DX2                !
 ! D23   D(4,5,6,7)           -149.3494         estimate D2E/DX2                !
 ! D24   D(4,5,6,14)            38.7636         estimate D2E/DX2                !
 ! D25   D(31,5,6,7)            30.6167         estimate D2E/DX2                !
 ! D26   D(31,5,6,14)         -141.2702         estimate D2E/DX2                !
 ! D27   D(4,5,31,32)           -2.9211         estimate D2E/DX2                !
 ! D28   D(4,5,31,69)          178.4683         estimate D2E/DX2                !
 ! D29   D(6,5,31,32)          177.1122         estimate D2E/DX2                !
 ! D30   D(6,5,31,69)           -1.4983         estimate D2E/DX2                !
 ! D31   D(5,6,7,8)            178.5063         estimate D2E/DX2                !
 ! D32   D(5,6,7,38)            57.6656         estimate D2E/DX2                !
 ! D33   D(5,6,7,39)           -63.416          estimate D2E/DX2                !
 ! D34   D(14,6,7,8)            -8.2509         estimate D2E/DX2                !
 ! D35   D(14,6,7,38)         -129.0916         estimate D2E/DX2                !
 ! D36   D(14,6,7,39)          109.8268         estimate D2E/DX2                !
 ! D37   D(5,6,14,13)          179.0452         estimate D2E/DX2                !
 ! D38   D(5,6,14,15)            1.6271         estimate D2E/DX2                !
 ! D39   D(7,6,14,13)            6.0349         estimate D2E/DX2                !
 ! D40   D(7,6,14,15)         -171.3832         estimate D2E/DX2                !
 ! D41   D(6,7,8,9)            130.0549         estimate D2E/DX2                !
 ! D42   D(6,7,8,13)             7.9603         estimate D2E/DX2                !
 ! D43   D(6,7,8,40)          -108.2016         estimate D2E/DX2                !
 ! D44   D(38,7,8,9)          -110.9984         estimate D2E/DX2                !
 ! D45   D(38,7,8,13)          126.907          estimate D2E/DX2                !
 ! D46   D(38,7,8,40)           10.7452         estimate D2E/DX2                !
 ! D47   D(39,7,8,9)            11.7375         estimate D2E/DX2                !
 ! D48   D(39,7,8,13)         -110.3571         estimate D2E/DX2                !
 ! D49   D(39,7,8,40)          133.4811         estimate D2E/DX2                !
 ! D50   D(7,8,9,10)           172.9805         estimate D2E/DX2                !
 ! D51   D(7,8,9,41)            52.2042         estimate D2E/DX2                !
 ! D52   D(7,8,9,42)           -64.5689         estimate D2E/DX2                !
 ! D53   D(13,8,9,10)          -69.2236         estimate D2E/DX2                !
 ! D54   D(13,8,9,41)          170.0001         estimate D2E/DX2                !
 ! D55   D(13,8,9,42)           53.227          estimate D2E/DX2                !
 ! D56   D(40,8,9,10)           49.7546         estimate D2E/DX2                !
 ! D57   D(40,8,9,41)          -71.0217         estimate D2E/DX2                !
 ! D58   D(40,8,9,42)          172.2051         estimate D2E/DX2                !
 ! D59   D(7,8,13,14)           -4.9663         estimate D2E/DX2                !
 ! D60   D(9,8,13,14)         -126.9282         estimate D2E/DX2                !
 ! D61   D(40,8,13,14)         113.5779         estimate D2E/DX2                !
 ! D62   D(8,9,10,11)           73.9765         estimate D2E/DX2                !
 ! D63   D(8,9,10,12)         -163.5156         estimate D2E/DX2                !
 ! D64   D(8,9,10,43)          -45.2398         estimate D2E/DX2                !
 ! D65   D(41,9,10,11)        -166.2218         estimate D2E/DX2                !
 ! D66   D(41,9,10,12)         -43.714          estimate D2E/DX2                !
 ! D67   D(41,9,10,43)          74.5618         estimate D2E/DX2                !
 ! D68   D(42,9,10,11)         -48.3258         estimate D2E/DX2                !
 ! D69   D(42,9,10,12)          74.1821         estimate D2E/DX2                !
 ! D70   D(42,9,10,43)        -167.5421         estimate D2E/DX2                !
 ! D71   D(9,10,11,44)        -174.8161         estimate D2E/DX2                !
 ! D72   D(9,10,11,45)          65.5232         estimate D2E/DX2                !
 ! D73   D(9,10,11,46)         -54.1482         estimate D2E/DX2                !
 ! D74   D(12,10,11,44)         62.8664         estimate D2E/DX2                !
 ! D75   D(12,10,11,45)        -56.7943         estimate D2E/DX2                !
 ! D76   D(12,10,11,46)       -176.4657         estimate D2E/DX2                !
 ! D77   D(43,10,11,44)        -55.8584         estimate D2E/DX2                !
 ! D78   D(43,10,11,45)       -175.5191         estimate D2E/DX2                !
 ! D79   D(43,10,11,46)         64.8095         estimate D2E/DX2                !
 ! D80   D(9,10,12,47)         -59.7553         estimate D2E/DX2                !
 ! D81   D(9,10,12,48)          60.4996         estimate D2E/DX2                !
 ! D82   D(9,10,12,49)        -179.3867         estimate D2E/DX2                !
 ! D83   D(11,10,12,47)         63.3289         estimate D2E/DX2                !
 ! D84   D(11,10,12,48)       -176.4161         estimate D2E/DX2                !
 ! D85   D(11,10,12,49)        -56.3025         estimate D2E/DX2                !
 ! D86   D(43,10,12,47)       -177.8555         estimate D2E/DX2                !
 ! D87   D(43,10,12,48)        -57.6006         estimate D2E/DX2                !
 ! D88   D(43,10,12,49)         62.513          estimate D2E/DX2                !
 ! D89   D(8,13,14,6)           -0.3989         estimate D2E/DX2                !
 ! D90   D(8,13,14,15)         176.9444         estimate D2E/DX2                !
 ! D91   D(6,14,15,16)        -122.5835         estimate D2E/DX2                !
 ! D92   D(6,14,15,23)          54.6774         estimate D2E/DX2                !
 ! D93   D(13,14,15,16)         60.2014         estimate D2E/DX2                !
 ! D94   D(13,14,15,23)       -122.5377         estimate D2E/DX2                !
 ! D95   D(14,15,16,17)        177.0421         estimate D2E/DX2                !
 ! D96   D(23,15,16,17)         -0.3448         estimate D2E/DX2                !
 ! D97   D(14,15,23,22)       -171.3798         estimate D2E/DX2                !
 ! D98   D(14,15,23,24)          1.643          estimate D2E/DX2                !
 ! D99   D(16,15,23,22)          6.0811         estimate D2E/DX2                !
 ! D100  D(16,15,23,24)        179.1039         estimate D2E/DX2                !
 ! D101  D(15,16,17,18)       -127.089          estimate D2E/DX2                !
 ! D102  D(15,16,17,22)         -5.09           estimate D2E/DX2                !
 ! D103  D(15,16,17,50)        113.4277         estimate D2E/DX2                !
 ! D104  D(16,17,18,19)        -69.2549         estimate D2E/DX2                !
 ! D105  D(16,17,18,51)         53.199          estimate D2E/DX2                !
 ! D106  D(16,17,18,52)        169.979          estimate D2E/DX2                !
 ! D107  D(22,17,18,19)        172.9251         estimate D2E/DX2                !
 ! D108  D(22,17,18,51)        -64.621          estimate D2E/DX2                !
 ! D109  D(22,17,18,52)         52.159          estimate D2E/DX2                !
 ! D110  D(50,17,18,19)         49.7083         estimate D2E/DX2                !
 ! D111  D(50,17,18,51)        172.1622         estimate D2E/DX2                !
 ! D112  D(50,17,18,52)        -71.0578         estimate D2E/DX2                !
 ! D113  D(16,17,22,23)          8.1025         estimate D2E/DX2                !
 ! D114  D(16,17,22,60)       -110.2054         estimate D2E/DX2                !
 ! D115  D(16,17,22,61)        127.0505         estimate D2E/DX2                !
 ! D116  D(18,17,22,23)        130.2355         estimate D2E/DX2                !
 ! D117  D(18,17,22,60)         11.9275         estimate D2E/DX2                !
 ! D118  D(18,17,22,61)       -110.8166         estimate D2E/DX2                !
 ! D119  D(50,17,22,23)       -108.0283         estimate D2E/DX2                !
 ! D120  D(50,17,22,60)        133.6637         estimate D2E/DX2                !
 ! D121  D(50,17,22,61)         10.9196         estimate D2E/DX2                !
 ! D122  D(17,18,19,20)       -163.4574         estimate D2E/DX2                !
 ! D123  D(17,18,19,21)         74.0268         estimate D2E/DX2                !
 ! D124  D(17,18,19,53)        -45.1817         estimate D2E/DX2                !
 ! D125  D(51,18,19,20)         74.2363         estimate D2E/DX2                !
 ! D126  D(51,18,19,21)        -48.2794         estimate D2E/DX2                !
 ! D127  D(51,18,19,53)       -167.4879         estimate D2E/DX2                !
 ! D128  D(52,18,19,20)        -43.6698         estimate D2E/DX2                !
 ! D129  D(52,18,19,21)       -166.1856         estimate D2E/DX2                !
 ! D130  D(52,18,19,53)         74.6059         estimate D2E/DX2                !
 ! D131  D(18,19,20,54)        -59.8203         estimate D2E/DX2                !
 ! D132  D(18,19,20,55)       -179.4517         estimate D2E/DX2                !
 ! D133  D(18,19,20,56)         60.4382         estimate D2E/DX2                !
 ! D134  D(21,19,20,54)         63.2665         estimate D2E/DX2                !
 ! D135  D(21,19,20,55)        -56.3649         estimate D2E/DX2                !
 ! D136  D(21,19,20,56)       -176.475          estimate D2E/DX2                !
 ! D137  D(53,19,20,54)       -177.9209         estimate D2E/DX2                !
 ! D138  D(53,19,20,55)         62.4477         estimate D2E/DX2                !
 ! D139  D(53,19,20,56)        -57.6624         estimate D2E/DX2                !
 ! D140  D(18,19,21,57)         65.6641         estimate D2E/DX2                !
 ! D141  D(18,19,21,58)        -54.0122         estimate D2E/DX2                !
 ! D142  D(18,19,21,59)       -174.6754         estimate D2E/DX2                !
 ! D143  D(20,19,21,57)        -56.6691         estimate D2E/DX2                !
 ! D144  D(20,19,21,58)       -176.3453         estimate D2E/DX2                !
 ! D145  D(20,19,21,59)         62.9915         estimate D2E/DX2                !
 ! D146  D(53,19,21,57)       -175.3884         estimate D2E/DX2                !
 ! D147  D(53,19,21,58)         64.9354         estimate D2E/DX2                !
 ! D148  D(53,19,21,59)        -55.7278         estimate D2E/DX2                !
 ! D149  D(17,22,23,15)         -8.3662         estimate D2E/DX2                !
 ! D150  D(17,22,23,24)        178.3762         estimate D2E/DX2                !
 ! D151  D(60,22,23,15)        109.7103         estimate D2E/DX2                !
 ! D152  D(60,22,23,24)        -63.5472         estimate D2E/DX2                !
 ! D153  D(61,22,23,15)       -129.2083         estimate D2E/DX2                !
 ! D154  D(61,22,23,24)         57.5341         estimate D2E/DX2                !
 ! D155  D(15,23,24,25)         38.7416         estimate D2E/DX2                !
 ! D156  D(15,23,24,30)       -141.3868         estimate D2E/DX2                !
 ! D157  D(22,23,24,25)       -149.3561         estimate D2E/DX2                !
 ! D158  D(22,23,24,30)         30.5156         estimate D2E/DX2                !
 ! D159  D(23,24,25,26)       -176.7668         estimate D2E/DX2                !
 ! D160  D(23,24,25,62)          3.6912         estimate D2E/DX2                !
 ! D161  D(30,24,25,26)          3.3585         estimate D2E/DX2                !
 ! D162  D(30,24,25,62)       -176.1835         estimate D2E/DX2                !
 ! D163  D(23,24,30,29)        177.2173         estimate D2E/DX2                !
 ! D164  D(23,24,30,68)         -1.4331         estimate D2E/DX2                !
 ! D165  D(25,24,30,29)         -2.9091         estimate D2E/DX2                !
 ! D166  D(25,24,30,68)        178.4404         estimate D2E/DX2                !
 ! D167  D(24,25,26,27)         -1.3442         estimate D2E/DX2                !
 ! D168  D(24,25,26,63)        179.3645         estimate D2E/DX2                !
 ! D169  D(62,25,26,27)        178.1941         estimate D2E/DX2                !
 ! D170  D(62,25,26,63)         -1.0971         estimate D2E/DX2                !
 ! D171  D(25,26,27,28)        178.3012         estimate D2E/DX2                !
 ! D172  D(25,26,27,29)         -1.1467         estimate D2E/DX2                !
 ! D173  D(63,26,27,28)         -2.4089         estimate D2E/DX2                !
 ! D174  D(63,26,27,29)        178.1431         estimate D2E/DX2                !
 ! D175  D(26,27,28,64)         24.0273         estimate D2E/DX2                !
 ! D176  D(26,27,28,65)        145.2292         estimate D2E/DX2                !
 ! D177  D(26,27,28,66)        -95.552          estimate D2E/DX2                !
 ! D178  D(29,27,28,64)       -156.5394         estimate D2E/DX2                !
 ! D179  D(29,27,28,65)        -35.3376         estimate D2E/DX2                !
 ! D180  D(29,27,28,66)         83.8813         estimate D2E/DX2                !
 ! D181  D(26,27,29,30)          1.6022         estimate D2E/DX2                !
 ! D182  D(26,27,29,67)       -178.8544         estimate D2E/DX2                !
 ! D183  D(28,27,29,30)       -177.8474         estimate D2E/DX2                !
 ! D184  D(28,27,29,67)          1.696          estimate D2E/DX2                !
 ! D185  D(27,29,30,24)          0.4366         estimate D2E/DX2                !
 ! D186  D(27,29,30,68)        179.0936         estimate D2E/DX2                !
 ! D187  D(67,29,30,24)       -179.1078         estimate D2E/DX2                !
 ! D188  D(67,29,30,68)         -0.4508         estimate D2E/DX2                !
 ! D189  D(5,31,32,2)            0.4353         estimate D2E/DX2                !
 ! D190  D(5,31,32,70)        -179.0505         estimate D2E/DX2                !
 ! D191  D(69,31,32,2)         179.0519         estimate D2E/DX2                !
 ! D192  D(69,31,32,70)         -0.4339         estimate D2E/DX2                !
 --------------------------------------------------------------------------------
 Trust Radius=3.00D-01 FncErr=1.00D-07 GrdErr=1.00D-06 EigMax=2.50D+02 EigMin=1.00D-04
 Number of steps in this run=    409 maximum allowed number of steps=    420.
 GradGradGradGradGradGradGradGradGradGradGradGradGradGradGradGradGradGrad

 Leave Link  103 at Mon Feb 26 02:03:56 2024, MaxMem=  7516192768 cpu:               1.0 elap:               0.0
 (Enter /public/apps/g16-C01//g16/l202.exe)
 Symmetry turned off by external request.
 Stoichiometry    C28H38N4
 Framework group  C1[X(C28H38N4)]
 Deg. of freedom   204
 Full point group                 C1      NOp   1
                          Input orientation:                          
 ---------------------------------------------------------------------
 Center     Atomic      Atomic             Coordinates (Angstroms)
 Number     Number       Type             X           Y           Z
 ---------------------------------------------------------------------
      1          6           0       -2.386197    4.589382    1.837430
      2          6           0       -1.548669    3.350552    1.740638
      3          6           0       -2.125750    2.096569    1.591838
      4          6           0       -1.348634    0.961063    1.478142
      5          6           0        0.042450    1.056111    1.483137
      6          7           0        0.821682   -0.079181    1.299372
      7          6           0        2.138829   -0.278919    1.874203
      8          6           0        2.503256   -1.704140    1.376621
      9          6           0        3.893607   -1.751988    0.735780
     10          6           0        4.369547   -3.165244    0.382464
     11          6           0        3.639387   -3.704816   -0.843399
     12          6           0        5.878884   -3.162701    0.141982
     13          7           0        1.453864   -2.051822    0.439037
     14          6           0        0.579208   -1.128151    0.443526
     15          6           0       -0.593101   -1.122257   -0.438009
     16          7           0       -1.477895   -2.036222   -0.432687
     17          6           0       -2.522125   -1.678919   -1.372505
     18          6           0       -3.914390   -1.713615   -0.735109
     19          6           0       -4.404302   -3.122578   -0.383656
     20          6           0       -5.914335   -3.106796   -0.148163
     21          6           0       -3.682937   -3.668859    0.844448
     22          6           0       -2.142843   -0.257642   -1.870095
     23          7           0       -0.823469   -0.071991   -1.295632
     24          6           0       -0.031415    1.053956   -1.481762
     25          6           0        1.358965    0.942759   -1.476478
     26          6           0        2.148648    2.068345   -1.594505
     27          6           0        1.585874    3.329127   -1.748448
     28          6           0        2.444587    4.553810   -1.838573
     29          6           0        0.201549    3.425634   -1.805057
     30          6           0       -0.601501    2.310154   -1.679165
     31          6           0        0.627333    2.306750    1.675989
     32          6           0       -0.162524    3.431322    1.797338
     33          1           0       -3.440115    4.341026    1.934418
     34          1           0       -2.087669    5.189099    2.695709
     35          1           0       -2.256910    5.200655    0.944042
     36          1           0       -3.202845    2.003518    1.574895
     37          1           0       -1.813930   -0.009033    1.390892
     38          1           0        2.097727   -0.199818    2.963034
     39          1           0        2.852218    0.459952    1.489229
     40          1           0        2.471438   -2.431154    2.197705
     41          1           0        4.594675   -1.307925    1.448135
     42          1           0        3.891504   -1.135612   -0.166237
     43          1           0        4.155088   -3.820741    1.233639
     44          1           0        3.919941   -4.739436   -1.027576
     45          1           0        3.897968   -3.117714   -1.722763
     46          1           0        2.566053   -3.646119   -0.690851
     47          1           0        6.131162   -2.489935   -0.675359
     48          1           0        6.415814   -2.839213    1.031564
     49          1           0        6.221560   -4.160983   -0.119883
     50          1           0       -2.495217   -2.406595   -2.193224
     51          1           0       -3.908760   -1.097588    0.167119
     52          1           0       -4.609401   -1.262756   -1.449121
     53          1           0       -4.192900   -3.779794   -1.234280
     54          1           0       -6.163366   -2.432893    0.669236
     55          1           0       -6.266747   -4.102332    0.111212
     56          1           0       -6.445404   -2.777385   -1.039087
     57          1           0       -3.940968   -3.081061    1.723514
     58          1           0       -2.608611   -3.617575    0.696219
     59          1           0       -3.971503   -4.701709    1.026139
     60          1           0       -2.848137    0.488796   -1.484728
     61          1           0       -2.101279   -0.178849   -2.958902
     62          1           0        1.812785   -0.032528   -1.386706
     63          1           0        3.224708    1.963947   -1.578037
     64          1           0        3.444140    4.303957   -2.186494
     65          1           0        2.007808    5.284591   -2.515708
     66          1           0        2.534070    5.019279   -0.856093
     67          1           0       -0.258234    4.393825   -1.943131
     68          1           0       -1.674181    2.418603   -1.712618
     69          1           0        1.701288    2.402459    1.708617
     70          1           0        0.306969    4.395477    1.930976
 ---------------------------------------------------------------------
 Rotational constants (GHZ):           0.1399951           0.1258215           0.0834130
 Leave Link  202 at Mon Feb 26 02:03:56 2024, MaxMem=  7516192768 cpu:               0.5 elap:               0.0
 (Enter /public/apps/g16-C01//g16/l301.exe)
 Standard basis: def2SVPP (5D, 7F)
 Ernie: Thresh=  0.10000D-02 Tol=  0.10000D-05 Strict=F.
   524 basis functions,   952 primitive gaussians,   556 cartesian basis functions
   117 alpha electrons      117 beta electrons
       nuclear repulsion energy      3421.9240588223 Hartrees.
 IExCor=  402 DFT=T Ex+Corr=B3LYP ExCW=0 ScaHFX=  0.200000
 ScaDFX=  0.800000  0.720000  1.000000  0.810000 ScalE2=  1.000000  1.000000
 IRadAn=      5 IRanWt=     -1 IRanGd=            0 ICorTp=0 IEmpDi=141
 NAtoms=   70 NActive=   70 NUniq=   70 SFac= 1.00D+00 NAtFMM=   60 NAOKFM=T Big=T
 Integral buffers will be    131072 words long.
 Raffenetti 2 integral format.
 Two-electron integral symmetry is turned off.
 R6Disp:  Grimme-D3(BJ) Dispersion energy=       -0.1649419711 Hartrees.
 Nuclear repulsion after empirical dispersion term =     3421.7591168512 Hartrees.
 Leave Link  301 at Mon Feb 26 02:03:56 2024, MaxMem=  7516192768 cpu:               1.5 elap:               0.1
 (Enter /public/apps/g16-C01//g16/l302.exe)
 NPDir=0 NMtPBC=     1 NCelOv=     1 NCel=       1 NClECP=     1 NCelD=      1
         NCelK=      1 NCelE2=     1 NClLst=     1 CellRange=     0.0.
 One-electron integrals computed using PRISM.
   1 Symmetry operations used in ECPInt.
 ECPInt:  NShTT=   36046 NPrTT=  144446 LenC2=   32017 LenP2D=   82377.
 LDataN:  DoStor=T MaxTD1= 4 Len=   56
 NBasis=   524 RedAO= T EigKep=  2.04D-04  NBF=   524
 NBsUse=   524 1.00D-06 EigRej= -1.00D+00 NBFU=   524
 Precomputing XC quadrature grid using
 IXCGrd= 4 IRadAn=           5 IRanWt=          -1 IRanGd=           0 AccXCQ= 0.00D+00.
 Generated NRdTot=       0 NPtTot=           0 NUsed=           0 NTot=          32
 NSgBfM=   545   545   545   545   545 MxSgAt=    70 MxSgA2=    70.
 Leave Link  302 at Mon Feb 26 02:03:57 2024, MaxMem=  7516192768 cpu:              31.9 elap:               0.8
 (Enter /public/apps/g16-C01//g16/l303.exe)
 DipDrv:  MaxL=1.
 Leave Link  303 at Mon Feb 26 02:03:57 2024, MaxMem=  7516192768 cpu:               3.8 elap:               0.1
 (Enter /public/apps/g16-C01//g16/l401.exe)
 ExpMin= 1.22D-01 ExpMax= 1.71D+03 ExpMxC= 2.58D+02 IAcc=3 IRadAn=         5 AccDes= 0.00D+00
 Harris functional with IExCor=  402 and IRadAn=       5 diagonalized for initial guess.
 HarFok:  IExCor=  402 AccDes= 0.00D+00 IRadAn=         5 IDoV= 1 UseB2=F ITyADJ=14
 ICtDFT=  3500011 ScaDFX=  1.000000  1.000000  1.000000  1.000000
 FoFCou: FMM=F IPFlag=           0 FMFlag=      100000 FMFlg1=        2001
         NFxFlg=           0 DoJE=T BraDBF=F KetDBF=T FulRan=T
         wScrn=  0.000000 ICntrl=       500 IOpCl=  0 I1Cent=   200000004 NGrid=           0
         NMat0=    1 NMatS0=      1 NMatT0=    0 NMatD0=    1 NMtDS0=    0 NMtDT0=    0
 Symmetry not used in FoFCou.
 Harris En= -1308.00830274699    
 JPrj=0 DoOrth=F DoCkMO=F.
 Leave Link  401 at Mon Feb 26 02:03:59 2024, MaxMem=  7516192768 cpu:              68.2 elap:               1.8
 (Enter /public/apps/g16-C01//g16/l502.exe)
 Two-electron integral symmetry not used.
 Closed shell SCF:
 Using DIIS extrapolation, IDIIS=  1040.
 NGot=  7516192768 LenX=  7515545530 LenY=  7515235838
 Requested convergence on RMS density matrix=1.00D-08 within 128 cycles.
 Requested convergence on MAX density matrix=1.00D-06.
 Requested convergence on             energy=1.00D-06.
 No special actions if energy rises.
 Fock matrices will be formed incrementally for  20 cycles.
 Integral accuracy reduced to 1.0D-05 until final iterations.

 Cycle   1  Pass 0  IDiag  1:
 FoFJK:  IHMeth= 1 ICntrl=       0 DoSepK=F KAlg= 0 I1Cent=           0 FoldK=F
 IRaf= 990000000 NMat=       1 IRICut=       1 DoRegI=T DoRafI=F ISym2E= 0 IDoP0=0 IntGTp=1.
 FoFCou: FMM=T IPFlag=           0 FMFlag=      100000 FMFlg1=        2001
         NFxFlg=           0 DoJE=F BraDBF=F KetDBF=F FulRan=T
         wScrn=  0.000000 ICntrl=         0 IOpCl=  0 I1Cent=           0 NGrid=           0
         NMat0=    1 NMatS0=      1 NMatT0=    0 NMatD0=    1 NMtDS0=    0 NMtDT0=    0
 Symmetry not used in FoFCou.
 FMM levels:  10  Number of levels for PrismC:   9
 E= -1307.11069652497    
 DIIS: error= 4.85D-02 at cycle   1 NSaved=   1.
 NSaved= 1 IEnMin= 1 EnMin= -1307.11069652497     IErMin= 1 ErrMin= 4.85D-02
 ErrMax= 4.85D-02  0.00D+00 EMaxC= 1.00D-01 BMatC= 7.81D-01 BMatP= 7.81D-01
 IDIUse=3 WtCom= 5.15D-01 WtEn= 4.85D-01
 Coeff-Com:  0.100D+01
 Coeff-En:   0.100D+01
 Coeff:      0.100D+01
 Gap=     0.243 Goal=   None    Shift=    0.000
 GapD=    0.243 DampG=1.000 DampE=0.500 DampFc=0.5000 IDamp=-1.
 Damping current iteration by 5.00D-01
 RMSDP=5.75D-03 MaxDP=1.80D-01              OVMax= 2.29D-01

 Cycle   2  Pass 0  IDiag  1:
 RMSU=  2.72D-03    CP:  9.45D-01
 E= -1307.44080170542     Delta-E=       -0.330105180456 Rises=F Damp=T
 DIIS: error= 9.75D-03 at cycle   2 NSaved=   2.
 NSaved= 2 IEnMin= 2 EnMin= -1307.44080170542     IErMin= 2 ErrMin= 9.75D-03
 ErrMax= 9.75D-03  0.00D+00 EMaxC= 1.00D-01 BMatC= 8.17D-02 BMatP= 7.81D-01
 IDIUse=3 WtCom= 9.02D-01 WtEn= 9.75D-02
 Coeff-Com:  0.149D+00 0.851D+00
 Coeff-En:   0.228D+00 0.772D+00
 Coeff:      0.157D+00 0.843D+00
 Gap=     0.200 Goal=   None    Shift=    0.000
 RMSDP=2.00D-03 MaxDP=7.41D-02 DE=-3.30D-01 OVMax= 2.68D-01

 Cycle   3  Pass 0  IDiag  1:
 RMSU=  1.88D-03    CP:  9.16D-01  8.31D-01
 E= -1307.84962335462     Delta-E=       -0.408821649202 Rises=F Damp=F
 DIIS: error= 1.40D-02 at cycle   3 NSaved=   3.
 NSaved= 3 IEnMin= 3 EnMin= -1307.84962335462     IErMin= 2 ErrMin= 9.75D-03
 ErrMax= 1.40D-02  0.00D+00 EMaxC= 1.00D-01 BMatC= 1.49D-01 BMatP= 8.17D-02
 IDIUse=2 WtCom= 0.00D+00 WtEn= 1.00D+00
 Coeff-En:   0.000D+00 0.000D+00 0.100D+01
 Coeff:      0.000D+00 0.000D+00 0.100D+01
 Gap=     0.203 Goal=   None    Shift=    0.000
 RMSDP=3.35D-03 MaxDP=1.23D-01 DE=-4.09D-01 OVMax= 3.07D-01

 Cycle   4  Pass 0  IDiag  1:
 RMSU=  2.13D-03    CP:  9.29D-01  1.24D+00 -2.39D-01
 E= -1307.01686549017     Delta-E=        0.832757864455 Rises=F Damp=F
 DIIS: error= 4.61D-02 at cycle   4 NSaved=   4.
 NSaved= 4 IEnMin= 3 EnMin= -1307.84962335462     IErMin= 2 ErrMin= 9.75D-03
 ErrMax= 4.61D-02  0.00D+00 EMaxC= 1.00D-01 BMatC= 1.04D+00 BMatP= 8.17D-02
 IDIUse=2 WtCom= 0.00D+00 WtEn= 1.00D+00
 Coeff-En:   0.000D+00 0.000D+00 0.810D+00 0.190D+00
 Coeff:      0.000D+00 0.000D+00 0.810D+00 0.190D+00
 Gap=     0.219 Goal=   None    Shift=    0.000
 RMSDP=1.83D-03 MaxDP=8.11D-02 DE= 8.33D-01 OVMax= 1.73D-01

 Cycle   5  Pass 0  IDiag  1:
 RMSU=  3.85D-04    CP:  9.22D-01  9.93D-01  4.13D-01  4.73D-01
 E= -1307.90864197032     Delta-E=       -0.891776480150 Rises=F Damp=F
 DIIS: error= 1.30D-02 at cycle   5 NSaved=   5.
 NSaved= 5 IEnMin= 5 EnMin= -1307.90864197032     IErMin= 2 ErrMin= 9.75D-03
 ErrMax= 1.30D-02  0.00D+00 EMaxC= 1.00D-01 BMatC= 9.10D-02 BMatP= 8.17D-02
 IDIUse=2 WtCom= 0.00D+00 WtEn= 1.00D+00
 Coeff-En:   0.000D+00 0.000D+00 0.408D+00 0.000D+00 0.592D+00
 Coeff:      0.000D+00 0.000D+00 0.408D+00 0.000D+00 0.592D+00
 Gap=     0.175 Goal=   None    Shift=    0.000
 RMSDP=8.44D-04 MaxDP=2.86D-02 DE=-8.92D-01 OVMax= 9.45D-02

 Cycle   6  Pass 0  IDiag  1:
 RMSU=  9.67D-05    CP:  9.18D-01  8.99D-01  7.20D-01  2.18D-01  8.09D-01
 E= -1307.99185335399     Delta-E=       -0.083211383670 Rises=F Damp=F
 DIIS: error= 2.48D-03 at cycle   6 NSaved=   6.
 NSaved= 6 IEnMin= 6 EnMin= -1307.99185335399     IErMin= 6 ErrMin= 2.48D-03
 ErrMax= 2.48D-03  0.00D+00 EMaxC= 1.00D-01 BMatC= 3.36D-03 BMatP= 8.17D-02
 IDIUse=3 WtCom= 9.75D-01 WtEn= 2.48D-02
 Coeff-Com: -0.734D-02 0.642D-02 0.132D+00-0.450D-01 0.403D+00 0.512D+00
 Coeff-En:   0.000D+00 0.000D+00 0.000D+00 0.000D+00 0.210D-01 0.979D+00
 Coeff:     -0.716D-02 0.626D-02 0.128D+00-0.439D-01 0.393D+00 0.523D+00
 Gap=     0.178 Goal=   None    Shift=    0.000
 RMSDP=1.59D-04 MaxDP=6.44D-03 DE=-8.32D-02 OVMax= 1.87D-02

 Cycle   7  Pass 0  IDiag  1:
 RMSU=  5.60D-05    CP:  9.18D-01  9.23D-01  6.75D-01  2.61D-01  8.22D-01
                    CP:  5.29D-01
 E= -1307.99493822663     Delta-E=       -0.003084872640 Rises=F Damp=F
 DIIS: error= 3.76D-04 at cycle   7 NSaved=   7.
 NSaved= 7 IEnMin= 7 EnMin= -1307.99493822663     IErMin= 7 ErrMin= 3.76D-04
 ErrMax= 3.76D-04  0.00D+00 EMaxC= 1.00D-01 BMatC= 1.14D-04 BMatP= 3.36D-03
 IDIUse=3 WtCom= 9.96D-01 WtEn= 3.76D-03
 Coeff-Com: -0.438D-02 0.520D-02 0.360D-01-0.211D-01 0.156D+00 0.313D+00
 Coeff-Com:  0.515D+00
 Coeff-En:   0.000D+00 0.000D+00 0.000D+00 0.000D+00 0.000D+00 0.000D+00
 Coeff-En:   0.100D+01
 Coeff:     -0.437D-02 0.518D-02 0.358D-01-0.210D-01 0.155D+00 0.312D+00
 Coeff:      0.517D+00
 Gap=     0.178 Goal=   None    Shift=    0.000
 RMSDP=2.86D-05 MaxDP=9.54D-04 DE=-3.08D-03 OVMax= 2.00D-03

 Cycle   8  Pass 0  IDiag  1:
 RMSU=  1.39D-05    CP:  9.18D-01  9.21D-01  6.78D-01  2.57D-01  8.32D-01
                    CP:  5.94D-01  6.39D-01
 E= -1307.99506889558     Delta-E=       -0.000130668951 Rises=F Damp=F
 DIIS: error= 8.74D-05 at cycle   8 NSaved=   8.
 NSaved= 8 IEnMin= 8 EnMin= -1307.99506889558     IErMin= 8 ErrMin= 8.74D-05
 ErrMax= 8.74D-05  0.00D+00 EMaxC= 1.00D-01 BMatC= 3.33D-06 BMatP= 1.14D-04
 IDIUse=1 WtCom= 1.00D+00 WtEn= 0.00D+00
 Coeff-Com: -0.143D-02 0.125D-02 0.164D-02-0.349D-02 0.261D-01 0.114D+00
 Coeff-Com:  0.216D+00 0.646D+00
 Coeff:     -0.143D-02 0.125D-02 0.164D-02-0.349D-02 0.261D-01 0.114D+00
 Coeff:      0.216D+00 0.646D+00
 Gap=     0.178 Goal=   None    Shift=    0.000
 RMSDP=8.56D-06 MaxDP=4.21D-04 DE=-1.31D-04 OVMax= 3.68D-04

 Initial convergence to 1.0D-05 achieved.  Increase integral accuracy.
 Cycle   9  Pass 1  IDiag  1:
 E= -1307.99503003396     Delta-E=        0.000038861623 Rises=F Damp=F
 DIIS: error= 5.15D-04 at cycle   1 NSaved=   1.
 NSaved= 1 IEnMin= 1 EnMin= -1307.99503003396     IErMin= 1 ErrMin= 5.15D-04
 ErrMax= 5.15D-04  0.00D+00 EMaxC= 1.00D-01 BMatC= 4.05D-05 BMatP= 4.05D-05
 IDIUse=3 WtCom= 9.95D-01 WtEn= 5.15D-03
 Coeff-Com:  0.100D+01
 Coeff-En:   0.100D+01
 Coeff:      0.100D+01
 Gap=     0.178 Goal=   None    Shift=    0.000
 RMSDP=8.56D-06 MaxDP=4.21D-04 DE= 3.89D-05 OVMax= 9.12D-04

 Cycle  10  Pass 1  IDiag  1:
 RMSU=  3.56D-04    CP:  9.99D-01
 E= -1307.99507300561     Delta-E=       -0.000042971649 Rises=F Damp=F
 DIIS: error= 6.68D-05 at cycle   2 NSaved=   2.
 NSaved= 2 IEnMin= 2 EnMin= -1307.99507300561     IErMin= 2 ErrMin= 6.68D-05
 ErrMax= 6.68D-05  0.00D+00 EMaxC= 1.00D-01 BMatC= 1.31D-06 BMatP= 4.05D-05
 IDIUse=1 WtCom= 1.00D+00 WtEn= 0.00D+00
 Coeff-Com:  0.372D-01 0.963D+00
 Coeff:      0.372D-01 0.963D+00
 Gap=     0.178 Goal=   None    Shift=    0.000
 RMSDP=9.83D-06 MaxDP=3.80D-04 DE=-4.30D-05 OVMax= 9.58D-04

 Cycle  11  Pass 1  IDiag  1:
 RMSU=  8.71D-06    CP:  9.99D-01  1.01D+00
 E= -1307.99506885847     Delta-E=        0.000004147140 Rises=F Damp=F
 DIIS: error= 1.33D-04 at cycle   3 NSaved=   3.
 NSaved= 3 IEnMin= 2 EnMin= -1307.99507300561     IErMin= 2 ErrMin= 6.68D-05
 ErrMax= 1.33D-04  0.00D+00 EMaxC= 1.00D-01 BMatC= 4.98D-06 BMatP= 1.31D-06
 IDIUse=3 WtCom= 4.65D-01 WtEn= 5.35D-01
 Coeff-Com: -0.547D-02 0.666D+00 0.340D+00
 Coeff-En:   0.000D+00 0.742D+00 0.258D+00
 Coeff:     -0.254D-02 0.706D+00 0.296D+00
 Gap=     0.178 Goal=   None    Shift=    0.000
 RMSDP=5.22D-06 MaxDP=2.30D-04 DE= 4.15D-06 OVMax= 5.70D-04

 Cycle  12  Pass 1  IDiag  1:
 RMSU=  1.32D-06    CP:  9.99D-01  1.01D+00  4.21D-01
 E= -1307.99507435247     Delta-E=       -0.000005494001 Rises=F Damp=F
 DIIS: error= 1.43D-05 at cycle   4 NSaved=   4.
 NSaved= 4 IEnMin= 4 EnMin= -1307.99507435247     IErMin= 4 ErrMin= 1.43D-05
 ErrMax= 1.43D-05  0.00D+00 EMaxC= 1.00D-01 BMatC= 1.24D-07 BMatP= 1.31D-06
 IDIUse=1 WtCom= 1.00D+00 WtEn= 0.00D+00
 Coeff-Com: -0.453D-02 0.435D+00 0.179D+00 0.390D+00
 Coeff:     -0.453D-02 0.435D+00 0.179D+00 0.390D+00
 Gap=     0.178 Goal=   None    Shift=    0.000
 RMSDP=8.33D-07 MaxDP=4.33D-05 DE=-5.49D-06 OVMax= 7.67D-05

 Cycle  13  Pass 1  IDiag  1:
 RMSU=  5.00D-07    CP:  9.99D-01  1.01D+00  3.58D-01  7.16D-01
 E= -1307.99507447436     Delta-E=       -0.000000121896 Rises=F Damp=F
 DIIS: error= 1.38D-06 at cycle   5 NSaved=   5.
 NSaved= 5 IEnMin= 5 EnMin= -1307.99507447436     IErMin= 5 ErrMin= 1.38D-06
 ErrMax= 1.38D-06  0.00D+00 EMaxC= 1.00D-01 BMatC= 2.49D-09 BMatP= 1.24D-07
 IDIUse=1 WtCom= 1.00D+00 WtEn= 0.00D+00
 Coeff-Com: -0.237D-02 0.220D+00 0.873D-01 0.230D+00 0.465D+00
 Coeff:     -0.237D-02 0.220D+00 0.873D-01 0.230D+00 0.465D+00
 Gap=     0.178 Goal=   None    Shift=    0.000
 RMSDP=1.43D-07 MaxDP=7.16D-06 DE=-1.22D-07 OVMax= 1.64D-05

 Cycle  14  Pass 1  IDiag  1:
 RMSU=  1.27D-07    CP:  9.99D-01  1.01D+00  3.58D-01  7.06D-01  8.74D-01
 E= -1307.99507447655     Delta-E=       -0.000000002185 Rises=F Damp=F
 DIIS: error= 3.71D-07 at cycle   6 NSaved=   6.
 NSaved= 6 IEnMin= 6 EnMin= -1307.99507447655     IErMin= 6 ErrMin= 3.71D-07
 ErrMax= 3.71D-07  0.00D+00 EMaxC= 1.00D-01 BMatC= 1.60D-10 BMatP= 2.49D-09
 IDIUse=1 WtCom= 1.00D+00 WtEn= 0.00D+00
 Coeff-Com: -0.670D-03 0.606D-01 0.235D-01 0.692D-01 0.243D+00 0.605D+00
 Coeff:     -0.670D-03 0.606D-01 0.235D-01 0.692D-01 0.243D+00 0.605D+00
 Gap=     0.178 Goal=   None    Shift=    0.000
 RMSDP=5.14D-08 MaxDP=1.85D-06 DE=-2.18D-09 OVMax= 5.07D-06

 Cycle  15  Pass 1  IDiag  1:
 RMSU=  4.61D-08    CP:  9.99D-01  1.01D+00  3.58D-01  7.07D-01  8.99D-01
                    CP:  8.67D-01
 E= -1307.99507447666     Delta-E=       -0.000000000111 Rises=F Damp=F
 DIIS: error= 1.59D-07 at cycle   7 NSaved=   7.
 NSaved= 7 IEnMin= 7 EnMin= -1307.99507447666     IErMin= 7 ErrMin= 1.59D-07
 ErrMax= 1.59D-07  0.00D+00 EMaxC= 1.00D-01 BMatC= 2.66D-11 BMatP= 1.60D-10
 IDIUse=1 WtCom= 1.00D+00 WtEn= 0.00D+00
 Coeff-Com: -0.408D-04 0.283D-02 0.984D-03 0.562D-02 0.738D-01 0.349D+00
 Coeff-Com:  0.568D+00
 Coeff:     -0.408D-04 0.283D-02 0.984D-03 0.562D-02 0.738D-01 0.349D+00
 Coeff:      0.568D+00
 Gap=     0.178 Goal=   None    Shift=    0.000
 RMSDP=2.04D-08 MaxDP=7.15D-07 DE=-1.11D-10 OVMax= 1.99D-06

 Cycle  16  Pass 1  IDiag  1:
 RMSU=  8.65D-09    CP:  9.99D-01  1.01D+00  3.58D-01  7.09D-01  9.06D-01
                    CP:  8.79D-01  6.20D-01
 E= -1307.99507447665     Delta-E=        0.000000000004 Rises=F Damp=F
 DIIS: error= 6.90D-08 at cycle   8 NSaved=   8.
 NSaved= 8 IEnMin= 7 EnMin= -1307.99507447666     IErMin= 8 ErrMin= 6.90D-08
 ErrMax= 6.90D-08  0.00D+00 EMaxC= 1.00D-01 BMatC= 2.38D-12 BMatP= 2.66D-11
 IDIUse=1 WtCom= 1.00D+00 WtEn= 0.00D+00
 Coeff-Com:  0.156D-04-0.192D-02-0.801D-03-0.835D-03 0.301D-01 0.171D+00
 Coeff-Com:  0.338D+00 0.465D+00
 Coeff:      0.156D-04-0.192D-02-0.801D-03-0.835D-03 0.301D-01 0.171D+00
 Coeff:      0.338D+00 0.465D+00
 Gap=     0.178 Goal=   None    Shift=    0.000
 RMSDP=4.41D-09 MaxDP=1.95D-07 DE= 3.64D-12 OVMax= 4.61D-07

 SCF Done:  E(RB3LYP) =  -1307.99507448     A.U. after   16 cycles
            NFock= 16  Conv=0.44D-08     -V/T= 2.0097
 KE= 1.295445436892D+03 PE=-9.871599135148D+03 EE= 3.846399506928D+03
 Leave Link  502 at Mon Feb 26 02:04:45 2024, MaxMem=  7516192768 cpu:            1794.9 elap:              45.5
 (Enter /public/apps/g16-C01//g16/l601.exe)
 Copying SCF densities to generalized density rwf, IOpCl= 0 IROHF=0.

 **********************************************************************

            Population analysis using the SCF Density.

 **********************************************************************

 Alpha  occ. eigenvalues --  -14.36045 -14.36038 -14.29487 -14.29483 -10.25801
 Alpha  occ. eigenvalues --  -10.25779 -10.22755 -10.22745 -10.21825 -10.21815
 Alpha  occ. eigenvalues --  -10.21128 -10.21120 -10.18897 -10.18894 -10.18416
 Alpha  occ. eigenvalues --  -10.18381 -10.18324 -10.18316 -10.18277 -10.18270
 Alpha  occ. eigenvalues --  -10.18203 -10.18182 -10.17747 -10.17742 -10.17385
 Alpha  occ. eigenvalues --  -10.17378 -10.17321 -10.17313 -10.15810 -10.15804
 Alpha  occ. eigenvalues --  -10.14039 -10.14033  -1.01489  -0.99153  -0.90048
 Alpha  occ. eigenvalues --   -0.89072  -0.84806  -0.84522  -0.81046  -0.79930
 Alpha  occ. eigenvalues --   -0.77927  -0.76651  -0.76407  -0.74876  -0.74440
 Alpha  occ. eigenvalues --   -0.74174  -0.69637  -0.69477  -0.68472  -0.66627
 Alpha  occ. eigenvalues --   -0.66473  -0.66409  -0.63295  -0.62094  -0.61912
 Alpha  occ. eigenvalues --   -0.60619  -0.59599  -0.58707  -0.58589  -0.55946
 Alpha  occ. eigenvalues --   -0.55567  -0.55294  -0.55284  -0.50898  -0.50112
 Alpha  occ. eigenvalues --   -0.48833  -0.48280  -0.47830  -0.47188  -0.46980
 Alpha  occ. eigenvalues --   -0.46469  -0.45222  -0.45186  -0.44888  -0.44009
 Alpha  occ. eigenvalues --   -0.43350  -0.43216  -0.42982  -0.42896  -0.42746
 Alpha  occ. eigenvalues --   -0.42664  -0.42360  -0.42313  -0.41800  -0.40048
 Alpha  occ. eigenvalues --   -0.39836  -0.39792  -0.39286  -0.39144  -0.38585
 Alpha  occ. eigenvalues --   -0.37892  -0.37556  -0.37480  -0.37039  -0.36731
 Alpha  occ. eigenvalues --   -0.36235  -0.35789  -0.35598  -0.35532  -0.35189
 Alpha  occ. eigenvalues --   -0.35041  -0.34524  -0.33018  -0.32393  -0.32252
 Alpha  occ. eigenvalues --   -0.31959  -0.31835  -0.31664  -0.31658  -0.27414
 Alpha  occ. eigenvalues --   -0.26847  -0.25804  -0.25799  -0.25473  -0.25026
 Alpha  occ. eigenvalues --   -0.20479  -0.20194
 Alpha virt. eigenvalues --   -0.02417  -0.01542  -0.00893  -0.00679   0.01096
 Alpha virt. eigenvalues --    0.04097   0.04879   0.05324   0.06465   0.06556
 Alpha virt. eigenvalues --    0.06894   0.07347   0.07704   0.07736   0.08386
 Alpha virt. eigenvalues --    0.09171   0.10261   0.10307   0.11143   0.11233
 Alpha virt. eigenvalues --    0.11466   0.11637   0.12059   0.12397   0.12669
 Alpha virt. eigenvalues --    0.13199   0.13512   0.13730   0.13920   0.14037
 Alpha virt. eigenvalues --    0.14382   0.14640   0.15678   0.16173   0.16451
 Alpha virt. eigenvalues --    0.16494   0.17066   0.17182   0.17330   0.17613
 Alpha virt. eigenvalues --    0.17765   0.18282   0.18614   0.18870   0.19292
 Alpha virt. eigenvalues --    0.19442   0.19613   0.20679   0.20766   0.21207
 Alpha virt. eigenvalues --    0.22693   0.23196   0.23349   0.23476   0.24593
 Alpha virt. eigenvalues --    0.25002   0.25203   0.25514   0.25917   0.26887
 Alpha virt. eigenvalues --    0.27255   0.27474   0.28008   0.28517   0.29408
 Alpha virt. eigenvalues --    0.29911   0.30250   0.31107   0.31576   0.32037
 Alpha virt. eigenvalues --    0.33310   0.33383   0.33664   0.34322   0.35553
 Alpha virt. eigenvalues --    0.36525   0.36981   0.38388   0.39750   0.40177
 Alpha virt. eigenvalues --    0.40794   0.41324   0.41614   0.41736   0.42581
 Alpha virt. eigenvalues --    0.42707   0.42727   0.43104   0.43358   0.43550
 Alpha virt. eigenvalues --    0.44034   0.44128   0.44650   0.45549   0.46055
 Alpha virt. eigenvalues --    0.46090   0.46609   0.47265   0.47512   0.48107
 Alpha virt. eigenvalues --    0.49077   0.49993   0.50497   0.50859   0.51251
 Alpha virt. eigenvalues --    0.51361   0.52164   0.52545   0.52587   0.54181
 Alpha virt. eigenvalues --    0.54471   0.55414   0.56794   0.56894   0.57881
 Alpha virt. eigenvalues --    0.59431   0.59503   0.60397   0.60430   0.61164
 Alpha virt. eigenvalues --    0.61727   0.61939   0.62351   0.62611   0.63320
 Alpha virt. eigenvalues --    0.63345   0.64018   0.64224   0.64562   0.65178
 Alpha virt. eigenvalues --    0.65498   0.65589   0.66549   0.66692   0.66909
 Alpha virt. eigenvalues --    0.67201   0.67386   0.67538   0.67837   0.67890
 Alpha virt. eigenvalues --    0.68108   0.68228   0.68333   0.68847   0.69189
 Alpha virt. eigenvalues --    0.69253   0.69614   0.69968   0.70257   0.70474
 Alpha virt. eigenvalues --    0.70546   0.70655   0.70981   0.71411   0.71451
 Alpha virt. eigenvalues --    0.71579   0.71671   0.72140   0.72319   0.72477
 Alpha virt. eigenvalues --    0.72779   0.72932   0.73318   0.73621   0.73841
 Alpha virt. eigenvalues --    0.74133   0.74344   0.74757   0.74993   0.75153
 Alpha virt. eigenvalues --    0.75291   0.75823   0.76017   0.76436   0.76531
 Alpha virt. eigenvalues --    0.76663   0.76761   0.77017   0.77627   0.77827
 Alpha virt. eigenvalues --    0.78083   0.78234   0.78992   0.79835   0.80434
 Alpha virt. eigenvalues --    0.81500   0.81884   0.82486   0.82551   0.82960
 Alpha virt. eigenvalues --    0.83165   0.83366   0.85130   0.85604   0.86063
 Alpha virt. eigenvalues --    0.88508   0.88904   0.88967   0.89649   0.89911
 Alpha virt. eigenvalues --    0.90467   0.92909   0.93919   0.94449   0.95189
 Alpha virt. eigenvalues --    0.95988   0.96294   0.98431   0.99941   1.01331
 Alpha virt. eigenvalues --    1.03377   1.03497   1.04403   1.04874   1.05124
 Alpha virt. eigenvalues --    1.06228   1.06961   1.08177   1.09481   1.10575
 Alpha virt. eigenvalues --    1.10933   1.11841   1.12831   1.13798   1.15998
 Alpha virt. eigenvalues --    1.16186   1.16983   1.19077   1.19841   1.22351
 Alpha virt. eigenvalues --    1.22729   1.23935   1.25095   1.25494   1.25960
 Alpha virt. eigenvalues --    1.28062   1.28972   1.31489   1.35057   1.35553
 Alpha virt. eigenvalues --    1.36162   1.37615   1.38605   1.39200   1.39530
 Alpha virt. eigenvalues --    1.42125   1.42433   1.44216   1.44623   1.45132
 Alpha virt. eigenvalues --    1.47218   1.47613   1.48486   1.50793   1.50945
 Alpha virt. eigenvalues --    1.51153   1.52480   1.52580   1.54726   1.56558
 Alpha virt. eigenvalues --    1.59224   1.62031   1.62089   1.64666   1.66262
 Alpha virt. eigenvalues --    1.67624   1.67952   1.70771   1.72679   1.76221
 Alpha virt. eigenvalues --    1.77385   1.78084   1.78270   1.79274   1.79282
 Alpha virt. eigenvalues --    1.79750   1.80131   1.81219   1.81481   1.81686
 Alpha virt. eigenvalues --    1.81838   1.83673   1.83841   1.84603   1.84718
 Alpha virt. eigenvalues --    1.85821   1.86568   1.87273   1.87845   1.88281
 Alpha virt. eigenvalues --    1.88758   1.89419   1.89765   1.90271   1.91025
 Alpha virt. eigenvalues --    1.92213   1.94323   1.94651   1.95298   1.96043
 Alpha virt. eigenvalues --    1.96743   1.96938   1.97908   1.98363   1.99382
 Alpha virt. eigenvalues --    1.99990   2.00907   2.01559   2.03574   2.04415
 Alpha virt. eigenvalues --    2.04993   2.05964   2.06145   2.07232   2.07375
 Alpha virt. eigenvalues --    2.07866   2.08129   2.09182   2.10917   2.11867
 Alpha virt. eigenvalues --    2.12111   2.13425   2.13848   2.14014   2.15229
 Alpha virt. eigenvalues --    2.15575   2.17061   2.17328   2.17759   2.17962
 Alpha virt. eigenvalues --    2.18323   2.18482   2.20729   2.20879   2.21339
 Alpha virt. eigenvalues --    2.21881   2.23514   2.23687   2.23887   2.25331
 Alpha virt. eigenvalues --    2.26876   2.27144   2.27652   2.28716   2.30985
 Alpha virt. eigenvalues --    2.31817   2.32928   2.34594   2.35420   2.38784
 Alpha virt. eigenvalues --    2.38798   2.39944   2.40323   2.40500   2.43731
 Alpha virt. eigenvalues --    2.45562   2.46616   2.47209   2.47797   2.47867
 Alpha virt. eigenvalues --    2.49008   2.49403   2.50529   2.52290   2.53842
 Alpha virt. eigenvalues --    2.56542   2.56648   2.58311   2.58437   2.59557
 Alpha virt. eigenvalues --    2.60064   2.62903   2.63202   2.65711   2.65833
 Alpha virt. eigenvalues --    2.69640   2.69898   2.72175   2.73509   2.73651
 Alpha virt. eigenvalues --    2.73917   2.75296   2.75721   2.76183   2.77420
 Alpha virt. eigenvalues --    2.77869   2.79468   2.79739   2.81784   2.82510
 Alpha virt. eigenvalues --    2.85997   2.86273   2.86490   2.91861   2.92834
 Alpha virt. eigenvalues --    2.98847   2.99547   3.05095   3.06383   3.19378
 Alpha virt. eigenvalues --    3.23854   3.24760   3.34893   3.38466   3.47461
 Alpha virt. eigenvalues --    3.48103   3.52615
          Condensed to atoms (all electrons):
 Mulliken charges:
               1
     1  C   -0.183454
     2  C    0.084737
     3  C   -0.148273
     4  C   -0.119291
     5  C    0.232947
     6  N   -0.239775
     7  C    0.054350
     8  C   -0.037042
     9  C   -0.096060
    10  C   -0.134492
    11  C   -0.226918
    12  C   -0.191294
    13  N   -0.158003
    14  C    0.041472
    15  C    0.041640
    16  N   -0.158008
[...]
 018,-0.00020188,0.00029852,0.00013723,0.00007879,-0.00033875,-0.000151
 94,-0.00005612,-0.00005082,-0.00000718,-0.00001665,0.00003543,-0.00000
 481,-0.00001240,-0.00001781,0.00001821,0.00000383,0.00001339,-0.000002
 89,-0.00000160,-0.00000827,0.00000589,-0.00000169,-0.00000791,-0.00000
 016,0.00008856,-0.00017390,-0.00011027,0.00006039,0.00038630,0.0002022
 7,0.00036547,-0.00002160,-0.00022988,-0.00026186,0.00033616,-0.0000241
 0,0.00009017,-0.00029806,-0.00007179,-0.00001773,0.00003062,0.00005283
 ,0.00001704,-0.00000360,-0.00000770,0.00000121,0.00000527,0.00000544,-
 0.00000241,0.00000330,0.00000724,0.00040217,0.00012684,-0.00000530,0.0
 0025244,-0.00058884,-0.00342931,-0.00333938,-0.00249743,0.00512761,-0.
 00024902,0.00144138,0.00522507,0.00016545,0.00055096,-0.00059441,0.000
 98240,0.00091011,0.00693153,0.00008706,-0.00020566,0.00030616,0.002852
 76,-0.00108575,0.00328543,0.01185337,0.00379191,-0.03636463,-0.0000087
 6,-0.00009211,-0.00004756,-0.00013949,-0.00000897,0.00009874,-0.000014
 19,0.00000024,0.00000695,0.00000501,0.00001833,0.00002875,0.00001169,-
 0.00007008,-0.00001934,0.00002656,0.00001292,-0.00004903,0.00000136,-0
 .00000508,0.00001099,0.00000439,0.00000509,-0.00000214,0.00000734,0.00
 000536,0.00001194,0.00000271,-0.00000636,0.00000466,0.00000219,0.00000
 087,-0.00000431,0.00000602,0.00000375,-0.00000357,-0.00000127,0.000000
 94,-0.00000340,0.00000330,-0.00000410,-0.00000372,0.00000388,0.0000029
 4,-0.00000447,-0.00000208,0.00000880,0.00000668,0.00000126,0.00000236,
 -0.00000103,-0.00000137,0.00000073,-0.00000118,0.00000410,-0.00000341,
 -0.00000085,-0.00000885,0.00002353,-0.00000921,0.00000507,-0.00000737,
 -0.00002208,-0.00001464,-0.00001010,-0.00000545,-0.00000102,-0.0000096
 3,-0.00000612,0.00000228,-0.00000126,-0.00000349,0.00000142,-0.0000002
 1,-0.00000078,-0.00000372,0.00000161,-0.00000362,0.00000713,-0.0000014
 8,-0.00000825,-0.00000232,0.00000373,0.00000586,-0.00000238,-0.0000019
 8,-0.00000398,0.00045094,0.00068622,0.00034475,-0.00020905,-0.00047665
 ,-0.00016022,-0.00028737,0.00008089,0.00014074,-0.00006100,-0.00006569
 ,-0.00082329,-0.00002805,-0.00004463,-0.00006033,-0.00006261,0.0000368
 7,-0.00004014,-0.00001949,0.00005869,0.00000488,-0.00025394,-0.0006744
 4,-0.00432278,-0.01297001,-0.00211939,0.02463728,-0.00051948,-0.000436
 64,-0.00000846,0.00062980,0.00316807,0.00060270,0.00085890,0.00011717,
 0.00000859,0.00085954,-0.00272411,-0.00009626,-0.00968399,0.00193802,0
 .00100644,-0.00041098,0.00037084,-0.00048999,-0.00066898,0.00140620,0.
 00022465,0.00042076,-0.00017027,-0.00008091,0.00003975,-0.00000555,0.0
 0001046,-0.00001057,-0.00001456,-0.00000552,-0.00000396,-0.00000001,-0
 .00000436,0.00000250,0.00000861,0.00000250,0.00018647,0.00006219,0.000
 13394,-0.00000293,0.00014523,0.00020273,-0.00007915,-0.00012788,0.0001
 4082,0.00012297,0.00006497,-0.00008768,-0.00000585,-0.00000449,0.00000
 949,-0.00000902,0.00002575,0.00004109,0.00000783,0.00000028,-0.0000096
 6,0.00000007,0.00000239,0.00000347,-0.00000480,0.00000378,0.00000794,-
 0.00005332,0.00007025,0.00003200,0.00013647,0.00017737,-0.00013746,-0.
 00026357,-0.00018675,0.00008837,-0.00006283,-0.00017293,0.00012274,0.0
 0021649,-0.00001152,0.00035583,-0.00001157,0.00017315,0.00016154,0.000
 04608,0.00004660,-0.00001530,-0.00018962,-0.00003407,0.00000019,0.0000
 2352,0.00005813,-0.00006305,-0.33792968,-0.02813253,0.01045457,-0.0134
 2203,-0.00400329,0.00068264,-0.00015214,0.00017429,-0.00001138,0.00003
 123,0.00002117,0.00000076,-0.00007880,0.00007519,-0.00001216,-0.000108
 19,0.00002160,-0.00002847,-0.00054211,0.00021202,0.00009484,-0.0001422
 3,-0.00011950,0.00024072,-0.00002256,0.00140102,-0.00026598,0.00002451
 ,0.00004858,0.00002017,0.00001797,-0.00000844,-0.00000308,0.00000018,-
 0.00000691,-0.00000688,-0.00000085,0.00000274,0.00000050,-0.00000001,0
 .00000508,0.00000247,0.00000139,-0.00000129,0.00000030,0.00000148,-0.0
 0000414,-0.00000064,0.00000008,-0.00000174,0.00000046,0.00000135,-0.00
 000098,-0.00000026,-0.00000512,0.00000379,0.00000125,0.00000243,-0.000
 00458,-0.00000140,0.00000893,-0.00000690,-0.00001651,0.00000240,-0.000
 00267,-0.00000502,-0.00000171,-0.00000696,-0.00000404,0.00000221,0.,-0
 .00000306,-0.00000012,-0.00000246,-0.00000020,0.,0.00000086,-0.0000003
 2,0.00000527,0.00000020,-0.00000624,-0.00000093,0.00000122,0.00000232,
 -0.00000101,-0.00000409,-0.00000237,0.00002647,-0.00002265,0.00000996,
 0.00000844,-0.00001242,-0.00000921,0.00000156,-0.00000095,-0.00000591,
 -0.00000097,-0.00000074,-0.00004737,-0.00000527,0.00000153,0.00001240,
 -0.00000230,-0.00001239,0.00001474,0.00002029,0.00007155,-0.00005019,0
 .00000636,-0.00002031,0.00002249,0.00003745,-0.00000206,0.00003062,0.3
 5961017,0.00094104,0.00044080,-0.00000588,0.00217572,-0.00379499,-0.00
 106013,0.00013039,-0.00112222,-0.00002995,-0.00127913,-0.00475328,-0.0
 0128470,-0.02824097,0.00287568,0.00090887,0.00029454,0.00153932,0.0011
 8669,-0.00052543,-0.00142677,0.00024393,0.00007688,-0.00024412,-0.0004
 0168,0.00007738,0.00009197,0.00001222,-0.00002499,-0.00004958,0.000000
 19,-0.00001209,0.00001419,-0.00001272,0.00000962,0.00003374,0.00000754
 ,0.00003810,0.00016497,0.00025343,0.00000841,-0.00024988,-0.00039006,-
 0.00021732,0.00007128,0.00001862,0.00016372,-0.00004582,-0.00002587,-0
 .00000746,0.00002514,0.00001683,-0.00001069,0.00001992,0.00004935,0.00
 000639,0.00000142,-0.00001162,0.00000075,0.00000023,0.00000273,-0.0000
 0675,0.00000308,0.00000918,-0.00003016,0.00001970,0.00003102,0.0000813
 1,0.00000129,0.00001163,-0.00010692,-0.00001536,0.00001637,-0.00002376
 ,-0.00008083,0.00008993,0.00003686,0.00009628,0.00006838,0.00005322,0.
 00010571,-0.00000120,0.00001226,0.00004280,0.00006671,0.00004230,-0.00
 004709,-0.00003754,0.00003085,-0.00002399,0.00000704,-0.02680712,-0.06
 065819,-0.00127208,0.02702604,0.00640687,-0.00108054,0.00021343,-0.000
 24579,0.00000762,-0.00006371,0.00000361,-0.00001515,0.00003665,-0.0000
 4776,0.00002130,0.00002939,0.00005223,0.00013170,-0.00144727,0.0000680
 6,0.00001571,0.00017590,-0.00010150,0.00011881,0.00131317,-0.00096475,
 -0.00040690,-0.00002579,0.00019160,0.00004798,0.00000889,-0.00000357,0
 .00000252,-0.00001006,-0.00000760,-0.00000530,-0.00000221,0.00000570,0
 .00000381,-0.00000495,0.00001748,0.00000992,0.00000023,-0.00000486,0.0
 0000496,0.00000208,-0.00001805,-0.00000864,-0.00000173,-0.00000564,0.0
 0000346,0.00000213,-0.00000428,-0.00000196,-0.00001780,0.00001299,0.00
 000456,0.00000851,-0.00000966,0.00000328,0.00001354,-0.00000828,-0.000
 01776,0.00000598,-0.00000465,-0.00000931,-0.00000266,-0.00000684,-0.00
 000318,0.00000193,0.00000006,-0.00000168,-0.00000081,-0.00000138,-0.00
 000025,0.00000059,0.00000002,-0.00000023,0.00000545,0.00000026,-0.0000
 0619,-0.00000207,0.00000118,0.00000138,-0.00000054,-0.00000385,-0.0000
 0252,0.00002614,-0.00001970,0.00000414,0.00001414,-0.00000850,-0.00000
 561,0.00000128,-0.00003045,-0.00005708,0.00001513,0.00002529,-0.000022
 90,-0.00000253,-0.00001253,-0.00001996,-0.00001474,-0.00002099,-0.0000
 3745,-0.00005166,-0.00011494,-0.00002150,0.00001922,-0.00000498,0.0000
 0655,0.00000145,-0.00001697,0.00000660,0.02625522,0.06079197,0.0000914
 0,0.00020480,0.00030522,0.00097176,-0.00092581,0.00694938,0.00015941,-
 0.00055309,-0.00059192,-0.00026582,-0.00143951,0.00521805,-0.00331575,
 0.00252776,0.00511584,0.00025428,0.00059377,-0.00342982,0.00040117,-0.
 00013338,-0.00000473,0.00009316,0.00029661,-0.00007118,-0.00001801,-0.
 00003044,0.00005280,0.00001706,0.00000340,-0.00000770,-0.00000246,-0.0
 0000328,0.00000724,0.00000115,-0.00000527,0.00000544,-0.00026503,-0.00
 033245,-0.00002505,0.00036480,0.00001686,-0.00022910,0.00005610,-0.000
 38637,0.00020164,0.00009044,0.00017285,-0.00010997,-0.00001706,-0.0000
 3515,-0.00000485,-0.00001219,0.00001791,0.00001822,0.00000368,-0.00001
 343,-0.00000290,-0.00000160,0.00000793,-0.00000015,-0.00000151,0.00000
 829,0.00000590,-0.00005540,0.00005136,-0.00000712,0.00008260,0.0003374
 1,-0.00015151,-0.00020465,-0.00029623,0.00013769,0.00004124,-0.0001146
 6,0.00003773,0.00015910,-0.00000016,-0.00006414,0.00010757,0.00008916,
 0.00001364,0.00005334,0.00003307,-0.00000705,-0.00013992,0.00000987,0.
 00009707,-0.00000725,0.00009242,-0.00004739,0.01185415,-0.00390971,-0.
 03636777,0.00287669,0.00105482,0.00328481,-0.00002702,0.00004079,-0.00
 006652,-0.00006349,-0.00003692,-0.00003965,-0.00001971,-0.00005293,0.0
 0000410,-0.00006005,0.00006652,-0.00082181,-0.00028815,-0.00007793,0.0
 0014106,-0.00020372,0.00047980,-0.00016024,0.00045026,-0.00070141,0.00
 033973,-0.00000911,-0.00002339,-0.00000921,-0.00001452,0.00001023,-0.0
 0000547,0.00000516,0.00000726,-0.00002208,-0.00000091,0.00000964,-0.00
 000611,-0.00000235,0.00000202,-0.00000397,0.00000714,0.00000141,-0.000
 00824,-0.00000236,-0.00000370,0.00000584,0.00000229,0.00000124,-0.0000
 0348,-0.00000373,-0.00000157,-0.00000363,0.00000141,0.00000020,-0.0000
 0078,0.00000280,0.00000632,0.00000467,0.00000598,-0.00000381,-0.000003
 56,0.00000218,-0.00000089,-0.00000432,-0.00000128,-0.00000092,-0.00000
 340,0.00000124,-0.00000237,-0.00000104,0.00000414,0.00000337,-0.000000
 85,-0.00000138,-0.00000071,-0.00000118,0.00000384,-0.00000298,-0.00000
 448,-0.00000217,-0.00000878,0.00000668,0.00000334,0.00000406,-0.000003
 71,0.00000728,-0.00000545,0.00001193,0.00000433,-0.00000514,-0.0000021
 5,0.00000136,0.00000510,0.00001083,0.00002625,-0.00001335,-0.00004850,
 -0.00001440,-0.00000041,0.00000799,0.00000534,-0.00001871,0.00002902,0
 .00001334,0.00007016,-0.00001827,0.00001537,-0.00002087,0.00000883,0.0
 0003051,-0.00000698,0.00002527,-0.01300285,0.00226354,0.02464694,0.001
 45619,-0.00146959,-0.00072822,-0.00888145,-0.02857282,-0.00256217,-0.0
 0580516,0.00090263,0.00024636,-0.00059155,0.00086435,0.00010177,-0.001
 49589,0.00289599,0.00058694,0.00059376,0.00065738,0.00031353,0.0000680
 7,-0.00005334,0.00001639,0.00000555,0.00002999,0.00000944,0.00000305,0
 .00000597,0.00000225,-0.00000284,0.00000215,0.00000095,0.00000078,0.00
 000092,0.00000066,0.00000003,-0.00000021,0.00000017,-0.00006997,0.0000
 2613,0.00009310,-0.00007713,0.00013151,-0.00021795,-0.00003237,-0.0000
 1077,0.00000772,0.00003000,-0.00000325,-0.00001454,-0.00000381,0.00000
 129,0.00000019,-0.00000244,0.00001255,0.00002822,0.00000599,0.00000335
 ,-0.00000793,0.00000048,-0.00000056,0.00000359,-0.00000363,0.00000116,
 0.00000401,-0.00003616,0.00002673,0.00001583,0.00001622,0.00002155,-0.
 00000644,-0.00002605,-0.00000975,0.00001266,0.00000406,0.00002626,-0.0
 0001927,-0.00000963,-0.00001491,-0.00001719,0.00003791,0.00003598,0.00
 001093,0.00000494,0.00003616,0.00004972,0.00004466,-0.00006516,0.00004
 072,-0.00004846,-0.00000167,0.00001834,0.01087622,0.01731141,0.0013346
 4,-0.11404874,-0.10982429,-0.00964075,0.00032934,0.00020855,0.00013059
 ,-0.00027258,0.00078599,0.00049130,-0.00031549,0.00013651,-0.00003610,
 -0.00057619,-0.00149605,-0.00009131,0.00005580,-0.00004201,0.00000029,
 -0.00000005,0.00001230,-0.00000254,-0.00002027,-0.00000976,0.00001859,
 -0.00000175,-0.00000346,-0.00000336,-0.00000244,0.00000017,-0.00000300
 ,0.00000132,-0.00000010,0.00000193,0.,-0.00000104,-0.00000006,-0.00000
 055,-0.00000146,-0.00000066,0.00000026,0.00000033,-0.00000014,-0.00000
 122,-0.00000052,0.00000064,-0.00000009,0.00000064,0.00000071,-0.000000
 67,0.00000067,-0.00000088,0.00000039,-0.00000175,-0.00000036,0.0000034
 5,-0.00000555,-0.00000189,0.00000303,-0.00000049,-0.00001227,0.0000004
 7,-0.00000037,-0.00000228,-0.00000124,-0.00000567,-0.00000184,0.000001
 90,0.00000097,-0.00000180,-0.00000124,-0.00000320,-0.00000005,-0.00000
 013,0.00000115,-0.00000113,0.00000256,0.00000089,-0.00000323,-0.000000
 09,0.00000229,-0.00000009,-0.00000092,-0.00000414,-0.00000063,0.000016
 89,-0.00001064,0.00000717,0.00000850,-0.00000902,-0.00000853,-0.000001
 11,-0.00000013,0.00000136,-0.00000888,0.00001042,0.00000673,-0.0000076
 3,0.00000126,-0.00000816,-0.00000556,-0.00000100,-0.00004303,0.0000274
 7,-0.00004602,-0.00002497,-0.00001973,0.00004317,-0.00004662,0.0000064
 8,-0.00001932,0.00001561,0.00103532,-0.00041495,-0.00024880,0.11773202
 ,0.00105092,0.00041413,0.00012817,0.00084902,0.00019500,-0.00042395,-0
 .00029007,0.00157928,-0.00038268,0.00068236,0.00042519,0.00000916,0.00
 381479,-0.00117578,-0.00106424,-0.00070300,-0.00146749,-0.00072057,-0.
 00024968,-0.00002737,-0.00014290,-0.00007299,0.00002063,-0.00003710,-0
 .00002819,-0.00002666,0.00001909,0.00000427,0.00002415,-0.00001110,-0.
 00000130,-0.00001431,0.00000398,-0.00000540,-0.00001512,-0.00000078,0.
 00026241,-0.00035849,-0.00027589,0.00018675,0.00036755,0.00073264,0.00
 009945,-0.00012387,0.00014663,-0.00002074,0.00005723,-0.00008355,0.000
 01452,-0.00001383,0.00001657,-0.00000110,0.00001600,0.00001185,0.00000
 653,0.00000630,-0.00000184,0.00000155,-0.00000206,0.00000084,-0.000001
 59,-0.00000077,0.00000235,-0.00002234,0.00004852,0.00001375,0.00004212
 ,0.00015007,-0.00013075,-0.00013893,-0.00009952,0.00010046,0.00005768,
 0.00004379,-0.00002065,-0.00000386,-0.00005771,0.00002704,-0.00001929,
 -0.00006380,-0.00000025,-0.00003894,-0.00002308,-0.00006020,-0.0000085
 3,0.00001323,0.00007890,-0.00003118,-0.00001905,-0.00002063,-0.0137233
 0,-0.01896980,-0.00162213,-0.10962353,-0.27439399,-0.02109708,0.000004
 56,0.00007816,0.00010833,-0.00018668,0.00057647,0.00008198,-0.00014017
 ,0.00014379,0.00011722,0.00000700,0.00004024,0.00001087,-0.00003061,-0
 .00008225,0.00008592,0.00000851,0.00001462,0.00001769,0.00004591,0.000
 02845,0.00000449,0.00001528,-0.00000983,0.00002521,0.00001789,0.000001
 16,0.00000569,-0.00000014,-0.00000080,-0.00000622,-0.00000085,0.000000
 53,-0.00000119,0.00001014,-0.00000962,-0.00000320,-0.00000107,0.000003
 40,-0.00000184,-0.00000095,0.00002544,0.00000891,0.00000105,0.00000263
 ,-0.00000342,0.00000242,0.00000265,0.00000377,0.00000832,-0.00000534,-
 0.00000254,-0.00000669,0.00000060,-0.00001095,0.00000619,-0.00000374,-
 0.00000628,-0.00000686,-0.00000120,-0.00000321,-0.00000090,-0.00000404
 ,-0.00000222,0.00000119,0.00000126,-0.00000056,-0.00000237,-0.00000405
 ,0.00000092,-0.00000137,0.00000190,-0.00000164,0.00000414,0.00000126,-
 0.00000326,0.00000126,0.00000888,-0.00000006,-0.00000384,-0.00000623,-
 0.00000082,0.00000948,-0.00001014,0.00000805,0.00000047,-0.00000469,-0
 .00001152,-0.00000778,0.00000219,0.00002674,0.00000311,-0.00000805,-0.
 00000460,0.00000368,0.00002122,0.00003278,0.00001463,0.00001573,0.0000
 1069,0.00012290,0.00009019,-0.00001061,-0.00004240,0.00003627,-0.00004
 952,0.00002018,-0.00000496,0.00002060,0.00013178,0.00105478,0.00067827
 ,0.11790420,0.29149475,0.00048560,0.00114260,-0.00333387,0.00041330,-0
 .00063760,0.00431627,0.00021192,-0.00011744,0.00615562,-0.00025586,0.0
 0018793,-0.00061648,0.00075453,-0.00094032,0.00716721,0.00019911,0.000
 02127,-0.00000716,-0.00000503,-0.00003674,0.00006582,0.00000847,-0.000
 01885,0.00000669,-0.00000041,-0.00001053,0.00001026,0.00000329,-0.0000
 0240,-0.00000148,-0.00000208,-0.00000142,0.00000253,0.00000069,0.00000
 030,0.00000276,0.00007323,-0.00004608,-0.00005501,-0.00008242,0.000177
 07,0.00011282,-0.00001184,-0.00016859,0.00007876,0.00007638,0.00008765
 ,-0.00006803,-0.00001214,-0.00001512,-0.00000042,-0.00000558,0.0000106
 4,0.00001428,0.00000174,-0.00000622,-0.00000347,-0.00000121,0.00000449
 ,0.00000197,-0.00000101,0.00000473,0.00000396,-0.00003746,0.00004669,0
 .00001699,0.00007190,0.00016506,-0.00012084,-0.00012546,-0.00018277,0.
 00005858,0.00004958,0.00007391,-0.00004288,0.00002717,-0.00010267,0.00
 001620,-0.00000036,-0.00000779,0.00005053,-0.00005305,0.00000957,-0.00
 005118,0.00000357,-0.00000387,0.00010513,-0.00007211,0.00004730,0.0000
 8376,-0.00115722,-0.00290856,0.00336369,-0.00985604,-0.02099281,-0.039
 65617,0.00014699,-0.00018408,-0.00004328,-0.00025612,-0.00053247,-0.00
 007003,-0.00052940,0.00052354,-0.00020024,-0.00005250,-0.00004337,0.00
 016907,-0.00004213,0.00007574,-0.00080512,-0.00000933,-0.00001011,-0.0
 0001956,-0.00000927,-0.00001280,0.00000136,0.00000153,0.00000618,-0.00
 000191,-0.00000300,-0.00000093,-0.00000153,0.00000217,0.00000215,-0.00
 000683,-0.00000002,0.00000333,-0.00000246,-0.00000091,0.00000224,-0.00
 000048,0.00000215,0.00000032,-0.00000271,0.00000052,-0.00000229,0.0000
 0011,0.00000085,0.00000020,-0.00000167,-0.00000095,-0.00000117,-0.0000
 0111,-0.00000072,0.00000151,0.00000030,0.00000169,0.00000178,0.0000027
 4,0.00000069,-0.00000157,-0.00000340,0.00000191,-0.00000019,-0.0000017
 5,-0.00000025,-0.00000159,-0.00000236,0.00000090,-0.00000153,-0.000001
 64,0.00000214,0.00000135,-0.00000061,-0.00000035,-0.00000029,-0.000000
 53,0.00000128,-0.00000170,-0.00000258,-0.00000108,-0.00000517,0.000002
 71,0.00000182,0.00000201,-0.00000156,0.00001271,-0.00001408,0.00000680
 ,0.00000385,-0.00000798,-0.00000562,-0.00000180,0.00000506,0.00001064,
 -0.00000982,0.00000236,-0.00000032,-0.00000770,0.00002780,0.00005048,0
 .00001100,0.00000140,-0.00000575,0.00013493,0.00006220,0.00001249,-0.0
 0004604,0.00005010,-0.00006056,0.00002247,-0.00000677,0.00000879,-0.00
 026454,0.00059904,-0.00432855,0.01018513,0.02368037,0.02762984\\-0.000
 00050,-0.00000010,-0.00000346,0.00000344,0.00000126,-0.00000501,0.0000
 0032,-0.00000152,0.00000120,-0.00000151,0.00000049,0.00000252,-0.00000
 156,0.00000540,-0.00000204,0.00000270,-0.00000486,0.00000413,-0.000003
 10,0.00000176,-0.00000110,-0.00000161,-0.00000295,-0.00000091,0.000000
 43,-0.00000280,0.00000053,-0.00000163,0.00000227,-0.00000238,0.0000014
 6,-0.00000061,0.00000324,-0.00000030,-0.00000022,0.00000030,0.00000205
 ,0.00000218,0.00000093,-0.00000078,0.00000062,-0.00000113,0.00000162,-
 0.00000001,-0.00000277,-0.00000198,0.00000069,0.00000037,0.00000089,-0
 .00000145,0.,-0.00000028,-0.00000271,-0.00000067,0.00000168,0.00000249
 ,0.00000234,0.00000009,-0.00000007,-0.00000018,-0.00000171,0.00000002,
 -0.00000362,0.00000250,0.00000020,0.00000093,-0.00000300,0.00000368,0.
 00000151,-0.00000099,-0.00000290,0.00000037,0.00000395,0.00000190,0.00
 000106,-0.00000112,-0.00000246,0.00000305,-0.00000340,0.00000266,-0.00
 000030,-0.00000060,-0.00000044,0.00000046,0.00000203,-0.00000027,-0.00
 000302,-0.00000021,-0.00000145,-0.00000165,-0.00000054,-0.00000135,0.0
 0000149,-0.00000115,-0.00000011,0.00000117,-0.00000059,0.00000026,0.00
 000134,-0.00000052,-0.00000013,0.00000206,0.00000093,-0.00000103,0.000
 00291,0.00000017,0.00000047,-0.00000153,0.00000088,0.00000056,-0.00000
 074,0.00000023,-0.00000064,0.00000019,0.00000013,-0.00000020,0.0000012
 2,-0.00000027,0.00000016,-0.00000022,0.00000058,0.00000004,-0.00000058
 ,0.00000009,0.00000058,0.00000050,0.00000048,-0.00000004,0.00000090,-0
 .00000002,0.00000030,0.00000024,-0.00000072,-0.00000014,0.00000017,0.0
 0000011,0.00000014,-0.00000110,0.,-0.00000031,0.00000052,-0.00000038,-
 0.00000034,-0.00000004,0.00000007,0.00000021,0.00000019,0.00000048,0.0
 0000009,0.00000024,-0.00000001,0.00000059,-0.00000063,-0.00000065,0.00
 000018,0.00000059,-0.00000056,0.00000013,-0.00000095,-0.00000010,-0.00
 000015,-0.00000055,-0.00000019,0.00000040,-0.00000024,0.00000032,-0.00
 000017,0.00000004,0.00000077,-0.00000006,-0.00000027,0.00000026,0.0000
 0028,0.00000110,0.00000008,0.00000044,-0.00000036,0.00000029,0.0000000
 7,-0.00000043,-0.00000023,0.00000004,0.00000002,-0.00000040,0.00000110
 ,-0.00000041,-0.00000014,-0.00000002,0.00000019,-0.00000018,0.00000053
 ,-0.00000157,-0.00000045,-0.00000012,0.00000196,0.00000245,-0.00000135
 ,-0.00000011,0.00000051,-0.00000051,0.00000002,0.00000055,-0.00000018,
 0.00000021,-0.00000051,-0.00000035,-0.00000076,-0.00000064,-0.00000013
 ,-0.00000147\\\@
 The archive entry for this job was punched.


 Ideas are like rabbits. You get a couple and learn
 how to handle them, and pretty soon you have a dozen.
                                    -- John Steinbeck
 Job cpu time:       0 days  7 hours 21 minutes 24.6 seconds.
 Elapsed time:       0 days  0 hours 11 minutes  5.6 seconds.
 File lengths (MBytes):  RWF=   2093 Int=      0 D2E=      0 Chk=     26 Scr=      1
 Normal termination of Gaussian 16 at Mon Feb 26 02:36:59 2024.
