 Entering Gaussian System, Link 0=g16
 Initial command:
 /public/apps/g16-C01//g16/l1.exe "/public/home/ljq/tmp/Gau-101791.inp" -scrdir="/public/home/ljq/tmp/"
 Entering Link 1 = /public/apps/g16-C01//g16/l1.exe PID=    101792.
  
 Copyright (c) 1988-2019, Gaussian, Inc.  All Rights Reserved.
  
 This is part of the Gaussian(R) 16 program.  It is based on
 the Gaussian(R) 09 system (copyright 2009, Gaussian, Inc.),
 the Gaussian(R) 03 system (copyright 2003, Gaussian, Inc.),
 the Gaussian(R) 98 system (copyright 1998, Gaussian, Inc.),
 the Gaussian(R) 94 system (copyright 1995, Gaussian, Inc.),
 the Gaussian 92(TM) system (copyright 1992, Gaussian, Inc.),
 the Gaussian 90(TM) system (copyright 1990, Gaussian, Inc.),
 the Gaussian 88(TM) system (copyright 1988, Gaussian, Inc.),
 the Gaussian 86(TM) system (copyright 1986, Carnegie Mellon
 University), and the Gaussian 82(TM) system (copyright 1983,
 Carnegie Mellon University). Gaussian is a federally registered
 trademark of Gaussian, Inc.
  
 This software contains proprietary and confidential information,
 including trade secrets, belonging to Gaussian, Inc.
  
 This software is provided under written license and may be
 used, copied, transmitted, or stored only in accord with that
 written license.
  
 The following legend is applicable only to US Government
 contracts under FAR:
  
                    RESTRICTED RIGHTS LEGEND
  
 Use, reproduction and disclosure by the US Government is
 subject to restrictions as set forth in subparagraphs (a)
 and (c) of the Commercial Computer Software - Restricted
 Rights clause in FAR 52.227-19.
  
 Gaussian, Inc.
 340 Quinnipiac St., Bldg. 40, Wallingford CT 06492
  
  
 ---------------------------------------------------------------
 Warning -- This program may not be used in any manner that
 competes with the business of Gaussian, Inc. or will provide
 assistance to any competitor of Gaussian, Inc.  The licensee
 of this program is prohibited from giving any competitor of
 Gaussian, Inc. access to this program.  By using this program,
 the user acknowledges that Gaussian, Inc. is engaged in the
 business of creating and licensing software in the field of
 computational chemistry and represents and warrants to the
 licensee that it is not a competitor of Gaussian, Inc. and that
 it will not use this program in any manner prohibited above.
 ---------------------------------------------------------------
  

 Cite this work as:
 Gaussian 16, Revision C.01,
 M. J. Frisch, G. W. Trucks, H. B. Schlegel, G. E. Scuseria, 
 M. A. Robb, J. R. Cheeseman, G. Scalmani, V. Barone, 
 G. A. Petersson, H. Nakatsuji, X. Li, M. Caricato, A. V. Marenich, 
 J. Bloino, B. G. Janesko, R. Gomperts, B. Mennucci, H. P. Hratchian, 
 J. V. Ortiz, A. F. Izmaylov, J. L. Sonnenberg, D. Williams-Young, 
 F. Ding, F. Lipparini, F. Egidi, J. Goings, B. Peng, A. Petrone, 
 T. Henderson, D. Ranasinghe, V. G. Zakrzewski, J. Gao, N. Rega, 
 G. Zheng, W. Liang, M. Hada, M. Ehara, K. Toyota, R. Fukuda, 
 J. Hasegawa, M. Ishida, T. Nakajima, Y. Honda, O. Kitao, H. Nakai, 
 T. Vreven, K. Throssell, J. A. Montgomery, Jr., J. E. Peralta, 
 F. Ogliaro, M. J. Bearpark, J. J. Heyd, E. N. Brothers, K. N. Kudin, 
 V. N. Staroverov, T. A. Keith, R. Kobayashi, J. Normand, 
 K. Raghavachari, A. P. Rendell, J. C. Burant, S. S. Iyengar, 
 J. Tomasi, M. Cossi, J. M. Millam, M. Klene, C. Adamo, R. Cammi, 
 J. W. Ochterski, R. L. Martin, K. Morokuma, O. Farkas, 
 J. B. Foresman, and D. J. Fox, Gaussian, Inc., Wallingford CT, 2019.
 
 ******************************************
 Gaussian 16:  ES64L-G16RevC.01  3-Jul-2019
                26-Feb-2024 
 ******************************************
 %nproc=40
 Will use up to   40 processors via shared memory.
 %mem=56GB
 ------------------------------------------
 #p opt freq b3lyp/def2svpp em=gd3bj nosymm
 ------------------------------------------
 1/18=20,19=15,26=3,38=1/1,3;
 2/9=110,12=2,15=1,17=6,18=5,40=1/2;
 3/5=43,7=202,11=2,25=1,30=1,71=1,74=-5,124=41/1,2,3;
 4//1;
 5/5=2,38=5/2;
 6/7=2,8=2,9=2,10=2,28=1/1;
 7/30=1/1,2,3,16;
 1/18=20,19=15,26=3/3(2);
 2/9=110,15=1/2;
 99//99;
 2/9=110,15=1/2;
 3/5=43,7=202,11=2,25=1,30=1,71=1,74=-5,124=41/1,2,3;
 4/5=5,16=3,69=1/1;
 5/5=2,38=5/2;
 7/30=1/1,2,3,16;
 1/18=20,19=15,26=3/3(-5);
 2/9=110,15=1/2;
 6/7=2,8=2,9=2,10=2,19=2,28=1/1;
 99/9=1/99;
 Leave Link    1 at Mon Feb 26 04:45:14 2024, MaxMem=  7516192768 cpu:               0.9 elap:               0.0
 (Enter /public/apps/g16-C01//g16/l101.exe)
 -----------------------
 $$$$Singlemol####-1????
 -----------------------
 Symbolic Z-matrix:
 Charge = -1 Multiplicity = 1
 O                     0.35102  -0.11686   2.14425 
 C                     0.12545  -0.20547   0.84 
 C                    -0.85573   0.84652   0.28433 
 C                    -1.09555   1.01652  -1.07386 
 C                    -1.98994   1.97839  -1.50881 
 C                    -2.65419   2.78499  -0.5976 
 C                    -2.41655   2.62357   0.75737 
 C                    -1.52205   1.66189   1.18872 
 C                     1.50188   0.01072   0.19436 
 C                     1.94222   1.30661  -0.09256 
 C                     3.24924   1.56468  -0.45442 
 C                     4.17194   0.53435  -0.54584 
 C                     3.76286  -0.75419  -0.24256 
 C                     2.45537  -1.00846   0.12331 
 C                    -0.45412  -1.619     0.43399 
 C                    -1.92644  -1.83595   0.81282 
 C                    -2.4775   -2.77838  -0.2731 
 C                    -1.26364  -3.07916  -1.15957 
 N                    -0.44648  -1.89865  -0.9972 
 H                    -0.583     0.38633  -1.7846 
 H                    -2.17273   2.10739  -2.56987 
 H                    -3.35217   3.53858  -0.94451 
 H                    -2.93131   3.2529    1.47451 
 H                    -1.2962    1.50711   2.23506 
 H                     1.24117   2.12655  -0.02228 
 H                     3.55483   2.58061  -0.67912 
 H                     5.19503   0.73262  -0.84236 
 H                     4.47403  -1.57147  -0.30002 
 H                     2.17907  -2.02278   0.37579 
 H                     0.14678  -2.36088   0.99124 
 H                    -2.4606   -0.88745   0.80583 
 H                    -2.00614  -2.26007   1.81229 
 H                    -2.90612  -3.69168   0.14284 
 H                    -3.24693  -2.27408  -0.85807 
 H                    -1.53072  -3.21993  -2.21263 
 H                    -0.76471  -4.00413  -0.80603 
 H                     0.49938  -2.01725  -1.34595 
 
 ITRead=  0  0  0  0  0  0  0  0  0  0  0  0  0  0  0  0  0  0  0  0
 ITRead=  0  0  0  0  0  0  0  0  0  0  0  0  0  0  0  0  0
 MicOpt= -1 -1 -1 -1 -1 -1 -1 -1 -1 -1 -1 -1 -1 -1 -1 -1 -1 -1 -1 -1
 MicOpt= -1 -1 -1 -1 -1 -1 -1 -1 -1 -1 -1 -1 -1 -1 -1 -1 -1
 NAtoms=     37 NQM=       37 NQMF=       0 NMMI=      0 NMMIF=      0
                NMic=       0 NMicF=      0.
                    Isotopes and Nuclear Properties:
 (Nuclear quadrupole moments (NQMom) in fm**2, nuclear magnetic moments (NMagM)
  in nuclear magnetons)

  Atom         1           2           3           4           5           6           7           8           9          10
 IAtWgt=          16          12          12          12          12          12          12          12          12          12
 AtmWgt=  15.9949146  12.0000000  12.0000000  12.0000000  12.0000000  12.0000000  12.0000000  12.0000000  12.0000000  12.0000000
 NucSpn=           0           0           0           0           0           0           0           0           0           0
 AtZEff=  -0.0000000  -0.0000000  -0.0000000  -0.0000000  -0.0000000  -0.0000000  -0.0000000  -0.0000000  -0.0000000  -0.0000000
 NQMom=    0.0000000   0.0000000   0.0000000   0.0000000   0.0000000   0.0000000   0.0000000   0.0000000   0.0000000   0.0000000
 NMagM=    0.0000000   0.0000000   0.0000000   0.0000000   0.0000000   0.0000000   0.0000000   0.0000000   0.0000000   0.0000000
 AtZNuc=   8.0000000   6.0000000   6.0000000   6.0000000   6.0000000   6.0000000   6.0000000   6.0000000   6.0000000   6.0000000

  Atom        11          12          13          14          15          16          17          18          19          20
 IAtWgt=          12          12          12          12          12          12          12          12          14           1
 AtmWgt=  12.0000000  12.0000000  12.0000000  12.0000000  12.0000000  12.0000000  12.0000000  12.0000000  14.0030740   1.0078250
 NucSpn=           0           0           0           0           0           0           0           0           2           1
 AtZEff=  -0.0000000  -0.0000000  -0.0000000  -0.0000000  -0.0000000  -0.0000000  -0.0000000  -0.0000000  -0.0000000  -0.0000000
 NQMom=    0.0000000   0.0000000   0.0000000   0.0000000   0.0000000   0.0000000   0.0000000   0.0000000   2.0440000   0.0000000
 NMagM=    0.0000000   0.0000000   0.0000000   0.0000000   0.0000000   0.0000000   0.0000000   0.0000000   0.4037610   2.7928460
 AtZNuc=   6.0000000   6.0000000   6.0000000   6.0000000   6.0000000   6.0000000   6.0000000   6.0000000   7.0000000   1.0000000

  Atom        21          22          23          24          25          26          27          28          29          30
 IAtWgt=           1           1           1           1           1           1           1           1           1           1
 AtmWgt=   1.0078250   1.0078250   1.0078250   1.0078250   1.0078250   1.0078250   1.0078250   1.0078250   1.0078250   1.0078250
 NucSpn=           1           1           1           1           1           1           1           1           1           1
 AtZEff=  -0.0000000  -0.0000000  -0.0000000  -0.0000000  -0.0000000  -0.0000000  -0.0000000  -0.0000000  -0.0000000  -0.0000000
 NQMom=    0.0000000   0.0000000   0.0000000   0.0000000   0.0000000   0.0000000   0.0000000   0.0000000   0.0000000   0.0000000
 NMagM=    2.7928460   2.7928460   2.7928460   2.7928460   2.7928460   2.7928460   2.7928460   2.7928460   2.7928460   2.7928460
 AtZNuc=   1.0000000   1.0000000   1.0000000   1.0000000   1.0000000   1.0000000   1.0000000   1.0000000   1.0000000   1.0000000

  Atom        31          32          33          34          35          36          37
 IAtWgt=           1           1           1           1           1           1           1
 AtmWgt=   1.0078250   1.0078250   1.0078250   1.0078250   1.0078250   1.0078250   1.0078250
 NucSpn=           1           1           1           1           1           1           1
 AtZEff=  -0.0000000  -0.0000000  -0.0000000  -0.0000000  -0.0000000  -0.0000000  -0.0000000
 NQMom=    0.0000000   0.0000000   0.0000000   0.0000000   0.0000000   0.0000000   0.0000000
 NMagM=    2.7928460   2.7928460   2.7928460   2.7928460   2.7928460   2.7928460   2.7928460
 AtZNuc=   1.0000000   1.0000000   1.0000000   1.0000000   1.0000000   1.0000000   1.0000000
 Leave Link  101 at Mon Feb 26 04:45:14 2024, MaxMem=  7516192768 cpu:               6.8 elap:               0.2
 (Enter /public/apps/g16-C01//g16/l103.exe)

 GradGradGradGradGradGradGradGradGradGradGradGradGradGradGradGradGradGrad
 Berny optimization.
 Initialization pass.
                           ----------------------------
                           !    Initial Parameters    !
                           ! (Angstroms and Degrees)  !
 --------------------------                            --------------------------
 ! Name  Definition              Value          Derivative Info.                !
 --------------------------------------------------------------------------------
 ! R1    R(1,2)                  1.3266         estimate D2E/DX2                !
 ! R2    R(2,3)                  1.5421         estimate D2E/DX2                !
 ! R3    R(2,9)                  1.5356         estimate D2E/DX2                !
 ! R4    R(2,15)                 1.5808         estimate D2E/DX2                !
 ! R5    R(3,4)                  1.3896         estimate D2E/DX2                !
 ! R6    R(3,8)                  1.3881         estimate D2E/DX2                !
 ! R7    R(4,5)                  1.3836         estimate D2E/DX2                !
 ! R8    R(4,20)                 1.0794         estimate D2E/DX2                !
 ! R9    R(5,6)                  1.3864         estimate D2E/DX2                !
 ! R10   R(5,21)                 1.0844         estimate D2E/DX2                !
 ! R11   R(6,7)                  1.3851         estimate D2E/DX2                !
 ! R12   R(6,22)                 1.0842         estimate D2E/DX2                !
 ! R13   R(7,8)                  1.3824         estimate D2E/DX2                !
 ! R14   R(7,23)                 1.0841         estimate D2E/DX2                !
 ! R15   R(8,24)                 1.0816         estimate D2E/DX2                !
 ! R16   R(9,10)                 1.3984         estimate D2E/DX2                !
 ! R17   R(9,14)                 1.3975         estimate D2E/DX2                !
 ! R18   R(10,11)                1.3805         estimate D2E/DX2                !
 ! R19   R(10,25)                1.0811         estimate D2E/DX2                !
 ! R20   R(11,12)                1.3861         estimate D2E/DX2                !
 ! R21   R(11,26)                1.0844         estimate D2E/DX2                !
 ! R22   R(12,13)                1.3855         estimate D2E/DX2                !
 ! R23   R(12,27)                1.0835         estimate D2E/DX2                !
 ! R24   R(13,14)                1.3813         estimate D2E/DX2                !
 ! R25   R(13,28)                1.0849         estimate D2E/DX2                !
 ! R26   R(14,29)                1.0812         estimate D2E/DX2                !
 ! R27   R(15,16)                1.5357         estimate D2E/DX2                !
 ! R28   R(15,19)                1.4583         estimate D2E/DX2                !
 ! R29   R(15,30)                1.1054         estimate D2E/DX2                !
 ! R30   R(16,17)                1.5398         estimate D2E/DX2                !
 ! R31   R(16,31)                1.0886         estimate D2E/DX2                !
 ! R32   R(16,32)                1.0887         estimate D2E/DX2                !
 ! R33   R(17,18)                1.5329         estimate D2E/DX2                !
 ! R34   R(17,33)                1.0913         estimate D2E/DX2                !
 ! R35   R(17,34)                1.0902         estimate D2E/DX2                !
 ! R36   R(18,19)                1.4449         estimate D2E/DX2                !
 ! R37   R(18,35)                1.0955         estimate D2E/DX2                !
 ! R38   R(18,36)                1.1088         estimate D2E/DX2                !
 ! R39   R(19,37)                1.0151         estimate D2E/DX2                !
 ! A1    A(1,2,3)              114.6378         estimate D2E/DX2                !
 ! A2    A(1,2,9)              104.5691         estimate D2E/DX2                !
 ! A3    A(1,2,15)             111.9992         estimate D2E/DX2                !
 ! A4    A(3,2,9)              108.8299         estimate D2E/DX2                !
 ! A5    A(3,2,15)             106.5098         estimate D2E/DX2                !
 ! A6    A(9,2,15)             110.2754         estimate D2E/DX2                !
 ! A7    A(2,3,4)              123.0539         estimate D2E/DX2                !
 ! A8    A(2,3,8)              118.123          estimate D2E/DX2                !
 ! A9    A(4,3,8)              118.8224         estimate D2E/DX2                !
 ! A10   A(3,4,5)              120.256          estimate D2E/DX2                !
 ! A11   A(3,4,20)             119.3541         estimate D2E/DX2                !
 ! A12   A(5,4,20)             120.3884         estimate D2E/DX2                !
 ! A13   A(4,5,6)              120.501          estimate D2E/DX2                !
 ! A14   A(4,5,21)             119.9518         estimate D2E/DX2                !
 ! A15   A(6,5,21)             119.5469         estimate D2E/DX2                !
 ! A16   A(5,6,7)              119.5346         estimate D2E/DX2                !
 ! A17   A(5,6,22)             120.1684         estimate D2E/DX2                !
 ! A18   A(7,6,22)             120.2967         estimate D2E/DX2                !
 ! A19   A(6,7,8)              119.8238         estimate D2E/DX2                !
 ! A20   A(6,7,23)             119.8671         estimate D2E/DX2                !
 ! A21   A(8,7,23)             120.3089         estimate D2E/DX2                !
 ! A22   A(3,8,7)              121.061          estimate D2E/DX2                !
 ! A23   A(3,8,24)             116.4888         estimate D2E/DX2                !
 ! A24   A(7,8,24)             122.4484         estimate D2E/DX2                !
 ! A25   A(2,9,10)             119.9317         estimate D2E/DX2                !
 ! A26   A(2,9,14)             122.0239         estimate D2E/DX2                !
 ! A27   A(10,9,14)            116.7793         estimate D2E/DX2                !
 ! A28   A(9,10,11)            121.6774         estimate D2E/DX2                !
 ! A29   A(9,10,25)            119.0329         estimate D2E/DX2                !
 ! A30   A(11,10,25)           119.2885         estimate D2E/DX2                !
 ! A31   A(10,11,12)           120.5678         estimate D2E/DX2                !
 ! A32   A(10,11,26)           119.7513         estimate D2E/DX2                !
 ! A33   A(12,11,26)           119.6779         estimate D2E/DX2                !
 ! A34   A(11,12,13)           118.7065         estimate D2E/DX2                !
 ! A35   A(11,12,27)           120.7029         estimate D2E/DX2                !
 ! A36   A(13,12,27)           120.5894         estimate D2E/DX2                !
 ! A37   A(12,13,14)           120.573          estimate D2E/DX2                !
 ! A38   A(12,13,28)           119.7            estimate D2E/DX2                !
 ! A39   A(14,13,28)           119.7255         estimate D2E/DX2                !
 ! A40   A(9,14,13)            121.672          estimate D2E/DX2                !
 ! A41   A(9,14,29)            119.8659         estimate D2E/DX2                !
 ! A42   A(13,14,29)           118.4529         estimate D2E/DX2                !
 ! A43   A(2,15,16)            114.4866         estimate D2E/DX2                !
 ! A44   A(2,15,19)            114.9374         estimate D2E/DX2                !
 ! A45   A(2,15,30)            105.7443         estimate D2E/DX2                !
 ! A46   A(16,15,19)           102.7112         estimate D2E/DX2                !
 ! A47   A(16,15,30)           107.5775         estimate D2E/DX2                !
 ! A48   A(19,15,30)           111.2963         estimate D2E/DX2                !
 ! A49   A(15,16,17)           104.8092         estimate D2E/DX2                !
 ! A50   A(15,16,31)           110.2286         estimate D2E/DX2                !
 ! A51   A(15,16,32)           110.5913         estimate D2E/DX2                !
 ! A52   A(17,16,31)           110.6802         estimate D2E/DX2                !
 ! A53   A(17,16,32)           112.5081         estimate D2E/DX2                !
 ! A54   A(31,16,32)           108.0239         estimate D2E/DX2                !
 ! A55   A(16,17,18)           104.1543         estimate D2E/DX2                !
 ! A56   A(16,17,33)           112.5815         estimate D2E/DX2                !
 ! A57   A(16,17,34)           110.3567         estimate D2E/DX2                !
 ! A58   A(18,17,33)           111.5451         estimate D2E/DX2                !
 ! A59   A(18,17,34)           109.8373         estimate D2E/DX2                !
 ! A60   A(33,17,34)           108.3273         estimate D2E/DX2                !
 ! A61   A(17,18,19)           102.8586         estimate D2E/DX2                !
 ! A62   A(17,18,35)           112.8339         estimate D2E/DX2                !
 ! A63   A(17,18,36)           109.6098         estimate D2E/DX2                !
 ! A64   A(19,18,35)           110.5419         estimate D2E/DX2                !
 ! A65   A(19,18,36)           113.0323         estimate D2E/DX2                !
 ! A66   A(35,18,36)           107.9986         estimate D2E/DX2                !
 ! A67   A(15,19,18)           105.3073         estimate D2E/DX2                !
 ! A68   A(15,19,37)           111.3757         estimate D2E/DX2                !
 ! A69   A(18,19,37)           113.1365         estimate D2E/DX2                !
 ! D1    D(1,2,3,4)            172.1515         estimate D2E/DX2                !
 ! D2    D(1,2,3,8)             -7.5488         estimate D2E/DX2                !
 ! D3    D(9,2,3,4)             55.4854         estimate D2E/DX2                !
 ! D4    D(9,2,3,8)           -124.2148         estimate D2E/DX2                !
 ! D5    D(15,2,3,4)           -63.3926         estimate D2E/DX2                !
 ! D6    D(15,2,3,8)           116.9072         estimate D2E/DX2                !
 ! D7    D(1,2,9,10)           -87.3188         estimate D2E/DX2                !
 ! D8    D(1,2,9,14)            79.4172         estimate D2E/DX2                !
 ! D9    D(3,2,9,10)            35.6182         estimate D2E/DX2                !
 ! D10   D(3,2,9,14)          -157.6458         estimate D2E/DX2                !
 ! D11   D(15,2,9,10)          152.1093         estimate D2E/DX2                !
 ! D12   D(15,2,9,14)          -41.1547         estimate D2E/DX2                !
 ! D13   D(1,2,15,16)           74.5112         estimate D2E/DX2                !
 ! D14   D(1,2,15,19)         -166.9069         estimate D2E/DX2                !
 ! D15   D(1,2,15,30)          -43.7295         estimate D2E/DX2                !
 ! D16   D(3,2,15,16)          -51.5536         estimate D2E/DX2                !
 ! D17   D(3,2,15,19)           67.0283         estimate D2E/DX2                !
 ! D18   D(3,2,15,30)         -169.7943         estimate D2E/DX2                !
 ! D19   D(9,2,15,16)         -169.4823         estimate D2E/DX2                !
 ! D20   D(9,2,15,19)          -50.9004         estimate D2E/DX2                !
 ! D21   D(9,2,15,30)           72.277          estimate D2E/DX2                !
 ! D22   D(2,3,4,5)            179.9305         estimate D2E/DX2                !
 ! D23   D(2,3,4,20)             0.378          estimate D2E/DX2                !
 ! D24   D(8,3,4,5)             -0.3713         estimate D2E/DX2                !
 ! D25   D(8,3,4,20)          -179.9238         estimate D2E/DX2                !
 ! D26   D(2,3,8,7)           -179.8935         estimate D2E/DX2                !
 ! D27   D(2,3,8,24)             0.5924         estimate D2E/DX2                !
 ! D28   D(4,3,8,7)              0.3933         estimate D2E/DX2                !
 ! D29   D(4,3,8,24)          -179.1208         estimate D2E/DX2                !
 ! D30   D(3,4,5,6)              0.1548         estimate D2E/DX2                !
 ! D31   D(3,4,5,21)           179.9485         estimate D2E/DX2                !
 ! D32   D(20,4,5,6)           179.7026         estimate D2E/DX2                !
 ! D33   D(20,4,5,21)           -0.5037         estimate D2E/DX2                !
 ! D34   D(4,5,6,7)              0.0491         estimate D2E/DX2                !
 ! D35   D(4,5,6,22)           179.8566         estimate D2E/DX2                !
 ! D36   D(21,5,6,7)          -179.7454         estimate D2E/DX2                !
 ! D37   D(21,5,6,22)            0.0621         estimate D2E/DX2                !
 ! D38   D(5,6,7,8)             -0.0302         estimate D2E/DX2                !
 ! D39   D(5,6,7,23)           179.8605         estimate D2E/DX2                !
 ! D40   D(22,6,7,8)          -179.8374         estimate D2E/DX2                !
 ! D41   D(22,6,7,23)            0.0533         estimate D2E/DX2                !
 ! D42   D(6,7,8,3)             -0.1944         estimate D2E/DX2                !
 ! D43   D(6,7,8,24)           179.2902         estimate D2E/DX2                !
 ! D44   D(23,7,8,3)           179.9154         estimate D2E/DX2                !
 ! D45   D(23,7,8,24)           -0.6            estimate D2E/DX2                !
 ! D46   D(2,9,10,11)          168.6573         estimate D2E/DX2                !
 ! D47   D(2,9,10,25)          -10.9352         estimate D2E/DX2                !
 ! D48   D(14,9,10,11)           1.2426         estimate D2E/DX2                !
 ! D49   D(14,9,10,25)        -178.3499         estimate D2E/DX2                !
 ! D50   D(2,9,14,13)         -168.582          estimate D2E/DX2                !
 ! D51   D(2,9,14,29)           10.3009         estimate D2E/DX2                !
 ! D52   D(10,9,14,13)          -1.451          estimate D2E/DX2                !
 ! D53   D(10,9,14,29)         177.4318         estimate D2E/DX2                !
 ! D54   D(9,10,11,12)           0.0675         estimate D2E/DX2                !
 ! D55   D(9,10,11,26)         179.4337         estimate D2E/DX2                !
 ! D56   D(25,10,11,12)        179.659          estimate D2E/DX2                !
 ! D57   D(25,10,11,26)         -0.9748         estimate D2E/DX2                !
 ! D58   D(10,11,12,13)         -1.2084         estimate D2E/DX2                !
 ! D59   D(10,11,12,27)        179.1854         estimate D2E/DX2                !
 ! D60   D(26,11,12,13)        179.425          estimate D2E/DX2                !
 ! D61   D(26,11,12,27)         -0.1812         estimate D2E/DX2                !
 ! D62   D(11,12,13,14)          1.0027         estimate D2E/DX2                !
 ! D63   D(11,12,13,28)       -179.4463         estimate D2E/DX2                !
 ! D64   D(27,12,13,14)       -179.3907         estimate D2E/DX2                !
 ! D65   D(27,12,13,28)          0.1603         estimate D2E/DX2                !
 ! D66   D(12,13,14,9)           0.3522         estimate D2E/DX2                !
 ! D67   D(12,13,14,29)       -178.5459         estimate D2E/DX2                !
 ! D68   D(28,13,14,9)        -179.1986         estimate D2E/DX2                !
 ! D69   D(28,13,14,29)          1.9033         estimate D2E/DX2                !
 ! D70   D(2,15,16,17)         148.9404         estimate D2E/DX2                !
 ! D71   D(2,15,16,31)          29.8151         estimate D2E/DX2                !
 ! D72   D(2,15,16,32)         -89.5716         estimate D2E/DX2                !
 ! D73   D(19,15,16,17)         23.6536         estimate D2E/DX2                !
 ! D74   D(19,15,16,31)        -95.4717         estimate D2E/DX2                !
 ! D75   D(19,15,16,32)        145.1416         estimate D2E/DX2                !
 ! D76   D(30,15,16,17)        -93.8632         estimate D2E/DX2                !
 ! D77   D(30,15,16,31)        147.0115         estimate D2E/DX2                !
 ! D78   D(30,15,16,32)         27.6249         estimate D2E/DX2                !
 ! D79   D(2,15,19,18)        -168.0021         estimate D2E/DX2                !
 ! D80   D(2,15,19,37)          69.0007         estimate D2E/DX2                !
 ! D81   D(16,15,19,18)        -43.01           estimate D2E/DX2                !
 ! D82   D(16,15,19,37)       -166.0072         estimate D2E/DX2                !
 ! D83   D(30,15,19,18)         71.8372         estimate D2E/DX2                !
 ! D84   D(30,15,19,37)        -51.16           estimate D2E/DX2                !
 ! D85   D(15,16,17,18)          2.344          estimate D2E/DX2                !
 ! D86   D(15,16,17,33)        123.3454         estimate D2E/DX2                !
 ! D87   D(15,16,17,34)       -115.4867         estimate D2E/DX2                !
 ! D88   D(31,16,17,18)        121.1651         estimate D2E/DX2                !
 ! D89   D(31,16,17,33)       -117.8335         estimate D2E/DX2                !
 ! D90   D(31,16,17,34)          3.3344         estimate D2E/DX2                !
 ! D91   D(32,16,17,18)       -117.8768         estimate D2E/DX2                !
 ! D92   D(32,16,17,33)          3.1246         estimate D2E/DX2                !
 ! D93   D(32,16,17,34)        124.2924         estimate D2E/DX2                !
 ! D94   D(16,17,18,19)        -27.8138         estimate D2E/DX2                !
 ! D95   D(16,17,18,35)       -146.9337         estimate D2E/DX2                !
 ! D96   D(16,17,18,36)         92.6737         estimate D2E/DX2                !
 ! D97   D(33,17,18,19)       -149.5049         estimate D2E/DX2                !
 ! D98   D(33,17,18,35)         91.3753         estimate D2E/DX2                !
 ! D99   D(33,17,18,36)        -29.0173         estimate D2E/DX2                !
 ! D100  D(34,17,18,19)         90.3741         estimate D2E/DX2                !
 ! D101  D(34,17,18,35)        -28.7457         estimate D2E/DX2                !
 ! D102  D(34,17,18,36)       -149.1383         estimate D2E/DX2                !
 ! D103  D(17,18,19,15)         44.7262         estimate D2E/DX2                !
 ! D104  D(17,18,19,37)        166.5893         estimate D2E/DX2                !
 ! D105  D(35,18,19,15)        165.4306         estimate D2E/DX2                !
 ! D106  D(35,18,19,37)        -72.7064         estimate D2E/DX2                !
 ! D107  D(36,18,19,15)        -73.3802         estimate D2E/DX2                !
 ! D108  D(36,18,19,37)         48.4828         estimate D2E/DX2                !
 --------------------------------------------------------------------------------
 Trust Radius=3.00D-01 FncErr=1.00D-07 GrdErr=1.00D-06 EigMax=2.50D+02 EigMin=1.00D-04
 Number of steps in this run=    222 maximum allowed number of steps=    222.
 GradGradGradGradGradGradGradGradGradGradGradGradGradGradGradGradGradGrad

 Leave Link  103 at Mon Feb 26 04:45:14 2024, MaxMem=  7516192768 cpu:               0.3 elap:               0.0
 (Enter /public/apps/g16-C01//g16/l202.exe)
                          Input orientation:                          
 ---------------------------------------------------------------------
 Center     Atomic      Atomic             Coordinates (Angstroms)
 Number     Number       Type             X           Y           Z
 ---------------------------------------------------------------------
      1          8           0        0.351019   -0.116862    2.144248
      2          6           0        0.125450   -0.205472    0.839995
      3          6           0       -0.855729    0.846522    0.284328
      4          6           0       -1.095554    1.016523   -1.073855
      5          6           0       -1.989943    1.978392   -1.508813
      6          6           0       -2.654192    2.784985   -0.597603
      7          6           0       -2.416546    2.623569    0.757372
      8          6           0       -1.522048    1.661890    1.188721
      9          6           0        1.501878    0.010716    0.194362
     10          6           0        1.942221    1.306608   -0.092555
     11          6           0        3.249244    1.564682   -0.454417
     12          6           0        4.171935    0.534347   -0.545844
     13          6           0        3.762863   -0.754194   -0.242558
     14          6           0        2.455368   -1.008457    0.123308
     15          6           0       -0.454121   -1.619003    0.433986
     16          6           0       -1.926444   -1.835951    0.812815
     17          6           0       -2.477499   -2.778378   -0.273099
     18          6           0       -1.263639   -3.079159   -1.159568
     19          7           0       -0.446478   -1.898645   -0.997202
     20          1           0       -0.583000    0.386326   -1.784602
     21          1           0       -2.172730    2.107391   -2.569874
     22          1           0       -3.352171    3.538580   -0.944509
     23          1           0       -2.931311    3.252900    1.474513
     24          1           0       -1.296199    1.507107    2.235062
     25          1           0        1.241168    2.126550   -0.022275
     26          1           0        3.554832    2.580611   -0.679122
     27          1           0        5.195028    0.732621   -0.842361
     28          1           0        4.474034   -1.571470   -0.300018
     29          1           0        2.179072   -2.022785    0.375792
     30          1           0        0.146781   -2.360884    0.991237
     31          1           0       -2.460595   -0.887454    0.805832
     32          1           0       -2.006141   -2.260070    1.812291
     33          1           0       -2.906124   -3.691681    0.142838
     34          1           0       -3.246925   -2.274082   -0.858065
     35          1           0       -1.530716   -3.219935   -2.212626
     36          1           0       -0.764711   -4.004132   -0.806031
     37          1           0        0.499375   -2.017248   -1.345946
 ---------------------------------------------------------------------
                    Distance matrix (angstroms):
                    1          2          3          4          5
     1  O    0.000000
     2  C    1.326578   0.000000
     3  C    2.417365   1.542131   0.000000
     4  C    3.705850   2.578167   1.389632   0.000000
     5  C    4.818200   3.842011   2.404771   1.383587   0.000000
     6  C    4.996975   4.328502   2.787456   2.404917   1.386406
     7  C    4.134344   3.804214   2.412015   2.771463   2.394543
     8  C    2.754155   2.514538   1.388068   2.391160   2.756046
     9  C    2.267776   1.535621   2.502993   3.060502   4.354925
    10  C    3.092164   2.541002   2.860462   3.205492   4.233083
    11  C    4.240325   3.816679   4.232293   4.422833   5.360223
    12  C    4.718058   4.340728   5.105296   5.315800   6.401665
    13  C    4.212329   3.834552   4.916431   5.237433   6.493474
    14  C    3.050807   2.566504   3.798715   4.259435   5.598739
    15  C    2.414472   1.580764   2.502499   3.103388   4.367433
    16  C    3.148780   2.620967   2.936220   3.519447   4.465781
    17  C    4.574686   3.825463   4.010083   4.117312   4.938781
    18  C    4.722025   3.766417   4.202642   4.100026   5.121358
    19  N    3.698575   2.563051   3.057082   2.987537   4.204218
    20  H    4.069576   2.782200   2.136968   1.079361   2.142480
    21  H    5.791335   4.717857   3.386850   2.142049   1.084390
    22  H    6.051140   5.412599   3.871620   3.386713   2.146693
    23  H    4.751582   4.659049   3.393411   3.855589   3.377984
    24  H    2.314919   2.626828   2.106122   3.351099   3.836664
    25  H    3.243314   2.725190   2.475773   2.792535   3.559751
    26  H    5.050960   4.672327   4.836150   4.922223   5.638757
    27  H    5.753771   5.423187   6.155815   6.301239   7.322562
    28  H    5.008949   4.698485   5.881711   6.190060   7.472998
    29  H    3.178326   2.781272   4.177476   4.697025   6.077980
    30  H    2.531162   2.160817   3.433977   4.149082   5.444737
    31  H    3.207856   2.674677   2.419552   3.003613   3.713781
    32  H    3.203083   3.116154   3.648155   4.460389   5.384659
    33  H    5.233923   4.672272   4.981910   5.188997   5.976376
    34  H    5.158748   4.305284   4.094026   3.937390   4.481854
    35  H    5.670303   4.598735   4.819384   4.408372   5.265819
    36  H    5.005983   4.234573   4.972526   5.038667   6.147007
    37  H    3.976799   2.863685   3.563043   3.438255   4.710453
                    6          7          8          9         10
     6  C    0.000000
     7  C    1.385095   0.000000
     8  C    2.394587   1.382395   0.000000
     9  C    5.059318   4.743209   3.585980   0.000000
    10  C    4.854656   4.632020   3.710667   1.398413   0.000000
    11  C    6.029942   5.889894   5.047235   2.426729   1.380527
    12  C    7.187772   7.033584   6.058177   2.819805   2.402807
    13  C    7.336923   7.112963   5.984673   2.426528   2.753932
    14  C    6.404492   6.109762   4.907718   1.397464   2.381059
    15  C    5.029871   4.685628   3.531905   2.557212   3.818233
    16  C    4.885893   4.486713   3.541149   3.942849   5.065762
    17  C    5.575619   5.499692   4.771350   4.881906   6.021099
    18  C    6.052902   6.125762   5.297054   4.362171   5.536335
    19  N    5.193272   5.235467   4.314223   2.976840   4.098526
    20  H    3.384135   3.850815   3.368906   2.898982   3.175954
    21  H    2.140279   3.375863   3.840429   5.053691   4.869413
    22  H    1.084170   2.146867   3.379643   6.107753   5.808452
    23  H    2.142289   1.084127   2.144531   5.639478   5.476775
    24  H    3.391328   2.164540   1.081571   3.772649   3.993165
    25  H    3.992289   3.772764   3.052504   2.142815   1.081073
    26  H    6.212921   6.141882   5.487039   3.403227   2.137208
    27  H    8.116795   8.004429   7.078697   3.903242   3.387097
    28  H    8.359358   8.136124   6.973088   3.403151   3.838809
    29  H    6.886406   6.546290   5.285449   2.150961   3.370505
    30  H    6.070406   5.609823   4.359668   2.845309   4.224773
    31  H    3.936231   3.511634   2.743470   4.108746   5.000580
    32  H    5.628511   5.013104   4.000619   4.481112   5.651477
    33  H    6.523720   6.363939   5.627634   5.756812   6.967406
    34  H    5.100327   5.223615   4.759875   5.373922   6.350951
    35  H    6.318984   6.614539   5.949912   5.042551   6.086508
    36  H    7.050226   7.007083   6.054453   4.717755   6.003373
    37  H    5.793655   5.870581   4.903748   2.736823   3.834164
                   11         12         13         14         15
    11  C    0.000000
    12  C    1.386112   0.000000
    13  C    2.384507   1.385518   0.000000
    14  C    2.754097   2.403042   1.381322   0.000000
    15  C    4.963872   5.195900   4.357587   2.989049   0.000000
    16  C    6.321228   6.682402   5.886614   4.512255   1.535680
    17  C    7.189620   7.433943   6.560516   5.255753   2.436838
    18  C    6.513725   6.555879   5.613563   4.445738   2.307984
    19  N    5.093880   5.239553   4.426941   3.235535   1.458272
    20  H    4.224217   4.915876   4.750285   3.849314   2.993340
    21  H    5.845297   6.842948   6.988300   6.195242   5.085549
    22  H    6.907615   8.111505   8.339326   7.452737   6.074504
    23  H    6.691047   7.869465   7.988561   7.000088   5.563686
    24  H    5.281824   6.211295   6.070106   4.986163   3.704799
    25  H    2.129510   3.376186   3.834861   3.365077   4.136586
    26  H    1.084430   2.141442   3.369687   3.838505   5.911639
    27  H    2.151488   1.083492   2.149763   3.386681   6.250766
    28  H    3.370371   2.141532   1.084899   2.138037   4.982744
    29  H    3.834636   3.370436   2.121338   1.081179   2.664607
    30  H    5.208192   5.191035   4.144846   2.812816   1.105441
    31  H    6.340620   6.916574   6.312552   4.964592   2.167803
    32  H    6.883732   7.179010   6.306463   4.931963   2.172431
    33  H    8.116318   8.272395   7.297448   5.995471   3.223830
    34  H    7.556405   7.938781   7.199030   5.922925   3.146153
    35  H    6.987981   7.028017   6.163037   5.122118   3.275148
    36  H    6.873657   6.710884   5.601654   4.495181   2.706095
    37  H    4.602915   4.542961   3.669213   2.646181   2.058133
                   16         17         18         19         20
    16  C    0.000000
    17  C    1.539818   0.000000
    18  C    2.423875   1.532890   0.000000
    19  N    2.338887   2.328798   1.444897   0.000000
    20  H    3.672864   3.986116   3.586575   2.420688   0.000000
    21  H    5.201268   5.407291   5.451212   4.636978   2.471024
    22  H    5.831507   6.412472   6.942815   6.165164   4.279109
    23  H    5.229150   6.295745   7.057938   6.230745   4.934941
    24  H    3.687280   5.104089   5.705998   4.771656   4.233498
    25  H    5.141260   6.160334   5.887860   4.472228   3.075998
    26  H    7.195574   8.079148   7.448590   6.014598   4.812341
    27  H    7.749357   8.456881   7.506308   6.226887   5.864584
    28  H    6.501882   7.055577   5.994401   4.980416   5.622326
    29  H    4.132936   4.761894   3.914782   2.965474   4.254428
    30  H    2.146078   2.942736   2.670424   2.125914   3.973037
    31  H    1.088583   2.177148   3.177904   2.886192   3.443578
    32  H    1.088660   2.199926   3.170830   3.233640   4.686831
    33  H    2.202811   1.091259   2.183850   3.250312   5.073664
    34  H    2.174274   1.090191   2.161591   2.828925   3.877207
    35  H    3.350419   2.202983   1.095481   2.097292   3.753197
    36  H    2.944706   2.172587   1.108825   2.137965   4.501860
    37  H    3.252340   3.254550   2.066545   1.015050   2.672288
                   21         22         23         24         25
    21  H    0.000000
    22  H    2.466008   0.000000
    23  H    4.271382   2.471923   0.000000
    24  H    4.920981   4.296926   2.509944   0.000000
    25  H    4.259733   4.893169   4.573688   3.452175   0.000000
    26  H    6.050111   6.978168   6.867326   5.759981   2.447583
    27  H    7.691434   8.996580   8.817998   7.225399   4.271837
    28  H    7.928792   9.368963   9.014579   7.014261   4.919748
    29  H    6.683822   7.954032   7.426712   5.290986   4.272599
    30  H    6.166614   7.126953   6.420497   4.311687   4.728843
    31  H    4.521875   4.842353   4.220336   3.021993   4.844897
    32  H    6.189171   6.560189   5.600256   3.856731   5.757871
    33  H    6.444060   7.325159   7.071153   5.830665   7.146965
    34  H    4.825090   5.814257   6.007334   5.260243   6.340906
    35  H    5.377751   7.113603   7.579858   6.494756   6.408267
    36  H    6.514935   7.975376   7.909460   6.316999   6.497929
    37  H    5.064661   6.772207   6.891956   5.335615   4.412870
                   26         27         28         29         30
    26  H    0.000000
    27  H    2.476279   0.000000
    28  H    4.269476   2.474430   0.000000
    29  H    4.919026   4.262880   2.434595   0.000000
    30  H    6.230833   6.198117   4.584281   2.150184   0.000000
    31  H    7.100558   7.996859   7.055484   4.795875   3.000630
    32  H    7.782272   8.237731   6.850452   4.431235   2.306375
    33  H    9.042191   9.282981   7.691433   5.357117   3.436718
    34  H    8.358467   8.961422   7.772920   5.570188   3.865837
    35  H    7.865162   7.920603   6.514026   4.679274   3.717083
    36  H    7.876128   7.612926   5.798133   3.740094   2.600241
    37  H    5.560646   5.464845   4.134078   2.405368   2.388479
                   31         32         33         34         35
    31  H    0.000000
    32  H    1.761693   0.000000
    33  H    2.915775   2.376248   0.000000
    34  H    2.304258   2.944578   1.768485   0.000000
    35  H    3.926351   4.165012   2.768122   2.382194   0.000000
    36  H    3.897154   3.382087   2.362970   3.026081   1.783322
    37  H    3.829883   4.038692   4.076472   3.786655   2.513734
                   36         37
    36  H    0.000000
    37  H    2.416015   0.000000
 Symmetry turned off by external request.
 Stoichiometry    C17H18NO(1-)
 Framework group  C1[X(C17H18NO)]
 Deg. of freedom   105
 Full point group                 C1      NOp   1
 Rotational constants (GHZ):           0.4947442           0.3592038           0.2574637
 Leave Link  202 at Mon Feb 26 04:45:14 2024, MaxMem=  7516192768 cpu:               0.8 elap:               0.0
 (Enter /public/apps/g16-C01//g16/l301.exe)
 Standard basis: def2SVPP (5D, 7F)
 Ernie: Thresh=  0.10000D-02 Tol=  0.10000D-05 Strict=F.
   302 basis functions,   547 primitive gaussians,   321 cartesian basis functions
    68 alpha electrons       68 beta electrons
       nuclear repulsion energy      1427.0750603853 Hartrees.
 IExCor=  402 DFT=T Ex+Corr=B3LYP ExCW=0 ScaHFX=  0.200000
 ScaDFX=  0.800000  0.720000  1.000000  0.810000 ScalE2=  1.000000  1.000000
 IRadAn=      5 IRanWt=     -1 IRanGd=            0 ICorTp=0 IEmpDi=141
 NAtoms=   37 NActive=   37 NUniq=   37 SFac= 1.00D+00 NAtFMM=   60 NAOKFM=F Big=F
 Integral buffers will be    131072 words long.
 Raffenetti 2 integral format.
 Two-electron integral symmetry is turned off.
 R6Disp:  Grimme-D3(BJ) Dispersion energy=       -0.0853657183 Hartrees.
 Nuclear repulsion after empirical dispersion term =     1426.9896946670 Hartrees.
 Leave Link  301 at Mon Feb 26 04:45:14 2024, MaxMem=  7516192768 cpu:               1.2 elap:               0.0
 (Enter /public/apps/g16-C01//g16/l302.exe)
 NPDir=0 NMtPBC=     1 NCelOv=     1 NCel=       1 NClECP=     1 NCelD=      1
         NCelK=      1 NCelE2=     1 NClLst=     1 CellRange=     0.0.
 One-electron integrals computed using PRISM.
   1 Symmetry operations used in ECPInt.
 ECPInt:  NShTT=   11325 NPrTT=   45451 LenC2=   10928 LenP2D=   30805.
 LDataN:  DoStor=T MaxTD1= 4 Len=   56
 NBasis=   302 RedAO= T EigKep=  2.42D-04  NBF=   302
 NBsUse=   302 1.00D-06 EigRej= -1.00D+00 NBFU=   302
 Precomputing XC quadrature grid using
 IXCGrd= 4 IRadAn=           5 IRanWt=          -1 IRanGd=           0 AccXCQ= 0.00D+00.
 Generated NRdTot=       0 NPtTot=           0 NUsed=           0 NTot=          32
 NSgBfM=   320   320   320   320   320 MxSgAt=    37 MxSgA2=    37.
 Leave Link  302 at Mon Feb 26 04:45:14 2024, MaxMem=  7516192768 cpu:               9.0 elap:               0.2
 (Enter /public/apps/g16-C01//g16/l303.exe)
 DipDrv:  MaxL=1.
 Leave Link  303 at Mon Feb 26 04:45:14 2024, MaxMem=  7516192768 cpu:               1.1 elap:               0.0
 (Enter /public/apps/g16-C01//g16/l401.exe)
 ExpMin= 1.22D-01 ExpMax= 2.27D+03 ExpMxC= 3.41D+02 IAcc=3 IRadAn=         5 AccDes= 0.00D+00
 Harris functional with IExCor=  402 and IRadAn=       5 diagonalized for initial guess.
 HarFok:  IExCor=  402 AccDes= 0.00D+00 IRadAn=         5 IDoV= 1 UseB2=F ITyADJ=14
 ICtDFT=  3500011 ScaDFX=  1.000000  1.000000  1.000000  1.000000
 FoFCou: FMM=F IPFlag=           0 FMFlag=      100000 FMFlg1=           0
         NFxFlg=           0 DoJE=T BraDBF=F KetDBF=T FulRan=T
         wScrn=  0.000000 ICntrl=       500 IOpCl=  0 I1Cent=   200000004 NGrid=           0
         NMat0=    1 NMatS0=      1 NMatT0=    0 NMatD0=    1 NMtDS0=    0 NMtDT0=    0
 Symmetry not used in FoFCou.
 Harris En= -788.283394950863    
 JPrj=0 DoOrth=F DoCkMO=F.
 Leave Link  401 at Mon Feb 26 04:45:15 2024, MaxMem=  7516192768 cpu:              20.7 elap:               0.5
 (Enter /public/apps/g16-C01//g16/l502.exe)
 Two-electron integral symmetry not used.
 Closed shell SCF:
 Using DIIS extrapolation, IDIIS=  1040.
 NGot=  7516192768 LenX=  7515970077 LenY=  7515866595
 Requested convergence on RMS density matrix=1.00D-08 within 128 cycles.
 Requested convergence on MAX density matrix=1.00D-06.
 Requested convergence on             energy=1.00D-06.
 No special actions if energy rises.
 Fock matrices will be formed incrementally for  20 cycles.
 Integral accuracy reduced to 1.0D-05 until final iterations.

 Cycle   1  Pass 0  IDiag  1:
 FoFJK:  IHMeth= 1 ICntrl=       0 DoSepK=F KAlg= 0 I1Cent=           0 FoldK=F
 IRaf= 920000000 NMat=       1 IRICut=       1 DoRegI=T DoRafI=F ISym2E= 0 IDoP0=0 IntGTp=1.
 FoFCou: FMM=F IPFlag=           0 FMFlag=      100000 FMFlg1=           0
         NFxFlg=           0 DoJE=F BraDBF=F KetDBF=F FulRan=T
         wScrn=  0.000000 ICntrl=         0 IOpCl=  0 I1Cent=           0 NGrid=           0
         NMat0=    1 NMatS0=      1 NMatT0=    0 NMatD0=    1 NMtDS0=    0 NMtDT0=    0
 Symmetry not used in FoFCou.
 E= -787.500830195420    
 DIIS: error= 3.13D-02 at cycle   1 NSaved=   1.
 NSaved= 1 IEnMin= 1 EnMin= -787.500830195420     IErMin= 1 ErrMin= 3.13D-02
 ErrMax= 3.13D-02  0.00D+00 EMaxC= 1.00D-01 BMatC= 5.07D-01 BMatP= 5.07D-01
 IDIUse=3 WtCom= 6.87D-01 WtEn= 3.13D-01
 Coeff-Com:  0.100D+01
 Coeff-En:   0.100D+01
 Coeff:      0.100D+01
 Gap=     0.180 Goal=   None    Shift=    0.000
 GapD=    0.180 DampG=1.000 DampE=0.500 DampFc=0.5000 IDamp=-1.
 Damping current iteration by 5.00D-01
 RMSDP=4.41D-02 MaxDP=4.01D+00              OVMax= 9.83D-01

 Cycle   2  Pass 0  IDiag  1:
 RMSU=  2.20D-02    CP:  9.31D-01
 E= -786.583666976151     Delta-E=        0.917163219268 Rises=F Damp=T
 DIIS: error= 4.74D-02 at cycle   2 NSaved=   2.
 NSaved= 2 IEnMin= 1 EnMin= -787.500830195420     IErMin= 1 ErrMin= 3.13D-02
 ErrMax= 4.74D-02  0.00D+00 EMaxC= 1.00D-01 BMatC= 3.93D-01 BMatP= 5.07D-01
 IDIUse=3 WtCom= 5.26D-01 WtEn= 4.74D-01
 Coeff-Com:  0.455D+00 0.545D+00
 Coeff-En:   0.777D+00 0.223D+00
 Coeff:      0.607D+00 0.393D+00
 Gap=     0.000 Goal=   None    Shift=    0.000
 RMSDP=2.19D-02 MaxDP=2.01D+00 DE= 9.17D-01 OVMax= 6.68D-01

 Cycle   3  Pass 0  IDiag  1:
 RMSU=  5.17D-03    CP:  8.92D-01  3.17D-02
 E= -787.706453244309     Delta-E=       -1.122786268158 Rises=F Damp=F
 DIIS: error= 2.64D-02 at cycle   3 NSaved=   3.
 NSaved= 3 IEnMin= 3 EnMin= -787.706453244309     IErMin= 3 ErrMin= 2.64D-02
 ErrMax= 2.64D-02  0.00D+00 EMaxC= 1.00D-01 BMatC= 3.43D-01 BMatP= 3.93D-01
 IDIUse=3 WtCom= 7.36D-01 WtEn= 2.64D-01
 EnCoef did     2 forward-backward iterations
 Coeff-Com:  0.248D+00 0.380D+00 0.372D+00
 Coeff-En:   0.268D+00 0.116D+00 0.616D+00
 Coeff:      0.253D+00 0.310D+00 0.437D+00
 Gap=     0.224 Goal=   None    Shift=    0.000
 RMSDP=3.22D-03 MaxDP=9.14D-02 DE=-1.12D+00 OVMax= 1.15D-01

 Cycle   4  Pass 0  IDiag  1:
 RMSU=  2.51D-03    CP:  9.21D-01  2.02D-02  6.38D-01
 E= -788.050308933874     Delta-E=       -0.343855689564 Rises=F Damp=F
 DIIS: error= 8.88D-03 at cycle   4 NSaved=   4.
 NSaved= 4 IEnMin= 4 EnMin= -788.050308933874     IErMin= 4 ErrMin= 8.88D-03
 ErrMax= 8.88D-03  0.00D+00 EMaxC= 1.00D-01 BMatC= 2.52D-02 BMatP= 3.43D-01
 IDIUse=3 WtCom= 9.11D-01 WtEn= 8.88D-02
 Coeff-Com: -0.127D-01 0.188D+00 0.104D+00 0.721D+00
 Coeff-En:   0.000D+00 0.000D+00 0.000D+00 0.100D+01
 Coeff:     -0.116D-01 0.171D+00 0.946D-01 0.746D+00
 Gap=     0.162 Goal=   None    Shift=    0.000
 RMSDP=1.01D-03 MaxDP=4.19D-02 DE=-3.44D-01 OVMax= 3.61D-02

 Cycle   5  Pass 0  IDiag  1:
 RMSU=  9.40D-04    CP:  9.20D-01  2.23D-02  7.02D-01  1.07D+00
 E= -788.054949610824     Delta-E=       -0.004640676950 Rises=F Damp=F
 DIIS: error= 8.02D-03 at cycle   5 NSaved=   5.
 NSaved= 5 IEnMin= 5 EnMin= -788.054949610824     IErMin= 5 ErrMin= 8.02D-03
 ErrMax= 8.02D-03  0.00D+00 EMaxC= 1.00D-01 BMatC= 1.96D-02 BMatP= 2.52D-02
 IDIUse=3 WtCom= 9.20D-01 WtEn= 8.02D-02
 Coeff-Com: -0.812D-01 0.105D+00-0.666D-01 0.441D+00 0.602D+00
 Coeff-En:   0.000D+00 0.000D+00 0.000D+00 0.373D+00 0.627D+00
 Coeff:     -0.747D-01 0.962D-01-0.612D-01 0.436D+00 0.604D+00
 Gap=     0.147 Goal=   None    Shift=    0.000
 RMSDP=7.64D-04 MaxDP=2.60D-02 DE=-4.64D-03 OVMax= 3.96D-02

 Cycle   6  Pass 0  IDiag  1:
 RMSU=  5.77D-04    CP:  9.19D-01  2.53D-02  6.98D-01  1.26D+00  8.59D-01
 E= -788.074095321619     Delta-E=       -0.019145710795 Rises=F Damp=F
 DIIS: error= 4.95D-03 at cycle   6 NSaved=   6.
 NSaved= 6 IEnMin= 6 EnMin= -788.074095321619     IErMin= 6 ErrMin= 4.95D-03
 ErrMax= 4.95D-03  0.00D+00 EMaxC= 1.00D-01 BMatC= 4.82D-03 BMatP= 1.96D-02
 IDIUse=3 WtCom= 9.51D-01 WtEn= 4.95D-02
 Coeff-Com: -0.679D-01 0.340D-01-0.111D+00 0.229D-01 0.411D+00 0.711D+00
 Coeff-En:   0.000D+00 0.000D+00 0.000D+00 0.000D+00 0.000D+00 0.100D+01
 Coeff:     -0.645D-01 0.323D-01-0.105D+00 0.218D-01 0.391D+00 0.725D+00
 Gap=     0.136 Goal=   None    Shift=    0.000
 RMSDP=6.07D-04 MaxDP=4.40D-02 DE=-1.91D-02 OVMax= 2.77D-02

 Cycle   7  Pass 0  IDiag  1:
 RMSU=  3.04D-04    CP:  9.21D-01  2.52D-02  6.99D-01  1.42D+00  1.20D+00
                    CP:  9.41D-01
 E= -788.078180926439     Delta-E=       -0.004085604820 Rises=F Damp=F
 DIIS: error= 1.26D-03 at cycle   7 NSaved=   7.
 NSaved= 7 IEnMin= 7 EnMin= -788.078180926439     IErMin= 7 ErrMin= 1.26D-03
 ErrMax= 1.26D-03  0.00D+00 EMaxC= 1.00D-01 BMatC= 5.68D-04 BMatP= 4.82D-03
 IDIUse=3 WtCom= 9.87D-01 WtEn= 1.26D-02
 Coeff-Com: -0.223D-01 0.849D-02-0.471D-01-0.774D-01 0.766D-01 0.408D+00
 Coeff-Com:  0.654D+00
 Coeff-En:   0.000D+00 0.000D+00 0.000D+00 0.000D+00 0.000D+00 0.000D+00
 Coeff-En:   0.100D+01
 Coeff:     -0.220D-01 0.838D-02-0.465D-01-0.764D-01 0.757D-01 0.403D+00
 Coeff:      0.658D+00
 Gap=     0.134 Goal=   None    Shift=    0.000
 RMSDP=1.72D-04 MaxDP=3.61D-03 DE=-4.09D-03 OVMax= 9.18D-03

 Cycle   8  Pass 0  IDiag  1:
 RMSU=  1.25D-04    CP:  9.21D-01  2.59D-02  6.99D-01  1.44D+00  1.22D+00
                    CP:  1.11D+00  8.88D-01
 E= -788.078753051312     Delta-E=       -0.000572124874 Rises=F Damp=F
 DIIS: error= 4.76D-04 at cycle   8 NSaved=   8.
 NSaved= 8 IEnMin= 8 EnMin= -788.078753051312     IErMin= 8 ErrMin= 4.76D-04
 ErrMax= 4.76D-04  0.00D+00 EMaxC= 1.00D-01 BMatC= 1.19D-04 BMatP= 5.68D-04
 IDIUse=3 WtCom= 9.95D-01 WtEn= 4.76D-03
 Coeff-Com:  0.441D-03-0.483D-04-0.277D-02-0.395D-01-0.483D-01 0.593D-01
 Coeff-Com:  0.408D+00 0.623D+00
 Coeff-En:   0.000D+00 0.000D+00 0.000D+00 0.000D+00 0.000D+00 0.000D+00
 Coeff-En:   0.708D-01 0.929D+00
 Coeff:      0.438D-03-0.481D-04-0.276D-02-0.394D-01-0.481D-01 0.590D-01
 Coeff:      0.407D+00 0.624D+00
 Gap=     0.133 Goal=   None    Shift=    0.000
 RMSDP=8.47D-05 MaxDP=5.04D-03 DE=-5.72D-04 OVMax= 4.59D-03

 Cycle   9  Pass 0  IDiag  1:
 RMSU=  4.27D-05    CP:  9.21D-01  2.60D-02  6.98D-01  1.45D+00  1.25D+00
                    CP:  1.14D+00  1.01D+00  6.95D-01
 E= -788.078862032007     Delta-E=       -0.000108980695 Rises=F Damp=F
 DIIS: error= 1.59D-04 at cycle   9 NSaved=   9.
 NSaved= 9 IEnMin= 9 EnMin= -788.078862032007     IErMin= 9 ErrMin= 1.59D-04
 ErrMax= 1.59D-04  0.00D+00 EMaxC= 1.00D-01 BMatC= 1.44D-05 BMatP= 1.19D-04
 IDIUse=3 WtCom= 9.98D-01 WtEn= 1.59D-03
 Coeff-Com:  0.138D-02-0.359D-03 0.137D-02-0.165D-01-0.310D-01 0.157D-01
 Coeff-Com:  0.205D+00 0.375D+00 0.449D+00
 Coeff-En:   0.000D+00 0.000D+00 0.000D+00 0.000D+00 0.000D+00 0.000D+00
 Coeff-En:   0.000D+00 0.570D-01 0.943D+00
 Coeff:      0.138D-02-0.358D-03 0.137D-02-0.165D-01-0.309D-01 0.156D-01
 Coeff:      0.205D+00 0.374D+00 0.450D+00
 Gap=     0.133 Goal=   None    Shift=    0.000
 RMSDP=2.15D-05 MaxDP=9.12D-04 DE=-1.09D-04 OVMax= 1.16D-03

 Cycle  10  Pass 0  IDiag  1:
 RMSU=  1.41D-05    CP:  9.21D-01  2.60D-02  6.99D-01  1.45D+00  1.24D+00
                    CP:  1.14D+00  1.00D+00  7.22D-01  7.19D-01
 E= -788.078875783124     Delta-E=       -0.000013751117 Rises=F Damp=F
 DIIS: error= 6.49D-05 at cycle  10 NSaved=  10.
 NSaved=10 IEnMin=10 EnMin= -788.078875783124     IErMin=10 ErrMin= 6.49D-05
 ErrMax= 6.49D-05  0.00D+00 EMaxC= 1.00D-01 BMatC= 1.35D-06 BMatP= 1.44D-05
 IDIUse=1 WtCom= 1.00D+00 WtEn= 0.00D+00
 Coeff-Com:  0.468D-03-0.185D-03 0.993D-03-0.246D-02-0.676D-02 0.575D-02
 Coeff-Com:  0.493D-01 0.993D-01 0.191D+00 0.663D+00
 Coeff:      0.468D-03-0.185D-03 0.993D-03-0.246D-02-0.676D-02 0.575D-02
 Coeff:      0.493D-01 0.993D-01 0.191D+00 0.663D+00
 Gap=     0.133 Goal=   None    Shift=    0.000
 RMSDP=7.54D-06 MaxDP=4.10D-04 DE=-1.38D-05 OVMax= 2.32D-04

 Initial convergence to 1.0D-05 achieved.  Increase integral accuracy.
 Cycle  11  Pass 1  IDiag  1:
 E= -788.078869204941     Delta-E=        0.000006578183 Rises=F Damp=F
 DIIS: error= 8.24D-05 at cycle   1 NSaved=   1.
 NSaved= 1 IEnMin= 1 EnMin= -788.078869204941     IErMin= 1 ErrMin= 8.24D-05
 ErrMax= 8.24D-05  0.00D+00 EMaxC= 1.00D-01 BMatC= 1.89D-06 BMatP= 1.89D-06
 IDIUse=1 WtCom= 1.00D+00 WtEn= 0.00D+00
 Coeff-Com:  0.100D+01
 Coeff:      0.100D+01
 Gap=     0.134 Goal=   None    Shift=    0.000
 RMSDP=7.54D-06 MaxDP=4.10D-04 DE= 6.58D-06 OVMax= 6.28D-04

 Cycle  12  Pass 1  IDiag  1:
 RMSU=  1.11D-04    CP:  1.00D+00
 E= -788.078870040114     Delta-E=       -0.000000835173 Rises=F Damp=F
 DIIS: error= 7.51D-05 at cycle   2 NSaved=   2.
 NSaved= 2 IEnMin= 2 EnMin= -788.078870040114     IErMin= 2 ErrMin= 7.51D-05
 ErrMax= 7.51D-05  0.00D+00 EMaxC= 1.00D-01 BMatC= 1.14D-06 BMatP= 1.89D-06
 IDIUse=1 WtCom= 1.00D+00 WtEn= 0.00D+00
 Coeff-Com:  0.408D+00 0.592D+00
 Coeff:      0.408D+00 0.592D+00
 Gap=     0.133 Goal=   None    Shift=    0.000
 RMSDP=1.62D-05 MaxDP=1.12D-03 DE=-8.35D-07 OVMax= 1.00D-03

 Cycle  13  Pass 1  IDiag  1:
 RMSU=  1.57D-05    CP:  1.00D+00  9.95D-01
 E= -788.078870123376     Delta-E=       -0.000000083262 Rises=F Damp=F
 DIIS: error= 7.69D-05 at cycle   3 NSaved=   3.
 NSaved= 3 IEnMin= 3 EnMin= -788.078870123376     IErMin= 2 ErrMin= 7.51D-05
 ErrMax= 7.69D-05  0.00D+00 EMaxC= 1.00D-01 BMatC= 1.10D-06 BMatP= 1.14D-06
 IDIUse=1 WtCom= 1.00D+00 WtEn= 0.00D+00
 Coeff-Com:  0.121D-01 0.492D+00 0.496D+00
 Coeff:      0.121D-01 0.492D+00 0.496D+00
 Gap=     0.134 Goal=   None    Shift=    0.000
 RMSDP=8.31D-06 MaxDP=5.87D-04 DE=-8.33D-08 OVMax= 5.00D-04

 Cycle  14  Pass 1  IDiag  1:
 RMSU=  1.51D-06    CP:  1.00D+00  1.01D+00  5.02D-01
 E= -788.078871113120     Delta-E=       -0.000000989744 Rises=F Damp=F
 DIIS: error= 7.20D-06 at cycle   4 NSaved=   4.
 NSaved= 4 IEnMin= 4 EnMin= -788.078871113120     IErMin= 4 ErrMin= 7.20D-06
 ErrMax= 7.20D-06  0.00D+00 EMaxC= 1.00D-01 BMatC= 2.48D-08 BMatP= 1.10D-06
 IDIUse=1 WtCom= 1.00D+00 WtEn= 0.00D+00
 Coeff-Com: -0.379D-02 0.282D+00 0.295D+00 0.426D+00
 Coeff:     -0.379D-02 0.282D+00 0.295D+00 0.426D+00
 Gap=     0.134 Goal=   None    Shift=    0.000
 RMSDP=8.65D-07 MaxDP=3.01D-05 DE=-9.90D-07 OVMax= 2.93D-05

 Cycle  15  Pass 1  IDiag  1:
 RMSU=  2.93D-07    CP:  1.00D+00  1.01D+00  5.17D-01  4.86D-01
 E= -788.078871135721     Delta-E=       -0.000000022601 Rises=F Damp=F
 DIIS: error= 7.92D-07 at cycle   5 NSaved=   5.
 NSaved= 5 IEnMin= 5 EnMin= -788.078871135721     IErMin= 5 ErrMin= 7.92D-07
 ErrMax= 7.92D-07  0.00D+00 EMaxC= 1.00D-01 BMatC= 3.77D-10 BMatP= 2.48D-08
 IDIUse=1 WtCom= 1.00D+00 WtEn= 0.00D+00
 Coeff-Com: -0.232D-02 0.151D+00 0.156D+00 0.241D+00 0.454D+00
 Coeff:     -0.232D-02 0.151D+00 0.156D+00 0.241D+00 0.454D+00
 Gap=     0.134 Goal=   None    Shift=    0.000
 RMSDP=1.23D-07 MaxDP=6.61D-06 DE=-2.26D-08 OVMax= 5.71D-06

 Cycle  16  Pass 1  IDiag  1:
 RMSU=  8.88D-08    CP:  1.00D+00  1.01D+00  5.13D-01  5.06D-01  8.33D-01
 E= -788.078871136056     Delta-E=       -0.000000000335 Rises=F Damp=F
 DIIS: error= 3.06D-07 at cycle   6 NSaved=   6.
 NSaved= 6 IEnMin= 6 EnMin= -788.078871136056     IErMin= 6 ErrMin= 3.06D-07
 ErrMax= 3.06D-07  0.00D+00 EMaxC= 1.00D-01 BMatC= 2.83D-11 BMatP= 3.77D-10
 IDIUse=1 WtCom= 1.00D+00 WtEn= 0.00D+00
 Coeff-Com: -0.754D-03 0.457D-01 0.453D-01 0.766D-01 0.226D+00 0.607D+00
 Coeff:     -0.754D-03 0.457D-01 0.453D-01 0.766D-01 0.226D+00 0.607D+00
 Gap=     0.134 Goal=   None    Shift=    0.000
 RMSDP=4.15D-08 MaxDP=9.39D-07 DE=-3.35D-10 OVMax= 2.21D-06

 Cycle  17  Pass 1  IDiag  1:
 RMSU=  3.25D-08    CP:  1.00D+00  1.01D+00  5.12D-01  4.99D-01  8.69D-01
                    CP:  9.12D-01
 E= -788.078871136101     Delta-E=       -0.000000000045 Rises=F Damp=F
 DIIS: error= 1.00D-07 at cycle   7 NSaved=   7.
 NSaved= 7 IEnMin= 7 EnMin= -788.078871136101     IErMin= 7 ErrMin= 1.00D-07
 ErrMax= 1.00D-07  0.00D+00 EMaxC= 1.00D-01 BMatC= 5.18D-12 BMatP= 2.83D-11
 IDIUse=1 WtCom= 1.00D+00 WtEn= 0.00D+00
 Coeff-Com: -0.716D-04 0.268D-02 0.111D-02 0.658D-02 0.550D-01 0.357D+00
 Coeff-Com:  0.577D+00
 Coeff:     -0.716D-04 0.268D-02 0.111D-02 0.658D-02 0.550D-01 0.357D+00
 Coeff:      0.577D+00
 Gap=     0.134 Goal=   None    Shift=    0.000
 RMSDP=1.94D-08 MaxDP=1.21D-06 DE=-4.46D-11 OVMax= 6.62D-07

 Cycle  18  Pass 1  IDiag  1:
 RMSU=  1.20D-08    CP:  1.00D+00  1.01D+00  5.12D-01  5.04D-01  8.85D-01
                    CP:  9.59D-01  7.94D-01
 E= -788.078871136084     Delta-E=        0.000000000017 Rises=F Damp=F
 DIIS: error= 4.17D-08 at cycle   8 NSaved=   8.
 NSaved= 8 IEnMin= 7 EnMin= -788.078871136101     IErMin= 8 ErrMin= 4.17D-08
 ErrMax= 4.17D-08  0.00D+00 EMaxC= 1.00D-01 BMatC= 6.65D-13 BMatP= 5.18D-12
 IDIUse=1 WtCom= 1.00D+00 WtEn= 0.00D+00
 Coeff-Com:  0.823D-04-0.599D-02-0.696D-02-0.855D-02-0.284D-02 0.124D+00
 Coeff-Com:  0.330D+00 0.570D+00
 Coeff:      0.823D-04-0.599D-02-0.696D-02-0.855D-02-0.284D-02 0.124D+00
 Coeff:      0.330D+00 0.570D+00
 Gap=     0.134 Goal=   None    Shift=    0.000
 RMSDP=6.33D-09 MaxDP=1.45D-07 DE= 1.73D-11 OVMax= 3.24D-07

 SCF Done:  E(RB3LYP) =  -788.078871136     A.U. after   18 cycles
            NFock= 18  Conv=0.63D-08     -V/T= 2.0093
 KE= 7.807884267652D+02 PE=-4.702386531324D+03 EE= 1.706529538756D+03
 Leave Link  502 at Mon Feb 26 04:45:28 2024, MaxMem=  7516192768 cpu:             515.7 elap:              13.0
 (Enter /public/apps/g16-C01//g16/l601.exe)
 Copying SCF densities to generalized density rwf, IOpCl= 0 IROHF=0.

 **********************************************************************

            Population analysis using the SCF Density.

 **********************************************************************

 Alpha  occ. eigenvalues --  -18.84153 -14.17234 -10.08402 -10.05772 -10.05498
 Alpha  occ. eigenvalues --  -10.05221 -10.05072 -10.05038 -10.04953 -10.04851
 Alpha  occ. eigenvalues --  -10.04843 -10.04723 -10.03859 -10.03698 -10.03583
 Alpha  occ. eigenvalues --  -10.03542 -10.03361 -10.02976 -10.02834  -0.79011
 Alpha  occ. eigenvalues --   -0.75088  -0.70991  -0.70567  -0.63061  -0.61185
 Alpha  occ. eigenvalues --   -0.60296  -0.59948  -0.59460  -0.58231  -0.49198
 Alpha  occ. eigenvalues --   -0.46756  -0.46440  -0.45859  -0.45312  -0.43889
 Alpha  occ. eigenvalues --   -0.40949  -0.39224  -0.38216  -0.36799  -0.34427
 Alpha  occ. eigenvalues --   -0.32117  -0.31409  -0.31007  -0.30653  -0.30031
 Alpha  occ. eigenvalues --   -0.28843  -0.28560  -0.28391  -0.26763  -0.25834
 Alpha  occ. eigenvalues --   -0.24959  -0.23446  -0.23356  -0.22667  -0.22231
 Alpha  occ. eigenvalues --   -0.21486  -0.20647  -0.20152  -0.19249  -0.17874
 Alpha  occ. eigenvalues --   -0.15942  -0.12467  -0.11919  -0.11434  -0.10140
 Alpha  occ. eigenvalues --   -0.09262  -0.01559  -0.00771
 Alpha virt. eigenvalues --    0.12589   0.13420   0.13844   0.14110   0.16333
 Alpha virt. eigenvalues --    0.18010   0.18123   0.19116   0.20717   0.21862
 Alpha virt. eigenvalues --    0.22078   0.22793   0.23930   0.24484   0.24984
 Alpha virt. eigenvalues --    0.25368   0.26249   0.27934   0.28529   0.28808
 Alpha virt. eigenvalues --    0.29619   0.30103   0.30995   0.31208   0.31850
 Alpha virt. eigenvalues --    0.34135   0.35825   0.38669   0.40595   0.41846
 Alpha virt. eigenvalues --    0.42039   0.42512   0.42656   0.43903   0.44437
 Alpha virt. eigenvalues --    0.45007   0.45880   0.47145   0.48714   0.49614
 Alpha virt. eigenvalues --    0.49963   0.50444   0.51804   0.53163   0.54467
 Alpha virt. eigenvalues --    0.55208   0.55924   0.56244   0.58338   0.59344
 Alpha virt. eigenvalues --    0.59703   0.60366   0.60998   0.61467   0.61964
 Alpha virt. eigenvalues --    0.62872   0.63178   0.63768   0.63992   0.64501
 Alpha virt. eigenvalues --    0.66017   0.66476   0.67102   0.68101   0.68951
 Alpha virt. eigenvalues --    0.70062   0.70546   0.72028   0.73104   0.73836
 Alpha virt. eigenvalues --    0.74624   0.75078   0.75833   0.76645   0.77541
 Alpha virt. eigenvalues --    0.78781   0.79296   0.80330   0.80659   0.80791
 Alpha virt. eigenvalues --    0.81092   0.81566   0.81972   0.82499   0.82633
 Alpha virt. eigenvalues --    0.83258   0.83580   0.84273   0.84606   0.85363
 Alpha virt. eigenvalues --    0.86055   0.86947   0.87111   0.87613   0.88543
 Alpha virt. eigenvalues --    0.89626   0.89787   0.90218   0.90605   0.91411
 Alpha virt. eigenvalues --    0.92176   0.92973   0.94381   0.95725   0.96112
 Alpha virt. eigenvalues --    0.96703   0.98322   0.99199   0.99468   1.02009
 Alpha virt. eigenvalues --    1.03652   1.04963   1.05995   1.07025   1.08931
 Alpha virt. eigenvalues --    1.11124   1.13234   1.13716   1.17648   1.19701
 Alpha virt. eigenvalues --    1.22475   1.23869   1.26708   1.27855   1.30365
 Alpha virt. eigenvalues --    1.33476   1.36521   1.37444   1.39988   1.41261
 Alpha virt. eigenvalues --    1.41913   1.44110   1.44952   1.46956   1.49102
 Alpha virt. eigenvalues --    1.51666   1.53538   1.56629   1.56973   1.58120
 Alpha virt. eigenvalues --    1.59175   1.62039   1.62852   1.63831   1.64840
 Alpha virt. eigenvalues --    1.65135   1.65582   1.67096   1.69083   1.73511
 Alpha virt. eigenvalues --    1.74604   1.79742   1.86369   1.89640   1.90266
 Alpha virt. eigenvalues --    1.91539   1.91830   1.93002   1.94462   1.94887
 Alpha virt. eigenvalues --    1.95625   1.97128   1.98093   2.01429   2.02326
 Alpha virt. eigenvalues --    2.02627   2.04977   2.05742   2.05891   2.08155
 Alpha virt. eigenvalues --    2.10014   2.11663   2.13365   2.14192   2.16705
 Alpha virt. eigenvalues --    2.17396   2.19819   2.21916   2.22943   2.23480
 Alpha virt. eigenvalues --    2.24885   2.26681   2.27722   2.28416   2.30000
 Alpha virt. eigenvalues --    2.30564   2.31128   2.32963   2.36283   2.37864
 Alpha virt. eigenvalues --    2.42878   2.44086   2.45260   2.46019   2.47448
 Alpha virt. eigenvalues --    2.47915   2.48947   2.51226   2.53398   2.55625
 Alpha virt. eigenvalues --    2.57989   2.60693   2.61274   2.61988   2.62126
 Alpha virt. eigenvalues --    2.67035   2.69746   2.73866   2.75839   2.77847
 Alpha virt. eigenvalues --    2.80729   2.81334   2.83346   2.84222   2.84604
 Alpha virt. eigenvalues --    2.85517   2.87527   2.88700   2.90158   2.91071
 Alpha virt. eigenvalues --    2.91787   2.97692   2.98951   3.02406   3.02771
 Alpha virt. eigenvalues --    3.05320   3.13695   3.22124   3.25072   3.39461
 Alpha virt. eigenvalues --    3.43093   3.53798   3.56672   3.80649
          Condensed to atoms (all electrons):
               1          2          3          4          5          6
     1  O    8.048975   0.708663  -0.164282   0.006027  -0.000129  -0.000037
     2  C    0.708663   5.527929  -0.273358  -0.107226   0.017553  -0.004586
     3  C   -0.164282  -0.273358   6.463667   0.093864   0.205140  -0.223756
     4  C    0.006027  -0.107226   0.093864   5.598302   0.108643   0.195792
     5  C   -0.000129   0.017553   0.205140   0.108643   5.371123   0.117802
     6  C   -0.000037  -0.004586  -0.223756   0.195792   0.117802   5.413526
     7  C    0.002752   0.036940   0.145845  -0.215951   0.190142   0.092382
     8  C    0.019824  -0.021835   0.093865   0.059430  -0.208200   0.208513
     9  C   -0.078655   0.202505  -0.032654  -0.003141  -0.001677   0.000276
    10  C   -0.000087  -0.091358  -0.071464  -0.009337  -0.000574  -0.000088
    11  C   -0.001409   0.026236  -0.006594   0.000689  -0.000047  -0.000006
    12  C    0.000201  -0.003582   0.000294  -0.000105  -0.000002   0.000000
    13  C   -0.001367   0.022992  -0.001966   0.000122  -0.000002  -0.000000
    14  C    0.003294  -0.100570   0.040908   0.000945   0.000076   0.000004
    15  C   -0.127961  -0.151261  -0.073910  -0.014705  -0.000875   0.000004
    16  C    0.010269   0.020609  -0.054458  -0.006400   0.000165   0.000106
    17  C    0.000308   0.007565  -0.000627   0.000019  -0.000191  -0.000007
    18  C   -0.000284   0.006426  -0.002350   0.000441  -0.000026   0.000001
    19  N    0.003146   0.017782  -0.014258  -0.001095  -0.001011   0.000078
    20  H    0.000155  -0.028055  -0.070316   0.427945  -0.106809   0.016925
    21  H    0.000003  -0.000063   0.018926  -0.092649   0.434254  -0.103444
    22  H    0.000001   0.000062  -0.002335   0.017861  -0.091160   0.428754
    23  H   -0.000007  -0.000298   0.018787  -0.002698   0.018942  -0.102653
    24  H    0.054535  -0.002562  -0.125832   0.022362  -0.002961   0.015700
    25  H    0.002054  -0.039451   0.020372   0.004109  -0.001181   0.000301
    26  H    0.000012  -0.000404   0.000150   0.000041   0.000002  -0.000000
    27  H    0.000001   0.000039   0.000003   0.000000   0.000000  -0.000000
    28  H    0.000013  -0.000309   0.000018   0.000000   0.000000   0.000000
    29  H    0.000750  -0.036196   0.001986  -0.000139   0.000004  -0.000000
    30  H    0.021022   0.012463   0.024896   0.000617   0.000025   0.000011
    31  H    0.000785  -0.028733   0.015099   0.004168  -0.001238   0.000157
    32  H    0.005493   0.009215  -0.001846   0.000529   0.000003   0.000003
    33  H   -0.000001  -0.000786   0.000162   0.000009  -0.000002   0.000001
    34  H    0.000006   0.000975  -0.000748   0.001621   0.000255   0.000000
    35  H    0.000005  -0.000178   0.000409   0.000068   0.000019  -0.000002
    36  H    0.000016   0.000417  -0.000218   0.000123  -0.000002   0.000000
    37  H    0.000083  -0.009876   0.001091  -0.000856   0.000112  -0.000006
               7          8          9         10         11         12
     1  O    0.002752   0.019824  -0.078655  -0.000087  -0.001409   0.000201
     2  C    0.036940  -0.021835   0.202505  -0.091358   0.026236  -0.003582
     3  C    0.145845   0.093865  -0.032654  -0.071464  -0.006594   0.000294
     4  C   -0.215951   0.059430  -0.003141  -0.009337   0.000689  -0.000105
     5  C    0.190142  -0.208200  -0.001677  -0.000574  -0.000047  -0.000002
     6  C    0.092382   0.208513   0.000276  -0.000088  -0.000006   0.000000
     7  C    5.537411  -0.023000  -0.000804   0.000154   0.000037  -0.000000
     8  C   -0.023000   5.615150   0.004438   0.008919   0.000220   0.000002
     9  C   -0.000804   0.004438   5.457851   0.218199   0.159776  -0.202835
    10  C    0.000154   0.008919   0.218199   5.496175   0.121063   0.174998
    11  C    0.000037   0.000220   0.159776   0.121063   5.401866   0.130255
    12  C   -0.000000   0.000002  -0.202835   0.174998   0.130255   5.383432
    13  C    0.000001   0.000005   0.156634  -0.195988   0.184700   0.144395
    14  C    0.000001  -0.002035   0.147816   0.042010  -0.203351   0.172224
    15  C   -0.000801  -0.002190  -0.047329   0.039441  -0.002017   0.000285
    16  C   -0.000397   0.003456   0.014146  -0.000130   0.000022   0.000000
    17  C    0.000042   0.000048  -0.000029   0.000006  -0.000000   0.000000
    18  C    0.000001   0.000180  -0.000377   0.000151  -0.000003  -0.000001
    19  N   -0.000058   0.000701   0.006053  -0.003088   0.000136  -0.000016
    20  H   -0.002634   0.021811   0.010167   0.002716   0.000092  -0.000018
    21  H    0.019320  -0.002647  -0.000037   0.000068   0.000002   0.000000
    22  H   -0.092286   0.016118   0.000000  -0.000000   0.000000  -0.000000
    23  H    0.445074  -0.101547   0.000008   0.000002  -0.000000   0.000000
    24  H   -0.095079   0.408219   0.001730   0.002842   0.000085  -0.000001
    25  H    0.000141   0.000722  -0.062658   0.436810  -0.109905   0.017378
    26  H   -0.000003   0.000000   0.019362  -0.087598   0.429450  -0.102230
    27  H   -0.000000   0.000000  -0.001796   0.017667  -0.093459   0.432017
    28  H   -0.000000  -0.000000   0.019769  -0.002258   0.018390  -0.100892
    29  H   -0.000001  -0.000022  -0.073782   0.020767  -0.002870   0.018209
    30  H   -0.000033  -0.000792  -0.035048  -0.003555   0.000083  -0.000046
    31  H    0.000816   0.007311   0.001691  -0.000130  -0.000001   0.000000
    32  H   -0.000004   0.000852   0.000050  -0.000008   0.000001  -0.000000
    33  H   -0.000002  -0.000004   0.000016  -0.000001  -0.000000   0.000000
    34  H   -0.000038   0.000076  -0.000036  -0.000001   0.000000  -0.000000
    35  H    0.000001  -0.000007   0.000059  -0.000008  -0.000000   0.000000
    36  H   -0.000000  -0.000001  -0.000130  -0.000011   0.000001  -0.000001
    37  H    0.000000  -0.000095   0.006709   0.000332  -0.000169  -0.000020
              13         14         15         16         17         18
     1  O   -0.001367   0.003294  -0.127961   0.010269   0.000308  -0.000284
     2  C    0.022992  -0.100570  -0.151261   0.020609   0.007565   0.006426
     3  C   -0.001966   0.040908  -0.073910  -0.054458  -0.000627  -0.002350
     4  C    0.000122   0.000945  -0.014705  -0.006400   0.000019   0.000441
     5  C   -0.000002   0.000076  -0.000875   0.000165  -0.000191  -0.000026
     6  C   -0.000000   0.000004   0.000004   0.000106  -0.000007   0.000001
     7  C    0.000001   0.000001  -0.000801  -0.000397   0.000042   0.000001
     8  C    0.000005  -0.002035  -0.002190   0.003456   0.000048   0.000180
     9  C    0.156634   0.147816  -0.047329   0.014146  -0.000029  -0.000377
    10  C   -0.195988   0.042010   0.039441  -0.000130   0.000006   0.000151
    11  C    0.184700  -0.203351  -0.002017   0.000022  -0.000000  -0.000003
    12  C    0.144395   0.172224   0.000285   0.000000   0.000000  -0.000001
    13  C    5.349310   0.149337  -0.004032   0.000031  -0.000001   0.000002
    14  C    0.149337   5.547678  -0.050505  -0.000040  -0.000116  -0.000616
    15  C   -0.004032  -0.050505   5.947101   0.286343  -0.043254  -0.046974
    16  C    0.000031  -0.000040   0.286343   4.934496   0.358586  -0.056836
    17  C   -0.000001  -0.000116  -0.043254   0.358586   4.889908   0.402887
    18  C    0.000002  -0.000616  -0.046974  -0.056836   0.402887   4.708347
    19  N    0.000224  -0.002049   0.125402  -0.045861  -0.059998   0.346818
    20  H   -0.000015  -0.001829  -0.000742   0.000114  -0.000111  -0.000305
    21  H    0.000000  -0.000006   0.000085   0.000019   0.000002   0.000007
    22  H    0.000000  -0.000000   0.000001   0.000000  -0.000000   0.000000
    23  H    0.000000  -0.000000   0.000014  -0.000008   0.000001  -0.000000
    24  H    0.000010  -0.000443   0.002959   0.002225   0.000077   0.000018
    25  H   -0.002649   0.019440   0.003428  -0.000134   0.000001   0.000006
    26  H    0.018138  -0.002024   0.000015  -0.000000   0.000000   0.000000
    27  H   -0.094737   0.017985  -0.000001  -0.000000   0.000000  -0.000000
    28  H    0.429178  -0.090220   0.000067  -0.000002   0.000000  -0.000000
    29  H   -0.105945   0.424463   0.024761  -0.000662  -0.000018   0.000425
    30  H    0.000758   0.017884   0.221516  -0.040167  -0.010487  -0.003682
    31  H    0.000002   0.000175   0.008895   0.309609   0.001901   0.000177
    32  H    0.000002   0.000046  -0.006533   0.304230  -0.009324   0.001354
    33  H   -0.000000   0.000005   0.002771  -0.002785   0.303684  -0.004273
    34  H    0.000000  -0.000000  -0.008728   0.014418   0.293969   0.004119
    35  H    0.000001   0.000070   0.007559   0.007853  -0.001533   0.329142
    36  H    0.000008  -0.000011   0.002071  -0.019015  -0.021757   0.311167
    37  H   -0.000788   0.012946  -0.021718   0.013897   0.009365  -0.021100
              19         20         21         22         23         24
     1  O    0.003146   0.000155   0.000003   0.000001  -0.000007   0.054535
     2  C    0.017782  -0.028055  -0.000063   0.000062  -0.000298  -0.002562
     3  C   -0.014258  -0.070316   0.018926  -0.002335   0.018787  -0.125832
     4  C   -0.001095   0.427945  -0.092649   0.017861  -0.002698   0.022362
     5  C   -0.001011  -0.106809   0.434254  -0.091160   0.018942  -0.002961
     6  C    0.000078   0.016925  -0.103444   0.428754  -0.102653   0.015700
     7  C   -0.000058  -0.002634   0.019320  -0.092286   0.445074  -0.095079
     8  C    0.000701   0.021811  -0.002647   0.016118  -0.101547   0.408219
     9  C    0.006053   0.010167  -0.000037   0.000000   0.000008   0.001730
    10  C   -0.003088   0.002716   0.000068  -0.000000   0.000002   0.002842
    11  C    0.000136   0.000092   0.000002   0.000000  -0.000000   0.000085
    12  C   -0.000016  -0.000018   0.000000  -0.000000   0.000000  -0.000001
    13  C    0.000224  -0.000015   0.000000   0.000000   0.000000   0.000010
    14  C   -0.002049  -0.001829  -0.000006  -0.000000  -0.000000  -0.000443
    15  C    0.125402  -0.000742   0.000085   0.000001   0.000014   0.002959
    16  C   -0.045861   0.000114   0.000019   0.000000  -0.000008   0.002225
    17  C   -0.059998  -0.000111   0.000002  -0.000000   0.000001   0.000077
    18  C    0.346818  -0.000305   0.000007   0.000000  -0.000000   0.000018
    19  N    6.760143   0.040077  -0.000104   0.000001   0.000000  -0.000118
    20  H    0.040077   0.687171  -0.014152  -0.000297   0.000051  -0.000237
    21  H   -0.000104  -0.014152   0.758598  -0.015021  -0.000406   0.000093
    22  H    0.000001  -0.000297  -0.015021   0.756561  -0.015129  -0.000223
    23  H    0.000000   0.000051  -0.000406  -0.015129   0.751274  -0.011548
    24  H   -0.000118  -0.000237   0.000093  -0.000223  -0.011548   0.704951
    25  H   -0.000167  -0.000339  -0.000011   0.000000  -0.000001  -0.000107
    26  H   -0.000000  -0.000008  -0.000000  -0.000000  -0.000000  -0.000006
    27  H    0.000000   0.000000  -0.000000  -0.000000   0.000000  -0.000000
    28  H   -0.000012  -0.000002  -0.000000   0.000000  -0.000000  -0.000000
    29  H   -0.002340  -0.000090   0.000000  -0.000000  -0.000000  -0.000022
    30  H   -0.034363   0.000764  -0.000005   0.000000  -0.000001  -0.000612
    31  H    0.000254   0.000406  -0.000029  -0.000001   0.000007   0.000356
    32  H    0.008223  -0.000006  -0.000001   0.000000  -0.000002   0.000007
    33  H    0.004464   0.000025  -0.000000   0.000000  -0.000000  -0.000002
    34  H    0.005625   0.000225  -0.000010   0.000000  -0.000001  -0.000014
    35  H   -0.025129  -0.000870  -0.000000  -0.000000  -0.000000  -0.000001
    36  H   -0.033086   0.000436  -0.000001   0.000000  -0.000000  -0.000000
    37  H    0.281781  -0.001184   0.000006  -0.000000   0.000000  -0.000009
              25         26         27         28         29         30
     1  O    0.002054   0.000012   0.000001   0.000013   0.000750   0.021022
     2  C   -0.039451  -0.000404   0.000039  -0.000309  -0.036196   0.012463
     3  C    0.020372   0.000150   0.000003   0.000018   0.001986   0.024896
     4  C    0.004109   0.000041   0.000000   0.000000  -0.000139   0.000617
     5  C   -0.001181   0.000002   0.000000   0.000000   0.000004   0.000025
     6  C    0.000301  -0.000000  -0.000000   0.000000  -0.000000   0.000011
     7  C    0.000141  -0.000003  -0.000000  -0.000000  -0.000001  -0.000033
     8  C    0.000722   0.000000   0.000000  -0.000000  -0.000022  -0.000792
     9  C   -0.062658   0.019362  -0.001796   0.019769  -0.073782  -0.035048
    10  C    0.436810  -0.087598   0.017667  -0.002258   0.020767  -0.003555
    11  C   -0.109905   0.429450  -0.093459   0.018390  -0.002870   0.000083
    12  C    0.017378  -0.102230   0.432017  -0.100892   0.018209  -0.000046
    13  C   -0.002649   0.018138  -0.094737   0.429178  -0.105945   0.000758
    14  C    0.019440  -0.002024   0.017985  -0.090220   0.424463   0.017884
    15  C    0.003428   0.000015  -0.000001   0.000067   0.024761   0.221516
    16  C   -0.000134  -0.000000  -0.000000  -0.000002  -0.000662  -0.040167
    17  C    0.000001   0.000000   0.000000   0.000000  -0.000018  -0.010487
    18  C    0.000006   0.000000  -0.000000  -0.000000   0.000425  -0.003682
    19  N   -0.000167  -0.000000   0.000000  -0.000012  -0.002340  -0.034363
    20  H   -0.000339  -0.000008   0.000000  -0.000002  -0.000090   0.000764
    21  H   -0.000011  -0.000000  -0.000000  -0.000000   0.000000  -0.000005
    22  H    0.000000  -0.000000  -0.000000   0.000000  -0.000000   0.000000
    23  H   -0.000001  -0.000000   0.000000  -0.000000  -0.000000  -0.000001
    24  H   -0.000107  -0.000006  -0.000000  -0.000000  -0.000022  -0.000612
    25  H    0.690993  -0.014222  -0.000366   0.000061  -0.000290  -0.000040
    26  H   -0.014222   0.755466  -0.014872  -0.000447   0.000071   0.000001
    27  H   -0.000366  -0.014872   0.758950  -0.015012  -0.000405   0.000000
    28  H    0.000061  -0.000447  -0.015012   0.761482  -0.015496   0.000042
    29  H   -0.000290   0.000071  -0.000405  -0.015496   0.735087  -0.000502
    30  H   -0.000040   0.000001   0.000000   0.000042  -0.000502   0.813722
    31  H    0.000017  -0.000000   0.000000  -0.000000  -0.000001   0.009817
    32  H   -0.000004  -0.000000  -0.000000  -0.000000  -0.000079  -0.007962
    33  H    0.000000  -0.000000   0.000000   0.000000  -0.000004   0.002248
    34  H   -0.000001  -0.000000  -0.000000  -0.000000  -0.000006   0.000257
    35  H   -0.000000  -0.000000   0.000000  -0.000000   0.000008  -0.000492
    36  H   -0.000000  -0.000000  -0.000000   0.000001  -0.000444   0.017708
    37  H   -0.000033  -0.000001  -0.000003   0.000013   0.002849  -0.011421
[...]
 -0.00014423,-0.00008956,0.00002641,0.00002756,-0.00000565,-0.00002860,
 0.00000413,-0.00005323,-0.00003827,0.00001630,0.00007544,-0.00004317,-
 0.00005760,-0.00011831,0.00011304,0.00000911,-0.00108854,0.00003044,-0
 .00163683,-0.01178160,-0.00737098,0.00463947,-0.21056520,-0.11409662,0
 .03734983,-0.01177888,-0.01177072,-0.00070739,-0.00260774,0.00158414,0
 .00172211,0.00000054,0.00003309,-0.00004710,-0.00000098,-0.00001482,0.
 00002694,0.00001677,-0.00002434,0.00001166,0.00002228,-0.00003070,-0.0
 0001466,-0.00005579,0.00004071,-0.00001115,0.00000943,-0.00001084,-0.0
 0001405,-0.00001777,-0.00002983,0.00000929,-0.00002515,-0.00001502,0.0
 0001134,-0.00001829,0.00001854,0.00000848,0.00004469,-0.00012543,0.000
 01989,-0.00065854,-0.00011342,0.00012558,-0.00029641,-0.00008774,-0.00
 041254,0.00073182,0.00055376,0.00013089,0.22972431,-0.00028815,-0.0000
 9642,-0.00012902,0.00031484,0.00007030,0.00017454,-0.00003372,-0.00028
 927,0.00010244,-0.00008174,-0.00035311,-0.00017490,-0.00026738,0.00015
 164,-0.00011914,0.00007730,0.00003896,-0.00003818,0.00002780,0.0000590
 5,0.00004096,-0.00017498,0.00008455,0.00013041,0.00007863,0.00003822,-
 0.00005286,-0.00005989,-0.00004550,-0.00000630,0.00005224,0.00000144,-
 0.00002344,-0.00004393,0.00002883,0.00001103,-0.00001047,-0.00000693,0
 .00000555,-0.00002044,-0.00000064,0.00001820,0.00131966,0.00037844,-0.
 00148669,-0.00107920,-0.00186000,0.00159923,-0.11923395,-0.13325159,0.
 02723095,0.01254030,0.00768291,-0.00141631,0.00203072,-0.00039469,-0.0
 0145435,0.00003486,0.00004909,-0.00000205,0.00001446,-0.00000084,0.000
 04448,0.00002989,-0.00005232,0.00001779,0.00002828,-0.00005444,-0.0000
 3287,0.00000422,-0.00000061,-0.00000437,0.00001779,0.00001922,0.000010
 18,-0.00000690,-0.00001447,0.00000269,-0.00001517,-0.00000152,0.000006
 06,-0.00001618,0.00001101,0.00000900,0.00001428,0.00002393,-0.00000648
 ,-0.00005963,-0.00005222,0.00016565,-0.00018224,-0.00007911,-0.0002141
 2,0.00067272,0.00138560,-0.00044757,0.12664976,0.13766177,-0.00021548,
 -0.00027416,0.00015884,-0.00024437,0.00049248,0.00008766,-0.00007154,0
 .00014100,-0.00005536,0.00009131,0.00005838,-0.00001605,0.00009132,-0.
 00001931,0.00006791,0.00002004,-0.00003801,0.00003610,-0.00004509,0.00
 002566,-0.00001080,0.00010267,-0.00005539,-0.00002930,0.00004837,-0.00
 021822,-0.00013147,-0.00010873,-0.00002315,0.00005888,0.00004097,-0.00
 003695,-0.00000607,-0.00003602,0.00002128,0.00000737,-0.00000821,-0.00
 001697,0.00000743,-0.00003115,-0.00002156,0.00007844,-0.00178319,-0.00
 087493,-0.00521281,-0.02253586,-0.01445908,0.00748040,0.03725996,0.026
 03267,-0.05517339,0.01549942,0.01565712,-0.00172651,0.00328925,-0.0026
 6707,-0.00337112,-0.00005178,-0.00004972,0.00003618,0.00000269,-0.0000
 1179,0.00000006,-0.00000833,0.00001111,0.00000337,0.00000440,-0.000001
 70,0.00000383,-0.00004150,0.00003358,-0.00000198,0.00000286,-0.0000047
 8,-0.00001361,-0.00000987,-0.00000778,0.00000282,-0.00000411,-0.000000
 78,-0.00000057,-0.00001106,0.00000427,0.00000228,0.00002086,0.00000983
 ,-0.00004948,-0.00084681,-0.00002197,0.00054098,0.00018527,-0.00023833
 ,-0.00028123,0.00082205,0.00016359,0.00152504,-0.03959636,-0.02848729,
 0.05635748,0.00004725,-0.00025183,0.00027336,-0.00029864,0.00035247,-0
 .00032101,-0.00046723,-0.00013145,-0.00047627,-0.00019075,-0.00003275,
 0.00048713,0.00040679,-0.00024300,0.00014378,-0.00012763,-0.00006048,-
 0.00000924,-0.00007755,-0.00005322,0.00009274,0.00024209,-0.00014733,-
 0.00020094,0.00002036,-0.00015910,0.00004040,0.00000901,0.00005633,0.0
 0004082,-0.00002459,-0.00002994,0.00001284,0.00001187,-0.00002456,-0.0
 0000585,0.00003204,-0.00000852,-0.00001775,0.00002203,0.00007317,0.000
 00162,0.00039910,0.00042008,-0.00006698,-0.00392712,0.01571922,-0.0060
 9935,-0.07339347,0.06449188,-0.02340069,-0.00515212,0.01759739,-0.0067
 3794,0.00042536,-0.00014064,0.00045692,-0.00008221,-0.00002938,-0.0000
 1110,-0.00001649,-0.00000420,-0.00005139,-0.00003596,0.00005993,-0.000
 01116,-0.00001898,0.00005624,0.00003187,-0.00006827,0.00006221,0.00001
 327,-0.00001336,-0.00004094,-0.00002224,-0.00000189,0.00000145,0.00000
 047,0.00000713,-0.00000317,-0.00000429,0.00001471,-0.00000639,-0.00000
 710,0.00001757,-0.00003306,-0.00000177,0.00007316,-0.00022917,0.000115
 13,0.00109712,-0.00031528,0.00061823,-0.00158759,-0.00008771,-0.002478
 72,0.00917782,-0.02267851,0.00827284,0.07419901,-0.00004729,0.00010509
 ,-0.00003999,0.00002074,-0.00016713,0.00005699,-0.00059259,-0.00089118
 ,-0.00030739,-0.00056961,-0.00096606,0.00024329,-0.00040120,-0.0000001
 0,0.00000316,0.00004982,0.00006592,-0.00002537,0.00016070,0.00009265,0
 .00001891,-0.00035526,0.00004246,-0.00005613,-0.00001687,0.00002473,0.
 00001986,0.00001115,-0.00001188,-0.00000627,0.00000498,0.00000628,-0.0
 0000642,0.00000525,0.00001139,-0.00000170,-0.00001497,0.00000138,0.000
 01035,0.00002386,-0.00003023,-0.00000514,0.00024734,-0.00013268,0.0000
 3632,-0.00144428,0.00543085,-0.00126291,0.06905222,-0.26099596,0.07990
 744,0.00358374,-0.01392548,0.00334168,-0.00076905,0.00117889,0.0005528
 2,0.00013214,0.00009222,-0.00004524,0.00002413,0.00006041,-0.00004946,
 -0.00000462,0.00002934,-0.00001641,-0.00000174,0.00002605,0.00001150,0
 .00001599,-0.00001809,0.00001533,-0.00000037,0.00000483,0.00000733,0.0
 0000350,0.00000613,-0.00000127,0.00000461,0.00000268,0.00000014,-0.000
 00052,-0.00000214,-0.00000089,-0.00000770,0.00002202,-0.00000309,0.000
 02901,-0.00005056,0.00004917,0.00015395,0.00079325,-0.00005889,-0.0006
 0700,0.00123886,-0.00133235,0.00413248,-0.01291594,0.00459152,-0.07444
 018,0.27966803,0.00012985,-0.00015325,0.00015273,-0.00028196,0.0002250
 5,0.00003995,-0.00019673,0.00025461,0.00013691,0.00024310,0.00016676,0
 .00018625,-0.00005920,-0.00006636,-0.00012526,-0.00009787,-0.00000533,
 0.00020411,0.00024252,-0.00006832,-0.00006135,0.00028450,0.00008857,-0
 .00031534,0.00000711,-0.00015546,-0.00000283,-0.00002326,0.00003805,0.
 00003010,-0.00001640,-0.00001708,0.00001140,-0.00000055,-0.00002450,-0
 .00000411,0.00003299,-0.00000218,-0.00000369,-0.00001469,0.00002405,0.
 00000532,0.00028700,0.00002544,-0.00037991,-0.00755228,0.02466908,-0.0
 1193478,-0.02524390,0.08113493,-0.07509711,0.00783806,-0.02433362,0.00
 622621,-0.00110526,0.00046367,0.00090761,0.00003876,0.00000127,-0.0000
 3636,0.00002105,0.00004299,-0.00004813,-0.00000375,0.00000696,-0.00000
 892,-0.00001738,-0.00002427,-0.00000902,-0.00008584,0.00001946,-0.0000
 2758,-0.00000448,-0.00001755,-0.00001307,-0.00000571,-0.00000436,0.000
 00341,-0.00000168,-0.00000296,-0.00000338,-0.00000038,0.00000087,-0.00
 000060,0.00001766,-0.00001528,-0.00001925,-0.00003222,-0.00018408,0.00
 019393,0.00115835,0.00023292,0.00116736,-0.00454651,-0.00068881,-0.003
 73384,-0.00133145,0.00416658,-0.00191586,0.02736250,-0.08315705,0.0858
 0102,0.00006180,-0.00075557,-0.00056591,0.00029634,0.00095083,-0.00014
 111,-0.00019409,0.00005613,-0.00005707,0.00003653,-0.00012310,0.000169
 10,-0.00003213,0.00002524,-0.00004374,0.00007664,-0.00003815,-0.000012
 44,0.00004373,0.00000317,0.00003325,0.00004059,0.00000463,0.00004321,0
 .00016057,-0.00001545,-0.00000687,-0.00003338,-0.00000033,-0.00000944,
 0.00000166,-0.00000988,0.00000352,-0.00005313,-0.00003352,0.00002194,0
 .00006580,-0.00003403,-0.00002775,-0.00007036,0.00013947,0.00001469,-0
 .00494124,0.00207835,0.00173188,-0.00345457,0.00213396,0.00291151,0.00
 938017,-0.00329502,0.02067949,-0.06553443,0.01189315,-0.06438628,-0.01
 319211,-0.00792724,-0.03015638,-0.00003701,0.00006283,-0.00014468,0.00
 001365,-0.00004302,0.00004773,0.00001102,-0.00001725,0.00000568,0.0000
 1498,-0.00002005,-0.00000349,-0.00007423,0.00001685,-0.00002126,0.0000
 0482,-0.00000371,-0.00001177,-0.00001109,-0.00002063,0.00000401,-0.000
 02076,-0.00001174,0.00000360,-0.00001889,0.00001664,0.00000390,0.00009
 563,-0.00005317,-0.00000055,-0.00007403,-0.00037689,-0.00156489,0.0008
 8241,-0.00007573,0.00073056,0.00002118,-0.00012367,-0.00004006,-0.0000
 5940,-0.00035896,-0.00049372,0.00079809,-0.00056777,-0.00096604,0.0755
 0601,-0.00006608,-0.00053514,-0.00009831,0.00006053,0.00049313,-0.0003
 6404,-0.00013334,0.00021113,-0.00006056,0.00018481,0.00017166,0.000017
 87,0.00011363,0.00004875,0.00009912,0.00006451,-0.00004278,0.00000847,
 -0.00004096,0.00002534,0.00003352,0.00004709,-0.00003843,-0.00000089,0
 .00009240,-0.00005325,-0.00001698,-0.00003246,0.00000763,0.00001412,0.
 00000288,-0.00001638,0.00000175,-0.00002595,-0.00001330,0.00000614,0.0
 0003212,-0.00001495,-0.00002216,-0.00003836,0.00006366,0.00000969,-0.0
 0245866,0.00056468,-0.00128429,0.00012542,-0.00068699,-0.00164456,-0.0
 0436171,0.00070793,-0.01160495,0.01282913,-0.05649204,0.04142441,-0.00
 649859,0.00078383,-0.01903496,-0.00016412,0.00008024,0.00003215,-0.000
 00382,-0.00003439,0.00002007,-0.00001020,0.00000221,0.00000449,0.00000
 248,-0.00000286,0.00000699,-0.00004533,0.00003592,0.00000108,-0.000000
 72,-0.00001087,-0.00001358,-0.00000596,-0.00000935,0.00000311,-0.00000
 615,-0.00000476,0.00000193,-0.00000501,0.00000446,0.00000381,0.0000466
 0,-0.00003543,0.00000636,-0.00020126,-0.00039461,-0.00099461,-0.000175
 50,0.00015059,-0.00056180,-0.00011438,0.00016699,-0.00057550,0.0002739
 9,0.00002863,0.00001876,-0.00065223,0.00085113,-0.00039974,-0.00702569
 ,0.05914973,-0.00042591,-0.00066136,-0.00009558,0.00017771,0.00064303,
 -0.00005341,-0.00016951,0.00008652,-0.00009211,-0.00006887,-0.00024186
 ,0.00017625,0.00001582,0.00006025,-0.00008408,0.00013948,-0.00004224,0
 .00001344,-0.00002023,0.00002123,0.00003939,0.00000966,-0.00000403,0.0
 0008161,0.00017621,-0.00014649,-0.00010266,-0.00010393,-0.00000466,0.0
 0001808,0.00003422,-0.00002987,-0.00000780,-0.00008282,-0.00002259,0.0
 0003620,0.00007284,-0.00002679,-0.00004480,-0.00011700,0.00012535,0.00
 002673,0.00003581,0.00141299,0.00093562,0.00210882,-0.00257402,-0.0018
 6542,-0.00673885,0.00301544,-0.01518750,-0.06516360,0.03545549,-0.2650
 3491,-0.00494946,-0.00548172,0.00072008,0.00000005,-0.00000425,-0.0001
 5832,0.00000716,-0.00009622,0.00011482,0.00002243,-0.00003791,0.000012
 52,0.00002160,-0.00001836,-0.00000237,-0.00005836,0.00006735,0.0000010
 6,0.00001390,-0.00000242,-0.00001858,-0.00001866,-0.00003306,0.0000090
 8,-0.00003152,-0.00001321,0.00000508,-0.00003100,0.00002522,0.00000530
 ,0.00006974,-0.00005995,0.00000791,-0.00030405,-0.00025317,-0.00043580
 ,-0.00055733,0.00027696,-0.00060224,0.00011752,0.00020354,0.00016510,0
 .00055312,0.00007755,-0.00033111,-0.00018123,-0.00020452,0.00120116,0.
 07682460,-0.03421288,0.28649077,0.00000037,-0.00054007,-0.00065169,0.0
 0004665,0.00037077,-0.00074526,-0.00027212,0.00031634,-0.00018155,-0.0
 0015102,0.00002432,0.00054632,0.00014792,0.00002375,-0.00010234,0.0001
 4255,-0.00006392,0.00001346,0.00008245,-0.00003586,-0.00000121,0.00006
 724,0.00003609,0.00000092,0.00028287,0.00008950,-0.00005464,-0.0000221
 4,0.00007341,0.00001615,-0.00003570,0.00000588,0.00000264,-0.00004673,
 -0.00007864,0.00001679,0.00012644,0.00002392,-0.00007219,-0.00009979,0
 .00005468,0.00000206,0.00028345,-0.00072069,0.00522949,0.00000781,-0.0
 0045247,-0.00100760,-0.00393462,0.02253605,-0.00445893,-0.05124043,0.0
 2225974,-0.00612239,-0.00645935,-0.03775039,0.00159114,0.00003415,0.00
 014557,-0.00029604,-0.00000889,-0.00004149,0.00004153,0.00001768,-0.00
 003727,-0.00000228,0.00001034,-0.00003389,-0.00000857,-0.00006977,0.00
 002306,-0.00003933,0.00000595,-0.00001341,-0.00000197,-0.00001466,-0.0
 0002358,0.00000467,-0.00002004,-0.00001092,0.00001004,-0.00002297,0.00
 001686,0.00001071,0.00005927,-0.00006236,0.00004493,-0.00032890,0.0003
 4774,-0.00049093,-0.00007285,-0.00014554,-0.00000507,0.00054659,-0.000
 11731,0.00022773,0.00052091,-0.00012383,-0.00067340,-0.00178865,0.0021
 6696,0.00414830,0.00097139,0.00837220,-0.00107171,0.05872493,-0.000295
 30,-0.00050484,-0.00092532,0.00054511,0.00068715,0.00006174,-0.0003367
 3,0.00019706,-0.00019926,-0.00015429,0.00001437,0.00051104,0.00002206,
 -0.00002473,-0.00021932,0.00005708,-0.00002878,0.00000696,0.00004112,-
 0.00000901,0.00001954,0.00000124,0.00005539,0.00006731,0.00035520,0.00
 011511,-0.00014787,-0.00009334,0.00004395,0.00000474,0.00000319,0.0000
 0146,-0.00002075,-0.00010728,-0.00006223,0.00004127,0.00015800,-0.0000
 1290,-0.00009867,-0.00015247,0.00006181,0.00000649,-0.00004135,-0.0000
 9620,0.00298420,-0.00083703,0.00033949,0.00060449,0.00278875,-0.012940
 40,0.00371620,0.02700822,-0.24613474,0.03790309,-0.01632738,-0.0193980
 7,-0.00014311,0.00010399,0.00026513,-0.00031862,0.00000670,-0.00000280
 ,0.00005347,0.00005656,-0.00005660,0.00000942,0.00004139,-0.00005178,-
 0.00003520,-0.00002946,0.00001123,-0.00002822,0.00002587,0.00001022,0.
 00000663,-0.00002424,-0.00004642,0.00001423,-0.00004905,-0.00001977,0.
 00001874,-0.00006222,0.00004287,0.00002979,0.00015369,-0.00004899,0.00
 007842,-0.00013203,-0.00033010,-0.00116186,0.00014832,0.00027896,-0.00
 031820,-0.00002512,0.00048222,-0.00095289,0.00068324,0.00108731,-0.000
 15445,0.00122664,0.00016085,-0.00240631,0.00297058,-0.00538173,0.00283
 423,-0.01738526,0.27867863,0.00008282,0.00002858,0.00009773,-0.0003797
 1,-0.00030734,-0.00026187,0.00001786,-0.00005371,-0.00003271,-0.000041
 74,-0.00015018,0.00003076,-0.00003705,-0.00000078,-0.00005314,0.000021
 58,0.00001129,-0.00001107,-0.00001191,0.00000843,0.00002976,-0.0000758
 2,0.00004975,0.00005487,-0.00003624,0.00002699,-0.00001684,0.00002269,
 -0.00000030,-0.00000141,-0.00001294,0.00000597,0.00000427,0.00001305,-
 0.00000557,-0.00000069,-0.00000056,0.00000706,0.00000150,0.00002441,-0
 .00000267,0.00000328,0.00039108,-0.00008920,0.00107584,0.00041280,0.00
 020051,0.00126022,0.00288921,-0.02046313,0.00422710,-0.00738291,0.0404
 9516,-0.06395519,0.00174643,-0.00791870,0.00521474,0.00002661,-0.00001
 840,-0.00006110,-0.00000031,-0.00004078,0.00003145,-0.00000014,0.00000
 194,-0.00000218,-0.00000334,0.00000817,0.00000789,0.00000993,-0.000004
 99,0.00000664,-0.00000590,-0.00000056,0.00000384,0.00000224,0.00000368
 ,-0.00000352,0.00000392,0.00000132,-0.00000138,0.00000863,-0.00000417,
 -0.00000300,-0.00001847,-0.00001648,0.00001239,-0.00007863,0.00024882,
 0.00037621,0.00006529,0.00018927,-0.00000443,0.00021323,-0.00001494,-0
 .00024270,-0.00048289,0.00040339,0.00107321,0.00197019,-0.00209914,-0.
 00238044,-0.00449939,0.02901905,-0.00517973,0.00485012,-0.04015621,0.0
 5852467,-0.00043418,-0.00009098,0.00036152,0.00066318,-0.00042013,0.00
 006296,-0.00023653,-0.00009327,-0.00020799,-0.00016054,0.00023171,0.00
 011018,0.00006632,0.00001132,-0.00001804,0.00001180,0.00000116,0.00001
 270,0.00004420,-0.00001180,-0.00002983,-0.00001033,0.00000704,-0.00003
 615,0.00012833,0.00003734,-0.00016410,-0.00011980,0.00006594,-0.000150
 51,0.00009560,-0.00007217,0.00001870,0.00004006,0.00021099,-0.00001595
 ,-0.00031791,0.00011333,0.00019888,-0.00065268,-0.00122725,-0.00045470
 ,0.00484049,-0.00161604,-0.00444311,-0.00017025,-0.00014734,-0.0015652
 4,-0.00427074,-0.00409543,-0.00086376,-0.01921637,0.01799977,0.0109492
 1,-0.30120008,0.12406850,0.11389926,0.00002509,0.00011971,-0.00000670,
 -0.00001101,0.00000463,-0.00000970,0.00000075,-0.00000529,-0.00000509,
 -0.00000327,-0.00000658,-0.00000245,0.00003558,-0.00005003,-0.00000022
 ,0.00001289,0.00004842,-0.00001640,0.00001651,0.00002011,0.00003285,0.
 00002367,0.00004567,-0.00002410,-0.00000035,-0.00000917,-0.00000595,-0
 .00049688,0.00040575,-0.00087615,0.00074027,-0.00058507,-0.00113797,0.
 00025114,-0.00000901,0.00006406,0.00007231,0.00000345,0.00005755,-0.00
 083660,0.00082754,0.00106228,0.00027198,0.00001843,-0.00022425,-0.0006
 8216,-0.00018130,-0.00030665,0.00250966,-0.00034441,0.00029587,0.31896
 986,-0.00148972,-0.00125300,-0.00042861,0.00175645,0.00072461,-0.00156
 202,-0.00054076,0.00010423,-0.00018363,0.00031600,-0.00026555,-0.00055
 808,-0.00014018,0.00013943,0.00025185,0.00000075,0.00001379,-0.0000502
 4,0.00001421,0.00000749,0.00001648,-0.00007698,0.00001297,0.00015709,0
 .00053319,-0.00051094,-0.00061467,-0.00052178,-0.00056747,0.00002813,0
 .00059971,-0.00014713,-0.00017434,-0.00018851,0.00064316,0.00001391,-0
 .00075486,-0.00019508,0.00046789,0.00033675,0.00002857,0.00047305,0.00
 512837,-0.00556614,0.00745484,-0.00145839,0.00006363,0.00096341,-0.003
 45287,-0.00098857,-0.00013263,-0.02237688,0.00394049,0.01043122,0.1584
 0916,-0.10211781,-0.10104038,0.00015311,-0.00040789,0.00018989,0.00002
 684,-0.00001434,0.00002036,-0.00001734,0.00001947,0.00002174,0.0000042
 7,0.00000418,0.00000977,-0.00002725,0.00003618,0.00000478,0.00001693,0
 .00009820,-0.00002088,0.00001440,0.00002892,0.00002733,0.00004008,0.00
 005214,-0.00004027,0.00002825,-0.00003186,-0.00001064,-0.00011770,0.00
 072422,-0.00046307,-0.00132440,0.00150309,-0.00126964,-0.00000091,0.00
 003731,-0.00002782,-0.00011088,-0.00015861,0.00009045,-0.00051833,0.00
 066871,0.00042212,-0.00031397,0.00019199,0.00016523,0.00057872,0.00021
 963,-0.00013355,0.00075006,0.00261690,0.00063785,-0.13527556,0.1003450
 2,-0.00076433,-0.00054362,-0.00043644,0.00093730,0.00126238,-0.0010832
 2,0.00006956,0.00027236,0.00015469,-0.00014252,0.00004026,0.00022943,0
 .00008483,-0.00008899,-0.00010199,0.00001780,-0.00000703,0.00004919,-0
 .00006559,0.00002375,-0.00002105,0.00006938,0.00000366,-0.00017056,0.0
 0016336,0.00012289,-0.00012388,-0.00023514,-0.00006094,0.00002826,0.00
 017702,0.00000843,-0.00006234,0.00006443,0.00015852,-0.00008793,-0.000
 14326,0.00046900,0.00010125,0.00009798,-0.00148549,0.00007379,0.029455
 01,-0.01367919,-0.00965425,0.00054967,-0.00246631,-0.00542727,-0.00149
 679,-0.00149506,-0.00175870,-0.00540318,0.00718009,0.00362562,0.093374
 60,-0.07508638,-0.08898965,-0.00005047,0.00017349,-0.00003134,-0.00001
 721,0.00001363,-0.00001015,0.00001235,-0.00001120,-0.00000883,-0.00000
 438,-0.00000171,-0.00000843,0.00000604,-0.00000973,-0.00000065,0.00003
 212,0.00006950,0.00001203,0.00000627,0.00001907,0.00000832,0.00003784,
 0.00006486,-0.00000976,0.00004129,-0.00003778,0.00004462,-0.00090128,0
 .00048424,-0.00042746,-0.00020656,0.00096589,0.00216225,0.00121959,0.0
 0039687,-0.00070652,0.00050528,0.00021721,-0.00036727,-0.00025517,-0.0
 0012077,0.00079844,0.00017091,-0.00018619,-0.00014666,-0.00007582,0.00
 015692,-0.00076379,-0.00076989,-0.00168574,0.00017505,-0.11656103,0.08
 486310,0.10293519\\0.00000237,-0.00000350,0.00000477,0.00000312,-0.000
 00016,0.00000319,-0.00000167,-0.00001507,-0.00001175,-0.00000473,0.000
 00194,0.00000651,-0.00000006,-0.00000256,-0.00000086,-0.00000041,-0.00
 000059,0.00000230,0.00000499,0.00000267,-0.00000307,-0.00001149,0.0000
 0226,0.00000064,-0.00001027,0.00000495,-0.00000500,0.00000766,-0.00000
 390,0.00000049,-0.00000570,0.00000228,0.00000291,-0.00000143,-0.000005
 52,-0.00000058,0.00000432,0.00000286,-0.00000145,0.00000148,0.00000238
 ,0.00000363,-0.00001370,-0.00001940,0.00000086,0.00000297,0.00001131,0
 .00000032,0.00000106,0.00001602,-0.00001380,0.00001280,-0.00000325,0.0
 0001318,-0.00000731,0.00000397,-0.00000198,-0.00000227,-0.00000095,-0.
 00000051,0.00000144,0.00000076,0.00000105,0.00000056,-0.00000047,-0.00
 000042,-0.00000230,-0.00000352,-0.00000109,0.00000320,0.00000108,-0.00
 000163,-0.00000225,0.00000082,-0.00000044,-0.00000025,-0.00000157,-0.0
 0000041,-0.00000115,0.00000134,0.00000194,-0.00000115,0.00000093,0.000
 00136,0.00000246,-0.00000011,-0.00000098,-0.00000103,0.00000523,0.0000
 0380,0.00000838,-0.00000656,0.00000682,-0.00000431,0.00000032,-0.00000
 275,0.00000533,0.00000106,0.00000340,-0.00000065,0.00001014,0.00000096
 ,0.00000903,-0.00000397,0.00000065,-0.00000155,-0.00000730,0.00000075,
 0.00000252,0.00000610,-0.00001283\\\@
 The archive entry for this job was punched.


 REFRAIN FROM ILLUSIONS, INSIST ON WORK AND NOT WORDS,
 PATIENTLY SEEK DIVINE AND SCIENTIFIC TRUTH.
 LAST WORDS OF MARIA MENDELEEVA TO HER SON DMITRI, C. 1850
 Job cpu time:       0 days  1 hours 11 minutes  3.2 seconds.
 Elapsed time:       0 days  0 hours  1 minutes 47.3 seconds.
 File lengths (MBytes):  RWF=    405 Int=      0 D2E=      0 Chk=     10 Scr=      1
 Normal termination of Gaussian 16 at Mon Feb 26 04:55:10 2024.
