 Entering Gaussian System, Link 0=g16
 Initial command:
 /public/apps/g16-C01//g16/l1.exe "/public/home/ljq/tmp/Gau-114944.inp" -scrdir="/public/home/ljq/tmp/"
 Entering Link 1 = /public/apps/g16-C01//g16/l1.exe PID=    114945.
  
 Copyright (c) 1988-2019, Gaussian, Inc.  All Rights Reserved.
  
 This is part of the Gaussian(R) 16 program.  It is based on
 the Gaussian(R) 09 system (copyright 2009, Gaussian, Inc.),
 the Gaussian(R) 03 system (copyright 2003, Gaussian, Inc.),
 the Gaussian(R) 98 system (copyright 1998, Gaussian, Inc.),
 the Gaussian(R) 94 system (copyright 1995, Gaussian, Inc.),
 the Gaussian 92(TM) system (copyright 1992, Gaussian, Inc.),
 the Gaussian 90(TM) system (copyright 1990, Gaussian, Inc.),
 the Gaussian 88(TM) system (copyright 1988, Gaussian, Inc.),
 the Gaussian 86(TM) system (copyright 1986, Carnegie Mellon
 University), and the Gaussian 82(TM) system (copyright 1983,
 Carnegie Mellon University). Gaussian is a federally registered
 trademark of Gaussian, Inc.
  
 This software contains proprietary and confidential information,
 including trade secrets, belonging to Gaussian, Inc.
  
 This software is provided under written license and may be
 used, copied, transmitted, or stored only in accord with that
 written license.
  
 The following legend is applicable only to US Government
 contracts under FAR:
  
                    RESTRICTED RIGHTS LEGEND
  
 Use, reproduction and disclosure by the US Government is
 subject to restrictions as set forth in subparagraphs (a)
 and (c) of the Commercial Computer Software - Restricted
 Rights clause in FAR 52.227-19.
  
 Gaussian, Inc.
 340 Quinnipiac St., Bldg. 40, Wallingford CT 06492
  
  
 ---------------------------------------------------------------
 Warning -- This program may not be used in any manner that
 competes with the business of Gaussian, Inc. or will provide
 assistance to any competitor of Gaussian, Inc.  The licensee
 of this program is prohibited from giving any competitor of
 Gaussian, Inc. access to this program.  By using this program,
 the user acknowledges that Gaussian, Inc. is engaged in the
 business of creating and licensing software in the field of
 computational chemistry and represents and warrants to the
 licensee that it is not a competitor of Gaussian, Inc. and that
 it will not use this program in any manner prohibited above.
 ---------------------------------------------------------------
  

 Cite this work as:
 Gaussian 16, Revision C.01,
 M. J. Frisch, G. W. Trucks, H. B. Schlegel, G. E. Scuseria, 
 M. A. Robb, J. R. Cheeseman, G. Scalmani, V. Barone, 
 G. A. Petersson, H. Nakatsuji, X. Li, M. Caricato, A. V. Marenich, 
 J. Bloino, B. G. Janesko, R. Gomperts, B. Mennucci, H. P. Hratchian, 
 J. V. Ortiz, A. F. Izmaylov, J. L. Sonnenberg, D. Williams-Young, 
 F. Ding, F. Lipparini, F. Egidi, J. Goings, B. Peng, A. Petrone, 
 T. Henderson, D. Ranasinghe, V. G. Zakrzewski, J. Gao, N. Rega, 
 G. Zheng, W. Liang, M. Hada, M. Ehara, K. Toyota, R. Fukuda, 
 J. Hasegawa, M. Ishida, T. Nakajima, Y. Honda, O. Kitao, H. Nakai, 
 T. Vreven, K. Throssell, J. A. Montgomery, Jr., J. E. Peralta, 
 F. Ogliaro, M. J. Bearpark, J. J. Heyd, E. N. Brothers, K. N. Kudin, 
 V. N. Staroverov, T. A. Keith, R. Kobayashi, J. Normand, 
 K. Raghavachari, A. P. Rendell, J. C. Burant, S. S. Iyengar, 
 J. Tomasi, M. Cossi, J. M. Millam, M. Klene, C. Adamo, R. Cammi, 
 J. W. Ochterski, R. L. Martin, K. Morokuma, O. Farkas, 
 J. B. Foresman, and D. J. Fox, Gaussian, Inc., Wallingford CT, 2019.
 
 ******************************************
 Gaussian 16:  ES64L-G16RevC.01  3-Jul-2019
                26-Feb-2024 
 ******************************************
 %nproc=40
 Will use up to   40 processors via shared memory.
 %mem=56GB
 ------------------------------------------
 #p opt freq b3lyp/def2svpp em=gd3bj nosymm
 ------------------------------------------
 1/18=20,19=15,26=3,38=1/1,3;
 2/9=110,12=2,15=1,17=6,18=5,40=1/2;
 3/5=43,7=202,11=2,25=1,30=1,71=1,74=-5,124=41/1,2,3;
 4//1;
 5/5=2,38=5/2;
 6/7=2,8=2,9=2,10=2,28=1/1;
 7/30=1/1,2,3,16;
 1/18=20,19=15,26=3/3(2);
 2/9=110,15=1/2;
 99//99;
 2/9=110,15=1/2;
 3/5=43,7=202,11=2,25=1,30=1,71=1,74=-5,124=41/1,2,3;
 4/5=5,16=3,69=1/1;
 5/5=2,38=5/2;
 7/30=1/1,2,3,16;
 1/18=20,19=15,26=3/3(-5);
 2/9=110,15=1/2;
 6/7=2,8=2,9=2,10=2,19=2,28=1/1;
 99/9=1/99;
 Leave Link    1 at Mon Feb 26 05:07:35 2024, MaxMem=  7516192768 cpu:               1.0 elap:               0.0
 (Enter /public/apps/g16-C01//g16/l101.exe)
 -----------------------
 $$$$Singlemol####-1????
 -----------------------
 Symbolic Z-matrix:
 Charge = -1 Multiplicity = 1
 N                    -1.90749   0.94044   1.15647 
 C                    -1.2092   -0.19645   0.57475 
 C                    -1.97697  -0.5231   -0.84846 
 O                    -3.25144  -0.31381  -0.73105 
 C                     0.22838  -0.05715   0.33368 
 C                     0.79951   1.10711  -0.19885 
 C                     2.13883   1.16827  -0.52068 
 C                     2.96292   0.068    -0.33364 
 C                     2.41422  -1.10136   0.17484 
 C                     1.07611  -1.16178   0.49899 
 H                    -2.87067   0.78753   0.8002 
 H                    -1.59302   1.7908    0.69134 
 H                    -1.41742  -1.05608   1.22383 
 H                    -1.45318   0.13871  -1.6071 
 H                    -1.66702  -1.57812  -1.10122 
 H                     0.17961   1.97721  -0.36868 
 H                     2.55238   2.08436  -0.92705 
 H                     4.0151    0.11953  -0.58353 
 H                     3.04482  -1.97123   0.3198 
 H                     0.66045  -2.08075   0.89175 
 
 ITRead=  0  0  0  0  0  0  0  0  0  0  0  0  0  0  0  0  0  0  0  0
 MicOpt= -1 -1 -1 -1 -1 -1 -1 -1 -1 -1 -1 -1 -1 -1 -1 -1 -1 -1 -1 -1
 NAtoms=     20 NQM=       20 NQMF=       0 NMMI=      0 NMMIF=      0
                NMic=       0 NMicF=      0.
                    Isotopes and Nuclear Properties:
 (Nuclear quadrupole moments (NQMom) in fm**2, nuclear magnetic moments (NMagM)
  in nuclear magnetons)

  Atom         1           2           3           4           5           6           7           8           9          10
 IAtWgt=          14          12          12          16          12          12          12          12          12          12
 AtmWgt=  14.0030740  12.0000000  12.0000000  15.9949146  12.0000000  12.0000000  12.0000000  12.0000000  12.0000000  12.0000000
 NucSpn=           2           0           0           0           0           0           0           0           0           0
 AtZEff=  -0.0000000  -0.0000000  -0.0000000  -0.0000000  -0.0000000  -0.0000000  -0.0000000  -0.0000000  -0.0000000  -0.0000000
 NQMom=    2.0440000   0.0000000   0.0000000   0.0000000   0.0000000   0.0000000   0.0000000   0.0000000   0.0000000   0.0000000
 NMagM=    0.4037610   0.0000000   0.0000000   0.0000000   0.0000000   0.0000000   0.0000000   0.0000000   0.0000000   0.0000000
 AtZNuc=   7.0000000   6.0000000   6.0000000   8.0000000   6.0000000   6.0000000   6.0000000   6.0000000   6.0000000   6.0000000

  Atom        11          12          13          14          15          16          17          18          19          20
 IAtWgt=           1           1           1           1           1           1           1           1           1           1
 AtmWgt=   1.0078250   1.0078250   1.0078250   1.0078250   1.0078250   1.0078250   1.0078250   1.0078250   1.0078250   1.0078250
 NucSpn=           1           1           1           1           1           1           1           1           1           1
 AtZEff=  -0.0000000  -0.0000000  -0.0000000  -0.0000000  -0.0000000  -0.0000000  -0.0000000  -0.0000000  -0.0000000  -0.0000000
 NQMom=    0.0000000   0.0000000   0.0000000   0.0000000   0.0000000   0.0000000   0.0000000   0.0000000   0.0000000   0.0000000
 NMagM=    2.7928460   2.7928460   2.7928460   2.7928460   2.7928460   2.7928460   2.7928460   2.7928460   2.7928460   2.7928460
 AtZNuc=   1.0000000   1.0000000   1.0000000   1.0000000   1.0000000   1.0000000   1.0000000   1.0000000   1.0000000   1.0000000
 Leave Link  101 at Mon Feb 26 05:07:35 2024, MaxMem=  7516192768 cpu:               6.8 elap:               0.2
 (Enter /public/apps/g16-C01//g16/l103.exe)

 GradGradGradGradGradGradGradGradGradGradGradGradGradGradGradGradGradGrad
 Berny optimization.
 Initialization pass.
                           ----------------------------
                           !    Initial Parameters    !
                           ! (Angstroms and Degrees)  !
 --------------------------                            --------------------------
 ! Name  Definition              Value          Derivative Info.                !
 --------------------------------------------------------------------------------
 ! R1    R(1,2)                  1.4555         estimate D2E/DX2                !
 ! R2    R(1,11)                 1.0383         estimate D2E/DX2                !
 ! R3    R(1,12)                 1.019          estimate D2E/DX2                !
 ! R4    R(2,3)                  1.6498         estimate D2E/DX2                !
 ! R5    R(2,5)                  1.4643         estimate D2E/DX2                !
 ! R6    R(2,13)                 1.0971         estimate D2E/DX2                !
 ! R7    R(3,4)                  1.2969         estimate D2E/DX2                !
 ! R8    R(3,14)                 1.1348         estimate D2E/DX2                !
 ! R9    R(3,15)                 1.1283         estimate D2E/DX2                !
 ! R10   R(5,6)                  1.4019         estimate D2E/DX2                !
 ! R11   R(5,10)                 1.4022         estimate D2E/DX2                !
 ! R12   R(6,7)                  1.3788         estimate D2E/DX2                !
 ! R13   R(6,16)                 1.0818         estimate D2E/DX2                !
 ! R14   R(7,8)                  1.3873         estimate D2E/DX2                !
 ! R15   R(7,17)                 1.0842         estimate D2E/DX2                !
 ! R16   R(8,9)                  1.3882         estimate D2E/DX2                !
 ! R17   R(8,18)                 1.0827         estimate D2E/DX2                !
 ! R18   R(9,10)                 1.3781         estimate D2E/DX2                !
 ! R19   R(9,19)                 1.0841         estimate D2E/DX2                !
 ! R20   R(10,20)                1.0824         estimate D2E/DX2                !
 ! A1    A(2,1,11)             101.121          estimate D2E/DX2                !
 ! A2    A(2,1,12)             108.7443         estimate D2E/DX2                !
 ! A3    A(11,1,12)            104.6292         estimate D2E/DX2                !
 ! A4    A(1,2,3)              106.0316         estimate D2E/DX2                !
 ! A5    A(1,2,5)              117.5482         estimate D2E/DX2                !
 ! A6    A(1,2,13)             106.5297         estimate D2E/DX2                !
 ! A7    A(3,2,5)              109.4936         estimate D2E/DX2                !
 ! A8    A(3,2,13)             105.4815         estimate D2E/DX2                !
 ! A9    A(5,2,13)             110.9941         estimate D2E/DX2                !
 ! A10   A(2,3,4)              110.3219         estimate D2E/DX2                !
 ! A11   A(2,3,14)             104.2661         estimate D2E/DX2                !
 ! A12   A(2,3,15)             104.5103         estimate D2E/DX2                !
 ! A13   A(4,3,14)             114.8344         estimate D2E/DX2                !
 ! A14   A(4,3,15)             116.1768         estimate D2E/DX2                !
 ! A15   A(14,3,15)            105.59           estimate D2E/DX2                !
 ! A16   A(2,5,6)              122.7872         estimate D2E/DX2                !
 ! A17   A(2,5,10)             119.9463         estimate D2E/DX2                !
 ! A18   A(6,5,10)             116.9187         estimate D2E/DX2                !
 ! A19   A(5,6,7)              121.4158         estimate D2E/DX2                !
 ! A20   A(5,6,16)             119.6152         estimate D2E/DX2                !
 ! A21   A(7,6,16)             118.968          estimate D2E/DX2                !
 ! A22   A(6,7,8)              120.6875         estimate D2E/DX2                !
 ! A23   A(6,7,17)             119.7027         estimate D2E/DX2                !
 ! A24   A(8,7,17)             119.6095         estimate D2E/DX2                !
 ! A25   A(7,8,9)              118.8593         estimate D2E/DX2                !
 ! A26   A(7,8,18)             120.5585         estimate D2E/DX2                !
 ! A27   A(9,8,18)             120.5819         estimate D2E/DX2                !
 ! A28   A(8,9,10)             120.4559         estimate D2E/DX2                !
 ! A29   A(8,9,19)             119.6669         estimate D2E/DX2                !
 ! A30   A(10,9,19)            119.877          estimate D2E/DX2                !
 ! A31   A(5,10,9)             121.6507         estimate D2E/DX2                !
 ! A32   A(5,10,20)            118.6501         estimate D2E/DX2                !
 ! A33   A(9,10,20)            119.6992         estimate D2E/DX2                !
 ! D1    D(11,1,2,3)            30.7869         estimate D2E/DX2                !
 ! D2    D(11,1,2,5)           153.5721         estimate D2E/DX2                !
 ! D3    D(11,1,2,13)          -81.236          estimate D2E/DX2                !
 ! D4    D(12,1,2,3)           -78.9997         estimate D2E/DX2                !
 ! D5    D(12,1,2,5)            43.7856         estimate D2E/DX2                !
 ! D6    D(12,1,2,13)          168.9774         estimate D2E/DX2                !
 ! D7    D(1,2,3,4)            -35.9505         estimate D2E/DX2                !
 ! D8    D(1,2,3,14)            87.8493         estimate D2E/DX2                !
 ! D9    D(1,2,3,15)          -161.5259         estimate D2E/DX2                !
 ! D10   D(5,2,3,4)           -163.6983         estimate D2E/DX2                !
 ! D11   D(5,2,3,14)           -39.8985         estimate D2E/DX2                !
 ! D12   D(5,2,3,15)            70.7264         estimate D2E/DX2                !
 ! D13   D(13,2,3,4)            76.8023         estimate D2E/DX2                !
 ! D14   D(13,2,3,14)         -159.3979         estimate D2E/DX2                !
 ! D15   D(13,2,3,15)          -48.773          estimate D2E/DX2                !
 ! D16   D(1,2,5,6)            -42.235          estimate D2E/DX2                !
 ! D17   D(1,2,5,10)           144.7495         estimate D2E/DX2                !
 ! D18   D(3,2,5,6)             78.7677         estimate D2E/DX2                !
 ! D19   D(3,2,5,10)           -94.2478         estimate D2E/DX2                !
 ! D20   D(13,2,5,6)          -165.1836         estimate D2E/DX2                !
 ! D21   D(13,2,5,10)           21.8009         estimate D2E/DX2                !
 ! D22   D(2,5,6,7)           -174.4019         estimate D2E/DX2                !
 ! D23   D(2,5,6,16)             5.2166         estimate D2E/DX2                !
 ! D24   D(10,5,6,7)            -1.1884         estimate D2E/DX2                !
 ! D25   D(10,5,6,16)          178.4301         estimate D2E/DX2                !
 ! D26   D(2,5,10,9)           174.4797         estimate D2E/DX2                !
 ! D27   D(2,5,10,20)           -5.5275         estimate D2E/DX2                !
 ! D28   D(6,5,10,9)             1.0632         estimate D2E/DX2                !
 ! D29   D(6,5,10,20)         -178.944          estimate D2E/DX2                !
 ! D30   D(5,6,7,8)              0.4494         estimate D2E/DX2                !
 ! D31   D(5,6,7,17)          -179.7413         estimate D2E/DX2                !
 ! D32   D(16,6,7,8)          -179.1715         estimate D2E/DX2                !
 ! D33   D(16,6,7,17)            0.6379         estimate D2E/DX2                !
 ! D34   D(6,7,8,9)              0.4623         estimate D2E/DX2                !
 ! D35   D(6,7,8,18)          -179.7651         estimate D2E/DX2                !
 ! D36   D(17,7,8,9)          -179.3472         estimate D2E/DX2                !
 ! D37   D(17,7,8,18)            0.4254         estimate D2E/DX2                !
 ! D38   D(7,8,9,10)            -0.5878         estimate D2E/DX2                !
 ! D39   D(7,8,9,19)           179.5782         estimate D2E/DX2                !
 ! D40   D(18,8,9,10)          179.6396         estimate D2E/DX2                !
 ! D41   D(18,8,9,19)           -0.1944         estimate D2E/DX2                !
 ! D42   D(8,9,10,5)            -0.1942         estimate D2E/DX2                !
 ! D43   D(8,9,10,20)          179.813          estimate D2E/DX2                !
 ! D44   D(19,9,10,5)          179.6394         estimate D2E/DX2                !
 ! D45   D(19,9,10,20)          -0.3533         estimate D2E/DX2                !
 --------------------------------------------------------------------------------
 Trust Radius=3.00D-01 FncErr=1.00D-07 GrdErr=1.00D-06 EigMax=2.50D+02 EigMin=1.00D-04
 Number of steps in this run=    108 maximum allowed number of steps=    120.
 GradGradGradGradGradGradGradGradGradGradGradGradGradGradGradGradGradGrad

 Leave Link  103 at Mon Feb 26 05:07:35 2024, MaxMem=  7516192768 cpu:               0.3 elap:               0.0
 (Enter /public/apps/g16-C01//g16/l202.exe)
                          Input orientation:                          
 ---------------------------------------------------------------------
 Center     Atomic      Atomic             Coordinates (Angstroms)
 Number     Number       Type             X           Y           Z
 ---------------------------------------------------------------------
      1          7           0       -1.907486    0.940436    1.156467
      2          6           0       -1.209200   -0.196450    0.574750
      3          6           0       -1.976972   -0.523097   -0.848463
      4          8           0       -3.251440   -0.313814   -0.731054
      5          6           0        0.228375   -0.057151    0.333676
      6          6           0        0.799514    1.107108   -0.198847
      7          6           0        2.138827    1.168266   -0.520676
      8          6           0        2.962915    0.068002   -0.333643
      9          6           0        2.414218   -1.101357    0.174843
     10          6           0        1.076106   -1.161783    0.498987
     11          1           0       -2.870672    0.787525    0.800197
     12          1           0       -1.593018    1.790796    0.691344
     13          1           0       -1.417418   -1.056075    1.223832
     14          1           0       -1.453176    0.138710   -1.607097
     15          1           0       -1.667024   -1.578118   -1.101223
     16          1           0        0.179613    1.977207   -0.368675
     17          1           0        2.552382    2.084364   -0.927045
     18          1           0        4.015097    0.119532   -0.583529
     19          1           0        3.044820   -1.971232    0.319799
     20          1           0        0.660447   -2.080752    0.891753
 ---------------------------------------------------------------------
                    Distance matrix (angstroms):
                    1          2          3          4          5
     1  N    0.000000
     2  C    1.455509   0.000000
     3  C    2.483244   1.649760   0.000000
     4  O    2.634785   2.426859   1.296863   0.000000
     5  C    2.496811   1.464289   2.545214   3.648101   0.000000
     6  C    3.031914   2.516475   3.284577   4.325794   1.401884
     7  C    4.386042   3.777789   4.461833   5.594265   2.425158
     8  C    5.167434   4.278044   5.001692   6.238744   2.817568
     9  C    4.879511   3.756054   4.545777   5.791421   2.427654
    10  C    3.708561   2.481981   3.397768   4.578177   1.402208
    11  H    1.038286   1.944099   2.287905   1.924230   3.245799
    12  H    1.018991   2.027328   2.805802   3.033639   2.619219
    13  H    2.056881   1.097095   2.211690   2.781397   2.121052
    14  H    2.913151   2.220881   1.134846   2.050849   2.575379
    15  H    3.390885   2.219796   1.128284   2.060549   2.822200
    16  H    2.785127   2.746568   3.336551   4.141524   2.152739
    17  H    5.053713   4.648333   5.226861   6.282835   3.402427
    18  H    6.227235   5.360479   6.032251   7.280942   3.900224
    19  H    5.805442   4.616442   5.355402   6.595015   3.405328
    20  H    3.973906   2.673325   3.522871   4.588947   2.143151
                    6          7          8          9         10
     6  C    0.000000
     7  C    1.378794   0.000000
     8  C    2.403792   1.387330   0.000000
     9  C    2.761201   2.389723   1.388174   0.000000
    10  C    2.389841   2.756486   2.401186   1.378138   0.000000
    11  H    3.817131   5.194685   5.986154   5.647035   4.412209
    12  H    2.642741   3.972808   4.977464   4.968829   3.984840
    13  H    3.408543   4.542893   4.782948   3.972891   2.598891
    14  H    2.827645   3.891373   4.596580   4.435066   3.538946
    15  H    3.756132   4.729076   4.973452   4.302579   3.202931
    16  H    1.081754   2.125090   3.375361   3.842711   3.377839
    17  H    2.134912   1.084158   2.141583   3.373732   3.840629
    18  H    3.385744   2.150391   1.082675   2.151398   3.383974
    19  H    3.845331   3.373969   2.142935   1.084137   2.136153
    20  H    3.372121   3.838839   3.379364   2.132812   1.082378
                   11         12         13         14         15
    11  H    0.000000
    12  H    1.628128   0.000000
    13  H    2.385430   2.901560   0.000000
    14  H    2.867982   2.834039   3.072938   0.000000
    15  H    3.265032   3.816851   2.395978   1.802537   0.000000
    16  H    3.476470   2.073791   3.779866   2.753136   4.072718
    17  H    5.837351   4.459788   5.499813   4.504724   5.589946
    18  H    7.055121   5.989105   5.844726   5.563279   5.952858
    19  H    6.544812   5.983347   4.643959   5.328860   4.937136
    20  H    4.550186   4.484100   2.340462   3.954449   3.105111
                   16         17         18         19         20
    16  H    0.000000
    17  H    2.439937   0.000000
    18  H    4.267090   2.473480   0.000000
    19  H    4.926822   4.271414   2.475628   0.000000
    20  H    4.276320   4.922970   4.274504   2.454457   0.000000
 Symmetry turned off by external request.
 Stoichiometry    C8H10NO(1-)
 Framework group  C1[X(C8H10NO)]
 Deg. of freedom    54
 Full point group                 C1      NOp   1
 Rotational constants (GHZ):           3.1175271           0.7827333           0.7312922
 Leave Link  202 at Mon Feb 26 05:07:35 2024, MaxMem=  7516192768 cpu:               0.2 elap:               0.0
 (Enter /public/apps/g16-C01//g16/l301.exe)
 Standard basis: def2SVPP (5D, 7F)
 Ernie: Thresh=  0.10000D-02 Tol=  0.10000D-05 Strict=F.
   160 basis functions,   290 primitive gaussians,   170 cartesian basis functions
    37 alpha electrons       37 beta electrons
       nuclear repulsion energy       499.5545179839 Hartrees.
 IExCor=  402 DFT=T Ex+Corr=B3LYP ExCW=0 ScaHFX=  0.200000
 ScaDFX=  0.800000  0.720000  1.000000  0.810000 ScalE2=  1.000000  1.000000
 IRadAn=      5 IRanWt=     -1 IRanGd=            0 ICorTp=0 IEmpDi=141
 NAtoms=   20 NActive=   20 NUniq=   20 SFac= 1.00D+00 NAtFMM=   60 NAOKFM=F Big=F
 Integral buffers will be    131072 words long.
 Raffenetti 2 integral format.
 Two-electron integral symmetry is turned off.
 R6Disp:  Grimme-D3(BJ) Dispersion energy=       -0.0362200506 Hartrees.
 Nuclear repulsion after empirical dispersion term =      499.5182979333 Hartrees.
 Leave Link  301 at Mon Feb 26 05:07:35 2024, MaxMem=  7516192768 cpu:               1.2 elap:               0.0
 (Enter /public/apps/g16-C01//g16/l302.exe)
 NPDir=0 NMtPBC=     1 NCelOv=     1 NCel=       1 NClECP=     1 NCelD=      1
         NCelK=      1 NCelE2=     1 NClLst=     1 CellRange=     0.0.
 One-electron integrals computed using PRISM.
   1 Symmetry operations used in ECPInt.
 ECPInt:  NShTT=    3240 NPrTT=   13040 LenC2=    3188 LenP2D=    9907.
 LDataN:  DoStor=T MaxTD1= 4 Len=   56
 NBasis=   160 RedAO= T EigKep=  2.75D-04  NBF=   160
 NBsUse=   160 1.00D-06 EigRej= -1.00D+00 NBFU=   160
 Precomputing XC quadrature grid using
 IXCGrd= 4 IRadAn=           5 IRanWt=          -1 IRanGd=           0 AccXCQ= 0.00D+00.
 Generated NRdTot=       0 NPtTot=           0 NUsed=           0 NTot=          32
 NSgBfM=   170   170   170   170   170 MxSgAt=    20 MxSgA2=    20.
 Leave Link  302 at Mon Feb 26 05:07:35 2024, MaxMem=  7516192768 cpu:               4.9 elap:               0.1
 (Enter /public/apps/g16-C01//g16/l303.exe)
 DipDrv:  MaxL=1.
 Leave Link  303 at Mon Feb 26 05:07:35 2024, MaxMem=  7516192768 cpu:               0.6 elap:               0.0
 (Enter /public/apps/g16-C01//g16/l401.exe)
 ExpMin= 1.22D-01 ExpMax= 2.27D+03 ExpMxC= 3.41D+02 IAcc=3 IRadAn=         5 AccDes= 0.00D+00
 Harris functional with IExCor=  402 and IRadAn=       5 diagonalized for initial guess.
 HarFok:  IExCor=  402 AccDes= 0.00D+00 IRadAn=         5 IDoV= 1 UseB2=F ITyADJ=14
 ICtDFT=  3500011 ScaDFX=  1.000000  1.000000  1.000000  1.000000
 FoFCou: FMM=F IPFlag=           0 FMFlag=      100000 FMFlg1=           0
         NFxFlg=           0 DoJE=T BraDBF=F KetDBF=T FulRan=T
         wScrn=  0.000000 ICntrl=       500 IOpCl=  0 I1Cent=   200000004 NGrid=           0
         NMat0=    1 NMatS0=      1 NMatT0=    0 NMatD0=    1 NMtDS0=    0 NMtDT0=    0
 Symmetry not used in FoFCou.
 Harris En= -440.726909922515    
 JPrj=0 DoOrth=F DoCkMO=F.
 Leave Link  401 at Mon Feb 26 05:07:35 2024, MaxMem=  7516192768 cpu:               8.5 elap:               0.2
 (Enter /public/apps/g16-C01//g16/l502.exe)
 Two-electron integral symmetry not used.
 Closed shell SCF:
 Using DIIS extrapolation, IDIIS=  1040.
 NGot=  7516192768 LenX=  7516126072 LenY=  7516096731
 Requested convergence on RMS density matrix=1.00D-08 within 128 cycles.
 Requested convergence on MAX density matrix=1.00D-06.
 Requested convergence on             energy=1.00D-06.
 No special actions if energy rises.
 Fock matrices will be formed incrementally for  20 cycles.
 Integral accuracy reduced to 1.0D-05 until final iterations.

 Cycle   1  Pass 0  IDiag  1:
 FoFJK:  IHMeth= 1 ICntrl=       0 DoSepK=F KAlg= 0 I1Cent=           0 FoldK=F
 IRaf= 960000000 NMat=       1 IRICut=       1 DoRegI=T DoRafI=F ISym2E= 0 IDoP0=0 IntGTp=1.
 FoFCou: FMM=F IPFlag=           0 FMFlag=      100000 FMFlg1=           0
         NFxFlg=           0 DoJE=F BraDBF=F KetDBF=F FulRan=T
         wScrn=  0.000000 ICntrl=         0 IOpCl=  0 I1Cent=           0 NGrid=           0
         NMat0=    1 NMatS0=      1 NMatT0=    0 NMatD0=    1 NMtDS0=    0 NMtDT0=    0
 Symmetry not used in FoFCou.
 E= -440.143082697886    
 DIIS: error= 4.19D-02 at cycle   1 NSaved=   1.
 NSaved= 1 IEnMin= 1 EnMin= -440.143082697886     IErMin= 1 ErrMin= 4.19D-02
 ErrMax= 4.19D-02  0.00D+00 EMaxC= 1.00D-01 BMatC= 3.43D-01 BMatP= 3.43D-01
 IDIUse=3 WtCom= 5.81D-01 WtEn= 4.19D-01
 Coeff-Com:  0.100D+01
 Coeff-En:   0.100D+01
 Coeff:      0.100D+01
 Gap=     0.065 Goal=   None    Shift=    0.000
 GapD=    0.065 DampG=0.500 DampE=0.500 DampFc=0.2500 IDamp=-1.
 Damping current iteration by 2.50D-01
 RMSDP=5.51D-02 MaxDP=2.21D+00              OVMax= 9.88D-01

 Cycle   2  Pass 0  IDiag  1:
 RMSU=  1.37D-02    CP:  9.66D-01
 E= -440.058413575800     Delta-E=        0.084669122086 Rises=F Damp=T
 DIIS: error= 2.68D-02 at cycle   2 NSaved=   2.
 NSaved= 2 IEnMin= 1 EnMin= -440.143082697886     IErMin= 2 ErrMin= 2.68D-02
 ErrMax= 2.68D-02  0.00D+00 EMaxC= 1.00D-01 BMatC= 9.07D-02 BMatP= 3.43D-01
 IDIUse=3 WtCom= 7.32D-01 WtEn= 2.68D-01
 Coeff-Com:  0.221D-01 0.978D+00
 Coeff-En:   0.624D+00 0.376D+00
 Coeff:      0.183D+00 0.817D+00
 Gap=     0.077 Goal=   None    Shift=    0.000
 RMSDP=1.48D-02 MaxDP=4.60D-01 DE= 8.47D-02 OVMax= 8.32D-01

 Cycle   3  Pass 0  IDiag  1:
 RMSU=  7.61D-03    CP:  9.08D-01  8.92D-02
 E= -440.228147259083     Delta-E=       -0.169733683283 Rises=F Damp=F
 DIIS: error= 2.88D-02 at cycle   3 NSaved=   3.
 NSaved= 3 IEnMin= 3 EnMin= -440.228147259083     IErMin= 2 ErrMin= 2.68D-02
 ErrMax= 2.88D-02  0.00D+00 EMaxC= 1.00D-01 BMatC= 2.46D-01 BMatP= 9.07D-02
 IDIUse=2 WtCom= 0.00D+00 WtEn= 1.00D+00
 EnCoef did     2 forward-backward iterations
 Coeff-En:   0.158D+00 0.274D+00 0.568D+00
 Coeff:      0.158D+00 0.274D+00 0.568D+00
 Gap=     0.353 Goal=   None    Shift=    0.000
 RMSDP=1.30D-02 MaxDP=3.26D-01 DE=-1.70D-01 OVMax= 8.98D-01

 Cycle   4  Pass 0  IDiag  1:
 RMSU=  1.19D-02    CP:  9.07D-01  1.85D-01  3.15D-01
 E= -437.771044150118     Delta-E=        2.457103108964 Rises=F Damp=F
 DIIS: error= 1.67D-01 at cycle   4 NSaved=   4.
 NSaved= 4 IEnMin= 3 EnMin= -440.228147259083     IErMin= 2 ErrMin= 2.68D-02
 ErrMax= 1.67D-01  0.00D+00 EMaxC= 1.00D-01 BMatC= 2.28D+00 BMatP= 9.07D-02
 IDIUse=2 WtCom= 0.00D+00 WtEn= 1.00D+00
 EnCoef did     3 forward-backward iterations
 Coeff-En:   0.210D+00 0.000D+00 0.649D+00 0.141D+00
 Coeff:      0.210D+00 0.000D+00 0.649D+00 0.141D+00
 Gap=    -0.025 Goal=   None    Shift=    0.000
 RMSDP=1.05D-02 MaxDP=2.47D-01 DE= 2.46D+00 OVMax= 8.44D-01

 Cycle   5  Pass 0  IDiag  1:
 RMSU=  5.40D-03    CP:  9.39D-01  8.94D-02  4.71D-01  2.61D-01
 E= -440.468831975548     Delta-E=       -2.697787825430 Rises=F Damp=F
 DIIS: error= 1.50D-02 at cycle   5 NSaved=   5.
 NSaved= 5 IEnMin= 5 EnMin= -440.468831975548     IErMin= 5 ErrMin= 1.50D-02
 ErrMax= 1.50D-02  0.00D+00 EMaxC= 1.00D-01 BMatC= 4.69D-02 BMatP= 9.07D-02
 IDIUse=3 WtCom= 8.50D-01 WtEn= 1.50D-01
 Coeff-Com: -0.467D-01 0.368D+00 0.298D+00-0.213D-01 0.402D+00
 Coeff-En:   0.000D+00 0.000D+00 0.123D+00 0.000D+00 0.877D+00
 Coeff:     -0.397D-01 0.313D+00 0.271D+00-0.181D-01 0.473D+00
 Gap=     0.165 Goal=   None    Shift=    0.000
 RMSDP=3.22D-03 MaxDP=7.93D-02 DE=-2.70D+00 OVMax= 1.44D-01

 Cycle   6  Pass 0  IDiag  1:
 RMSU=  1.50D-03    CP:  9.32D-01  6.90D-02  5.77D-01  1.20D-01  6.06D-01
 E= -440.490495733488     Delta-E=       -0.021663757940 Rises=F Damp=F
 DIIS: error= 1.03D-02 at cycle   6 NSaved=   6.
 NSaved= 6 IEnMin= 6 EnMin= -440.490495733488     IErMin= 6 ErrMin= 1.03D-02
 ErrMax= 1.03D-02  0.00D+00 EMaxC= 1.00D-01 BMatC= 1.98D-02 BMatP= 4.69D-02
 IDIUse=3 WtCom= 8.97D-01 WtEn= 1.03D-01
 Coeff-Com: -0.821D-01 0.171D+00 0.725D-01-0.142D-01 0.335D+00 0.518D+00
 Coeff-En:   0.000D+00 0.000D+00 0.000D+00 0.000D+00 0.366D+00 0.634D+00
 Coeff:     -0.736D-01 0.154D+00 0.650D-01-0.128D-01 0.338D+00 0.530D+00
 Gap=     0.133 Goal=   None    Shift=    0.000
 RMSDP=1.38D-03 MaxDP=3.43D-02 DE=-2.17D-02 OVMax= 4.81D-02

 Cycle   7  Pass 0  IDiag  1:
 RMSU=  4.85D-04    CP:  9.30D-01  8.03D-02  5.68D-01  1.68D-01  8.04D-01
                    CP:  7.15D-01
 E= -440.511366342472     Delta-E=       -0.020870608984 Rises=F Damp=F
 DIIS: error= 3.20D-03 at cycle   7 NSaved=   7.
 NSaved= 7 IEnMin= 7 EnMin= -440.511366342472     IErMin= 7 ErrMin= 3.20D-03
 ErrMax= 3.20D-03  0.00D+00 EMaxC= 1.00D-01 BMatC= 1.52D-03 BMatP= 1.98D-02
 IDIUse=3 WtCom= 9.68D-01 WtEn= 3.20D-02
 Coeff-Com: -0.641D-01 0.833D-01-0.211D-01-0.232D-02 0.901D-01 0.234D+00
 Coeff-Com:  0.681D+00
 Coeff-En:   0.000D+00 0.000D+00 0.000D+00 0.000D+00 0.000D+00 0.000D+00
 Coeff-En:   0.100D+01
 Coeff:     -0.620D-01 0.806D-01-0.204D-01-0.224D-02 0.872D-01 0.226D+00
 Coeff:      0.691D+00
 Gap=     0.126 Goal=   None    Shift=    0.000
 RMSDP=3.12D-04 MaxDP=1.13D-02 DE=-2.09D-02 OVMax= 9.26D-03

 Cycle   8  Pass 0  IDiag  1:
 RMSU=  1.98D-04    CP:  9.30D-01  8.19D-02  5.66D-01  1.76D-01  8.40D-01
                    CP:  7.62D-01  8.43D-01
 E= -440.512392633201     Delta-E=       -0.001026290729 Rises=F Damp=F
 DIIS: error= 1.62D-03 at cycle   8 NSaved=   8.
 NSaved= 8 IEnMin= 8 EnMin= -440.512392633201     IErMin= 8 ErrMin= 1.62D-03
 ErrMax= 1.62D-03  0.00D+00 EMaxC= 1.00D-01 BMatC= 5.41D-04 BMatP= 1.52D-03
 IDIUse=3 WtCom= 9.84D-01 WtEn= 1.62D-02
 Coeff-Com: -0.402D-01 0.448D-01-0.258D-01 0.108D-02 0.132D-01 0.538D-01
 Coeff-Com:  0.377D+00 0.577D+00
 Coeff-En:   0.000D+00 0.000D+00 0.000D+00 0.000D+00 0.000D+00 0.000D+00
 Coeff-En:   0.000D+00 0.100D+01
 Coeff:     -0.396D-01 0.440D-01-0.254D-01 0.106D-02 0.130D-01 0.530D-01
 Coeff:      0.370D+00 0.584D+00
 Gap=     0.123 Goal=   None    Shift=    0.000
 RMSDP=1.60D-04 MaxDP=2.65D-03 DE=-1.03D-03 OVMax= 6.69D-03

 Cycle   9  Pass 0  IDiag  1:
 RMSU=  8.42D-05    CP:  9.30D-01  8.33D-02  5.64D-01  1.82D-01  8.57D-01
                    CP:  7.54D-01  9.43D-01  8.05D-01
 E= -440.512850209608     Delta-E=       -0.000457576407 Rises=F Damp=F
 DIIS: error= 1.31D-03 at cycle   9 NSaved=   9.
 NSaved= 9 IEnMin= 9 EnMin= -440.512850209608     IErMin= 9 ErrMin= 1.31D-03
 ErrMax= 1.31D-03  0.00D+00 EMaxC= 1.00D-01 BMatC= 2.30D-04 BMatP= 5.41D-04
 IDIUse=3 WtCom= 9.87D-01 WtEn= 1.31D-02
 Coeff-Com: -0.575D-02 0.819D-02-0.994D-03 0.985D-03-0.915D-02-0.720D-01
 Coeff-Com: -0.260D+00 0.184D+00 0.115D+01
 Coeff-En:   0.000D+00 0.000D+00 0.000D+00 0.000D+00 0.000D+00 0.000D+00
 Coeff-En:   0.000D+00 0.000D+00 0.100D+01
 Coeff:     -0.567D-02 0.808D-02-0.981D-03 0.972D-03-0.903D-02-0.711D-01
 Coeff:     -0.256D+00 0.181D+00 0.115D+01
 Gap=     0.119 Goal=   None    Shift=    0.000
 RMSDP=1.99D-04 MaxDP=7.21D-03 DE=-4.58D-04 OVMax= 9.01D-03

 Cycle  10  Pass 0  IDiag  1:
 RMSU=  4.65D-05    CP:  9.30D-01  8.51D-02  5.62D-01  1.91D-01  8.83D-01
                    CP:  7.49D-01  9.51D-01  1.17D+00  1.28D+00
 E= -440.513104954573     Delta-E=       -0.000254744965 Rises=F Damp=F
 DIIS: error= 2.50D-04 at cycle  10 NSaved=  10.
 NSaved=10 IEnMin=10 EnMin= -440.513104954573     IErMin=10 ErrMin= 2.50D-04
 ErrMax= 2.50D-04  0.00D+00 EMaxC= 1.00D-01 BMatC= 1.14D-05 BMatP= 2.30D-04
 IDIUse=3 WtCom= 9.98D-01 WtEn= 2.50D-03
 Coeff-Com:  0.539D-03 0.326D-03 0.304D-02 0.427D-03-0.164D-02-0.448D-01
 Coeff-Com: -0.195D+00 0.263D-01 0.629D+00 0.582D+00
 Coeff-En:   0.000D+00 0.000D+00 0.000D+00 0.000D+00 0.000D+00 0.000D+00
 Coeff-En:   0.000D+00 0.000D+00 0.000D+00 0.100D+01
 Coeff:      0.538D-03 0.325D-03 0.303D-02 0.426D-03-0.164D-02-0.447D-01
 Coeff:     -0.194D+00 0.263D-01 0.627D+00 0.583D+00
 Gap=     0.118 Goal=   None    Shift=    0.000
 RMSDP=5.17D-05 MaxDP=9.78D-04 DE=-2.55D-04 OVMax= 2.79D-03

 Cycle  11  Pass 0  IDiag  1:
 RMSU=  1.85D-05    CP:  9.30D-01  8.57D-02  5.62D-01  1.93D-01  8.89D-01
                    CP:  7.42D-01  9.63D-01  1.19D+00  1.46D+00  8.71D-01
 E= -440.513119942979     Delta-E=       -0.000014988406 Rises=F Damp=F
 DIIS: error= 2.94D-05 at cycle  11 NSaved=  11.
 NSaved=11 IEnMin=11 EnMin= -440.513119942979     IErMin=11 ErrMin= 2.94D-05
 ErrMax= 2.94D-05  0.00D+00 EMaxC= 1.00D-01 BMatC= 4.24D-07 BMatP= 1.14D-05
 IDIUse=1 WtCom= 1.00D+00 WtEn= 0.00D+00
 Coeff-Com:  0.375D-03-0.267D-03 0.148D-02 0.439D-04 0.127D-02-0.993D-02
 Coeff-Com: -0.479D-01-0.406D-02 0.127D+00 0.269D+00 0.663D+00
 Coeff:      0.375D-03-0.267D-03 0.148D-02 0.439D-04 0.127D-02-0.993D-02
 Coeff:     -0.479D-01-0.406D-02 0.127D+00 0.269D+00 0.663D+00
 Gap=     0.118 Goal=   None    Shift=    0.000
 RMSDP=6.60D-06 MaxDP=1.05D-04 DE=-1.50D-05 OVMax= 1.90D-04

 Initial convergence to 1.0D-05 achieved.  Increase integral accuracy.
 Cycle  12  Pass 1  IDiag  1:
 E= -440.513115892628     Delta-E=        0.000004050351 Rises=F Damp=F
 DIIS: error= 3.70D-05 at cycle   1 NSaved=   1.
 NSaved= 1 IEnMin= 1 EnMin= -440.513115892628     IErMin= 1 ErrMin= 3.70D-05
 ErrMax= 3.70D-05  0.00D+00 EMaxC= 1.00D-01 BMatC= 1.36D-07 BMatP= 1.36D-07
 IDIUse=1 WtCom= 1.00D+00 WtEn= 0.00D+00
 Coeff-Com:  0.100D+01
 Coeff:      0.100D+01
 Gap=     0.118 Goal=   None    Shift=    0.000
 RMSDP=6.60D-06 MaxDP=1.05D-04 DE= 4.05D-06 OVMax= 4.85D-04

 Cycle  13  Pass 1  IDiag  1:
 RMSU=  3.84D-05    CP:  1.00D+00
 E= -440.513115628877     Delta-E=        0.000000263751 Rises=F Damp=F
 DIIS: error= 5.76D-05 at cycle   2 NSaved=   2.
 NSaved= 2 IEnMin= 1 EnMin= -440.513115892628     IErMin= 1 ErrMin= 3.70D-05
 ErrMax= 5.76D-05  0.00D+00 EMaxC= 1.00D-01 BMatC= 4.20D-07 BMatP= 1.36D-07
 IDIUse=1 WtCom= 1.00D+00 WtEn= 0.00D+00
 Coeff-Com:  0.656D+00 0.344D+00
 Coeff:      0.656D+00 0.344D+00
 Gap=     0.118 Goal=   None    Shift=    0.000
 RMSDP=8.81D-06 MaxDP=3.19D-04 DE= 2.64D-07 OVMax= 3.85D-04

 Cycle  14  Pass 1  IDiag  1:
 RMSU=  8.34D-06    CP:  1.00D+00  9.46D-01
 E= -440.513116026954     Delta-E=       -0.000000398077 Rises=F Damp=F
 DIIS: error= 8.89D-06 at cycle   3 NSaved=   3.
 NSaved= 3 IEnMin= 3 EnMin= -440.513116026954     IErMin= 3 ErrMin= 8.89D-06
 ErrMax= 8.89D-06  0.00D+00 EMaxC= 1.00D-01 BMatC= 9.21D-09 BMatP= 1.36D-07
 IDIUse=1 WtCom= 1.00D+00 WtEn= 0.00D+00
 Coeff-Com:  0.427D-01 0.132D+00 0.825D+00
 Coeff:      0.427D-01 0.132D+00 0.825D+00
 Gap=     0.118 Goal=   None    Shift=    0.000
 RMSDP=1.22D-06 MaxDP=4.60D-05 DE=-3.98D-07 OVMax= 2.69D-05

 Cycle  15  Pass 1  IDiag  1:
 RMSU=  9.12D-07    CP:  1.00D+00  9.61D-01  9.34D-01
 E= -440.513116031774     Delta-E=       -0.000000004820 Rises=F Damp=F
 DIIS: error= 5.04D-06 at cycle   4 NSaved=   4.
 NSaved= 4 IEnMin= 4 EnMin= -440.513116031774     IErMin= 4 ErrMin= 5.04D-06
 ErrMax= 5.04D-06  0.00D+00 EMaxC= 1.00D-01 BMatC= 2.23D-09 BMatP= 9.21D-09
 IDIUse=1 WtCom= 1.00D+00 WtEn= 0.00D+00
 Coeff-Com:  0.328D-02 0.752D-01 0.504D+00 0.417D+00
 Coeff:      0.328D-02 0.752D-01 0.504D+00 0.417D+00
 Gap=     0.118 Goal=   None    Shift=    0.000
 RMSDP=4.57D-07 MaxDP=9.20D-06 DE=-4.82D-09 OVMax= 2.21D-05

 Cycle  16  Pass 1  IDiag  1:
 RMSU=  2.25D-07    CP:  1.00D+00  9.62D-01  9.28D-01  5.70D-01
 E= -440.513116034272     Delta-E=       -0.000000002498 Rises=F Damp=F
 DIIS: error= 8.38D-07 at cycle   5 NSaved=   5.
 NSaved= 5 IEnMin= 5 EnMin= -440.513116034272     IErMin= 5 ErrMin= 8.38D-07
 ErrMax= 8.38D-07  0.00D+00 EMaxC= 1.00D-01 BMatC= 1.22D-10 BMatP= 2.23D-09
 IDIUse=1 WtCom= 1.00D+00 WtEn= 0.00D+00
 Coeff-Com: -0.229D-02 0.349D-01 0.213D+00 0.228D+00 0.526D+00
 Coeff:     -0.229D-02 0.349D-01 0.213D+00 0.228D+00 0.526D+00
 Gap=     0.118 Goal=   None    Shift=    0.000
 RMSDP=1.27D-07 MaxDP=3.07D-06 DE=-2.50D-09 OVMax= 4.54D-06

 Cycle  17  Pass 1  IDiag  1:
 RMSU=  7.65D-08    CP:  1.00D+00  9.63D-01  9.20D-01  5.85D-01  6.97D-01
 E= -440.513116034385     Delta-E=       -0.000000000113 Rises=F Damp=F
 DIIS: error= 2.46D-07 at cycle   6 NSaved=   6.
 NSaved= 6 IEnMin= 6 EnMin= -440.513116034385     IErMin= 6 ErrMin= 2.46D-07
 ErrMax= 2.46D-07  0.00D+00 EMaxC= 1.00D-01 BMatC= 1.01D-11 BMatP= 1.22D-10
 IDIUse=1 WtCom= 1.00D+00 WtEn= 0.00D+00
 Coeff-Com: -0.144D-02 0.143D-01 0.753D-01 0.903D-01 0.285D+00 0.537D+00
 Coeff:     -0.144D-02 0.143D-01 0.753D-01 0.903D-01 0.285D+00 0.537D+00
 Gap=     0.118 Goal=   None    Shift=    0.000
 RMSDP=3.31D-08 MaxDP=5.78D-07 DE=-1.13D-10 OVMax= 1.45D-06

 Cycle  18  Pass 1  IDiag  1:
 RMSU=  2.61D-08    CP:  1.00D+00  9.63D-01  9.18D-01  5.76D-01  7.46D-01
                    CP:  9.32D-01
 E= -440.513116034395     Delta-E=       -0.000000000010 Rises=F Damp=F
 DIIS: error= 5.10D-08 at cycle   7 NSaved=   7.
 NSaved= 7 IEnMin= 7 EnMin= -440.513116034395     IErMin= 7 ErrMin= 5.10D-08
 ErrMax= 5.10D-08  0.00D+00 EMaxC= 1.00D-01 BMatC= 8.17D-13 BMatP= 1.01D-11
 IDIUse=1 WtCom= 1.00D+00 WtEn= 0.00D+00
 Coeff-Com: -0.294D-03 0.111D-02-0.190D-02 0.307D-02 0.316D-01 0.215D+00
 Coeff-Com:  0.751D+00
 Coeff:     -0.294D-03 0.111D-02-0.190D-02 0.307D-02 0.316D-01 0.215D+00
 Coeff:      0.751D+00
 Gap=     0.118 Goal=   None    Shift=    0.000
 RMSDP=1.60D-08 MaxDP=4.69D-07 DE=-9.78D-12 OVMax= 5.44D-07

 Cycle  19  Pass 1  IDiag  1:
 RMSU=  8.79D-09    CP:  1.00D+00  9.63D-01  9.17D-01  5.81D-01  7.69D-01
                    CP:  9.85D-01  9.39D-01
 E= -440.513116034397     Delta-E=       -0.000000000001 Rises=F Damp=F
 DIIS: error= 2.06D-08 at cycle   8 NSaved=   8.
 NSaved= 8 IEnMin= 8 EnMin= -440.513116034397     IErMin= 8 ErrMin= 2.06D-08
 ErrMax= 2.06D-08  0.00D+00 EMaxC= 1.00D-01 BMatC= 8.12D-14 BMatP= 8.17D-13
 IDIUse=1 WtCom= 1.00D+00 WtEn= 0.00D+00
 Coeff-Com:  0.325D-04-0.106D-02-0.921D-02-0.818D-02-0.186D-01 0.446D-01
 Coeff-Com:  0.362D+00 0.631D+00
 Coeff:      0.325D-04-0.106D-02-0.921D-02-0.818D-02-0.186D-01 0.446D-01
 Coeff:      0.362D+00 0.631D+00
 Gap=     0.118 Goal=   None    Shift=    0.000
 RMSDP=3.92D-09 MaxDP=8.38D-08 DE=-1.48D-12 OVMax= 1.82D-07

 SCF Done:  E(RB3LYP) =  -440.513116034     A.U. after   19 cycles
            NFock= 19  Conv=0.39D-08     -V/T= 2.0088
 KE= 4.366621329655D+02 PE=-2.035895170609D+03 EE= 6.592016236759D+02
 Leave Link  502 at Mon Feb 26 05:07:39 2024, MaxMem=  7516192768 cpu:             132.8 elap:               3.4
 (Enter /public/apps/g16-C01//g16/l601.exe)
 Copying SCF densities to generalized density rwf, IOpCl= 0 IROHF=0.

 **********************************************************************

            Population analysis using the SCF Density.

 **********************************************************************

 Alpha  occ. eigenvalues --  -18.82730 -14.11511 -10.05638 -10.05613 -10.05284
 Alpha  occ. eigenvalues --  -10.04631 -10.04523 -10.04501 -10.02425 -10.01747
 Alpha  occ. eigenvalues --   -0.73994  -0.71790  -0.68259  -0.61289  -0.60898
 Alpha  occ. eigenvalues --   -0.50959  -0.47015  -0.44255  -0.39235  -0.37727
 Alpha  occ. eigenvalues --   -0.33386  -0.32034  -0.30815  -0.29398  -0.26330
 Alpha  occ. eigenvalues --   -0.25059  -0.24016  -0.22392  -0.21366  -0.20069
 Alpha  occ. eigenvalues --   -0.18167  -0.15135  -0.12766  -0.11503  -0.06244
 Alpha  occ. eigenvalues --    0.00178   0.00910
 Alpha virt. eigenvalues --    0.12702   0.13081   0.17389   0.20431   0.22086
 Alpha virt. eigenvalues --    0.23508   0.24541   0.26989   0.28683   0.28895
 Alpha virt. eigenvalues --    0.31848   0.32633   0.35415   0.38886   0.40103
 Alpha virt. eigenvalues --    0.41690   0.42240   0.43591   0.45020   0.48398
 Alpha virt. eigenvalues --    0.48779   0.51365   0.54761   0.55465   0.57335
 Alpha virt. eigenvalues --    0.59335   0.60575   0.61707   0.62353   0.64269
 Alpha virt. eigenvalues --    0.64920   0.67098   0.68487   0.70789   0.72380
 Alpha virt. eigenvalues --    0.75352   0.76757   0.78273   0.78923   0.79646
 Alpha virt. eigenvalues --    0.80471   0.81684   0.82090   0.83085   0.83743
 Alpha virt. eigenvalues --    0.83934   0.85467   0.86795   0.88092   0.89010
 Alpha virt. eigenvalues --    0.89572   0.91022   0.93815   0.95283   0.97314
 Alpha virt. eigenvalues --    0.98183   1.01244   1.04730   1.07894   1.11935
 Alpha virt. eigenvalues --    1.14387   1.17488   1.21763   1.22510   1.25829
 Alpha virt. eigenvalues --    1.30077   1.37208   1.38348   1.41014   1.42419
 Alpha virt. eigenvalues --    1.44469   1.47039   1.56161   1.60002   1.62102
 Alpha virt. eigenvalues --    1.63270   1.64452   1.68111   1.71318   1.83989
 Alpha virt. eigenvalues --    1.86423   1.89750   1.90736   1.93730   1.96480
 Alpha virt. eigenvalues --    2.01592   2.03727   2.06333   2.11750   2.14092
 Alpha virt. eigenvalues --    2.14270   2.21247   2.22537   2.24867   2.26929
 Alpha virt. eigenvalues --    2.32833   2.34005   2.39781   2.42270   2.44016
 Alpha virt. eigenvalues --    2.45158   2.46296   2.49925   2.56806   2.60525
 Alpha virt. eigenvalues --    2.64049   2.67429   2.73271   2.78308   2.80215
 Alpha virt. eigenvalues --    2.85491   2.86190   2.87757   2.91176   2.96835
 Alpha virt. eigenvalues --    2.97551   2.98222   3.14684   3.24994   3.31468
 Alpha virt. eigenvalues --    3.35716   3.53575   3.75871
          Condensed to atoms (all electrons):
               1          2          3          4          5          6
     1  N    6.707646   0.387885  -0.054910  -0.041722  -0.040179  -0.008088
     2  C    0.387885   5.710833   0.224357  -0.123818   0.170698  -0.153206
     3  C   -0.054910   0.224357   4.636670   0.574397   0.014471  -0.014101
     4  O   -0.041722  -0.123818   0.574397   8.130374   0.009001   0.000322
     5  C   -0.040179   0.170698   0.014471   0.009001   5.363177   0.136320
     6  C   -0.008088  -0.153206  -0.014101   0.000322   0.136320   5.491445
     7  C    0.000847   0.018430  -0.000787   0.000001   0.153663   0.190949
     8  C    0.000000  -0.002129   0.000202   0.000000  -0.196318   0.154442
     9  C   -0.000374   0.017852  -0.000740   0.000000   0.158337  -0.179504
    10  C    0.006635  -0.085540  -0.004867   0.000087   0.212073   0.089284
    11  H    0.262235  -0.113832  -0.017860   0.106284   0.021377   0.000933
    12  H    0.317046  -0.056651   0.010203   0.001461  -0.028966   0.009784
    13  H   -0.063826   0.251243  -0.015771   0.010095  -0.007909   0.021667
    14  H   -0.017321  -0.084597   0.249977  -0.063892  -0.005540   0.041126
    15  H    0.011488  -0.085085   0.271468  -0.054994  -0.012508  -0.001690
    16  H    0.000907  -0.020274  -0.002312  -0.000136  -0.089952   0.423501
    17  H    0.000004  -0.000287  -0.000003   0.000000   0.019372  -0.088968
    18  H   -0.000000   0.000036   0.000001   0.000000  -0.001798   0.017565
    19  H    0.000003  -0.000369  -0.000000  -0.000000   0.019105  -0.002435
    20  H    0.000417  -0.023821  -0.000233  -0.000018  -0.073394   0.021415
               7          8          9         10         11         12
     1  N    0.000847   0.000000  -0.000374   0.006635   0.262235   0.317046
     2  C    0.018430  -0.002129   0.017852  -0.085540  -0.113832  -0.056651
     3  C   -0.000787   0.000202  -0.000740  -0.004867  -0.017860   0.010203
     4  O    0.000001   0.000000   0.000000   0.000087   0.106284   0.001461
     5  C    0.153663  -0.196318   0.158337   0.212073   0.021377  -0.028966
     6  C    0.190949   0.154442  -0.179504   0.089284   0.000933   0.009784
     7  C    5.259413   0.172472   0.157163  -0.175440  -0.000017  -0.000041
     8  C    0.172472   5.352838   0.165799   0.157721   0.000010  -0.000013
     9  C    0.157163   0.165799   5.304112   0.165350   0.000002   0.000023
    10  C   -0.175440   0.157721   0.165350   5.403296  -0.000116   0.000907
    11  H   -0.000017   0.000010   0.000002  -0.000116   0.568869  -0.025997
    12  H   -0.000041  -0.000013   0.000023   0.000907  -0.025997   0.593390
    13  H   -0.000640   0.000041   0.001226  -0.018434   0.003178   0.011356
    14  H   -0.002025  -0.000174   0.000946  -0.007556   0.006565   0.002104
    15  H    0.000516  -0.000086  -0.001185   0.019485   0.009719   0.000087
    16  H   -0.083297   0.017399  -0.001876   0.018773  -0.000125   0.010018
    17  H    0.432096  -0.100000   0.018401  -0.002362  -0.000003   0.000059
    18  H   -0.092041   0.432008  -0.092641   0.017138   0.000000   0.000000
    19  H    0.018470  -0.099334   0.432448  -0.090623  -0.000001  -0.000000
    20  H   -0.002088   0.017332  -0.103180   0.428378   0.000056   0.000090
              13         14         15         16         17         18
     1  N   -0.063826  -0.017321   0.011488   0.000907   0.000004  -0.000000
     2  C    0.251243  -0.084597  -0.085085  -0.020274  -0.000287   0.000036
     3  C   -0.015771   0.249977   0.271468  -0.002312  -0.000003   0.000001
     4  O    0.010095  -0.063892  -0.054994  -0.000136   0.000000   0.000000
     5  C   -0.007909  -0.005540  -0.012508  -0.089952   0.019372  -0.001798
     6  C    0.021667   0.041126  -0.001690   0.423501  -0.088968   0.017565
     7  C   -0.000640  -0.002025   0.000516  -0.083297   0.432096  -0.092041
     8  C    0.000041  -0.000174  -0.000086   0.017399  -0.100000   0.432008
     9  C    0.001226   0.000946  -0.001185  -0.001876   0.018401  -0.092641
    10  C   -0.018434  -0.007556   0.019485   0.018773  -0.002362   0.017138
    11  H    0.003178   0.006565   0.009719  -0.000125  -0.000003   0.000000
    12  H    0.011356   0.002104   0.000087   0.010018   0.000059   0.000000
    13  H    0.798386   0.020541  -0.021274   0.000967   0.000011  -0.000000
    14  H    0.020541   1.055795  -0.118282   0.007536  -0.000073  -0.000000
    15  H   -0.021274  -0.118282   1.058859   0.000002   0.000003  -0.000001
    16  H    0.000967   0.007536   0.000002   0.723301  -0.016434  -0.000404
    17  H    0.000011  -0.000073   0.000003  -0.016434   0.751818  -0.014966
    18  H   -0.000000  -0.000000  -0.000001  -0.000404  -0.014966   0.752660
    19  H   -0.000020   0.000006  -0.000034   0.000058  -0.000452  -0.015046
    20  H    0.013049  -0.000132   0.003278  -0.000354   0.000058  -0.000394
              19         20
     1  N    0.000003   0.000417
     2  C   -0.000369  -0.023821
     3  C   -0.000000  -0.000233
     4  O   -0.000000  -0.000018
     5  C    0.019105  -0.073394
     6  C   -0.002435   0.021415
     7  C    0.018470  -0.002088
     8  C   -0.099334   0.017332
     9  C    0.432448  -0.103180
    10  C   -0.090623   0.428378
    11  H   -0.000001   0.000056
    12  H   -0.000000   0.000090
    13  H   -0.000020   0.013049
    14  H    0.000006  -0.000132
    15  H   -0.000034   0.003278
    16  H    0.000058  -0.000354
    17  H   -0.000452   0.000058
    18  H   -0.015046  -0.000394
    19  H    0.752548  -0.015457
    20  H   -0.015457   0.727628
 Mulliken charges:
               1
     1  N   -0.468693
     2  C   -0.031727
     3  C    0.129837
     4  O   -0.547444
     5  C    0.178967
     6  C   -0.150761
     7  C   -0.047643
     8  C   -0.072209
     9  C   -0.042160
    10  C   -0.134189
    11  H    0.178723
    12  H    0.155140
    13  H   -0.003886
    14  H   -0.085002
    15  H   -0.079767
    16  H    0.012702
    17  H    0.001726
    18  H   -0.002116
    19  H    0.001133
    20  H    0.007370
 Sum of Mulliken charges =  -1.00000
 Mulliken charges with hydrogens summed into heavy atoms:
               1
     1  N   -0.134830
     2  C   -0.035613
     3  C   -0.034932
     4  O   -0.547444
     5  C    0.178967
     6  C   -0.138059
     7  C   -0.045917
     8  C   -0.074325
     9  C   -0.041027
    10  C   -0.126819
 Electronic spatial extent (au):  <R**2>=           1660.0044
 Charge=             -1.0000 electrons
 Dipole moment (field-independent basis, Debye):
    X=              8.2186    Y=              0.8620    Z=              0.7932  Tot=              8.3016
 Quadrupole moment (field-independent basis, Debye-Ang):
   XX=           -100.3673   YY=            -62.5113   ZZ=            -73.0756
   XY=             -3.1660   XZ=             -5.1037   YZ=             -4.4821
 Traceless Quadrupole moment (field-independent basis, Debye-Ang):
   XX=            -21.7159   YY=             16.1401   ZZ=              5.5758
   XY=             -3.1660   XZ=             -5.1037   YZ=             -4.4821
 Octapole moment (field-independent basis, Debye-Ang**2):
  XXX=             83.2144  YYY=              6.9146  ZZZ=             -3.2887  XYY=             -3.3740
  XXY=             10.2877  XXZ=             18.8735  XZZ=              6.2548  YZZ=             -3.6731
  YYZ=              0.6491  XYZ=              4.9949
 Hexadecapole moment (field-independent basis, Debye-Ang**3):
 XXXX=          -2017.9493 YYYY=           -378.8355 ZZZZ=           -269.5524 XXXY=            -42.7279
 XXXZ=            -82.4289 YYYX=             -9.0517 YYYZ=             -5.5072 ZZZX=             18.2778
 ZZZY=             -4.7642 XXYY=           -341.1607 XXZZ=           -361.7184 YYZZ=           -113.1122
 XXYZ=            -18.3604 YYXZ=              1.4624 ZZXY=              9.4250
 N-N= 4.995182979333D+02 E-N=-2.035895169016D+03  KE= 4.366621329655D+02
 No NMR shielding tensors so no spin-rotation constants.
 Leave Link  601 at Mon Feb 26 05:07:39 2024, MaxMem=  7516192768 cpu:               3.6 elap:               0.1
 (Enter /public/apps/g16-C01//g16/l701.exe)
 ... and contract with generalized density number  0.
 Compute integral first derivatives.
 R6Disp: Adding Grimme-D3(BJ) dispersion energy 1st derivatives to the gradient.
   1 Symmetry operations used in ECPInt.
 ECPInt:  NShTT=    3240 NPrTT=   13040 LenC2=    3188 LenP2D=    9907.
 LDataN:  DoStor=T MaxTD1= 5 Len=  102
 Leave Link  701 at Mon Feb 26 05:07:39 2024, MaxMem=  7516192768 cpu:               4.6 elap:               0.1
 (Enter /public/apps/g16-C01//g16/l702.exe)
 L702 exits ... SP integral derivatives will be done elsewhere.
 Leave Link  702 at Mon Feb 26 05:07:39 2024, MaxMem=  7516192768 cpu:               0.6 elap:               0.0
 (Enter /public/apps/g16-C01//g16/l703.exe)
 Integral derivatives from FoFJK, PRISM(SPDF).
 Compute integral first derivatives, UseDBF=F ICtDFT=           0.
 Calling FoFJK, ICntrl=      2127 FMM=F ISym2X=0 I1Cent= 0 IOpClX= 0 NMat=1 NMatS=1 NMatT=0.
 FoFJK:  IHMeth= 1 ICntrl=    2127 DoSepK=F KAlg= 0 I1Cent=           0 FoldK=F
 IRaf=         0 NMat=       1 IRICut=       1 DoRegI=T DoRafI=F ISym2E= 0 IDoP0=0 IntGTp=1.
 FoFCou: FMM=F IPFlag=           0 FMFlag=      100000 FMFlg1=         800
         NFxFlg=           0 DoJE=F BraDBF=F KetDBF=F FulRan=T
         wScrn=  0.000000 ICntrl=      2127 IOpCl=  0 I1Cent=           0 NGrid=           0
         NMat0=    1 NMatS0=      1 NMatT0=    0 NMatD0=    1 NMtDS0=    0 NMtDT0=    0
 Symmetry not used in FoFCou.
 Leave Link  703 at Mon Feb 26 05:07:40 2024, MaxMem=  7516192768 cpu:              22.0 elap:               0.6
 (Enter /public/apps/g16-C01//g16/l716.exe)
 Dipole        = 3.23343444D+00 3.39144011D-01 3.12078033D-01
 -------------------------------------------------------------------
 Center     Atomic                   Forces (Hartrees/Bohr)
 Number     Number              X              Y              Z
 -------------------------------------------------------------------
      1        7           0.004843703    0.002231812    0.011155308
      2        6          -0.010413116    0.004372797   -0.006117529
      3        6          -0.008936089    0.001083572    0.003744361
      4        8          -0.012188787   -0.000700148    0.001367707
      5        6          -0.001955948   -0.001761725    0.006527587
      6        6          -0.006684971    0.001462365    0.001178695
      7        6           0.005986343    0.003500012   -0.002578533
      8        6           0.005354139    0.000058817   -0.001167627
      9        6           0.007195602   -0.003116387   -0.001102969
     10        6          -0.005879312   -0.000673206    0.000880991
     11        1          -0.001023432   -0.001012480   -0.005151918
     12        1           0.000072434    0.004579596   -0.003251315
     13        1           0.001246971   -0.006401297    0.001583163
     14        1           0.008182415    0.003286175   -0.003540465
     15        1           0.006745622   -0.007161358   -0.002277027
     16        1          -0.005436834    0.006664556   -0.000883748
     17        1           0.003075110    0.007660862   -0.003326026
     18        1           0.008979636    0.000447722   -0.002085987
     19        1           0.004962513   -0.007328665    0.001348871
     20        1          -0.004125998   -0.007193020    0.003696462
 -------------------------------------------------------------------
 Cartesian Forces:  Max     0.012188787 RMS     0.005072894
 Leave Link  716 at Mon Feb 26 05:07:40 2024, MaxMem=  7516192768 cpu:               0.5 elap:               0.0
 (Enter /public/apps/g16-C01//g16/l103.exe)

 GradGradGradGradGradGradGradGradGradGradGradGradGradGradGradGradGradGrad
 Berny optimization.
 FormGI is forming the generalized inverse of G from B-inverse, IUseBI=4.
 Internal  Forces:  Max     0.018480485 RMS     0.004974049
 Search for a local minimum.
 Step number   1 out of a maximum of  108
 All quantities printed in internal units (Hartrees-Bohrs-Radians)
 RMS Force = .49740D-02 SwitMx=.10000D-02 MixMth= 1
 Mixed Optimization -- RFO/linear search
 Second derivative matrix not updated -- first step.
 ITU=  0
     Eigenvalues ---    0.00230   0.00957   0.01238   0.01756   0.02096
     Eigenvalues ---    0.02197   0.02223   0.02251   0.02281   0.02289
     Eigenvalues ---    0.02318   0.02324   0.04555   0.05543   0.05652
     Eigenvalues ---    0.05753   0.06335   0.06857   0.16000   0.16000
     Eigenvalues ---    0.16000   0.16000   0.16000   0.16000   0.16000
     Eigenvalues ---    0.16000   0.16000   0.16496   0.19524   0.20649
     Eigenvalues ---    0.21999   0.22000   0.22745   0.23401   0.24806
     Eigenvalues ---    0.30105   0.30738   0.34005   0.35497   0.35499
     Eigenvalues ---    0.35673   0.35709   0.35783   0.36433   0.37532
     Eigenvalues ---    0.41544   0.42150   0.42924   0.44500   0.46380
     Eigenvalues ---    0.46766   0.48222   0.49385   0.68072
 RFO step:  Lambda=-7.70081947D-03 EMin= 2.30000000D-03
 Linear search not attempted -- first point.
 Iteration  1 RMS(Cart)=  0.04405241 RMS(Int)=  0.00149882
 Iteration  2 RMS(Cart)=  0.00156726 RMS(Int)=  0.00019336
 Iteration  3 RMS(Cart)=  0.00000280 RMS(Int)=  0.00019335
 Iteration  4 RMS(Cart)=  0.00000000 RMS(Int)=  0.00019335
 ITry= 1 IFail=0 DXMaxC= 2.50D-01 DCOld= 1.00D+10 DXMaxT= 3.00D-01 DXLimC= 3.00D+00 Rises=F
 Variable       Old X    -DE/DX   Delta X   Delta X   Delta X     New X
                                 (Linear)    (Quad)   (Total)
    R1        2.75051   0.00376   0.00000   0.00982   0.00982   2.76033
    R2        1.96208   0.00287   0.00000   0.00677   0.00677   1.96885
    R3        1.92561   0.00533   0.00000   0.01177   0.01177   1.93738
    R4        3.11759   0.00418   0.00000   0.01954   0.01954   3.13713
    R5        2.76711   0.01082   0.00000   0.02910   0.02910   2.79620
    R6        2.07321   0.00572   0.00000   0.01644   0.01644   2.08965
    R7        2.45072   0.01199   0.00000   0.01742   0.01742   2.46813
    R8        2.14455   0.00806   0.00000   0.02611   0.02611   2.17066
    R9        2.13215   0.00906   0.00000   0.02875   0.02875   2.16090
   R10        2.64918   0.01126   0.00000   0.02410   0.02409   2.67327
   R11        2.64979   0.01070   0.00000   0.02290   0.02289   2.67268
   R12        2.60554   0.01819   0.00000   0.03632   0.03632   2.64186
   R13        2.04422   0.00861   0.00000   0.02357   0.02357   2.06779
   R14        2.62167   0.01347   0.00000   0.02807   0.02808   2.64975
   R15        2.04876   0.00889   0.00000   0.02452   0.02452   2.07328
   R16        2.62327   0.01313   0.00000   0.02746   0.02746   2.65073
   R17        2.04596   0.00923   0.00000   0.02533   0.02533   2.07129
   R18        2.60430   0.01848   0.00000   0.03679   0.03679   2.64110
   R19        2.04872   0.00895   0.00000   0.02467   0.02467   2.07339
   R20        2.04540   0.00903   0.00000   0.02476   0.02476   2.07016
    A1        1.76489  -0.00603   0.00000  -0.04406  -0.04424   1.72065
    A2        1.89795   0.00092   0.00000  -0.00072  -0.00084   1.89710
    A3        1.82612  -0.00053   0.00000  -0.02395  -0.02444   1.80168
    A4        1.85060   0.00186   0.00000   0.02064   0.02062   1.87122
    A5        2.05160  -0.00382   0.00000  -0.01528  -0.01566   2.03594
    A6        1.85929   0.00284   0.00000   0.02620   0.02621   1.88551
    A7        1.91102   0.00345   0.00000   0.02081   0.02087   1.93189
    A8        1.84100  -0.00279   0.00000  -0.02369  -0.02377   1.81723
    A9        1.93721  -0.00144   0.00000  -0.02844  -0.02833   1.90889
   A10        1.92548   0.00347   0.00000   0.02039   0.02045   1.94593
   A11        1.81979  -0.00570   0.00000  -0.03283  -0.03313   1.78666
   A12        1.82405  -0.00389   0.00000  -0.02744  -0.02773   1.79632
   A13        2.00424   0.00363   0.00000   0.03849   0.03856   2.04279
   A14        2.02767   0.00120   0.00000   0.01313   0.01320   2.04086
   A15        1.84289  -0.00019   0.00000  -0.02302  -0.02418   1.81871
   A16        2.14304  -0.00053   0.00000  -0.00169  -0.00170   2.14134
   A17        2.09346   0.00144   0.00000   0.00599   0.00598   2.09944
   A18        2.04062  -0.00093   0.00000  -0.00528  -0.00530   2.03531
   A19        2.11911   0.00100   0.00000   0.00368   0.00368   2.12278
   A20        2.08768  -0.00121   0.00000  -0.00606  -0.00606   2.08162
   A21        2.07638   0.00021   0.00000   0.00238   0.00238   2.07877
   A22        2.10639   0.00013   0.00000   0.00127   0.00127   2.10767
   A23        2.08921  -0.00042   0.00000  -0.00277  -0.00277   2.08643
   A24        2.08758   0.00029   0.00000   0.00150   0.00150   2.08908
   A25        2.07449  -0.00141   0.00000  -0.00479  -0.00478   2.06971
   A26        2.10414   0.00071   0.00000   0.00243   0.00242   2.10657
   A27        2.10455   0.00070   0.00000   0.00236   0.00236   2.10691
   A28        2.10235  -0.00010   0.00000   0.00018   0.00018   2.10254
   A29        2.08858   0.00038   0.00000   0.00185   0.00185   2.09043
   A30        2.09225  -0.00027   0.00000  -0.00204  -0.00205   2.09020
   A31        2.12321   0.00132   0.00000   0.00499   0.00499   2.12819
   A32        2.07083  -0.00150   0.00000  -0.00752  -0.00752   2.06332
   A33        2.08915   0.00018   0.00000   0.00253   0.00253   2.09167
    D1        0.53733  -0.00355   0.00000  -0.06980  -0.06943   0.46790
    D2        2.68034  -0.00010   0.00000  -0.03616  -0.03598   2.64436
    D3       -1.41784  -0.00242   0.00000  -0.06335  -0.06344  -1.48128
    D4       -1.37880  -0.00066   0.00000  -0.02406  -0.02399  -1.40279
    D5        0.76420   0.00279   0.00000   0.00959   0.00947   0.77367
    D6        2.94921   0.00046   0.00000  -0.01760  -0.01800   2.93121
    D7       -0.62746  -0.00269   0.00000  -0.08969  -0.08944  -0.71690
    D8        1.53326   0.00009   0.00000  -0.05236  -0.05250   1.48076
    D9       -2.81916  -0.00368   0.00000  -0.09996  -0.09933  -2.91849
   D10       -2.85707  -0.00140   0.00000  -0.09787  -0.09802  -2.95510
   D11       -0.69636   0.00137   0.00000  -0.06055  -0.06108  -0.75744
   D12        1.23441  -0.00239   0.00000  -0.10815  -0.10791   1.12649
   D13        1.34045   0.00008   0.00000  -0.06173  -0.06183   1.27863
   D14       -2.78202   0.00286   0.00000  -0.02441  -0.02488  -2.80690
   D15       -0.85125  -0.00091   0.00000  -0.07200  -0.07172  -0.92297
   D16       -0.73714  -0.00080   0.00000  -0.00062  -0.00043  -0.73757
   D17        2.52636  -0.00051   0.00000   0.00958   0.00979   2.53615
   D18        1.37476   0.00175   0.00000   0.03306   0.03302   1.40777
   D19       -1.64494   0.00204   0.00000   0.04326   0.04325  -1.60169
   D20       -2.88300  -0.00043   0.00000   0.00013  -0.00006  -2.88305
   D21        0.38050  -0.00013   0.00000   0.01033   0.01017   0.39067
   D22       -3.04389   0.00022   0.00000   0.01118   0.01115  -3.03274
   D23        0.09105   0.00026   0.00000   0.01190   0.01188   0.10292
   D24       -0.02074   0.00009   0.00000   0.00200   0.00201  -0.01873
   D25        3.11419   0.00012   0.00000   0.00273   0.00273   3.11693
   D26        3.04525  -0.00040   0.00000  -0.01326  -0.01327   3.03198
   D27       -0.09647  -0.00041   0.00000  -0.01426  -0.01427  -0.11074
   D28        0.01856  -0.00013   0.00000  -0.00383  -0.00383   0.01472
   D29       -3.12316  -0.00015   0.00000  -0.00484  -0.00483  -3.12799
   D30        0.00784  -0.00000   0.00000   0.00055   0.00054   0.00838
   D31       -3.13708  -0.00000   0.00000   0.00007   0.00007  -3.13701
   D32       -3.12713  -0.00003   0.00000  -0.00014  -0.00015  -3.12729
   D33        0.01113  -0.00003   0.00000  -0.00062  -0.00063   0.01051
   D34        0.00807  -0.00004   0.00000  -0.00130  -0.00130   0.00677
   D35       -3.13749   0.00002   0.00000   0.00043   0.00044  -3.13705
   D36       -3.13020  -0.00003   0.00000  -0.00081  -0.00081  -3.13101
   D37        0.00742   0.00002   0.00000   0.00092   0.00092   0.00835
   D38       -0.01026  -0.00001   0.00000  -0.00051  -0.00049  -0.01075
   D39        3.13423   0.00008   0.00000   0.00267   0.00268   3.13691
   D40        3.13530  -0.00006   0.00000  -0.00223  -0.00223   3.13307
   D41       -0.00339   0.00003   0.00000   0.00094   0.00094  -0.00245
   D42       -0.00339   0.00010   0.00000   0.00314   0.00315  -0.00024
   D43        3.13833   0.00011   0.00000   0.00416   0.00416  -3.14070
   D44        3.13530   0.00001   0.00000  -0.00003  -0.00002   3.13528
   D45       -0.00617   0.00002   0.00000   0.00099   0.00100  -0.00517
         Item               Value     Threshold  Converged?
 Maximum Force            0.018480     0.000450     NO 
 RMS     Force            0.004974     0.000300     NO 
 Maximum Displacement     0.250034     0.001800     NO 
 RMS     Displacement     0.043887     0.001200     NO 
 Predicted change in Energy=-4.193698D-03
 Lowest energy point so far.  Saving SCF results.
 GradGradGradGradGradGradGradGradGradGradGradGradGradGradGradGradGradGrad

 Leave Link  103 at Mon Feb 26 05:07:40 2024, MaxMem=  7516192768 cpu:               1.4 elap:               0.1
 (Enter /public/apps/g16-C01//g16/l202.exe)
                          Input orientation:                          
 ---------------------------------------------------------------------
 Center     Atomic      Atomic             Coordinates (Angstroms)
 Number     Number       Type             X           Y           Z
 ---------------------------------------------------------------------
      1          7           0       -1.913034    0.973650    1.158109
      2          6           0       -1.235458   -0.180431    0.572746
      3          6           0       -2.022400   -0.546448   -0.842415
      4          8           0       -3.317807   -0.446126   -0.709384
      5          6           0        0.220287   -0.049017    0.342505
      6          6           0        0.807681    1.125567   -0.183331
      7          6           0        2.165278    1.182339   -0.512197
      8          6           0        2.992558    0.063553   -0.338828
      9          6           0        2.427369   -1.117587    0.164218
     10          6           0        1.070721   -1.168591    0.496201
     11          1           0       -2.858243    0.824628    0.745961
     12          1           0       -1.582869    1.822323    0.687133
     13          1           0       -1.426665   -1.055093    1.221733
     14          1           0       -1.518286    0.160686   -1.594249
     15          1           0       -1.607230   -1.578733   -1.106253
     16          1           0        0.184098    2.010566   -0.342235
     17          1           0        2.586186    2.112529   -0.913801
     18          1           0        4.057716    0.110494   -0.593030
     19          1           0        3.055891   -2.006072    0.303444
     20          1           0        0.640114   -2.096120    0.889070
 ---------------------------------------------------------------------
                    Distance matrix (angstroms):
                    1          2          3          4          5
     1  N    0.000000
     2  C    1.460706   0.000000
     3  C    2.514906   1.660099   0.000000
     4  O    2.734352   2.459803   1.306079   0.000000
     5  C    2.502422   1.479687   2.584786   3.712449   0.000000
     6  C    3.037240   2.540020   3.352520   4.445966   1.414633
     7  C    4.412040   3.820896   4.542510   5.723199   2.455554
     8  C    5.209024   4.332045   5.076959   6.341750   2.856987
     9  C    4.919369   3.802823   4.597821   5.849880   2.458626
    10  C    3.732306   2.510135   3.427295   4.608098   1.414321
    11  H    1.041870   1.916658   2.258632   1.985961   3.225427
    12  H    1.025218   2.035878   2.853731   3.179014   2.621460
    13  H    2.087199   1.105793   2.207788   2.770645   2.120773
    14  H    2.896931   2.211836   1.148661   2.095110   2.611058
    15  H    3.425713   2.216416   1.143499   2.089588   2.789040
    16  H    2.779242   2.766369   3.414254   4.293422   2.170729
    17  H    5.082601   4.698133   5.321121   6.437829   3.442103
    18  H    6.281829   5.427832   6.120587   7.397413   3.953041
    19  H    5.856569   4.671313   5.406712   6.639524   3.445611
    20  H    4.001803   2.699573   3.533908   4.576316   2.160004
                    6          7          8          9         10
     6  C    0.000000
     7  C    1.398015   0.000000
     8  C    2.434285   1.402188   0.000000
     9  C    2.788534   2.411615   1.402706   0.000000
    10  C    2.407097   2.782407   2.430825   1.397608   0.000000
    11  H    3.793830   5.191019   5.998989   5.661123   4.412715
    12  H    2.637785   3.987052   5.008034   4.999852   4.002944
    13  H    3.423710   4.573256   4.818325   3.996977   2.603116
    14  H    2.886487   3.972814   4.683292   4.504928   3.583282
    15  H    3.741232   4.712561   4.944096   4.254966   3.147617
    16  H    1.094225   2.154048   3.417356   3.882538   3.405306
    17  H    2.161194   1.097134   2.166573   3.408958   3.879496
    18  H    3.429425   2.176398   1.096077   2.177071   3.427043
    19  H    3.885687   3.409461   2.167918   1.097191   2.163199
    20  H    3.399616   3.877882   3.421390   2.162688   1.095481
                   11         12         13         14         15
    11  H    0.000000
    12  H    1.620319   0.000000
    13  H    2.410213   2.930822   0.000000
    14  H    2.777208   2.823103   3.068593   0.000000
    15  H    3.282053   3.844997   2.392973   1.808764   0.000000
    16  H    3.441868   2.053584   3.799844   2.808506   4.083582
    17  H    5.835692   4.475291   5.540515   4.595584   5.589918
    18  H    7.080492   6.032030   5.893250   5.665400   5.933675
    19  H    6.571580   6.026767   4.673427   5.405475   4.890251
    20  H    4.559577   4.509614   2.337943   3.989828   3.049517
                   16         17         18         19         20
    16  H    0.000000
    17  H    2.471257   0.000000
    18  H    4.321816   2.505283   0.000000
    19  H    4.979706   4.320322   2.507423   0.000000
    20  H    4.311488   4.974964   4.329639   2.487377   0.000000
 Symmetry turned off by external request.
 Stoichiometry    C8H10NO(1-)
 Framework group  C1[X(C8H10NO)]
 Deg. of freedom    54
 Full point group                 C1      NOp   1
 Rotational constants (GHZ):           3.0455725           0.7661566           0.7108205
 Leave Link  202 at Mon Feb 26 05:07:40 2024, MaxMem=  7516192768 cpu:               0.4 elap:               0.0
 (Enter /public/apps/g16-C01//g16/l301.exe)
 Standard basis: def2SVPP (5D, 7F)
 Ernie: Thresh=  0.10000D-02 Tol=  0.10000D-05 Strict=F.
   160 basis functions,   290 primitive gaussians,   170 cartesian basis functions
    37 alpha electrons       37 beta electrons
       nuclear repulsion energy       494.2579446185 Hartrees.
 IExCor=  402 DFT=T Ex+Corr=B3LYP ExCW=0 ScaHFX=  0.200000
 ScaDFX=  0.800000  0.720000  1.000000  0.810000 ScalE2=  1.000000  1.000000
 IRadAn=      5 IRanWt=     -1 IRanGd=            0 ICorTp=0 IEmpDi=141
 NAtoms=   20 NActive=   20 NUniq=   20 SFac= 1.00D+00 NAtFMM=   60 NAOKFM=F Big=F
 Integral buffers will be    131072 words long.
 Raffenetti 2 integral format.
 Two-electron integral symmetry is turned off.
 R6Disp:  Grimme-D3(BJ) Dispersion energy=       -0.0358889579 Hartrees.
 Nuclear repulsion after empirical dispersion term =      494.2220556607 Hartrees.
 Leave Link  301 at Mon Feb 26 05:07:40 2024, MaxMem=  7516192768 cpu:               1.2 elap:               0.0
 (Enter /public/apps/g16-C01//g16/l302.exe)
 NPDir=0 NMtPBC=     1 NCelOv=     1 NCel=       1 NClECP=     1 NCelD=      1
         NCelK=      1 NCelE2=     1 NClLst=     1 CellRange=     0.0.
 One-electron integrals computed using PRISM.
   1 Symmetry operations used in ECPInt.
 ECPInt:  NShTT=    3240 NPrTT=   13040 LenC2=    3186 LenP2D=    9867.
 LDataN:  DoStor=T MaxTD1= 4 Len=   56
 NBasis=   160 RedAO= T EigKep=  3.04D-04  NBF=   160
 NBsUse=   160 1.00D-06 EigRej= -1.00D+00 NBFU=   160
 Precomputing XC quadrature grid using
 IXCGrd= 4 IRadAn=           5 IRanWt=          -1 IRanGd=           0 AccXCQ= 0.00D+00.
 Generated NRdTot=       0 NPtTot=           0 NUsed=           0 NTot=          32
 NSgBfM=   170   170   170   170   170 MxSgAt=    20 MxSgA2=    20.
 Leave Link  302 at Mon Feb 26 05:07:40 2024, MaxMem=  7516192768 cpu:               4.9 elap:               0.1
 (Enter /public/apps/g16-C01//g16/l303.exe)
 DipDrv:  MaxL=1.
 Leave Link  303 at Mon Feb 26 05:07:40 2024, MaxMem=  7516192768 cpu:               1.3 elap:               0.0
 (Enter /public/apps/g16-C01//g16/l401.exe)
 Initial guess from the checkpoint file:  "/public/home/ljq/tmp/Gau-114945.chk"
 B after Tr=    -0.013853   -0.018092    0.006615
         Rot=    0.999986    0.004290   -0.001243   -0.002958 Ang=   0.61 deg.
 Guess basis will be translated and rotated to current coordinates.
 JPrj=2 DoOrth=T DoCkMO=T.
 Generating alternative initial guess.
 ExpMin= 1.22D-01 ExpMax= 2.27D+03 ExpMxC= 3.41D+02 IAcc=3 IRadAn=         5 AccDes= 0.00D+00
 Harris functional with IExCor=  402 and IRadAn=       5 diagonalized for initial guess.
 HarFok:  IExCor=  402 AccDes= 0.00D+00 IRadAn=         5 IDoV= 1 UseB2=F ITyADJ=14
 ICtDFT=  3500011 ScaDFX=  1.000000  1.000000  1.000000  1.000000
 FoFCou: FMM=F IPFlag=           0 FMFlag=      100000 FMFlg1=           0
         NFxFlg=           0 DoJE=T BraDBF=F KetDBF=T FulRan=T
         wScrn=  0.000000 ICntrl=       500 IOpCl=  0 I1Cent=   200000004 NGrid=           0
         NMat0=    1 NMatS0=      1 NMatT0=    0 NMatD0=    1 NMtDS0=    0 NMtDT0=    0
 Symmetry not used in FoFCou.
 Harris En= -440.712301451086    
 Leave Link  401 at Mon Feb 26 05:07:40 2024, MaxMem=  7516192768 cpu:              10.2 elap:               0.3
 (Enter /public/apps/g16-C01//g16/l502.exe)
 Two-electron integral symmetry not used.
 Closed shell SCF:
 Using DIIS extrapolation, IDIIS=  1040.
 NGot=  7516192768 LenX=  7516126072 LenY=  7516096731
 Requested convergence on RMS density matrix=1.00D-08 within 128 cycles.
 Requested convergence on MAX density matrix=1.00D-06.
 Requested convergence on             energy=1.00D-06.
 No special actions if energy rises.
 Fock matrices will be formed incrementally for  20 cycles.
 Integral accuracy reduced to 1.0D-05 until final iterations.

 Cycle   1  Pass 0  IDiag  1:
 FoFJK:  IHMeth= 1 ICntrl=       0 DoSepK=F KAlg= 0 I1Cent=           0 FoldK=F
 IRaf= 960000000 NMat=       1 IRICut=       1 DoRegI=T DoRafI=F ISym2E= 0 IDoP0=0 IntGTp=1.
 FoFCou: FMM=F IPFlag=           0 FMFlag=      100000 FMFlg1=           0
         NFxFlg=           0 DoJE=F BraDBF=F KetDBF=F FulRan=T
         wScrn=  0.000000 ICntrl=         0 IOpCl=  0 I1Cent=           0 NGrid=           0
         NMat0=    1 NMatS0=      1 NMatT0=    0 NMatD0=    1 NMtDS0=    0 NMtDT0=    0
 Symmetry not used in FoFCou.
 E= -440.509954888410    
 DIIS: error= 4.52D-03 at cycle   1 NSaved=   1.
 NSaved= 1 IEnMin= 1 EnMin= -440.509954888410     IErMin= 1 ErrMin= 4.52D-03
 ErrMax= 4.52D-03  0.00D+00 EMaxC= 1.00D-01 BMatC= 3.86D-03 BMatP= 3.86D-03
 IDIUse=3 WtCom= 9.55D-01 WtEn= 4.52D-02
 Coeff-Com:  0.100D+01
 Coeff-En:   0.100D+01
 Coeff:      0.100D+01
 Gap=     0.487 Goal=   None    Shift=    0.000
 GapD=    0.487 DampG=2.000 DampE=1.000 DampFc=2.0000 IDamp=-1.
 RMSDP=1.52D-03 MaxDP=3.18D-02              OVMax= 2.21D-02

 Cycle   2  Pass 0  IDiag  1:
 RMSU=  1.45D-03    CP:  9.85D-01
 E= -440.516032780209     Delta-E=       -0.006077891799 Rises=F Damp=F
 DIIS: error= 9.49D-04 at cycle   2 NSaved=   2.
 NSaved= 2 IEnMin= 2 EnMin= -440.516032780209     IErMin= 2 ErrMin= 9.49D-04
 ErrMax= 9.49D-04  0.00D+00 EMaxC= 1.00D-01 BMatC= 2.15D-04 BMatP= 3.86D-03
 IDIUse=3 WtCom= 9.91D-01 WtEn= 9.49D-03
 Coeff-Com:  0.223D-01 0.978D+00
 Coeff-En:   0.000D+00 0.100D+01
 Coeff:      0.220D-01 0.978D+00
 Gap=     0.109 Goal=   None    Shift=    0.000
 RMSDP=3.56D-04 MaxDP=9.22D-03 DE=-6.08D-03 OVMax= 1.44D-02

 Cycle   3  Pass 0  IDiag  1:
 RMSU=  3.50D-04    CP:  9.87D-01  1.01D+00
 E= -440.515795018572     Delta-E=        0.000237761637 Rises=F Damp=F
 DIIS: error= 1.39D-03 at cycle   3 NSaved=   3.
 NSaved= 3 IEnMin= 2 EnMin= -440.516032780209     IErMin= 2 ErrMin= 9.49D-04
 ErrMax= 1.39D-03  0.00D+00 EMaxC= 1.00D-01 BMatC= 4.90D-04 BMatP= 2.15D-04
 IDIUse=3 WtCom= 2.11D-01 WtEn= 7.89D-01
 Coeff-Com: -0.341D-01 0.630D+00 0.404D+00
 Coeff-En:   0.000D+00 0.652D+00 0.348D+00
 Coeff:     -0.722D-02 0.647D+00 0.360D+00
 Gap=     0.117 Goal=   None    Shift=    0.000
 RMSDP=2.67D-04 MaxDP=9.49D-03 DE= 2.38D-04 OVMax= 1.12D-02

 Cycle   4  Pass 0  IDiag  1:
 RMSU=  1.01D-04    CP:  9.85D-01  1.03D+00  3.24D-01
 E= -440.516267013057     Delta-E=       -0.000471994485 Rises=F Damp=F
 DIIS: error= 4.26D-04 at cycle   4 NSaved=   4.
 NSaved= 4 IEnMin= 4 EnMin= -440.516267013057     IErMin= 4 ErrMin= 4.26D-04
 ErrMax= 4.26D-04  0.00D+00 EMaxC= 1.00D-01 BMatC= 2.38D-05 BMatP= 2.15D-04
 IDIUse=3 WtCom= 9.96D-01 WtEn= 4.26D-03
 Coeff-Com: -0.237D-01 0.306D+00 0.219D+00 0.498D+00
 Coeff-En:   0.000D+00 0.000D+00 0.000D+00 0.100D+01
 Coeff:     -0.236D-01 0.305D+00 0.218D+00 0.500D+00
 Gap=     0.116 Goal=   None    Shift=    0.000
 RMSDP=6.10D-05 MaxDP=2.27D-03 DE=-4.72D-04 OVMax= 1.72D-03

 Cycle   5  Pass 0  IDiag  1:
 RMSU=  2.91D-05    CP:  9.85D-01  1.04D+00  3.82D-01  5.21D-01
 E= -440.516287991490     Delta-E=       -0.000020978433 Rises=F Damp=F
 DIIS: error= 5.71D-05 at cycle   5 NSaved=   5.
 NSaved= 5 IEnMin= 5 EnMin= -440.516287991490     IErMin= 5 ErrMin= 5.71D-05
 ErrMax= 5.71D-05  0.00D+00 EMaxC= 1.00D-01 BMatC= 1.13D-06 BMatP= 2.38D-05
 IDIUse=1 WtCom= 1.00D+00 WtEn= 0.00D+00
 Coeff-Com: -0.625D-02 0.692D-01 0.572D-01 0.215D+00 0.665D+00
 Coeff:     -0.625D-02 0.692D-01 0.572D-01 0.215D+00 0.665D+00
 Gap=     0.116 Goal=   None    Shift=    0.000
 RMSDP=1.21D-05 MaxDP=1.66D-04 DE=-2.10D-05 OVMax= 3.22D-04

 Cycle   6  Pass 0  IDiag  1:
 RMSU=  8.77D-06    CP:  9.85D-01  1.04D+00  3.77D-01  5.76D-01  8.05D-01
 E= -440.516288918571     Delta-E=       -0.000000927081 Rises=F Damp=F
 DIIS: error= 2.90D-05 at cycle   6 NSaved=   6.
 NSaved= 6 IEnMin= 6 EnMin= -440.516288918571     IErMin= 6 ErrMin= 2.90D-05
 ErrMax= 2.90D-05  0.00D+00 EMaxC= 1.00D-01 BMatC= 2.08D-07 BMatP= 1.13D-06
 IDIUse=1 WtCom= 1.00D+00 WtEn= 0.00D+00
 Coeff-Com: -0.194D-02 0.178D-01 0.186D-01 0.862D-01 0.378D+00 0.501D+00
 Coeff:     -0.194D-02 0.178D-01 0.186D-01 0.862D-01 0.378D+00 0.501D+00
 Gap=     0.116 Goal=   None    Shift=    0.000
 RMSDP=4.93D-06 MaxDP=8.95D-05 DE=-9.27D-07 OVMax= 2.24D-04

 Initial convergence to 1.0D-05 achieved.  Increase integral accuracy.
 Cycle   7  Pass 1  IDiag  1:
 E= -440.516283193758     Delta-E=        0.000005724813 Rises=F Damp=F
 DIIS: error= 3.74D-05 at cycle   1 NSaved=   1.
 NSaved= 1 IEnMin= 1 EnMin= -440.516283193758     IErMin= 1 ErrMin= 3.74D-05
 ErrMax= 3.74D-05  0.00D+00 EMaxC= 1.00D-01 BMatC= 7.43D-08 BMatP= 7.43D-08
 IDIUse=1 WtCom= 1.00D+00 WtEn= 0.00D+00
 Coeff-Com:  0.100D+01
 Coeff:      0.100D+01
 Gap=     0.116 Goal=   None    Shift=    0.000
 RMSDP=4.93D-06 MaxDP=8.95D-05 DE= 5.72D-06 OVMax= 2.01D-04

 Cycle   8  Pass 1  IDiag  1:
 RMSU=  3.02D-05    CP:  1.00D+00
 E= -440.516283159862     Delta-E=        0.000000033897 Rises=F Damp=F
 DIIS: error= 2.58D-05 at cycle   2 NSaved=   2.
 NSaved= 2 IEnMin= 1 EnMin= -440.516283193758     IErMin= 2 ErrMin= 2.58D-05
 ErrMax= 2.58D-05  0.00D+00 EMaxC= 1.00D-01 BMatC= 8.77D-08 BMatP= 7.43D-08
 IDIUse=1 WtCom= 1.00D+00 WtEn= 0.00D+00
 Coeff-Com:  0.527D+00 0.473D+00
 Coeff:      0.527D+00 0.473D+00
 Gap=     0.116 Goal=   None    Shift=    0.000
 RMSDP=3.62D-06 MaxDP=6.08D-05 DE= 3.39D-08 OVMax= 1.87D-04

 Cycle   9  Pass 1  IDiag  1:
 RMSU=  3.61D-06    CP:  1.00D+00  9.92D-01
 E= -440.516283245639     Delta-E=       -0.000000085777 Rises=F Damp=F
 DIIS: error= 1.19D-05 at cycle   3 NSaved=   3.
 NSaved= 3 IEnMin= 3 EnMin= -440.516283245639     IErMin= 3 ErrMin= 1.19D-05
 ErrMax= 1.19D-05  0.00D+00 EMaxC= 1.00D-01 BMatC= 1.67D-08 BMatP= 7.43D-08
 IDIUse=1 WtCom= 1.00D+00 WtEn= 0.00D+00
 Coeff-Com:  0.115D-01 0.303D+00 0.686D+00
 Coeff:      0.115D-01 0.303D+00 0.686D+00
 Gap=     0.116 Goal=   None    Shift=    0.000
[...]
 37,0.00088786,-0.00654279,-0.00319612,-0.00410774,0.00112128,0.0033526
 4,0.00625352,-0.00187836,-0.00052701,-0.00071938,0.00667598,0.00379448
 ,-0.00343335,-0.03353680,0.02337514,0.00832745,-0.18171494,0.13207029,
 0.01260901,0.69968765,-0.00032844,0.00207673,0.00107438,-0.00263815,-0
 .00309871,-0.00071166,0.00085258,0.00174185,0.00231730,-0.00015237,0.0
 0029193,-0.00051824,0.00358782,-0.06250391,0.00480893,0.07089096,0.029
 39682,-0.01932610,0.07108885,-0.27981505,0.00917755,-0.01575104,0.6598
 8015,-0.00015007,-0.00044235,-0.00007585,0.00162498,0.00101036,0.00003
 100,-0.00034164,-0.00063241,-0.00135258,0.00037350,0.00004671,0.000128
 00,-0.00421481,0.00600904,-0.00738353,0.00212033,-0.00805323,0.0106838
 5,0.01977204,-0.00528057,-0.06682119,-0.13637586,-0.06240161,0.1649506
 5,-0.00155219,-0.00249649,-0.00151661,0.00953042,0.00733205,0.00481105
 ,-0.00145082,-0.00388992,-0.00679736,0.00163647,-0.00006411,0.00081173
 ,-0.03288193,0.06513158,0.00211831,-0.04139591,-0.01888748,0.01041821,
 0.05375274,-0.02009803,-0.00831843,-0.16272239,-0.05260129,0.03053227,
 0.66595151,0.00185921,-0.00095650,-0.00110353,0.00222114,-0.00319237,0
 .00197169,-0.00021459,-0.00253447,-0.00252663,-0.00022912,0.00023150,0
 .00052025,0.02587588,0.03458701,-0.00796139,-0.02927208,-0.01610002,0.
 00783737,0.02813678,-0.05958969,0.00145536,-0.11354179,-0.28363273,0.0
 5508394,-0.03815595,0.70420278,-0.00068307,0.00056755,0.00080378,-0.00
 133779,0.00001534,0.00400618,0.00065457,0.00108952,0.00157948,0.000345
 63,0.00009301,-0.00025224,0.00634265,-0.01913992,0.00735358,0.01180181
 ,0.00609473,-0.01125534,-0.01419614,0.01360753,0.01175540,0.03840258,0
 .04054125,-0.07692827,-0.12343294,-0.06328455,0.17290689,-0.00440334,0
 .00032117,0.00234822,-0.03043125,0.02344003,-0.00296543,0.00158131,0.0
 0668637,0.01071356,-0.00148265,-0.00098732,-0.00166637,-0.16950995,0.0
 6077215,0.01304227,0.05360599,0.01730595,-0.01318053,-0.04487429,0.028
 25569,0.00575162,-0.02459196,-0.07314159,0.01780952,-0.33923081,0.0276
 4376,0.06386728,0.67837301,-0.00467538,-0.00107454,-0.00040392,0.01572
 711,0.00883416,0.00271760,-0.00452057,0.00063527,-0.00576639,0.0030888
 7,-0.00094358,-0.00036596,0.10768118,-0.25749363,-0.00131247,-0.011534
 44,-0.04989322,0.00993600,0.01877445,-0.01450127,-0.00365442,-0.026880
 21,0.02560877,0.00476922,-0.03267435,-0.12463309,0.01584793,0.01656911
 ,0.68371326,0.00127431,0.00004414,0.00146762,0.00482411,-0.00271652,0.
 00571742,-0.00078492,-0.00254121,-0.00348423,0.00081920,0.00053329,0.0
 0073965,0.00952928,0.01013921,-0.07418117,-0.01002347,0.00198128,0.010
 96867,0.00686339,-0.00551518,-0.00852348,0.01153295,0.01555121,0.00538
 123,0.07089882,0.00095327,-0.07995515,-0.13068258,-0.07709501,0.176440
 11,-0.30641750,-0.07201252,-0.02538188,-0.03394578,0.00870047,0.000059
 46,0.00535167,-0.00163221,-0.00129610,-0.00661237,-0.00064811,0.000437
 62,-0.00038833,0.00282432,-0.00276737,0.00041434,0.00050021,-0.0000582
 2,0.00019174,-0.00034175,-0.00001409,-0.00017698,-0.00002591,0.0000459
 3,0.00031871,0.00026651,0.00020345,-0.00096248,0.00031251,0.00064004,0
 .35074943,-0.08625486,-0.07638767,0.00759078,0.03450999,0.00581602,-0.
 00361286,0.01610233,-0.00274253,-0.00282976,-0.00629768,0.00392625,0.0
 0844305,0.00482442,-0.00710114,-0.00308472,-0.00117595,-0.00139004,0.0
 0094452,0.00064439,-0.00004686,-0.00004107,-0.00071517,0.00001557,0.00
 007997,0.00077073,-0.00031918,0.00028438,0.00109408,0.00155720,-0.0003
 6626,0.06357024,0.08250483,-0.07579350,-0.00657914,-0.04187026,0.00560
 749,0.00041802,0.00069481,0.01075222,-0.00273676,-0.00276568,-0.003760
 06,0.00558169,-0.00098365,0.00224413,-0.00177781,-0.00115079,-0.000015
 47,-0.00018475,0.00034701,0.00041719,-0.00046391,0.00018276,-0.0003674
 7,0.00007333,0.00000859,0.00032657,-0.00005728,0.00015581,0.00023116,0
 .00089617,0.00031445,0.02954834,-0.00585380,0.04467779,-0.06195842,-0.
 02059608,0.03992711,0.00423357,0.01268849,-0.01767109,0.00113718,-0.00
 012657,0.00036864,-0.00127928,0.00077813,-0.00156485,0.00116087,-0.000
 04954,-0.00135874,-0.00095716,0.00126945,-0.00023854,-0.00057616,-0.00
 035327,0.00060543,0.00016940,-0.00066035,0.00004674,0.00055867,0.00021
 548,-0.00003636,-0.00029591,0.00031111,0.00024564,-0.00517225,-0.02414
 921,0.03405547,0.06714962,-0.02279005,-0.13930995,0.13382979,-0.006343
 49,-0.02947976,0.03063417,0.00008060,0.00016594,0.00309614,-0.00080696
 ,0.00073626,-0.00128632,-0.00009185,0.00148997,0.00010580,-0.00024636,
 0.00001688,-0.00048804,0.00013022,0.00013453,0.00009425,-0.00008749,0.
 00001432,0.00008936,-0.00005200,0.00017777,-0.00008459,-0.00019894,-0.
 00025826,-0.00027448,-0.00097669,-0.00644770,0.00986819,0.02797935,0.1
 7545438,0.05945085,0.18395267,-0.25353181,-0.00243465,-0.00702080,-0.0
 0006862,-0.00116867,-0.00310293,0.00232559,0.00115718,0.00030583,-0.00
 026388,0.00259404,0.00083696,0.00018708,0.00007312,0.00142154,0.000379
 79,0.00027135,-0.00092581,-0.00023861,-0.00031855,-0.00012423,0.000023
 43,0.00054698,0.00011257,-0.00006763,-0.00087427,0.00040816,0.00018301
 ,-0.00345082,-0.00372278,-0.00031217,-0.05474357,-0.17217952,0.2494310
 5,0.00238832,0.01321805,-0.01056983,-0.05360865,-0.02659722,0.03970066
 ,0.00146884,0.00560401,-0.01389439,0.00204838,-0.00057329,0.00163864,-
 0.01047019,-0.02087166,0.02523771,-0.00349165,0.00214802,0.00072211,-0
 .00096627,-0.00086661,-0.00091486,0.00006064,-0.00027997,0.00014388,0.
 00012260,-0.00013781,-0.00048082,0.00049220,-0.00167955,-0.00068781,0.
 00076919,0.00062342,-0.00021612,-0.00139703,0.00382961,-0.00106678,0.0
 6305491,-0.00247965,-0.02792482,0.01956483,-0.02355090,-0.13281267,0.1
 1683596,-0.00058043,0.00414056,-0.01258405,0.00209819,0.00012354,0.001
 03277,-0.00430333,-0.00198784,0.00329433,-0.00027463,0.00091622,0.0001
 9708,0.00028831,-0.00050242,-0.00005845,0.00047753,0.00098052,-0.00020
 486,-0.00163230,-0.00049266,-0.00046513,0.00242848,-0.00020370,-0.0013
 8012,-0.00053895,-0.00000955,0.00021336,0.00464704,-0.00508602,0.00025
 288,0.02486915,0.15982872,-0.00382840,-0.00494688,0.00782515,0.0441373
 8,0.12311219,-0.18853125,0.00390615,0.01173905,-0.02872213,0.00176424,
 -0.00191630,0.00556631,-0.00543423,0.00050132,-0.00089683,0.00145750,0
 .00066963,-0.00060853,-0.00103739,0.00012227,0.00030871,0.00072668,-0.
 00018744,-0.00014528,-0.00031789,-0.00037896,0.00022393,0.00069690,0.0
 0012917,0.00066634,0.00046294,0.00137374,0.00030473,0.00066275,-0.0016
 9777,0.00104359,-0.04021720,-0.12575919,0.20538955,0.00091622,0.000423
 61,0.00119043,0.00570707,0.00619152,-0.00893847,-0.05880514,-0.0150608
 8,0.02273675,-0.03386795,-0.01502996,0.03516427,-0.00201249,0.00113519
 ,0.00005140,0.00078529,0.00093543,-0.00046110,-0.00056061,0.00013389,-
 0.00039420,0.00093986,0.00019891,-0.00034029,-0.00090291,-0.00028430,0
 .00039406,0.00171228,-0.00124945,-0.00032894,-0.00112700,-0.00153022,-
 0.00068333,-0.00007581,0.00030326,0.00048820,-0.00110989,-0.00165199,-
 0.00358369,0.08107152,0.00031630,0.00337786,0.00010396,0.00036027,0.00
 095557,-0.00853822,-0.00735787,-0.08919966,0.05470872,-0.01507780,0.01
 516520,-0.00104109,-0.00088301,0.00102656,-0.00115960,0.00083149,0.000
 19519,0.00010924,-0.00042248,0.00042116,-0.00013832,0.00051728,-0.0003
 7648,-0.00016795,-0.00020662,0.00051405,-0.00004211,0.00057189,-0.0015
 8569,0.00007049,-0.00039515,-0.00090223,-0.00088936,-0.00043038,0.0004
 9322,0.00109347,-0.00062230,0.00055196,-0.00190793,0.02499362,0.088489
 86,-0.00073779,0.00061422,0.00295451,-0.00598005,0.01222726,-0.0309812
 9,0.02015209,0.05544313,-0.12711244,0.02701875,-0.00126599,0.00254067,
 0.00659405,0.00059155,-0.00365394,-0.00035058,-0.00120215,0.00173241,-
 0.00037331,0.00025835,0.00058462,-0.00105679,-0.00137640,0.00034548,0.
 00162238,0.00097552,-0.00059807,-0.00224777,0.00136905,0.00094377,0.00
 117098,0.00106537,0.00010124,0.00016359,-0.00166010,0.00042904,-0.0015
 8278,-0.00196630,-0.00380644,-0.04225232,-0.06757020,0.15697295,0.0025
 4417,-0.00307325,-0.00297807,0.00582965,-0.00711444,0.00076122,-0.0603
 8821,0.03568692,0.00296718,-0.03517855,0.03652489,0.00909774,-0.000564
 50,-0.00065914,0.00123107,0.00055224,0.00071198,-0.00031393,-0.0002156
 4,-0.00052671,-0.00018255,0.00087635,0.00096324,-0.00018189,-0.0015878
 6,-0.00105350,0.00068634,0.00115312,0.00115920,-0.00053277,-0.00276015
 ,-0.00199728,-0.00217406,-0.00006823,0.00028990,-0.00024891,0.00050924
 ,-0.00002154,0.00002993,0.00715263,-0.00200828,-0.00195725,0.08295957,
 -0.00081022,-0.00213703,-0.00584143,-0.00249035,-0.01856156,0.00008609
 ,0.02997572,-0.17840818,-0.00362661,0.02623963,0.00785740,-0.00652215,
 0.00576072,0.00064303,-0.00208359,-0.00259102,-0.00185266,0.00085257,0
 .00224578,-0.00030554,-0.00032697,-0.00129982,0.00087695,0.00002076,0.
 00008687,0.00070836,0.00021063,-0.00083206,-0.00091694,0.00157176,0.00
 087911,0.00130962,0.00211927,-0.00005690,0.00111011,0.00020016,0.00067
 015,0.00188223,-0.00005018,0.00027222,-0.01983202,0.00293817,-0.057864
 64,0.20591547,-0.00125135,-0.00376302,-0.00413993,-0.00150969,-0.02492
 154,-0.00680928,0.00491309,-0.00127880,-0.04681797,0.00306814,-0.00660
 868,0.00737417,0.00454241,-0.00020700,-0.00156545,-0.00151232,-0.00097
 043,0.00087227,0.00140749,-0.00047176,-0.00001425,-0.00078381,0.000720
 39,0.00012960,0.00033032,-0.00011734,0.00043099,-0.00120097,0.00108556
 ,0.00006707,0.00033282,0.00001887,0.00090175,0.00002508,-0.00040563,-0
 .00021933,0.00128846,0.00014001,0.00180217,-0.00336275,0.02527344,0.00
 008521,-0.00562267,0.01161923,0.04886511,-0.00142187,-0.00051094,0.000
 08141,-0.00077515,-0.00017489,-0.00148964,0.00017955,0.00018768,0.0004
 7694,-0.00034870,0.00014250,0.00011003,0.01241628,-0.01072679,-0.00045
 878,-0.12867901,0.12248315,0.01133534,-0.01159980,0.02761117,0.0006737
 7,-0.00423501,-0.00185788,0.00301855,-0.00017590,-0.00068651,0.0000451
 0,-0.00079118,-0.00225126,0.00196612,-0.00009074,-0.00006928,-0.000081
 47,-0.00283444,-0.00098910,-0.00030175,0.00034910,0.00033049,0.0001089
 1,0.00006276,-0.00001460,-0.00002531,0.00003752,0.00008824,0.00000423,
 0.13731254,0.00175059,0.00106489,0.00062241,0.00223004,-0.00130996,-0.
 00141342,0.00038853,-0.00023246,0.00106799,-0.00054209,0.00047572,0.00
 018641,0.01535002,-0.01955677,-0.00192807,0.12240501,-0.26159625,-0.00
 897425,-0.00295810,0.00353173,0.00053621,-0.00035778,0.00186054,0.0004
 8122,-0.00097232,0.00018609,0.00013894,-0.00359235,-0.00308631,0.00184
 739,-0.00033612,0.00034488,-0.00044764,-0.00110119,0.00064079,-0.00125
 786,-0.00009892,0.00021851,0.00001922,0.00016588,0.00026536,-0.0002190
 3,-0.00008089,0.00027047,-0.00009242,-0.13345791,0.27712121,-0.0001719
 0,-0.00030024,0.00066064,-0.00117186,-0.00036274,-0.00409348,-0.000669
 53,0.00005272,0.00154648,-0.00027404,-0.00019744,-0.00061506,-0.003545
 42,0.00630037,0.00479607,0.01227982,-0.01164022,-0.03726870,0.00323190
 ,-0.00618523,0.00251237,0.00259479,0.00049476,0.00602914,0.00027427,0.
 00038183,-0.00051550,0.00217141,0.00178114,0.00530167,0.00024505,-0.00
 009494,-0.00052541,-0.00033783,0.00024397,0.00066445,0.00063379,-0.000
 02315,0.00005121,0.00022077,0.00013771,-0.00043064,0.00016686,-0.00013
 540,-0.00013818,-0.01401145,0.01004486,0.02642425,0.00000860,0.0001828
 5,0.00008911,0.00046986,-0.00143617,0.00016318,0.00008816,0.00014381,0
 .00057159,-0.00034049,-0.00000447,-0.00018934,-0.00502080,0.00168237,0
 .00247660,-0.00853157,-0.02913484,0.00613175,-0.10840536,-0.10150482,0
 .02922264,0.01061609,0.01546285,-0.00370621,-0.00066689,0.00281718,0.0
 0140223,-0.00069798,0.00085504,-0.00005375,-0.00003308,-0.00001904,-0.
 00003206,0.00002947,-0.00001192,-0.00003913,-0.00041795,-0.00008399,0.
 00001474,0.00004836,0.00003437,-0.00014477,0.00002171,-0.00003290,-0.0
 0005475,0.00098455,0.00039626,-0.00137555,0.11074514,-0.00008325,0.000
 10801,0.00012158,0.00001515,-0.00037151,-0.00029103,0.00021598,0.00017
 800,0.00060637,-0.00040027,-0.00002144,-0.00011449,0.00038746,0.001984
 33,0.00052973,0.00151431,0.00152396,-0.00010529,-0.10120740,-0.2628848
 6,0.05014323,-0.01571723,-0.01863349,0.00621215,0.00477627,-0.00276245
 ,-0.00008189,0.00059574,0.00073853,-0.00031171,-0.00002386,-0.00006881
 ,-0.00005273,0.00003995,-0.00001624,-0.00000774,-0.00010597,-0.0000070
 8,0.00002048,0.00007478,0.00005957,-0.00012206,0.00001104,-0.00004718,
 -0.00007744,-0.00057009,0.00090793,-0.00052909,0.11095543,0.27933287,0
 .00020136,-0.00003983,-0.00012221,-0.00036556,0.00032897,-0.00012741,0
 .00006067,-0.00003898,0.00020750,0.00005060,0.00000355,0.00002622,0.00
 323828,0.00024633,0.00655423,0.00232033,0.00690721,0.00190535,0.029507
 11,0.04976460,-0.04822135,-0.00025654,-0.00079894,0.00294071,0.0012179
 4,0.00040964,0.00636922,-0.00009061,-0.00024352,-0.00053930,-0.0000715
 1,-0.00005147,0.00000909,-0.00004439,0.00000085,0.00003473,-0.00001183
 ,0.00001928,-0.00004671,0.00007174,0.00007217,-0.00003439,-0.00004892,
 0.00000920,-0.00009987,-0.00133963,-0.00052369,-0.00387565,-0.03315411
 ,-0.05559136,0.03926786,-0.00021844,0.00005666,0.00001246,-0.00006341,
 -0.00007665,-0.00027551,0.00019487,-0.00000034,0.00022112,-0.00037006,
 -0.00004082,-0.00006676,0.00092454,0.00001458,-0.00047474,0.00083710,0
 .00385456,0.00094593,-0.01292864,-0.00439410,0.00392076,-0.31138328,-0
 .00441426,0.06764367,-0.01062503,0.00354343,0.00236799,0.00119028,-0.0
 0304688,0.00166202,0.00003878,-0.00001812,-0.00000990,0.00006184,-0.00
 003293,0.00006589,-0.00000394,0.00001654,0.00001559,0.00002266,0.00002
 505,-0.00005784,-0.00003827,0.00001907,-0.00006096,-0.00068396,-0.0001
 6666,0.00031859,0.00077221,0.00029084,-0.00117747,0.33212965,0.0000783
 2,0.00011871,0.00004867,-0.00002256,-0.00001553,-0.00010939,0.00009324
 ,-0.00012707,0.00003543,-0.00007629,0.00006170,0.00002313,0.00003687,-
 0.00105573,0.00001645,0.00181563,-0.00416138,0.00081919,0.02686627,0.0
 0541994,-0.00685561,-0.00443782,-0.05824969,0.00451081,-0.02767916,0.0
 0446094,0.00618528,-0.00104740,-0.00437882,0.00161017,-0.00003267,0.00
 001695,-0.00002962,-0.00009577,0.00000308,-0.00008446,0.00005702,0.000
 06137,-0.00004880,0.00001483,0.00003879,-0.00004032,-0.00003631,0.0001
 1498,-0.00000532,0.00120747,0.00005936,-0.00019097,-0.00095367,0.00116
 313,-0.00037805,0.00475140,0.05525243,0.00006266,-0.00000364,-0.000128
 81,-0.00028101,-0.00020746,-0.00062469,-0.00012054,0.00001024,0.000055
 78,-0.00001948,-0.00005743,-0.00002315,-0.00025097,-0.00011339,-0.0008
 0116,0.00125469,0.00043113,0.00624030,0.00010340,0.00041349,0.00129018
 ,0.06743613,0.00439021,-0.04706761,0.00647440,-0.00094481,-0.00011237,
 0.00111580,0.00205913,0.00590280,0.00003221,0.00002030,0.00000509,-0.0
 0007300,-0.00003717,0.00002492,0.00009089,0.00018026,-0.00002375,0.000
 03433,0.00000515,0.00001397,-0.00001226,-0.00003847,-0.00012408,0.0001
 8929,0.00005697,0.00065921,-0.00099579,-0.00063055,-0.00371017,-0.0743
 3974,-0.00513127,0.04146284,-0.00066266,-0.00011508,0.00005875,0.00042
 342,0.00146904,-0.00017039,0.00002579,0.00020783,0.00030982,-0.0002070
 5,-0.00011514,-0.00013535,-0.00478233,-0.00187154,0.00288796,-0.000539
 21,-0.00092111,0.00012185,-0.00002758,-0.00221752,0.00187539,0.0104248
 5,-0.01303309,-0.00014584,-0.12945824,0.11901039,0.00743867,-0.0110008
 5,0.02879371,-0.00016639,-0.00004578,0.00017841,0.00001667,0.00004941,
 -0.00001069,-0.00001284,0.00001395,-0.00008135,0.00006657,0.00000610,-
 0.00000381,-0.00006070,0.00005979,-0.00015936,-0.00005377,-0.00004000,
 0.00009462,-0.00025984,0.00033819,-0.00065046,0.00010247,0.00071922,0.
 00066573,-0.00120050,0.13363939,0.00012936,-0.00000742,-0.00009551,0.0
 0008201,0.00005428,0.00031651,-0.00017905,-0.00026476,-0.00044110,0.00
 031716,0.00007021,0.00007879,-0.00044715,0.00179714,0.00087202,-0.0006
 8233,0.00065730,-0.00000096,-0.00418760,-0.00301530,0.00219179,0.01796
 432,-0.01842817,-0.00158009,0.11903667,-0.25345943,-0.00057822,-0.0019
 1796,0.00267461,0.00054834,-0.00000840,0.00000573,0.00001009,-0.000047
 97,0.00001819,0.00000294,0.00005258,0.00000251,-0.00005930,-0.00004058
 ,-0.00000867,0.00007610,-0.00006158,0.00009391,0.00005385,0.00006223,-
 0.00004612,-0.00013485,0.00078974,-0.00112627,-0.00000548,-0.00056363,
 0.00117210,-0.00049714,-0.13057286,0.26894663,0.00010137,0.00003379,-0
 .00015119,0.00006797,-0.00054276,0.00005811,-0.00021273,-0.00002203,0.
 00016773,0.00000632,0.00000939,-0.00008925,0.00292984,0.00113912,0.006
 78721,0.00024715,0.00011106,-0.00065409,0.00207730,0.00176068,0.005828
 78,-0.00418031,0.00578185,0.00294763,0.00761493,-0.00042402,-0.0374316
 7,0.00336876,-0.00695161,0.00334343,-0.00001296,-0.00004231,-0.0000899
 4,-0.00002954,0.00004838,0.00000338,0.00008058,0.00002397,-0.00000875,
 0.00003550,0.00004985,-0.00006064,-0.00000447,0.00002936,0.00000580,-0
 .00027189,-0.00011524,-0.00097847,-0.00009222,0.00036754,0.00047768,-0
 .00103012,-0.00081908,-0.00354208,-0.00947002,0.00000313,0.02740342,0.
 00029252,-0.00037066,-0.00001293,-0.00010669,0.00040620,-0.00126957,-0
 .00025269,0.00058171,-0.00014401,0.00008527,-0.00012336,0.00015278,0.0
 1122160,0.01428044,-0.00350015,-0.00125110,0.00284103,0.00112999,-0.00
 036757,0.00066144,-0.00004548,-0.00443855,0.00183915,0.00232518,-0.009
 22023,-0.02801410,0.00621475,-0.10983555,-0.10476019,0.03300475,-0.000
 10142,-0.00009119,-0.00006581,0.00006468,0.00002553,0.00001231,0.00018
 819,0.00004333,0.00036852,0.00003704,-0.00022797,0.00010541,-0.0008945
 4,-0.00010024,-0.00049900,0.00033345,0.00088338,-0.00031983,-0.0000082
 0,-0.00011842,-0.00020993,-0.00057610,-0.00120514,0.00049950,0.0010636
 0,0.00027505,-0.00122547,0.11376630,0.00036572,0.00047974,-0.00021428,
 -0.00158549,0.00042147,0.00066605,0.00079439,-0.00197915,-0.00077760,-
 0.00045329,0.00057082,0.00031780,-0.01422589,-0.01974838,0.00660888,0.
 00421917,-0.00285260,0.00004678,0.00090198,0.00023642,-0.00032462,0.00
 035443,0.00199406,0.00044954,0.00227586,0.00260410,-0.00099969,-0.1039
 6681,-0.26479275,0.05534995,-0.00008105,-0.00008134,-0.00010731,-0.000
 26176,0.00014247,-0.00016104,0.00076131,0.00032062,-0.00073432,0.00000
 423,0.00035042,-0.00013618,-0.00084959,0.00127860,0.00000804,-0.000803
 68,-0.00111961,0.00035692,-0.00013807,-0.00005702,-0.00009048,0.000182
 25,0.00004475,0.00009444,-0.00066772,0.00086354,-0.00044109,0.11317400
 ,0.28132385,0.00033090,-0.00013275,-0.00039957,-0.00123088,-0.00155333
 ,-0.00250772,-0.00006399,0.00147666,0.00088065,-0.00026464,-0.00056114
 ,-0.00025776,0.00160438,-0.00068495,0.00441930,0.00098617,0.00054244,0
 .00596931,0.00004834,-0.00061338,-0.00042081,0.00282883,0.00051347,0.0
 0617501,0.00238504,0.00709705,0.00153098,0.03179204,0.05479415,-0.0507
 5390,-0.00012589,-0.00012102,-0.00000520,-0.00000252,0.00010273,-0.000
 02802,0.00010569,0.00068652,-0.00039202,-0.00004237,-0.00016942,-0.000
 02603,-0.00068258,-0.00103241,-0.00060579,-0.00002979,-0.00003000,-0.0
 0020439,-0.00023417,-0.00008568,-0.00101554,0.00031899,0.00044377,0.00
 050279,-0.00120253,-0.00076092,-0.00401709,-0.03652101,-0.05991178,0.0
 4115580\\0.00003527,0.00000439,0.00001737,-0.00000097,0.00002085,0.000
 01401,0.00002613,-0.00001487,-0.00001646,-0.00001363,0.00000841,0.0000
 0131,-0.00001355,-0.00000382,0.00000753,0.00001045,0.00000055,-0.00000
 900,-0.00000344,-0.00000313,0.00000317,-0.00000131,-0.00000124,0.00000
 205,0.00000409,0.00000110,-0.00000268,-0.00000535,0.00000471,-0.000000
 81,-0.00002373,-0.00001686,-0.00001254,0.00000130,0.00000070,-0.000008
 02,-0.00000039,-0.00000003,-0.00000108,-0.00001448,-0.00000628,0.00000
 458,0.00000062,0.00000338,-0.00000277,-0.00000141,0.00000344,0.0000023
 3,-0.00000009,0.00000054,-0.00000404,0.00000032,-0.00000072,-0.0000008
 4,-0.00000016,-0.00000075,0.00000258,0.00000034,-0.00000038,0.00000329
 \\\@
 The archive entry for this job was punched.


 THE CAUTIOUS SELDOM ERR...CONFUCIUS                   
 Job cpu time:       0 days  0 hours 11 minutes 44.7 seconds.
 Elapsed time:       0 days  0 hours  0 minutes 18.0 seconds.
 File lengths (MBytes):  RWF=     68 Int=      0 D2E=      0 Chk=      4 Scr=      1
 Normal termination of Gaussian 16 at Mon Feb 26 05:08:48 2024.
