 Entering Gaussian System, Link 0=g16
 Initial command:
 /public/apps/g16-C01//g16/l1.exe "/public/home/ljq/tmp/Gau-107854.inp" -scrdir="/public/home/ljq/tmp/"
 Entering Link 1 = /public/apps/g16-C01//g16/l1.exe PID=    107855.
  
 Copyright (c) 1988-2019, Gaussian, Inc.  All Rights Reserved.
  
 This is part of the Gaussian(R) 16 program.  It is based on
 the Gaussian(R) 09 system (copyright 2009, Gaussian, Inc.),
 the Gaussian(R) 03 system (copyright 2003, Gaussian, Inc.),
 the Gaussian(R) 98 system (copyright 1998, Gaussian, Inc.),
 the Gaussian(R) 94 system (copyright 1995, Gaussian, Inc.),
 the Gaussian 92(TM) system (copyright 1992, Gaussian, Inc.),
 the Gaussian 90(TM) system (copyright 1990, Gaussian, Inc.),
 the Gaussian 88(TM) system (copyright 1988, Gaussian, Inc.),
 the Gaussian 86(TM) system (copyright 1986, Carnegie Mellon
 University), and the Gaussian 82(TM) system (copyright 1983,
 Carnegie Mellon University). Gaussian is a federally registered
 trademark of Gaussian, Inc.
  
 This software contains proprietary and confidential information,
 including trade secrets, belonging to Gaussian, Inc.
  
 This software is provided under written license and may be
 used, copied, transmitted, or stored only in accord with that
 written license.
  
 The following legend is applicable only to US Government
 contracts under FAR:
  
                    RESTRICTED RIGHTS LEGEND
  
 Use, reproduction and disclosure by the US Government is
 subject to restrictions as set forth in subparagraphs (a)
 and (c) of the Commercial Computer Software - Restricted
 Rights clause in FAR 52.227-19.
  
 Gaussian, Inc.
 340 Quinnipiac St., Bldg. 40, Wallingford CT 06492
  
  
 ---------------------------------------------------------------
 Warning -- This program may not be used in any manner that
 competes with the business of Gaussian, Inc. or will provide
 assistance to any competitor of Gaussian, Inc.  The licensee
 of this program is prohibited from giving any competitor of
 Gaussian, Inc. access to this program.  By using this program,
 the user acknowledges that Gaussian, Inc. is engaged in the
 business of creating and licensing software in the field of
 computational chemistry and represents and warrants to the
 licensee that it is not a competitor of Gaussian, Inc. and that
 it will not use this program in any manner prohibited above.
 ---------------------------------------------------------------
  

 Cite this work as:
 Gaussian 16, Revision C.01,
 M. J. Frisch, G. W. Trucks, H. B. Schlegel, G. E. Scuseria, 
 M. A. Robb, J. R. Cheeseman, G. Scalmani, V. Barone, 
 G. A. Petersson, H. Nakatsuji, X. Li, M. Caricato, A. V. Marenich, 
 J. Bloino, B. G. Janesko, R. Gomperts, B. Mennucci, H. P. Hratchian, 
 J. V. Ortiz, A. F. Izmaylov, J. L. Sonnenberg, D. Williams-Young, 
 F. Ding, F. Lipparini, F. Egidi, J. Goings, B. Peng, A. Petrone, 
 T. Henderson, D. Ranasinghe, V. G. Zakrzewski, J. Gao, N. Rega, 
 G. Zheng, W. Liang, M. Hada, M. Ehara, K. Toyota, R. Fukuda, 
 J. Hasegawa, M. Ishida, T. Nakajima, Y. Honda, O. Kitao, H. Nakai, 
 T. Vreven, K. Throssell, J. A. Montgomery, Jr., J. E. Peralta, 
 F. Ogliaro, M. J. Bearpark, J. J. Heyd, E. N. Brothers, K. N. Kudin, 
 V. N. Staroverov, T. A. Keith, R. Kobayashi, J. Normand, 
 K. Raghavachari, A. P. Rendell, J. C. Burant, S. S. Iyengar, 
 J. Tomasi, M. Cossi, J. M. Millam, M. Klene, C. Adamo, R. Cammi, 
 J. W. Ochterski, R. L. Martin, K. Morokuma, O. Farkas, 
 J. B. Foresman, and D. J. Fox, Gaussian, Inc., Wallingford CT, 2019.
 
 ******************************************
 Gaussian 16:  ES64L-G16RevC.01  3-Jul-2019
                26-Feb-2024 
 ******************************************
 %nproc=40
 Will use up to   40 processors via shared memory.
 %mem=56GB
 ------------------------------------------
 #p opt freq b3lyp/def2svpp em=gd3bj nosymm
 ------------------------------------------
 1/18=20,19=15,26=3,38=1/1,3;
 2/9=110,12=2,15=1,17=6,18=5,40=1/2;
 3/5=43,7=202,11=2,25=1,30=1,71=1,74=-5,124=41/1,2,3;
 4//1;
 5/5=2,38=5/2;
 6/7=2,8=2,9=2,10=2,28=1/1;
 7/30=1/1,2,3,16;
 1/18=20,19=15,26=3/3(2);
 2/9=110,15=1/2;
 99//99;
 2/9=110,15=1/2;
 3/5=43,7=202,11=2,25=1,30=1,71=1,74=-5,124=41/1,2,3;
 4/5=5,16=3,69=1/1;
 5/5=2,38=5/2;
 7/30=1/1,2,3,16;
 1/18=20,19=15,26=3/3(-5);
 2/9=110,15=1/2;
 6/7=2,8=2,9=2,10=2,19=2,28=1/1;
 99/9=1/99;
 Leave Link    1 at Mon Feb 26 06:07:21 2024, MaxMem=  7516192768 cpu:               2.6 elap:               0.1
 (Enter /public/apps/g16-C01//g16/l101.exe)
 ----------------------
 $$$$Singlemol####0????
 ----------------------
 Symbolic Z-matrix:
 Charge =  0 Multiplicity = 1
 C                     2.88782  -1.78486   2.67004 
 C                     4.11378  -1.10726   2.06172 
 N                     4.20776  -1.39888   0.64069 
 C                     4.78363  -2.69876   0.33045 
 C                     3.954    -3.42598  -0.72716 
 C                     4.68972  -0.32233  -0.21087 
 C                     6.01464   0.33914   0.19169 
 C                     6.42964   1.34301  -0.88113 
 C                     5.34445   2.39659  -1.08881 
 C                     4.01083   1.74799  -1.44834 
 C                     3.61119   0.76154  -0.34924 
 N                     2.35167   0.10315  -0.63095 
 C                     1.16055   0.61985  -0.27431 
 S                     1.0224    2.17616   0.25036 
 N                     0.11781  -0.27157  -0.39849 
 C                    -1.24564  -0.12742  -0.25576 
 C                    -2.0197   -1.28887  -0.35475 
 C                    -3.39527  -1.23162  -0.22164 
 C                    -4.18035  -2.50698  -0.36125 
 F                    -4.32846  -2.86231  -1.6525 
 F                    -3.57221  -3.54611   0.23699 
 F                    -5.40947  -2.43127   0.15569 
 C                    -4.04752  -0.02773   0.00181 
 C                    -3.27382   1.12096   0.08611 
 C                    -3.93716   2.44778   0.34817 
 F                    -5.24248   2.44424   0.04289 
 F                    -3.85443   2.79937   1.64378 
 F                    -3.38422   3.44646  -0.35214 
 C                    -1.89463   1.08909  -0.03505 
 H                     1.98152  -1.40757   2.20232 
 H                     2.92653  -2.86232   2.53164 
 H                     2.83914  -1.57563   3.73525 
 H                     5.01852  -1.42326   2.60329 
 H                     4.0087   -0.03026   2.19257 
 H                     4.79841  -3.30278   1.23914 
 H                     5.82171  -2.60784  -0.0196 
 H                     3.92324  -2.86094  -1.65655 
 H                     2.93658  -3.56993  -0.37039 
 H                     4.38755  -4.40035  -0.93612 
 H                     4.82744  -0.76499  -1.20519 
 H                     6.7866   -0.42439   0.31069 
 H                     5.89988   0.85217   1.14771 
 H                     7.36327   1.82759  -0.58987 
 H                     6.60767   0.81504  -1.82114 
 H                     5.64322   3.0836   -1.88181 
 H                     5.2224    2.97721  -0.17236 
 H                     4.09272   1.21831  -2.39985 
 H                     3.23716   2.50961  -1.54638 
 H                     3.50033   1.32546   0.58564 
 H                     2.44416  -0.90235  -0.71806 
 H                     0.39924  -1.21649  -0.63536 
 H                    -1.54476  -2.24361  -0.53082 
 H                    -5.11989   0.01235   0.10357 
 H                    -1.32396   2.00091   0.03904 
 
 ITRead=  0  0  0  0  0  0  0  0  0  0  0  0  0  0  0  0  0  0  0  0
 ITRead=  0  0  0  0  0  0  0  0  0  0  0  0  0  0  0  0  0  0  0  0
 ITRead=  0  0  0  0  0  0  0  0  0  0  0  0  0  0
 MicOpt= -1 -1 -1 -1 -1 -1 -1 -1 -1 -1 -1 -1 -1 -1 -1 -1 -1 -1 -1 -1
 MicOpt= -1 -1 -1 -1 -1 -1 -1 -1 -1 -1 -1 -1 -1 -1 -1 -1 -1 -1 -1 -1
 MicOpt= -1 -1 -1 -1 -1 -1 -1 -1 -1 -1 -1 -1 -1 -1
 NAtoms=     54 NQM=       54 NQMF=       0 NMMI=      0 NMMIF=      0
                NMic=       0 NMicF=      0.
                    Isotopes and Nuclear Properties:
 (Nuclear quadrupole moments (NQMom) in fm**2, nuclear magnetic moments (NMagM)
  in nuclear magnetons)

  Atom         1           2           3           4           5           6           7           8           9          10
 IAtWgt=          12          12          14          12          12          12          12          12          12          12
 AtmWgt=  12.0000000  12.0000000  14.0030740  12.0000000  12.0000000  12.0000000  12.0000000  12.0000000  12.0000000  12.0000000
 NucSpn=           0           0           2           0           0           0           0           0           0           0
 AtZEff=  -0.0000000  -0.0000000  -0.0000000  -0.0000000  -0.0000000  -0.0000000  -0.0000000  -0.0000000  -0.0000000  -0.0000000
 NQMom=    0.0000000   0.0000000   2.0440000   0.0000000   0.0000000   0.0000000   0.0000000   0.0000000   0.0000000   0.0000000
 NMagM=    0.0000000   0.0000000   0.4037610   0.0000000   0.0000000   0.0000000   0.0000000   0.0000000   0.0000000   0.0000000
 AtZNuc=   6.0000000   6.0000000   7.0000000   6.0000000   6.0000000   6.0000000   6.0000000   6.0000000   6.0000000   6.0000000

  Atom        11          12          13          14          15          16          17          18          19          20
 IAtWgt=          12          14          12          32          14          12          12          12          12          19
 AtmWgt=  12.0000000  14.0030740  12.0000000  31.9720718  14.0030740  12.0000000  12.0000000  12.0000000  12.0000000  18.9984032
 NucSpn=           0           2           0           0           2           0           0           0           0           1
 AtZEff=  -0.0000000  -0.0000000  -0.0000000  -0.0000000  -0.0000000  -0.0000000  -0.0000000  -0.0000000  -0.0000000  -0.0000000
 NQMom=    0.0000000   2.0440000   0.0000000   0.0000000   2.0440000   0.0000000   0.0000000   0.0000000   0.0000000   0.0000000
 NMagM=    0.0000000   0.4037610   0.0000000   0.0000000   0.4037610   0.0000000   0.0000000   0.0000000   0.0000000   2.6288670
 AtZNuc=   6.0000000   7.0000000   6.0000000  16.0000000   7.0000000   6.0000000   6.0000000   6.0000000   6.0000000   9.0000000

  Atom        21          22          23          24          25          26          27          28          29          30
 IAtWgt=          19          19          12          12          12          19          19          19          12           1
 AtmWgt=  18.9984032  18.9984032  12.0000000  12.0000000  12.0000000  18.9984032  18.9984032  18.9984032  12.0000000   1.0078250
 NucSpn=           1           1           0           0           0           1           1           1           0           1
 AtZEff=  -0.0000000  -0.0000000  -0.0000000  -0.0000000  -0.0000000  -0.0000000  -0.0000000  -0.0000000  -0.0000000  -0.0000000
 NQMom=    0.0000000   0.0000000   0.0000000   0.0000000   0.0000000   0.0000000   0.0000000   0.0000000   0.0000000   0.0000000
 NMagM=    2.6288670   2.6288670   0.0000000   0.0000000   0.0000000   2.6288670   2.6288670   2.6288670   0.0000000   2.7928460
 AtZNuc=   9.0000000   9.0000000   6.0000000   6.0000000   6.0000000   9.0000000   9.0000000   9.0000000   6.0000000   1.0000000

  Atom        31          32          33          34          35          36          37          38          39          40
 IAtWgt=           1           1           1           1           1           1           1           1           1           1
 AtmWgt=   1.0078250   1.0078250   1.0078250   1.0078250   1.0078250   1.0078250   1.0078250   1.0078250   1.0078250   1.0078250
 NucSpn=           1           1           1           1           1           1           1           1           1           1
 AtZEff=  -0.0000000  -0.0000000  -0.0000000  -0.0000000  -0.0000000  -0.0000000  -0.0000000  -0.0000000  -0.0000000  -0.0000000
 NQMom=    0.0000000   0.0000000   0.0000000   0.0000000   0.0000000   0.0000000   0.0000000   0.0000000   0.0000000   0.0000000
 NMagM=    2.7928460   2.7928460   2.7928460   2.7928460   2.7928460   2.7928460   2.7928460   2.7928460   2.7928460   2.7928460
 AtZNuc=   1.0000000   1.0000000   1.0000000   1.0000000   1.0000000   1.0000000   1.0000000   1.0000000   1.0000000   1.0000000

  Atom        41          42          43          44          45          46          47          48          49          50
 IAtWgt=           1           1           1           1           1           1           1           1           1           1
 AtmWgt=   1.0078250   1.0078250   1.0078250   1.0078250   1.0078250   1.0078250   1.0078250   1.0078250   1.0078250   1.0078250
 NucSpn=           1           1           1           1           1           1           1           1           1           1
 AtZEff=  -0.0000000  -0.0000000  -0.0000000  -0.0000000  -0.0000000  -0.0000000  -0.0000000  -0.0000000  -0.0000000  -0.0000000
 NQMom=    0.0000000   0.0000000   0.0000000   0.0000000   0.0000000   0.0000000   0.0000000   0.0000000   0.0000000   0.0000000
 NMagM=    2.7928460   2.7928460   2.7928460   2.7928460   2.7928460   2.7928460   2.7928460   2.7928460   2.7928460   2.7928460
 AtZNuc=   1.0000000   1.0000000   1.0000000   1.0000000   1.0000000   1.0000000   1.0000000   1.0000000   1.0000000   1.0000000

  Atom        51          52          53          54
 IAtWgt=           1           1           1           1
 AtmWgt=   1.0078250   1.0078250   1.0078250   1.0078250
 NucSpn=           1           1           1           1
 AtZEff=  -0.0000000  -0.0000000  -0.0000000  -0.0000000
 NQMom=    0.0000000   0.0000000   0.0000000   0.0000000
 NMagM=    2.7928460   2.7928460   2.7928460   2.7928460
 AtZNuc=   1.0000000   1.0000000   1.0000000   1.0000000
 Leave Link  101 at Mon Feb 26 06:07:21 2024, MaxMem=  7516192768 cpu:               6.2 elap:               0.2
 (Enter /public/apps/g16-C01//g16/l103.exe)

 GradGradGradGradGradGradGradGradGradGradGradGradGradGradGradGradGradGrad
 Berny optimization.
 Initialization pass.
                           ----------------------------
                           !    Initial Parameters    !
                           ! (Angstroms and Degrees)  !
 --------------------------                            --------------------------
 ! Name  Definition              Value          Derivative Info.                !
 --------------------------------------------------------------------------------
 ! R1    R(1,2)                  1.5271         estimate D2E/DX2                !
 ! R2    R(1,30)                 1.0874         estimate D2E/DX2                !
 ! R3    R(1,31)                 1.087          estimate D2E/DX2                !
 ! R4    R(1,32)                 1.0867         estimate D2E/DX2                !
 ! R5    R(2,3)                  1.4537         estimate D2E/DX2                !
 ! R6    R(2,33)                 1.1008         estimate D2E/DX2                !
 ! R7    R(2,34)                 1.09           estimate D2E/DX2                !
 ! R8    R(3,4)                  1.4552         estimate D2E/DX2                !
 ! R9    R(3,6)                  1.4548         estimate D2E/DX2                !
 ! R10   R(4,5)                  1.5283         estimate D2E/DX2                !
 ! R11   R(4,35)                 1.0912         estimate D2E/DX2                !
 ! R12   R(4,36)                 1.0993         estimate D2E/DX2                !
 ! R13   R(5,37)                 1.0881         estimate D2E/DX2                !
 ! R14   R(5,38)                 1.0877         estimate D2E/DX2                !
 ! R15   R(5,39)                 1.0867         estimate D2E/DX2                !
 ! R16   R(6,7)                  1.5346         estimate D2E/DX2                !
 ! R17   R(6,11)                 1.5353         estimate D2E/DX2                !
 ! R18   R(6,40)                 1.0971         estimate D2E/DX2                !
 ! R19   R(7,8)                  1.5267         estimate D2E/DX2                !
 ! R20   R(7,41)                 1.0923         estimate D2E/DX2                !
 ! R21   R(7,42)                 1.091          estimate D2E/DX2                !
 ! R22   R(8,9)                  1.5267         estimate D2E/DX2                !
 ! R23   R(8,43)                 1.0915         estimate D2E/DX2                !
 ! R24   R(8,44)                 1.0927         estimate D2E/DX2                !
 ! R25   R(9,10)                 1.5259         estimate D2E/DX2                !
 ! R26   R(9,45)                 1.0909         estimate D2E/DX2                !
 ! R27   R(9,46)                 1.0917         estimate D2E/DX2                !
 ! R28   R(10,11)                1.53           estimate D2E/DX2                !
 ! R29   R(10,47)                1.0921         estimate D2E/DX2                !
 ! R30   R(10,48)                1.0901         estimate D2E/DX2                !
 ! R31   R(11,12)                1.4489         estimate D2E/DX2                !
 ! R32   R(11,49)                1.0974         estimate D2E/DX2                !
 ! R33   R(12,13)                1.3465         estimate D2E/DX2                !
 ! R34   R(12,50)                1.0135         estimate D2E/DX2                !
 ! R35   R(13,14)                1.6482         estimate D2E/DX2                !
 ! R36   R(13,15)                1.3774         estimate D2E/DX2                !
 ! R37   R(15,16)                1.3785         estimate D2E/DX2                !
 ! R38   R(15,51)                1.014          estimate D2E/DX2                !
 ! R39   R(16,17)                1.3993         estimate D2E/DX2                !
 ! R40   R(16,29)                1.3963         estimate D2E/DX2                !
 ! R41   R(17,18)                1.3832         estimate D2E/DX2                !
 ! R42   R(17,52)                1.0808         estimate D2E/DX2                !
 ! R43   R(18,19)                1.5041         estimate D2E/DX2                !
 ! R44   R(18,23)                1.3873         estimate D2E/DX2                !
 ! R45   R(19,20)                1.3474         estimate D2E/DX2                !
 ! R46   R(19,21)                1.3444         estimate D2E/DX2                !
 ! R47   R(19,22)                1.3355         estimate D2E/DX2                !
 ! R48   R(23,24)                1.3875         estimate D2E/DX2                !
 ! R49   R(23,53)                1.0779         estimate D2E/DX2                !
 ! R50   R(24,25)                1.5064         estimate D2E/DX2                !
 ! R51   R(24,29)                1.3849         estimate D2E/DX2                !
 ! R52   R(25,26)                1.3405         estimate D2E/DX2                !
 ! R53   R(25,27)                1.345          estimate D2E/DX2                !
 ! R54   R(25,28)                1.3392         estimate D2E/DX2                !
 ! R55   R(29,54)                1.0782         estimate D2E/DX2                !
 ! A1    A(2,1,30)             110.1083         estimate D2E/DX2                !
 ! A2    A(2,1,31)             111.131          estimate D2E/DX2                !
 ! A3    A(2,1,32)             109.9383         estimate D2E/DX2                !
 ! A4    A(30,1,31)            108.5914         estimate D2E/DX2                !
 ! A5    A(30,1,32)            108.5113         estimate D2E/DX2                !
 ! A6    A(31,1,32)            108.4973         estimate D2E/DX2                !
 ! A7    A(1,2,3)              110.6266         estimate D2E/DX2                !
 ! A8    A(1,2,33)             109.6617         estimate D2E/DX2                !
 ! A9    A(1,2,34)             108.2521         estimate D2E/DX2                !
 ! A10   A(3,2,33)             111.7294         estimate D2E/DX2                !
 ! A11   A(3,2,34)             108.7711         estimate D2E/DX2                !
 ! A12   A(33,2,34)            107.6873         estimate D2E/DX2                !
 ! A13   A(2,3,4)              114.4048         estimate D2E/DX2                !
 ! A14   A(2,3,6)              116.4341         estimate D2E/DX2                !
 ! A15   A(4,3,6)              113.8993         estimate D2E/DX2                !
 ! A16   A(3,4,5)              110.9631         estimate D2E/DX2                !
 ! A17   A(3,4,35)             108.8012         estimate D2E/DX2                !
 ! A18   A(3,4,36)             111.5747         estimate D2E/DX2                !
 ! A19   A(5,4,35)             108.6764         estimate D2E/DX2                !
 ! A20   A(5,4,36)             109.3667         estimate D2E/DX2                !
 ! A21   A(35,4,36)            107.3471         estimate D2E/DX2                !
 ! A22   A(4,5,37)             111.0589         estimate D2E/DX2                !
 ! A23   A(4,5,38)             110.1057         estimate D2E/DX2                !
 ! A24   A(4,5,39)             110.0679         estimate D2E/DX2                !
 ! A25   A(37,5,38)            108.8097         estimate D2E/DX2                !
 ! A26   A(37,5,39)            108.2179         estimate D2E/DX2                !
 ! A27   A(38,5,39)            108.5162         estimate D2E/DX2                !
 ! A28   A(3,6,7)              116.8368         estimate D2E/DX2                !
 ! A29   A(3,6,11)             110.0257         estimate D2E/DX2                !
 ! A30   A(3,6,40)             105.874          estimate D2E/DX2                !
 ! A31   A(7,6,11)             109.0171         estimate D2E/DX2                !
 ! A32   A(7,6,40)             107.6551         estimate D2E/DX2                !
 ! A33   A(11,6,40)            106.9388         estimate D2E/DX2                !
 ! A34   A(6,7,8)              109.4977         estimate D2E/DX2                !
 ! A35   A(6,7,41)             109.7215         estimate D2E/DX2                !
 ! A36   A(6,7,42)             109.9824         estimate D2E/DX2                !
 ! A37   A(8,7,41)             110.1258         estimate D2E/DX2                !
 ! A38   A(8,7,42)             109.5807         estimate D2E/DX2                !
 ! A39   A(41,7,42)            107.9133         estimate D2E/DX2                !
 ! A40   A(7,8,9)              110.8635         estimate D2E/DX2                !
 ! A41   A(7,8,43)             109.6894         estimate D2E/DX2                !
 ! A42   A(7,8,44)             109.3337         estimate D2E/DX2                !
 ! A43   A(9,8,43)             109.7511         estimate D2E/DX2                !
 ! A44   A(9,8,44)             109.4032         estimate D2E/DX2                !
 ! A45   A(43,8,44)            107.7403         estimate D2E/DX2                !
 ! A46   A(8,9,10)             111.0972         estimate D2E/DX2                !
 ! A47   A(8,9,45)             109.805          estimate D2E/DX2                !
 ! A48   A(8,9,46)             109.4079         estimate D2E/DX2                !
 ! A49   A(10,9,45)            109.6187         estimate D2E/DX2                !
 ! A50   A(10,9,46)            109.0339         estimate D2E/DX2                !
 ! A51   A(45,9,46)            107.8116         estimate D2E/DX2                !
 ! A52   A(9,10,11)            109.4554         estimate D2E/DX2                !
 ! A53   A(9,10,47)            110.2369         estimate D2E/DX2                !
 ! A54   A(9,10,48)            110.1515         estimate D2E/DX2                !
 ! A55   A(11,10,47)           109.4377         estimate D2E/DX2                !
 ! A56   A(11,10,48)           109.2512         estimate D2E/DX2                !
 ! A57   A(47,10,48)           108.2849         estimate D2E/DX2                !
 ! A58   A(6,11,10)            109.6593         estimate D2E/DX2                !
 ! A59   A(6,11,12)            107.9031         estimate D2E/DX2                !
 ! A60   A(6,11,49)            110.9138         estimate D2E/DX2                !
 ! A61   A(10,11,12)           112.3566         estimate D2E/DX2                !
 ! A62   A(10,11,49)           107.8819         estimate D2E/DX2                !
 ! A63   A(12,11,49)           108.1392         estimate D2E/DX2                !
 ! A64   A(11,12,13)           122.8978         estimate D2E/DX2                !
 ! A65   A(11,12,50)           112.8426         estimate D2E/DX2                !
 ! A66   A(13,12,50)           118.9615         estimate D2E/DX2                !
 ! A67   A(12,13,14)           121.3879         estimate D2E/DX2                !
 ! A68   A(12,13,15)           113.419          estimate D2E/DX2                !
 ! A69   A(14,13,15)           125.1931         estimate D2E/DX2                !
 ! A70   A(13,15,16)           132.203          estimate D2E/DX2                !
 ! A71   A(13,15,51)           114.4583         estimate D2E/DX2                !
 ! A72   A(16,15,51)           113.3378         estimate D2E/DX2                !
 ! A73   A(15,16,17)           116.9391         estimate D2E/DX2                !
 ! A74   A(15,16,29)           124.554          estimate D2E/DX2                !
 ! A75   A(17,16,29)           118.5037         estimate D2E/DX2                !
 ! A76   A(16,17,18)           120.5961         estimate D2E/DX2                !
 ! A77   A(16,17,52)           120.111          estimate D2E/DX2                !
 ! A78   A(18,17,52)           119.2918         estimate D2E/DX2                !
 ! A79   A(17,18,19)           118.3632         estimate D2E/DX2                !
 ! A80   A(17,18,23)           121.2637         estimate D2E/DX2                !
 ! A81   A(19,18,23)           120.3538         estimate D2E/DX2                !
 ! A82   A(18,19,20)           111.7109         estimate D2E/DX2                !
 ! A83   A(18,19,21)           112.2073         estimate D2E/DX2                !
 ! A84   A(18,19,22)           113.3515         estimate D2E/DX2                !
 ! A85   A(20,19,21)           105.8022         estimate D2E/DX2                !
 ! A86   A(20,19,22)           106.5416         estimate D2E/DX2                !
 ! A87   A(21,19,22)           106.7309         estimate D2E/DX2                !
 ! A88   A(18,23,24)           117.7766         estimate D2E/DX2                !
 ! A89   A(18,23,53)           121.0102         estimate D2E/DX2                !
 ! A90   A(24,23,53)           121.213          estimate D2E/DX2                !
 ! A91   A(23,24,25)           119.6181         estimate D2E/DX2                !
 ! A92   A(23,24,29)           122.0704         estimate D2E/DX2                !
 ! A93   A(25,24,29)           118.297          estimate D2E/DX2                !
 ! A94   A(24,25,26)           112.7585         estimate D2E/DX2                !
 ! A95   A(24,25,27)           111.7609         estimate D2E/DX2                !
 ! A96   A(24,25,28)           112.5847         estimate D2E/DX2                !
 ! A97   A(26,25,27)           106.2569         estimate D2E/DX2                !
 ! A98   A(26,25,28)           106.5536         estimate D2E/DX2                !
 ! A99   A(27,25,28)           106.4619         estimate D2E/DX2                !
 ! A100  A(16,29,24)           119.785          estimate D2E/DX2                !
 ! A101  A(16,29,54)           120.1076         estimate D2E/DX2                !
 ! A102  A(24,29,54)           120.1073         estimate D2E/DX2                !
 ! D1    D(30,1,2,3)           -61.5932         estimate D2E/DX2                !
 ! D2    D(30,1,2,33)          174.7262         estimate D2E/DX2                !
 ! D3    D(30,1,2,34)           57.4966         estimate D2E/DX2                !
 ! D4    D(31,1,2,3)            58.7704         estimate D2E/DX2                !
 ! D5    D(31,1,2,33)          -64.9101         estimate D2E/DX2                !
 ! D6    D(31,1,2,34)          177.8603         estimate D2E/DX2                !
 ! D7    D(32,1,2,3)           178.904          estimate D2E/DX2                !
 ! D8    D(32,1,2,33)           55.2234         estimate D2E/DX2                !
 ! D9    D(32,1,2,34)          -62.0062         estimate D2E/DX2                !
 ! D10   D(1,2,3,4)            -80.594          estimate D2E/DX2                !
 ! D11   D(1,2,3,6)            143.1537         estimate D2E/DX2                !
 ! D12   D(33,2,3,4)            41.8873         estimate D2E/DX2                !
 ! D13   D(33,2,3,6)           -94.365          estimate D2E/DX2                !
 ! D14   D(34,2,3,4)           160.6306         estimate D2E/DX2                !
 ! D15   D(34,2,3,6)            24.3783         estimate D2E/DX2                !
 ! D16   D(2,3,4,5)            133.8408         estimate D2E/DX2                !
 ! D17   D(2,3,4,35)            14.3237         estimate D2E/DX2                !
 ! D18   D(2,3,4,36)          -103.926          estimate D2E/DX2                !
 ! D19   D(6,3,4,5)            -88.7888         estimate D2E/DX2                !
 ! D20   D(6,3,4,35)           151.694          estimate D2E/DX2                !
 ! D21   D(6,3,4,36)            33.4444         estimate D2E/DX2                !
 ! D22   D(2,3,6,7)             52.3506         estimate D2E/DX2                !
 ! D23   D(2,3,6,11)           -72.6152         estimate D2E/DX2                !
 ! D24   D(2,3,6,40)           172.1684         estimate D2E/DX2                !
 ! D25   D(4,3,6,7)            -84.1178         estimate D2E/DX2                !
 ! D26   D(4,3,6,11)           150.9164         estimate D2E/DX2                !
 ! D27   D(4,3,6,40)            35.7            estimate D2E/DX2                !
 ! D28   D(3,4,5,37)            61.0728         estimate D2E/DX2                !
 ! D29   D(3,4,5,38)           -59.5159         estimate D2E/DX2                !
 ! D30   D(3,4,5,39)          -179.1043         estimate D2E/DX2                !
 ! D31   D(35,4,5,37)         -179.3354         estimate D2E/DX2                !
 ! D32   D(35,4,5,38)           60.0759         estimate D2E/DX2                !
 ! D33   D(35,4,5,39)          -59.5125         estimate D2E/DX2                !
 ! D34   D(36,4,5,37)          -62.436          estimate D2E/DX2                !
 ! D35   D(36,4,5,38)          176.9753         estimate D2E/DX2                !
 ! D36   D(36,4,5,39)           57.3869         estimate D2E/DX2                !
 ! D37   D(3,6,7,8)            174.5076         estimate D2E/DX2                !
 ! D38   D(3,6,7,41)            53.5312         estimate D2E/DX2                !
 ! D39   D(3,6,7,42)           -65.0252         estimate D2E/DX2                !
 ! D40   D(11,6,7,8)           -60.0201         estimate D2E/DX2                !
 ! D41   D(11,6,7,41)          179.0035         estimate D2E/DX2                !
 ! D42   D(11,6,7,42)           60.4471         estimate D2E/DX2                !
 ! D43   D(40,6,7,8)            55.6444         estimate D2E/DX2                !
 ! D44   D(40,6,7,41)          -65.332          estimate D2E/DX2                !
 ! D45   D(40,6,7,42)          176.1116         estimate D2E/DX2                !
 ! D46   D(3,6,11,10)         -169.1483         estimate D2E/DX2                !
 ! D47   D(3,6,11,12)          -46.473          estimate D2E/DX2                !
 ! D48   D(3,6,11,49)           71.8014         estimate D2E/DX2                !
 ! D49   D(7,6,11,10)           61.516          estimate D2E/DX2                !
 ! D50   D(7,6,11,12)         -175.8087         estimate D2E/DX2                !
 ! D51   D(7,6,11,49)          -57.5343         estimate D2E/DX2                !
 ! D52   D(40,6,11,10)         -54.608          estimate D2E/DX2                !
 ! D53   D(40,6,11,12)          68.0673         estimate D2E/DX2                !
 ! D54   D(40,6,11,49)        -173.6583         estimate D2E/DX2                !
 ! D55   D(6,7,8,9)             57.6923         estimate D2E/DX2                !
 ! D56   D(6,7,8,43)           179.0574         estimate D2E/DX2                !
 ! D57   D(6,7,8,44)           -63.0045         estimate D2E/DX2                !
 ! D58   D(41,7,8,9)           178.4234         estimate D2E/DX2                !
 ! D59   D(41,7,8,43)          -60.2115         estimate D2E/DX2                !
 ! D60   D(41,7,8,44)           57.7266         estimate D2E/DX2                !
 ! D61   D(42,7,8,9)           -63.0193         estimate D2E/DX2                !
 ! D62   D(42,7,8,43)           58.3458         estimate D2E/DX2                !
 ! D63   D(42,7,8,44)          176.2839         estimate D2E/DX2                !
 ! D64   D(7,8,9,10)           -56.6183         estimate D2E/DX2                !
 ! D65   D(7,8,9,45)          -178.0476         estimate D2E/DX2                !
 ! D66   D(7,8,9,46)            63.8155         estimate D2E/DX2                !
 ! D67   D(43,8,9,10)         -177.9471         estimate D2E/DX2                !
 ! D68   D(43,8,9,45)           60.6236         estimate D2E/DX2                !
 ! D69   D(43,8,9,46)          -57.5133         estimate D2E/DX2                !
 ! D70   D(44,8,9,10)           64.0373         estimate D2E/DX2                !
 ! D71   D(44,8,9,45)          -57.392          estimate D2E/DX2                !
 ! D72   D(44,8,9,46)         -175.5289         estimate D2E/DX2                !
 ! D73   D(8,9,10,11)           57.1724         estimate D2E/DX2                !
 ! D74   D(8,9,10,47)          -63.2506         estimate D2E/DX2                !
 ! D75   D(8,9,10,48)          177.3119         estimate D2E/DX2                !
 ! D76   D(45,9,10,11)         178.7107         estimate D2E/DX2                !
 ! D77   D(45,9,10,47)          58.2877         estimate D2E/DX2                !
 ! D78   D(45,9,10,48)         -61.1498         estimate D2E/DX2                !
 ! D79   D(46,9,10,11)         -63.4824         estimate D2E/DX2                !
 ! D80   D(46,9,10,47)         176.0946         estimate D2E/DX2                !
 ! D81   D(46,9,10,48)          56.6571         estimate D2E/DX2                !
 ! D82   D(9,10,11,6)          -59.7609         estimate D2E/DX2                !
 ! D83   D(9,10,11,12)        -179.7542         estimate D2E/DX2                !
 ! D84   D(9,10,11,49)          61.1406         estimate D2E/DX2                !
 ! D85   D(47,10,11,6)          61.1483         estimate D2E/DX2                !
 ! D86   D(47,10,11,12)        -58.845          estimate D2E/DX2                !
 ! D87   D(47,10,11,49)       -177.9501         estimate D2E/DX2                !
 ! D88   D(48,10,11,6)         179.5504         estimate D2E/DX2                !
 ! D89   D(48,10,11,12)         59.5571         estimate D2E/DX2                !
 ! D90   D(48,10,11,49)        -59.5481         estimate D2E/DX2                !
 ! D91   D(6,11,12,13)         151.404          estimate D2E/DX2                !
 ! D92   D(6,11,12,50)          -2.5269         estimate D2E/DX2                !
 ! D93   D(10,11,12,13)        -87.5888         estimate D2E/DX2                !
 ! D94   D(10,11,12,50)        118.4803         estimate D2E/DX2                !
 ! D95   D(49,11,12,13)         31.3657         estimate D2E/DX2                !
 ! D96   D(49,11,12,50)       -122.5653         estimate D2E/DX2                !
 ! D97   D(11,12,13,14)         12.0399         estimate D2E/DX2                !
 ! D98   D(11,12,13,15)       -168.0616         estimate D2E/DX2                !
 ! D99   D(50,12,13,14)        164.4671         estimate D2E/DX2                !
 ! D100  D(50,12,13,15)        -15.6344         estimate D2E/DX2                !
 ! D101  D(12,13,15,16)       -173.6418         estimate D2E/DX2                !
 ! D102  D(12,13,15,51)          6.7069         estimate D2E/DX2                !
 ! D103  D(14,13,15,16)          6.2521         estimate D2E/DX2                !
 ! D104  D(14,13,15,51)       -173.3991         estimate D2E/DX2                !
 ! D105  D(13,15,16,17)       -175.106          estimate D2E/DX2                !
 ! D106  D(13,15,16,29)          5.5541         estimate D2E/DX2                !
 ! D107  D(51,15,16,17)          4.5483         estimate D2E/DX2                !
 ! D108  D(51,15,16,29)       -174.7916         estimate D2E/DX2                !
 ! D109  D(15,16,17,18)        179.9108         estimate D2E/DX2                !
 ! D110  D(15,16,17,52)          0.2798         estimate D2E/DX2                !
 ! D111  D(29,16,17,18)         -0.7078         estimate D2E/DX2                !
 ! D112  D(29,16,17,52)        179.6612         estimate D2E/DX2                !
 ! D113  D(15,16,29,24)        179.6208         estimate D2E/DX2                !
 ! D114  D(15,16,29,54)         -0.2696         estimate D2E/DX2                !
 ! D115  D(17,16,29,24)          0.2904         estimate D2E/DX2                !
 ! D116  D(17,16,29,54)       -179.5999         estimate D2E/DX2                !
 ! D117  D(16,17,18,19)        178.9326         estimate D2E/DX2                !
 ! D118  D(16,17,18,23)          0.5284         estimate D2E/DX2                !
 ! D119  D(52,17,18,19)         -1.4333         estimate D2E/DX2                !
 ! D120  D(52,17,18,23)       -179.8376         estimate D2E/DX2                !
 ! D121  D(17,18,19,20)        -78.0299         estimate D2E/DX2                !
 ! D122  D(17,18,19,21)         40.5996         estimate D2E/DX2                !
 ! D123  D(17,18,19,22)        161.5927         estimate D2E/DX2                !
 ! D124  D(23,18,19,20)        100.3894         estimate D2E/DX2                !
 ! D125  D(23,18,19,21)       -140.9811         estimate D2E/DX2                !
 ! D126  D(23,18,19,22)        -19.988          estimate D2E/DX2                !
 ! D127  D(17,18,23,24)          0.0799         estimate D2E/DX2                !
 ! D128  D(17,18,23,53)        179.9148         estimate D2E/DX2                !
 ! D129  D(19,18,23,24)       -178.2928         estimate D2E/DX2                !
 ! D130  D(19,18,23,53)          1.542          estimate D2E/DX2                !
 ! D131  D(18,23,24,25)       -179.0972         estimate D2E/DX2                !
 ! D132  D(18,23,24,29)         -0.5068         estimate D2E/DX2                !
 ! D133  D(53,23,24,25)          1.0683         estimate D2E/DX2                !
 ! D134  D(53,23,24,29)        179.6587         estimate D2E/DX2                !
 ! D135  D(23,24,25,26)        -20.6472         estimate D2E/DX2                !
 ! D136  D(23,24,25,27)         98.9786         estimate D2E/DX2                !
 ! D137  D(23,24,25,28)       -141.2526         estimate D2E/DX2                !
 ! D138  D(29,24,25,26)        160.7094         estimate D2E/DX2                !
 ! D139  D(29,24,25,27)        -79.6648         estimate D2E/DX2                !
 ! D140  D(29,24,25,28)         40.104          estimate D2E/DX2                !
 ! D141  D(23,24,29,16)          0.3212         estimate D2E/DX2                !
 ! D142  D(23,24,29,54)       -179.7885         estimate D2E/DX2                !
 ! D143  D(25,24,29,16)        178.9295         estimate D2E/DX2                !
 ! D144  D(25,24,29,54)         -1.1802         estimate D2E/DX2                !
 --------------------------------------------------------------------------------
 Trust Radius=3.00D-01 FncErr=1.00D-07 GrdErr=1.00D-06 EigMax=2.50D+02 EigMin=1.00D-04
 Number of steps in this run=    311 maximum allowed number of steps=    324.
 GradGradGradGradGradGradGradGradGradGradGradGradGradGradGradGradGradGrad

 Leave Link  103 at Mon Feb 26 06:07:22 2024, MaxMem=  7516192768 cpu:              12.2 elap:               0.4
 (Enter /public/apps/g16-C01//g16/l202.exe)
 Symmetry turned off by external request.
 Stoichiometry    C19H25F6N3S
 Framework group  C1[X(C19H25F6N3S)]
 Deg. of freedom   156
 Full point group                 C1      NOp   1
                          Input orientation:                          
 ---------------------------------------------------------------------
 Center     Atomic      Atomic             Coordinates (Angstroms)
 Number     Number       Type             X           Y           Z
 ---------------------------------------------------------------------
      1          6           0        2.887823   -1.784855    2.670037
      2          6           0        4.113783   -1.107264    2.061722
      3          7           0        4.207757   -1.398879    0.640686
      4          6           0        4.783628   -2.698757    0.330452
      5          6           0        3.954001   -3.425983   -0.727161
      6          6           0        4.689723   -0.322329   -0.210868
      7          6           0        6.014643    0.339139    0.191689
      8          6           0        6.429639    1.343012   -0.881126
      9          6           0        5.344451    2.396587   -1.088811
     10          6           0        4.010826    1.747989   -1.448342
     11          6           0        3.611194    0.761535   -0.349240
     12          7           0        2.351666    0.103148   -0.630954
     13          6           0        1.160546    0.619850   -0.274312
     14         16           0        1.022400    2.176158    0.250363
     15          7           0        0.117812   -0.271565   -0.398493
     16          6           0       -1.245642   -0.127419   -0.255761
     17          6           0       -2.019698   -1.288869   -0.354754
     18          6           0       -3.395267   -1.231621   -0.221642
     19          6           0       -4.180353   -2.506977   -0.361245
     20          9           0       -4.328464   -2.862307   -1.652497
     21          9           0       -3.572213   -3.546112    0.236990
     22          9           0       -5.409473   -2.431266    0.155690
     23          6           0       -4.047524   -0.027732    0.001813
     24          6           0       -3.273824    1.120958    0.086110
     25          6           0       -3.937164    2.447776    0.348165
     26          9           0       -5.242481    2.444244    0.042885
     27          9           0       -3.854434    2.799367    1.643779
     28          9           0       -3.384224    3.446461   -0.352135
     29          6           0       -1.894627    1.089087   -0.035049
     30          1           0        1.981522   -1.407573    2.202315
     31          1           0        2.926529   -2.862318    2.531635
     32          1           0        2.839142   -1.575627    3.735246
     33          1           0        5.018517   -1.423257    2.603293
     34          1           0        4.008698   -0.030255    2.192568
     35          1           0        4.798412   -3.302780    1.239135
     36          1           0        5.821708   -2.607837   -0.019603
     37          1           0        3.923237   -2.860942   -1.656550
     38          1           0        2.936578   -3.569932   -0.370394
     39          1           0        4.387553   -4.400348   -0.936124
     40          1           0        4.827444   -0.764993   -1.205192
     41          1           0        6.786598   -0.424392    0.310688
     42          1           0        5.899883    0.852173    1.147712
     43          1           0        7.363272    1.827591   -0.589866
     44          1           0        6.607667    0.815044   -1.821140
     45          1           0        5.643215    3.083605   -1.881809
     46          1           0        5.222396    2.977206   -0.172363
     47          1           0        4.092721    1.218311   -2.399849
     48          1           0        3.237160    2.509614   -1.546382
     49          1           0        3.500329    1.325459    0.585638
     50          1           0        2.444161   -0.902350   -0.718058
     51          1           0        0.399236   -1.216492   -0.635361
     52          1           0       -1.544762   -2.243609   -0.530815
     53          1           0       -5.119893    0.012345    0.103572
     54          1           0       -1.323962    2.000907    0.039040
 ---------------------------------------------------------------------
 Rotational constants (GHZ):           0.2180077           0.0715480           0.0587174
 Leave Link  202 at Mon Feb 26 06:07:24 2024, MaxMem=  7516192768 cpu:               2.8 elap:               0.8
 (Enter /public/apps/g16-C01//g16/l301.exe)
 Standard basis: def2SVPP (5D, 7F)
 Ernie: Thresh=  0.10000D-02 Tol=  0.10000D-05 Strict=F.
   460 basis functions,   837 primitive gaussians,   489 cartesian basis functions
   115 alpha electrons      115 beta electrons
       nuclear repulsion energy      3142.8063092753 Hartrees.
 IExCor=  402 DFT=T Ex+Corr=B3LYP ExCW=0 ScaHFX=  0.200000
 ScaDFX=  0.800000  0.720000  1.000000  0.810000 ScalE2=  1.000000  1.000000
 IRadAn=      5 IRanWt=     -1 IRanGd=            0 ICorTp=0 IEmpDi=141
 NAtoms=   54 NActive=   54 NUniq=   54 SFac= 1.00D+00 NAtFMM=   60 NAOKFM=F Big=F
 Integral buffers will be    131072 words long.
 Raffenetti 2 integral format.
 Two-electron integral symmetry is turned off.
 R6Disp:  Grimme-D3(BJ) Dispersion energy=       -0.1173274544 Hartrees.
 Nuclear repulsion after empirical dispersion term =     3142.6889818209 Hartrees.
 Leave Link  301 at Mon Feb 26 06:07:24 2024, MaxMem=  7516192768 cpu:               1.8 elap:               0.1
 (Enter /public/apps/g16-C01//g16/l302.exe)
 NPDir=0 NMtPBC=     1 NCelOv=     1 NCel=       1 NClECP=     1 NCelD=      1
         NCelK=      1 NCelE2=     1 NClLst=     1 CellRange=     0.0.
 One-electron integrals computed using PRISM.
   1 Symmetry operations used in ECPInt.
 ECPInt:  NShTT=   25651 NPrTT=  103747 LenC2=   20888 LenP2D=   54598.
 LDataN:  DoStor=T MaxTD1= 4 Len=   56
 NBasis=   460 RedAO= T EigKep=  2.40D-04  NBF=   460
 NBsUse=   460 1.00D-06 EigRej= -1.00D+00 NBFU=   460
 Precomputing XC quadrature grid using
 IXCGrd= 4 IRadAn=           5 IRanWt=          -1 IRanGd=           0 AccXCQ= 0.00D+00.
 Generated NRdTot=       0 NPtTot=           0 NUsed=           0 NTot=          32
 NSgBfM=   480   480   480   480   480 MxSgAt=    54 MxSgA2=    54.
 Leave Link  302 at Mon Feb 26 06:07:25 2024, MaxMem=  7516192768 cpu:              20.0 elap:               0.6
 (Enter /public/apps/g16-C01//g16/l303.exe)
 DipDrv:  MaxL=1.
 Leave Link  303 at Mon Feb 26 06:07:25 2024, MaxMem=  7516192768 cpu:               6.1 elap:               0.2
 (Enter /public/apps/g16-C01//g16/l401.exe)
 ExpMin= 1.22D-01 ExpMax= 9.18D+03 ExpMxC= 1.38D+03 IAcc=3 IRadAn=         5 AccDes= 0.00D+00
 Harris functional with IExCor=  402 and IRadAn=       5 diagonalized for initial guess.
 HarFok:  IExCor=  402 AccDes= 0.00D+00 IRadAn=         5 IDoV= 1 UseB2=F ITyADJ=14
 ICtDFT=  3500011 ScaDFX=  1.000000  1.000000  1.000000  1.000000
 FoFCou: FMM=F IPFlag=           0 FMFlag=      100000 FMFlg1=           0
         NFxFlg=           0 DoJE=T BraDBF=F KetDBF=T FulRan=T
         wScrn=  0.000000 ICntrl=       500 IOpCl=  0 I1Cent=   200000004 NGrid=           0
         NMat0=    1 NMatS0=      1 NMatT0=    0 NMatD0=    1 NMtDS0=    0 NMtDT0=    0
 Symmetry not used in FoFCou.
 Harris En= -1899.31030821895    
 JPrj=0 DoOrth=F DoCkMO=F.
 Leave Link  401 at Mon Feb 26 06:07:27 2024, MaxMem=  7516192768 cpu:              39.6 elap:               1.1
 (Enter /public/apps/g16-C01//g16/l502.exe)
 Two-electron integral symmetry not used.
 Closed shell SCF:
 Using DIIS extrapolation, IDIIS=  1040.
 NGot=  7516192768 LenX=  7515689439 LenY=  7515449829
 Requested convergence on RMS density matrix=1.00D-08 within 128 cycles.
 Requested convergence on MAX density matrix=1.00D-06.
 Requested convergence on             energy=1.00D-06.
 No special actions if energy rises.
 Fock matrices will be formed incrementally for  20 cycles.
 Integral accuracy reduced to 1.0D-05 until final iterations.

 Cycle   1  Pass 0  IDiag  1:
 FoFJK:  IHMeth= 1 ICntrl=       0 DoSepK=F KAlg= 0 I1Cent=           0 FoldK=F
 IRaf= 730000000 NMat=       1 IRICut=       1 DoRegI=T DoRafI=F ISym2E= 0 IDoP0=0 IntGTp=1.
 FoFCou: FMM=F IPFlag=           0 FMFlag=      100000 FMFlg1=           0
         NFxFlg=           0 DoJE=F BraDBF=F KetDBF=F FulRan=T
         wScrn=  0.000000 ICntrl=         0 IOpCl=  0 I1Cent=           0 NGrid=           0
         NMat0=    1 NMatS0=      1 NMatT0=    0 NMatD0=    1 NMtDS0=    0 NMtDT0=    0
 Symmetry not used in FoFCou.
 E= -1898.83314137496    
 DIIS: error= 2.43D-02 at cycle   1 NSaved=   1.
 NSaved= 1 IEnMin= 1 EnMin= -1898.83314137496     IErMin= 1 ErrMin= 2.43D-02
 ErrMax= 2.43D-02  0.00D+00 EMaxC= 1.00D-01 BMatC= 6.21D-01 BMatP= 6.21D-01
 IDIUse=3 WtCom= 7.57D-01 WtEn= 2.43D-01
 Coeff-Com:  0.100D+01
 Coeff-En:   0.100D+01
 Coeff:      0.100D+01
 Gap=     0.224 Goal=   None    Shift=    0.000
 GapD=    0.224 DampG=1.000 DampE=0.500 DampFc=0.5000 IDamp=-1.
 Damping current iteration by 5.00D-01
 RMSDP=4.61D-03 MaxDP=1.77D-01              OVMax= 1.81D-01

 Cycle   2  Pass 0  IDiag  1:
 RMSU=  2.24D-03    CP:  9.73D-01
 E= -1899.08799036858     Delta-E=       -0.254848993623 Rises=F Damp=T
 DIIS: error= 5.29D-03 at cycle   2 NSaved=   2.
 NSaved= 2 IEnMin= 2 EnMin= -1899.08799036858     IErMin= 2 ErrMin= 5.29D-03
 ErrMax= 5.29D-03  0.00D+00 EMaxC= 1.00D-01 BMatC= 3.27D-02 BMatP= 6.21D-01
 IDIUse=3 WtCom= 9.47D-01 WtEn= 5.29D-02
 Coeff-Com:  0.105D+00 0.895D+00
 Coeff-En:   0.178D+00 0.822D+00
 Coeff:      0.109D+00 0.891D+00
 Gap=     0.216 Goal=   None    Shift=    0.000
 RMSDP=1.30D-03 MaxDP=4.52D-02 DE=-2.55D-01 OVMax= 1.12D-01

 Cycle   3  Pass 0  IDiag  1:
 RMSU=  1.28D-03    CP:  9.60D-01  9.90D-01
 E= -1899.43984791867     Delta-E=       -0.351857550091 Rises=F Damp=F
 DIIS: error= 3.46D-03 at cycle   3 NSaved=   3.
 NSaved= 3 IEnMin= 3 EnMin= -1899.43984791867     IErMin= 3 ErrMin= 3.46D-03
 ErrMax= 3.46D-03  0.00D+00 EMaxC= 1.00D-01 BMatC= 1.18D-02 BMatP= 3.27D-02
 IDIUse=3 WtCom= 9.65D-01 WtEn= 3.46D-02
 Coeff-Com:  0.552D-02 0.356D+00 0.639D+00
 Coeff-En:   0.000D+00 0.000D+00 0.100D+01
 Coeff:      0.533D-02 0.344D+00 0.651D+00
 Gap=     0.166 Goal=   None    Shift=    0.000
 RMSDP=4.46D-04 MaxDP=2.04D-02 DE=-3.52D-01 OVMax= 2.98D-02

 Cycle   4  Pass 0  IDiag  1:
 RMSU=  3.64D-04    CP:  9.61D-01  1.01D+00  8.01D-01
 E= -1899.44795422745     Delta-E=       -0.008106308779 Rises=F Damp=F
 DIIS: error= 2.70D-03 at cycle   4 NSaved=   4.
 NSaved= 4 IEnMin= 4 EnMin= -1899.44795422745     IErMin= 4 ErrMin= 2.70D-03
 ErrMax= 2.70D-03  0.00D+00 EMaxC= 1.00D-01 BMatC= 2.94D-03 BMatP= 1.18D-02
 IDIUse=3 WtCom= 9.73D-01 WtEn= 2.70D-02
 Coeff-Com: -0.853D-02 0.969D-01 0.358D+00 0.553D+00
 Coeff-En:   0.000D+00 0.000D+00 0.177D+00 0.823D+00
 Coeff:     -0.830D-02 0.943D-01 0.353D+00 0.561D+00
 Gap=     0.166 Goal=   None    Shift=    0.000
 RMSDP=1.57D-04 MaxDP=9.82D-03 DE=-8.11D-03 OVMax= 1.55D-02

 Cycle   5  Pass 0  IDiag  1:
 RMSU=  1.17D-04    CP:  9.60D-01  1.01D+00  8.34D-01  7.42D-01
 E= -1899.45042082808     Delta-E=       -0.002466600627 Rises=F Damp=F
 DIIS: error= 1.03D-03 at cycle   5 NSaved=   5.
 NSaved= 5 IEnMin= 5 EnMin= -1899.45042082808     IErMin= 5 ErrMin= 1.03D-03
 ErrMax= 1.03D-03  0.00D+00 EMaxC= 1.00D-01 BMatC= 2.79D-04 BMatP= 2.94D-03
 IDIUse=3 WtCom= 9.90D-01 WtEn= 1.03D-02
 Coeff-Com: -0.495D-02 0.207D-01 0.129D+00 0.300D+00 0.555D+00
 Coeff-En:   0.000D+00 0.000D+00 0.000D+00 0.651D-02 0.993D+00
 Coeff:     -0.489D-02 0.205D-01 0.128D+00 0.297D+00 0.560D+00
 Gap=     0.164 Goal=   None    Shift=    0.000
 RMSDP=4.93D-05 MaxDP=4.13D-03 DE=-2.47D-03 OVMax= 5.66D-03

 Cycle   6  Pass 0  IDiag  1:
 RMSU=  3.34D-05    CP:  9.60D-01  1.02D+00  8.39D-01  7.53D-01  7.06D-01
 E= -1899.45064338086     Delta-E=       -0.000222552779 Rises=F Damp=F
 DIIS: error= 2.82D-04 at cycle   6 NSaved=   6.
 NSaved= 6 IEnMin= 6 EnMin= -1899.45064338086     IErMin= 6 ErrMin= 2.82D-04
 ErrMax= 2.82D-04  0.00D+00 EMaxC= 1.00D-01 BMatC= 3.42D-05 BMatP= 2.79D-04
 IDIUse=3 WtCom= 9.97D-01 WtEn= 2.82D-03
 Coeff-Com: -0.221D-02 0.309D-02 0.416D-01 0.123D+00 0.326D+00 0.508D+00
 Coeff-En:   0.000D+00 0.000D+00 0.000D+00 0.000D+00 0.530D-01 0.947D+00
 Coeff:     -0.220D-02 0.309D-02 0.415D-01 0.123D+00 0.326D+00 0.509D+00
 Gap=     0.164 Goal=   None    Shift=    0.000
 RMSDP=1.54D-05 MaxDP=9.49D-04 DE=-2.23D-04 OVMax= 1.87D-03

 Cycle   7  Pass 0  IDiag  1:
 RMSU=  8.77D-06    CP:  9.60D-01  1.02D+00  8.41D-01  7.50D-01  7.23D-01
                    CP:  6.35D-01
 E= -1899.45067426332     Delta-E=       -0.000030882460 Rises=F Damp=F
 DIIS: error= 9.20D-05 at cycle   7 NSaved=   7.
 NSaved= 7 IEnMin= 7 EnMin= -1899.45067426332     IErMin= 7 ErrMin= 9.20D-05
 ErrMax= 9.20D-05  0.00D+00 EMaxC= 1.00D-01 BMatC= 2.06D-06 BMatP= 3.42D-05
 IDIUse=1 WtCom= 1.00D+00 WtEn= 0.00D+00
 Coeff-Com: -0.814D-03 0.980D-04 0.125D-01 0.434D-01 0.133D+00 0.275D+00
 Coeff-Com:  0.538D+00
 Coeff:     -0.814D-03 0.980D-04 0.125D-01 0.434D-01 0.133D+00 0.275D+00
 Coeff:      0.538D+00
 Gap=     0.165 Goal=   None    Shift=    0.000
 RMSDP=5.16D-06 MaxDP=2.60D-04 DE=-3.09D-05 OVMax= 6.84D-04

 Initial convergence to 1.0D-05 achieved.  Increase integral accuracy.
 Cycle   8  Pass 1  IDiag  1:
 E= -1899.45062334762     Delta-E=        0.000050915694 Rises=F Damp=F
 DIIS: error= 1.28D-04 at cycle   1 NSaved=   1.
 NSaved= 1 IEnMin= 1 EnMin= -1899.45062334762     IErMin= 1 ErrMin= 1.28D-04
 ErrMax= 1.28D-04  0.00D+00 EMaxC= 1.00D-01 BMatC= 3.80D-06 BMatP= 3.80D-06
 IDIUse=3 WtCom= 9.99D-01 WtEn= 1.28D-03
 Coeff-Com:  0.100D+01
 Coeff-En:   0.100D+01
 Coeff:      0.100D+01
 Gap=     0.164 Goal=   None    Shift=    0.000
 RMSDP=5.16D-06 MaxDP=2.60D-04 DE= 5.09D-05 OVMax= 6.12D-04

 Cycle   9  Pass 1  IDiag  1:
 RMSU=  9.09D-05    CP:  1.00D+00
 E= -1899.45062691169     Delta-E=       -0.000003564068 Rises=F Damp=F
 DIIS: error= 6.90D-05 at cycle   2 NSaved=   2.
 NSaved= 2 IEnMin= 2 EnMin= -1899.45062691169     IErMin= 2 ErrMin= 6.90D-05
 ErrMax= 6.90D-05  0.00D+00 EMaxC= 1.00D-01 BMatC= 8.42D-07 BMatP= 3.80D-06
 IDIUse=1 WtCom= 1.00D+00 WtEn= 0.00D+00
 Coeff-Com:  0.228D+00 0.772D+00
 Coeff:      0.228D+00 0.772D+00
 Gap=     0.165 Goal=   None    Shift=    0.000
 RMSDP=5.97D-06 MaxDP=3.83D-04 DE=-3.56D-06 OVMax= 9.08D-04

 Cycle  10  Pass 1  IDiag  1:
 RMSU=  5.92D-06    CP:  1.00D+00  1.01D+00
 E= -1899.45062614192     Delta-E=        0.000000769774 Rises=F Damp=F
 DIIS: error= 9.40D-05 at cycle   3 NSaved=   3.
 NSaved= 3 IEnMin= 2 EnMin= -1899.45062691169     IErMin= 2 ErrMin= 6.90D-05
 ErrMax= 9.40D-05  0.00D+00 EMaxC= 1.00D-01 BMatC= 1.51D-06 BMatP= 8.42D-07
 IDIUse=1 WtCom= 1.00D+00 WtEn= 0.00D+00
 Coeff-Com: -0.196D-02 0.574D+00 0.428D+00
 Coeff:     -0.196D-02 0.574D+00 0.428D+00
 Gap=     0.164 Goal=   None    Shift=    0.000
 RMSDP=3.45D-06 MaxDP=2.16D-04 DE= 7.70D-07 OVMax= 5.26D-04

 Cycle  11  Pass 1  IDiag  1:
 RMSU=  7.41D-07    CP:  1.00D+00  1.01D+00  4.37D-01
 E= -1899.45062785681     Delta-E=       -0.000001714891 Rises=F Damp=F
 DIIS: error= 6.49D-06 at cycle   4 NSaved=   4.
 NSaved= 4 IEnMin= 4 EnMin= -1899.45062785681     IErMin= 4 ErrMin= 6.49D-06
 ErrMax= 6.49D-06  0.00D+00 EMaxC= 1.00D-01 BMatC= 1.71D-08 BMatP= 8.42D-07
 IDIUse=1 WtCom= 1.00D+00 WtEn= 0.00D+00
 Coeff-Com: -0.412D-02 0.344D+00 0.263D+00 0.397D+00
 Coeff:     -0.412D-02 0.344D+00 0.263D+00 0.397D+00
 Gap=     0.164 Goal=   None    Shift=    0.000
 RMSDP=3.96D-07 MaxDP=2.71D-05 DE=-1.71D-06 OVMax= 4.84D-05

 Cycle  12  Pass 1  IDiag  1:
 RMSU=  2.11D-07    CP:  1.00D+00  1.01D+00  4.45D-01  5.52D-01
 E= -1899.45062787373     Delta-E=       -0.000000016926 Rises=F Damp=F
 DIIS: error= 9.47D-07 at cycle   5 NSaved=   5.
 NSaved= 5 IEnMin= 5 EnMin= -1899.45062787373     IErMin= 5 ErrMin= 9.47D-07
 ErrMax= 9.47D-07  0.00D+00 EMaxC= 1.00D-01 BMatC= 3.96D-10 BMatP= 1.71D-08
 IDIUse=1 WtCom= 1.00D+00 WtEn= 0.00D+00
 Coeff-Com: -0.222D-02 0.169D+00 0.129D+00 0.219D+00 0.485D+00
 Coeff:     -0.222D-02 0.169D+00 0.129D+00 0.219D+00 0.485D+00
 Gap=     0.164 Goal=   None    Shift=    0.000
 RMSDP=6.74D-08 MaxDP=3.80D-06 DE=-1.69D-08 OVMax= 4.89D-06

 Cycle  13  Pass 1  IDiag  1:
 RMSU=  5.87D-08    CP:  1.00D+00  1.01D+00  4.43D-01  5.67D-01  8.73D-01
 E= -1899.45062787409     Delta-E=       -0.000000000357 Rises=F Damp=F
 DIIS: error= 1.69D-07 at cycle   6 NSaved=   6.
 NSaved= 6 IEnMin= 6 EnMin= -1899.45062787409     IErMin= 6 ErrMin= 1.69D-07
 ErrMax= 1.69D-07  0.00D+00 EMaxC= 1.00D-01 BMatC= 2.17D-11 BMatP= 3.96D-10
 IDIUse=1 WtCom= 1.00D+00 WtEn= 0.00D+00
 Coeff-Com: -0.698D-03 0.504D-01 0.385D-01 0.707D-01 0.235D+00 0.607D+00
 Coeff:     -0.698D-03 0.504D-01 0.385D-01 0.707D-01 0.235D+00 0.607D+00
 Gap=     0.164 Goal=   None    Shift=    0.000
 RMSDP=1.80D-08 MaxDP=9.93D-07 DE=-3.57D-10 OVMax= 1.82D-06

 Cycle  14  Pass 1  IDiag  1:
 RMSU=  1.59D-08    CP:  1.00D+00  1.01D+00  4.43D-01  5.65D-01  8.97D-01
                    CP:  8.96D-01
 E= -1899.45062787413     Delta-E=       -0.000000000035 Rises=F Damp=F
 DIIS: error= 9.08D-08 at cycle   7 NSaved=   7.
 NSaved= 7 IEnMin= 7 EnMin= -1899.45062787413     IErMin= 7 ErrMin= 9.08D-08
 ErrMax= 9.08D-08  0.00D+00 EMaxC= 1.00D-01 BMatC= 4.56D-12 BMatP= 2.17D-11
 IDIUse=1 WtCom= 1.00D+00 WtEn= 0.00D+00
 Coeff-Com: -0.942D-04 0.556D-02 0.418D-02 0.981D-02 0.657D-01 0.356D+00
 Coeff-Com:  0.559D+00
 Coeff:     -0.942D-04 0.556D-02 0.418D-02 0.981D-02 0.657D-01 0.356D+00
 Coeff:      0.559D+00
 Gap=     0.164 Goal=   None    Shift=    0.000
 RMSDP=8.31D-09 MaxDP=5.00D-07 DE=-3.55D-11 OVMax= 7.97D-07

 SCF Done:  E(RB3LYP) =  -1899.45062787     A.U. after   14 cycles
            NFock= 14  Conv=0.83D-08     -V/T= 2.0068
 KE= 1.886704458705D+03 PE=-1.074871255970D+04 EE= 3.819868491303D+03
 Leave Link  502 at Mon Feb 26 06:07:49 2024, MaxMem=  7516192768 cpu:             888.7 elap:              22.4
 (Enter /public/apps/g16-C01//g16/l601.exe)
 Copying SCF densities to generalized density rwf, IOpCl= 0 IROHF=0.

 **********************************************************************

            Population analysis using the SCF Density.

 **********************************************************************

 Alpha  occ. eigenvalues --  -88.78708 -24.72364 -24.72010 -24.71507 -24.71473
 Alpha  occ. eigenvalues --  -24.71219 -24.70742 -14.39231 -14.36436 -14.32829
 Alpha  occ. eigenvalues --  -10.43710 -10.42930 -10.30663 -10.26361 -10.22671
 Alpha  occ. eigenvalues --  -10.22662 -10.22517 -10.22216 -10.22049 -10.21860
 Alpha  occ. eigenvalues --  -10.21560 -10.21191 -10.20300 -10.18747 -10.18695
 Alpha  occ. eigenvalues --  -10.18498 -10.18070 -10.17774 -10.17700  -7.88486
 Alpha  occ. eigenvalues --   -5.85418  -5.84876  -5.84479  -1.30332  -1.29567
 Alpha  occ. eigenvalues --   -1.21099  -1.20357  -1.20228  -1.19691  -1.01150
 Alpha  occ. eigenvalues --   -0.95351  -0.92897  -0.88538  -0.83746  -0.80814
 Alpha  occ. eigenvalues --   -0.79042  -0.77487  -0.76241  -0.75130  -0.73990
 Alpha  occ. eigenvalues --   -0.71284  -0.70700  -0.70139  -0.66511  -0.64637
 Alpha  occ. eigenvalues --   -0.64066  -0.63867  -0.63098  -0.60798  -0.59881
 Alpha  occ. eigenvalues --   -0.59386  -0.58882  -0.58635  -0.58287  -0.57910
 Alpha  occ. eigenvalues --   -0.57717  -0.56348  -0.53347  -0.52842  -0.51965
 Alpha  occ. eigenvalues --   -0.51375  -0.49888  -0.48812  -0.48610  -0.47253
 Alpha  occ. eigenvalues --   -0.46932  -0.46856  -0.46459  -0.46434  -0.46095
 Alpha  occ. eigenvalues --   -0.45818  -0.45380  -0.44886  -0.43428  -0.43193
 Alpha  occ. eigenvalues --   -0.43055  -0.42591  -0.42459  -0.42068  -0.41858
 Alpha  occ. eigenvalues --   -0.41520  -0.40973  -0.40811  -0.40213  -0.40193
 Alpha  occ. eigenvalues --   -0.39934  -0.39366  -0.39341  -0.38207  -0.37897
 Alpha  occ. eigenvalues --   -0.37683  -0.37034  -0.36795  -0.36539  -0.35957
 Alpha  occ. eigenvalues --   -0.35161  -0.34280  -0.34035  -0.32348  -0.31508
 Alpha  occ. eigenvalues --   -0.28888  -0.24776  -0.23180  -0.22525  -0.21346
 Alpha virt. eigenvalues --   -0.04901  -0.04326   0.00493   0.01004   0.03846
 Alpha virt. eigenvalues --    0.04461   0.05618   0.07456   0.07670   0.08173
 Alpha virt. eigenvalues --    0.08865   0.09460   0.10452   0.10680   0.11055
 Alpha virt. eigenvalues --    0.11391   0.11767   0.11917   0.12361   0.12925
 Alpha virt. eigenvalues --    0.13375   0.13532   0.13926   0.14363   0.14992
 Alpha virt. eigenvalues --    0.15027   0.15135   0.15643   0.15799   0.16930
 Alpha virt. eigenvalues --    0.17166   0.17733   0.19061   0.20025   0.20245
 Alpha virt. eigenvalues --    0.20635   0.21062   0.21312   0.21579   0.22230
 Alpha virt. eigenvalues --    0.22614   0.22997   0.23709   0.24187   0.24591
 Alpha virt. eigenvalues --    0.24710   0.25584   0.26234   0.26421   0.27243
 Alpha virt. eigenvalues --    0.28113   0.28671   0.28955   0.30376   0.31016
 Alpha virt. eigenvalues --    0.32135   0.33173   0.34033   0.35887   0.37908
 Alpha virt. eigenvalues --    0.38998   0.39385   0.40647   0.41370   0.42050
 Alpha virt. eigenvalues --    0.42102   0.42250   0.42894   0.43862   0.45004
 Alpha virt. eigenvalues --    0.45361   0.45566   0.45830   0.46283   0.46728
 Alpha virt. eigenvalues --    0.46891   0.47925   0.48846   0.48879   0.50297
 Alpha virt. eigenvalues --    0.51626   0.52531   0.52750   0.53381   0.54167
 Alpha virt. eigenvalues --    0.54833   0.54987   0.56244   0.57036   0.57559
 Alpha virt. eigenvalues --    0.58790   0.59108   0.60178   0.60432   0.61529
 Alpha virt. eigenvalues --    0.62000   0.62573   0.63085   0.63935   0.64735
 Alpha virt. eigenvalues --    0.65332   0.65562   0.65616   0.66298   0.66534
 Alpha virt. eigenvalues --    0.66865   0.67008   0.67237   0.67400   0.67803
 Alpha virt. eigenvalues --    0.68191   0.68455   0.68994   0.69290   0.69399
 Alpha virt. eigenvalues --    0.69790   0.70080   0.70432   0.70570   0.70902
 Alpha virt. eigenvalues --    0.71315   0.71553   0.71900   0.72220   0.72366
 Alpha virt. eigenvalues --    0.72438   0.72935   0.73397   0.73682   0.74186
 Alpha virt. eigenvalues --    0.74492   0.75402   0.75703   0.76384   0.77683
 Alpha virt. eigenvalues --    0.77812   0.78327   0.79490   0.79809   0.81083
 Alpha virt. eigenvalues --    0.81492   0.82659   0.83632   0.84022   0.84567
 Alpha virt. eigenvalues --    0.86197   0.86714   0.88151   0.89907   0.90384
 Alpha virt. eigenvalues --    0.90775   0.92320   0.94453   0.95390   0.97178
 Alpha virt. eigenvalues --    0.99604   1.01906   1.03104   1.05022   1.05362
 Alpha virt. eigenvalues --    1.08752   1.09639   1.10032   1.10392   1.10947
 Alpha virt. eigenvalues --    1.11756   1.12490   1.13312   1.13401   1.14623
 Alpha virt. eigenvalues --    1.14968   1.16213   1.17281   1.17553   1.19592
 Alpha virt. eigenvalues --    1.20113   1.21030   1.21804   1.24564   1.25674
 Alpha virt. eigenvalues --    1.27397   1.28163   1.29089   1.30113   1.30633
 Alpha virt. eigenvalues --    1.32357   1.32658   1.34731   1.35763   1.36661
 Alpha virt. eigenvalues --    1.36847   1.37600   1.38744   1.39051   1.41748
 Alpha virt. eigenvalues --    1.42904   1.43584   1.43919   1.44538   1.44992
 Alpha virt. eigenvalues --    1.46232   1.47766   1.48260   1.50109   1.50573
 Alpha virt. eigenvalues --    1.52536   1.53447   1.55273   1.56876   1.61493
 Alpha virt. eigenvalues --    1.63816   1.64073   1.65767   1.68764   1.69318
 Alpha virt. eigenvalues --    1.71147   1.72128   1.72474   1.73068   1.73514
 Alpha virt. eigenvalues --    1.74610   1.75901   1.77053   1.77980   1.79986
 Alpha virt. eigenvalues --    1.81396   1.83202   1.83415   1.84482   1.86021
 Alpha virt. eigenvalues --    1.86274   1.86620   1.87592   1.89210   1.89714
 Alpha virt. eigenvalues --    1.90781   1.90830   1.92547   1.93101   1.93838
 Alpha virt. eigenvalues --    1.94146   1.94962   1.95248   1.96897   1.97274
 Alpha virt. eigenvalues --    1.98086   1.98316   1.98781   1.99584   2.00967
 Alpha virt. eigenvalues --    2.01045   2.03300   2.04224   2.05531   2.06871
 Alpha virt. eigenvalues --    2.08004   2.08360   2.10283   2.11879   2.12214
 Alpha virt. eigenvalues --    2.12979   2.13810   2.14950   2.18163   2.18890
 Alpha virt. eigenvalues --    2.19940   2.20466   2.21269   2.21763   2.22473
 Alpha virt. eigenvalues --    2.24816   2.25336   2.25971   2.26765   2.28127
 Alpha virt. eigenvalues --    2.28760   2.29595   2.31317   2.32795   2.32986
 Alpha virt. eigenvalues --    2.34669   2.36048   2.36310   2.40560   2.45048
 Alpha virt. eigenvalues --    2.46588   2.51199   2.52013   2.52763   2.55206
 Alpha virt. eigenvalues --    2.55390   2.57594   2.58179   2.60978   2.62298
 Alpha virt. eigenvalues --    2.62621   2.64563   2.68696   2.69793   2.71309
 Alpha virt. eigenvalues --    2.71880   2.74442   2.76518   2.77342   2.80256
 Alpha virt. eigenvalues --    2.82379   2.88542   2.89586   2.95684   3.00373
 Alpha virt. eigenvalues --    3.01288   3.03474   3.03866   3.04211   3.04297
 Alpha virt. eigenvalues --    3.04958   3.05139   3.05744   3.05876   3.06640
 Alpha virt. eigenvalues --    3.07361   3.07608   3.08638   3.10172   3.14063
 Alpha virt. eigenvalues --    3.15655   3.16718   3.17804   3.20463   3.21687
 Alpha virt. eigenvalues --    3.24355   3.32269   3.40178   3.44274   3.47644
 Alpha virt. eigenvalues --    3.52605   3.53816   3.57519   3.58787   3.65597
 Alpha virt. eigenvalues --    3.66772   3.83608   3.84541   3.86637   3.88037
          Condensed to atoms (all electrons):
 Mulliken charges:
               1
     1  C   -0.226061
     2  C   -0.059245
     3  N   -0.331398
     4  C   -0.037338
     5  C   -0.240038
     6  C   -0.076931
     7  C   -0.070566
     8  C   -0.114907
     9  C   -0.132156
    10  C   -0.047051
    11  C   -0.009741
    12  N   -0.251458
    13  C    0.086062
    14  S   -0.251847
    15  N   -0.194967
    16  C    0.267115
    17  C   -0.204286
    18  C    0.002343
    19  C    0.534443
    20  F   -0.174499
    21  F   -0.176733
    22  F   -0.158909
    23  C   -0.159606
    24  C    0.005108
    25  C    0.538532
    26  F   -0.167625
    27  F   -0.170986
    28  F   -0.166788
    29  C   -0.200682
    30  H    0.089037
    31  H    0.086935
    32  H    0.090164
    33  H    0.067120
    34  H    0.095253
    35  H    0.085127
    36  H    0.069899
    37  H    0.091380
    38  H    0.081516
    39  H    0.093032
    40  H    0.049803
    41  H    0.070834
    42  H    0.067595
    43  H    0.074114
    44  H    0.058562
    45  H    0.077540
    46  H    0.068496
    47  H    0.047690
    48  H    0.091323
    49  H    0.079655
    50  H    0.229132
    51  H    0.227964
    52  H    0.044568
    53  H    0.069699
    54  H    0.083776
 Sum of Mulliken charges =  -0.00000
 Mulliken charges with hydrogens summed into heavy atoms:
               1
     1  C    0.040075
     2  C    0.103128
     3  N   -0.331398
     4  C    0.117688
     5  C    0.025889
     6  C   -0.027129
     7  C    0.067863
     8  C    0.017770
     9  C    0.013879
    10  C    0.091962
    11  C    0.069915
    12  N   -0.022326
    13  C    0.086062
    14  S   -0.251847
    15  N    0.032997
    16  C    0.267115
    17  C   -0.159718
    18  C    0.002343
    19  C    0.534443
    20  F   -0.174499
    21  F   -0.176733
    22  F   -0.158909
    23  C   -0.089907
    24  C    0.005108
    25  C    0.538532
    26  F   -0.167625
    27  F   -0.170986
    28  F   -0.166788
    29  C   -0.116906
 Electronic spatial extent (au):  <R**2>=          17355.0130
 Charge=             -0.0000 electrons
 Dipole moment (field-independent basis, Debye):
    X=              6.5966    Y=             -3.9534    Z=             -0.7209  Tot=              7.7243
 Quadrupole moment (field-independent basis, Debye-Ang):
   XX=           -172.7367   YY=           -188.1284   ZZ=           -178.3888
   XY=             -6.1003   XZ=             -0.2738   YZ=             -1.5104
 Traceless Quadrupole moment (field-independent basis, Debye-Ang):
   XX=              7.0146   YY=             -8.3771   ZZ=              1.3625
   XY=             -6.1003   XZ=             -0.2738   YZ=             -1.5104
 Octapole moment (field-independent basis, Debye-Ang**2):
  XXX=           -135.8860  YYY=             -6.7569  ZZZ=              3.1927  XYY=            -35.9021
  XXY=             -1.3737  XXZ=              2.8733  XZZ=            -78.9314  YZZ=              2.0364
  YYZ=             -1.3168  XYZ=              6.5299
 Hexadecapole moment (field-independent basis, Debye-Ang**3):
 XXXX=         -15994.4895 YYYY=          -4449.7424 ZZZZ=          -1168.6668 XXXY=            -20.9657
 XXXZ=            -11.5719 YYYX=            -23.4985 YYYZ=             72.9327 ZZZX=             13.8635
 ZZZY=             70.7687 XXYY=          -3539.0258 XXZZ=          -2879.3905 YYZZ=           -936.6051
 XXYZ=            -14.7958 YYXZ=              4.0965 ZZXY=              8.0337
 N-N= 3.142688981821D+03 E-N=-1.074871255393D+04  KE= 1.886704458705D+03
 No NMR shielding tensors so no spin-rotation constants.
 Leave Link  601 at Mon Feb 26 06:07:51 2024, MaxMem=  7516192768 cpu:              29.1 elap:               1.1
 (Enter /public/apps/g16-C01//g16/l701.exe)
 ... and contract with generalized density number  0.
 Compute integral first derivatives.
 R6Disp: Adding Grimme-D3(BJ) dispersion energy 1st derivatives to the gradient.
   1 Symmetry operations used in ECPInt.
 ECPInt:  NShTT=   25651 NPrTT=  103747 LenC2=   20888 LenP2D=   54598.
 LDataN:  DoStor=T MaxTD1= 5 Len=  102
 Leave Link  701 at Mon Feb 26 06:07:52 2024, MaxMem=  7516192768 cpu:              20.0 elap:               0.6
 (Enter /public/apps/g16-C01//g16/l702.exe)
 L702 exits ... SP integral derivatives will be done elsewhere.
 Leave Link  702 at Mon Feb 26 06:07:52 2024, MaxMem=  7516192768 cpu:               1.0 elap:               0.1
 (Enter /public/apps/g16-C01//g16/l703.exe)
 Integral derivatives from FoFJK, PRISM(SPDF).
 Compute integral first derivatives, UseDBF=F ICtDFT=           0.
 Calling FoFJK, ICntrl=      2127 FMM=F ISym2X=0 I1Cent= 0 IOpClX= 0 NMat=1 NMatS=1 NMatT=0.
 FoFJK:  IHMeth= 1 ICntrl=    2127 DoSepK=F KAlg= 0 I1Cent=           0 FoldK=F
 IRaf=         0 NMat=       1 IRICut=       1 DoRegI=T DoRafI=F ISym2E= 0 IDoP0=0 IntGTp=1.
 FoFCou: FMM=F IPFlag=           0 FMFlag=      100000 FMFlg1=         800
         NFxFlg=           0 DoJE=F BraDBF=F KetDBF=F FulRan=T
         wScrn=  0.000000 ICntrl=      2127 IOpCl=  0 I1Cent=           0 NGrid=           0
         NMat0=    1 NMatS0=      1 NMatT0=    0 NMatD0=    1 NMtDS0=    0 NMtDT0=    0
 Symmetry not used in FoFCou.
 Leave Link  703 at Mon Feb 26 06:07:57 2024, MaxMem=  7516192768 cpu:             199.3 elap:               5.1
 (Enter /public/apps/g16-C01//g16/l716.exe)
 Dipole        = 2.59529207D+00-1.55540001D+00-2.83618167D-01
 -------------------------------------------------------------------
 Center     Atomic                   Forces (Hartrees/Bohr)
 Number     Number              X              Y              Z
 -------------------------------------------------------------------
      1        6           0.009642529    0.006968848   -0.002003488
      2        6          -0.010207487   -0.005607266   -0.002749597
      3        7           0.007491609   -0.001419065    0.000588471
      4        6          -0.010934266    0.001271035   -0.007550958
      5        6           0.008825776    0.002717195    0.008490976
      6        6          -0.002521514    0.003074835    0.009644146
      7        6          -0.002921538   -0.003141063   -0.010952134
      8        6          -0.003756474    0.004261729    0.007826492
      9        6          -0.000146428   -0.008202602   -0.006148258
     10        6           0.003687481    0.003949443    0.009860647
     11        6           0.000708761   -0.002538230   -0.012337150
     12        7           0.003704973   -0.002732988   -0.001997281
     13        6          -0.004146420   -0.001524896   -0.002855413
     14       16          -0.000889940    0.019524839    0.007993712
     15        7           0.014061276   -0.006539509   -0.002601479
     16        6          -0.006215313    0.000931771    0.001192632
     17        6           0.000538656    0.002234817    0.000779866
     18        6          -0.007119134   -0.008604585    0.000734069
     19        6          -0.002626563   -0.008615658   -0.004271315
     20        9           0.001191053    0.002382631   -0.003706108
     21        9           0.005186985   -0.000532834    0.003086247
     22        9          -0.004220879    0.005479535    0.003202482
     23        6           0.001046571    0.000118029    0.000003766
     24        6          -0.007284144    0.006270066   -0.000040715
     25        6          -0.003420803    0.007676019    0.003819436
     26        9          -0.004653276   -0.005020268   -0.002308847
     27        9           0.002528769   -0.002020545    0.003614229
     28        9           0.005541807    0.000509799   -0.003526234
     29        6          -0.001590511    0.002717900   -0.000382127
     30        1          -0.009355624    0.003192475   -0.005012213
     31        1          -0.000290845   -0.011657374   -0.000763952
     32        1          -0.001952569    0.000790844    0.012303594
     33        1           0.006242449    0.000422076    0.003155163
     34        1           0.000707092    0.007214853    0.001725437
     35        1           0.001740259   -0.003958108    0.005996343
     36        1           0.007409894   -0.000028647    0.000011046
     37        1          -0.000825773    0.005277435   -0.009918072
     38        1          -0.010514511   -0.001324065    0.003362613
     39        1           0.003750025   -0.011479775   -0.004618453
     40        1           0.001069048   -0.001564770   -0.004912377
     41        1           0.005581180   -0.005809913    0.002271335
     42        1          -0.000692678    0.002994412    0.008037188
     43        1           0.008554923    0.002982071    0.000704006
     44        1           0.002657961   -0.003965453   -0.007546817
     45        1           0.002356838    0.007260883   -0.005069838
     46        1          -0.000583996    0.006212513    0.007096885
     47        1          -0.000163273   -0.004715617   -0.007524695
     48        1          -0.006199331    0.004137727   -0.001332372
     49        1          -0.000110412    0.001027198    0.003666424
     50        1          -0.000859514   -0.005108713    0.002370240
     51        1           0.000285963   -0.002198487   -0.001162610
     52        1           0.004435582   -0.007966995   -0.000950150
     53        1          -0.008348506    0.000251723    0.000807904
     54        1           0.003604265    0.004424728   -0.000102694
 -------------------------------------------------------------------
 Cartesian Forces:  Max     0.019524839 RMS     0.005435483
 Leave Link  716 at Mon Feb 26 06:07:57 2024, MaxMem=  7516192768 cpu:               1.3 elap:               0.1
 (Enter /public/apps/g16-C01//g16/l103.exe)

 GradGradGradGradGradGradGradGradGradGradGradGradGradGradGradGradGradGrad
 Berny optimization.
 FormGI is forming the generalized inverse of G from B-inverse, IUseBI=4.
 Internal  Forces:  Max     0.021400258 RMS     0.004403123
 Search for a local minimum.
 Step number   1 out of a maximum of  311
 All quantities printed in internal units (Hartrees-Bohrs-Radians)
 RMS Force = .44031D-02 SwitMx=.10000D-02 MixMth= 1
 Mixed Optimization -- RFO/linear search
 Second derivative matrix not updated -- first step.
 ITU=  0
     Eigenvalues ---    0.00392   0.00407   0.00588   0.00600   0.00682
     Eigenvalues ---    0.00711   0.00717   0.00962   0.00967   0.00982
     Eigenvalues ---    0.01045   0.01639   0.01680   0.01945   0.01955
     Eigenvalues ---    0.01973   0.01977   0.01984   0.01990   0.02007
     Eigenvalues ---    0.02082   0.02142   0.02186   0.02198   0.02215
     Eigenvalues ---    0.02255   0.02265   0.02276   0.02400   0.03686
     Eigenvalues ---    0.04043   0.04166   0.04330   0.04378   0.04428
     Eigenvalues ---    0.04819   0.04872   0.04924   0.05188   0.05591
     Eigenvalues ---    0.05597   0.05599   0.05640   0.05645   0.05682
     Eigenvalues ---    0.05704   0.05725   0.05831   0.06288   0.06821
     Eigenvalues ---    0.07781   0.07782   0.08030   0.08067   0.08399
     Eigenvalues ---    0.09113   0.09170   0.09229   0.10389   0.10477
     Eigenvalues ---    0.10680   0.10763   0.11959   0.12668   0.12704
     Eigenvalues ---    0.12830   0.14747   0.15031   0.16000   0.16000
     Eigenvalues ---    0.16000   0.16000   0.16000   0.16000   0.16000
     Eigenvalues ---    0.16000   0.16000   0.16000   0.16987   0.17258
     Eigenvalues ---    0.19437   0.19832   0.20524   0.21935   0.21943
     Eigenvalues ---    0.22000   0.22274   0.23475   0.23492   0.23503
     Eigenvalues ---    0.24990   0.24993   0.24998   0.25000   0.25000
     Eigenvalues ---    0.25000   0.25000   0.25000   0.25000   0.25000
     Eigenvalues ---    0.25000   0.27476   0.27617   0.28055   0.29416
     Eigenvalues ---    0.29496   0.29581   0.29591   0.29689   0.31719
     Eigenvalues ---    0.31949   0.33597   0.33762   0.33971   0.34006
     Eigenvalues ---    0.34498   0.34552   0.34574   0.34613   0.34643
     Eigenvalues ---    0.34672   0.34693   0.34707   0.34805   0.34812
     Eigenvalues ---    0.35032   0.35076   0.35112   0.35161   0.35191
     Eigenvalues ---    0.35202   0.35900   0.36210   0.36245   0.37574
     Eigenvalues ---    0.37625   0.37766   0.38392   0.42637   0.42928
     Eigenvalues ---    0.43242   0.45310   0.45393   0.46519   0.47066
     Eigenvalues ---    0.47904   0.48392   0.49385   0.49574   0.55575
     Eigenvalues ---    0.55783   0.56095   0.56221   0.57083   0.57378
     Eigenvalues ---    0.58214
 RFO step:  Lambda=-1.83540659D-02 EMin= 3.91666430D-03
 Linear search not attempted -- first point.
 Iteration  1 RMS(Cart)=  0.14908587 RMS(Int)=  0.00259393
 Iteration  2 RMS(Cart)=  0.01633848 RMS(Int)=  0.00008534
 Iteration  3 RMS(Cart)=  0.00008484 RMS(Int)=  0.00008239
 Iteration  4 RMS(Cart)=  0.00000000 RMS(Int)=  0.00008239
 ITry= 1 IFail=0 DXMaxC= 6.34D-01 DCOld= 1.00D+10 DXMaxT= 3.00D-01 DXLimC= 3.00D+00 Rises=F
 Variable       Old X    -DE/DX   Delta X   Delta X   Delta X     New X
                                 (Linear)    (Quad)   (Total)
    R1        2.88588   0.00368   0.00000   0.01168   0.01168   2.89756
    R2        2.05493   0.01106   0.00000   0.02994   0.02994   2.08487
    R3        2.05414   0.01164   0.00000   0.03147   0.03147   2.08561
    R4        2.05348   0.01230   0.00000   0.03321   0.03321   2.08669
    R5        2.74708   0.00711   0.00000   0.01795   0.01795   2.76502
    R6        2.08015   0.00656   0.00000   0.01852   0.01852   2.09867
    R7        2.05981   0.00727   0.00000   0.01983   0.01983   2.07964
    R8        2.74990   0.00740   0.00000   0.01879   0.01879   2.76869
    R9        2.74914   0.00682   0.00000   0.01729   0.01729   2.76643
   R10        2.88806   0.00347   0.00000   0.01106   0.01106   2.89911
   R11        2.06211   0.00721   0.00000   0.01974   0.01974   2.08185
   R12        2.07734   0.00699   0.00000   0.01964   0.01964   2.09698
   R13        2.05623   0.01124   0.00000   0.03048   0.03048   2.08670
   R14        2.05551   0.01111   0.00000   0.03011   0.03011   2.08561
   R15        2.05366   0.01268   0.00000   0.03424   0.03424   2.08789
   R16        2.89998   0.00371   0.00000   0.01148   0.01149   2.91147
   R17        2.90129   0.00863   0.00000   0.02703   0.02710   2.92839
   R18        2.07319   0.00522   0.00000   0.01456   0.01456   2.08775
   R19        2.88511   0.00623   0.00000   0.02057   0.02052   2.90563
   R20        2.06409   0.00825   0.00000   0.02268   0.02268   2.08677
   R21        2.06175   0.00852   0.00000   0.02333   0.02333   2.08509
   R22        2.88503   0.00525   0.00000   0.01765   0.01757   2.90260
   R23        2.06259   0.00883   0.00000   0.02420   0.02420   2.08679
   R24        2.06497   0.00884   0.00000   0.02433   0.02433   2.08930
[...]
 1,0.00029404,0.00219059,0.00011332,-0.00015731,0.00000869,0.00001191,0
 .00001193,-0.00001356,0.00013836,0.00000460,0.00007066,0.00010124,0.00
 003117,-0.00005127,0.00000274,0.00002477,-0.00000027,-0.00003133,0.000
 02365,-0.00003953,0.00005552,-0.00000203,0.00000017,0.00006688,0.00002
 211,-0.00005562,0.00004122,0.00006419,0.00003133,0.00004724,0.00000704
 ,-0.00002392,0.00001630,-0.00000306,-0.00005389,-0.00003274,0.00001172
 ,-0.00000162,-0.00000499,-0.00001647,-0.00000051,-0.00001494,0.0000225
 3,-0.00002643,0.00000535,0.00000473,-0.00001153,0.00001415,0.00001734,
 -0.00000458,-0.00002005,-0.00001486,-0.00000895,0.00002771,-0.00001288
 ,-0.00001540,0.00006488,0.00008894,-0.00009663,-0.00016827,-0.00014806
 ,-0.00004821,-0.00192386,0.00028271,0.00093526,-0.04400950,0.13752112,
 0.06545453,-0.00001096,0.00000442,-0.00000177,0.00000013,-0.00000748,-
 0.00002539,0.00002795,-0.00000729,0.00002621,-0.00001387,0.00002286,0.
 00000045,-0.00000318,-0.00001064,0.00000163,-0.00000732,0.00001900,-0.
 00000792,0.00000268,-0.00001048,0.00000258,-0.00000200,0.00000331,0.00
 000433,-0.00000618,-0.00000150,-0.00000587,0.00001192,0.00000172,0.000
 00680,-0.00007496,-0.00004468,0.00002541,0.00018782,0.00008696,-0.0000
 0369,-0.00014111,-0.00033672,-0.00001778,0.00006166,0.00019287,0.00001
 082,0.00194848,-0.00122129,-0.00119529,0.00875069,-0.01333335,-0.00973
 602,-0.10054408,0.07891424,0.06047795,-0.00677109,0.02305255,0.0172597
 8,-0.00164759,0.00429634,0.00192207,0.00007565,-0.00050109,-0.00048420
 ,0.00105854,-0.00216203,-0.00093552,0.00080833,-0.00032836,-0.00040336
 ,-0.00546658,-0.00146300,0.00010973,-0.00077657,-0.00055983,-0.0003172
 0,-0.00026143,-0.00020474,-0.00023713,0.00011837,0.00009083,0.00008643
 ,0.00002664,0.00002361,0.00006720,0.00013612,0.00015379,0.00003462,-0.
 00185972,-0.00250289,-0.00096777,0.00000612,-0.00000220,-0.00000195,0.
 00000192,-0.00000287,-0.00000110,0.00000217,0.00000187,0.00000542,0.00
 000608,-0.00000043,0.00000842,-0.00000275,-0.00000165,-0.00000285,0.00
 000054,-0.00000173,0.00000442,0.00000995,-0.00000106,0.00000011,-0.000
 00789,0.00000088,0.00000476,0.00000346,0.00000921,-0.00000965,0.000008
 90,-0.00000425,0.00000249,-0.00000092,-0.00000111,0.00000100,0.0000073
 0,-0.00000042,0.00000146,-0.00000007,0.00000184,-0.00000061,0.00000588
 ,0.00000210,0.00000085,-0.00000118,-0.00000201,-0.00000143,0.00000650,
 0.00000365,-0.00000337,0.00000054,-0.00000049,0.00000191,0.00000005,-0
 .00000246,-0.00000082,-0.00000550,-0.00000285,0.00000766,0.00001654,0.
 00002046,0.00000424,-0.00003344,0.00003470,-0.00008073,-0.00060570,0.0
 0029506,-0.00005127,0.10484374,-0.00001165,0.00000523,0.00000128,0.000
 00477,-0.00000865,-0.00003918,0.00003575,-0.00002496,0.00004696,-0.000
 01472,0.00003307,0.00000475,0.00000112,-0.00000871,-0.00000656,-0.0000
 2139,0.00002479,-0.00002285,-0.00000027,-0.00001143,0.00000434,-0.0000
 0190,0.00000690,0.00000094,-0.00000950,-0.00000350,-0.00000960,0.00003
 341,0.00000959,0.00000812,-0.00009527,-0.00003100,-0.00005241,0.000202
 31,-0.00002754,-0.00006287,-0.00086932,-0.00079161,0.00053849,-0.00003
 895,0.00044007,0.00011670,0.00192206,0.00068613,0.00247368,0.01150401,
 -0.01026094,-0.01188472,0.07945021,-0.20297284,-0.12404519,0.00075726,
 0.00232289,-0.00022609,-0.00076688,-0.00097379,0.00081538,0.00047834,0
 .00003386,0.00098732,-0.00175378,-0.00138996,-0.00020870,0.00019860,-0
 .00001153,-0.00001278,-0.00067574,0.00318868,-0.00211613,-0.00079588,-
 0.00005245,0.00037091,-0.00015055,-0.00014536,0.00029843,0.00009876,-0
 .00003493,0.00002560,-0.00000596,0.00002169,0.00005191,0.00007401,-0.0
 0006307,-0.00003236,-0.00374039,-0.00011611,-0.00338152,0.00000552,-0.
 00000351,-0.00001106,0.00000153,-0.00000383,-0.00000030,0.00000405,0.0
 0000131,0.00000950,0.00000328,-0.00000140,0.00001188,-0.00000277,-0.00
 000389,-0.00000477,0.00000146,-0.00000452,0.00000606,0.00000738,-0.000
 00469,-0.00000243,-0.00000948,0.00000168,0.00000765,-0.00000025,0.0000
 1141,-0.00000517,0.00000896,-0.00000507,0.00000276,-0.00000374,0.00000
 173,0.00000285,0.00000886,-0.00000227,0.00000239,0.00000035,0.00000333
 ,0.00000020,0.00000763,0.00000026,0.00000282,-0.00000184,-0.00000193,-
 0.00000035,0.00000749,0.00000295,-0.00000186,0.00000299,0.00000181,0.0
 0000402,-0.00000751,0.00000187,0.00000274,-0.00000458,-0.00001260,0.00
 000624,0.00001232,0.00002620,0.00001093,-0.00007124,0.00007569,-0.0000
 6857,-0.00149510,0.00003602,-0.00051380,-0.08501935,0.21029710,-0.0000
 1148,0.00000672,-0.00001054,-0.00000959,-0.00000908,0.00001290,0.00001
 329,0.00003494,-0.00002285,-0.00000620,-0.00001080,-0.00000923,-0.0000
 3102,-0.00000853,0.00001091,-0.00000028,-0.00002044,0.00003249,0.00000
 365,0.00000345,-0.00000622,0.00000069,-0.00000316,0.00000623,0.0000027
 4,-0.00000011,0.00000126,-0.00002066,-0.00000550,0.00000109,0.00000109
 ,-0.00000140,0.00007600,-0.00009655,0.00013668,0.00009758,0.00002956,0
 .00024842,-0.00033126,0.00007774,0.00013155,-0.00000407,0.00121389,0.0
 0162932,-0.00222920,0.00588499,-0.00871818,-0.00191105,0.06145377,-0.1
 2368205,-0.12775301,0.00143334,-0.00262284,0.00145570,-0.00033909,-0.0
 0000130,-0.00227505,-0.00033257,-0.00009250,-0.00087490,-0.00163756,0.
 00074495,0.00005550,0.00048217,0.00032550,0.00016273,0.00079570,-0.002
 18322,0.00473740,-0.00055754,0.00045977,-0.00023046,-0.00009603,0.0001
 8870,-0.00031806,-0.00002401,-0.00002331,-0.00003224,0.00005446,0.0000
 0074,-0.00016534,0.00007363,0.00003789,-0.00000686,-0.00136465,-0.0034
 1573,0.00352572,0.00000678,-0.00002120,0.00000651,-0.00000960,0.000007
 46,-0.00000657,0.00000846,0.00000270,0.00000517,0.00001091,0.00000308,
 -0.00000271,0.00000236,0.00000659,-0.00000140,-0.00000477,0.00000326,-
 0.00000404,0.00000913,0.00000679,0.00000396,0.00000548,0.00000372,-0.0
 0000493,0.00001019,0.00000494,-0.00000321,0.00000680,0.00000094,0.0000
 0109,-0.00000034,-0.00000092,-0.00000173,-0.00000245,0.00000125,-0.000
 00078,-0.00000015,-0.00000092,-0.00000014,0.00000078,0.00000345,-0.000
 00265,-0.00000018,0.00000012,-0.00000138,0.00000004,0.00000181,-0.0000
 0306,-0.00000139,-0.00000139,0.00000006,0.00000359,-0.00000184,-0.0000
 0185,-0.00000113,0.00000820,-0.00000411,0.00001380,0.00000122,-0.00000
 198,-0.00004715,-0.00007780,-0.00005770,-0.00124731,-0.00007050,0.0003
 4391,-0.06598067,0.13749376,0.12581835,0.00000133,0.00000116,-0.000000
 14,-0.00000176,-0.00000071,0.00000269,0.00000032,0.00000103,-0.0000041
 4,-0.00000043,0.,0.00000027,-0.00000020,-0.00000004,-0.00000010,0.0000
 0077,0.00000005,0.00000466,0.00000050,0.00000036,0.00000001,-0.0000005
 3,-0.00000097,0.00000028,0.00000029,0.00000259,-0.00000130,0.00000136,
 -0.00000294,0.00000466,-0.00000161,0.00000082,0.00000180,0.00002127,0.
 00001246,-0.00000668,-0.00010210,-0.00024564,-0.00009831,-0.00013640,0
 .00003516,0.00010570,0.00040397,0.00007940,-0.00005950,0.00017877,-0.0
 0009617,-0.00020925,0.00123775,0.00117006,0.00117401,-0.00682344,-0.00
 015762,0.00124584,-0.00168768,-0.00055509,-0.00022368,0.00010391,0.000
 02256,0.00010799,0.00020797,0.00012086,0.00010953,0.00071224,-0.001700
 38,-0.00138092,-0.34145491,0.01199985,0.03835667,-0.01240864,0.0017205
 2,0.00251898,-0.00232634,0.00100373,0.00032999,0.00142889,0.00150993,0
 .00106814,0.00025607,-0.00002744,-0.00033119,0.00033375,0.00006206,-0.
 00007087,0.00027572,-0.00262705,-0.00126327,-0.00000013,-0.00000135,0.
 00000081,-0.00000090,0.00000059,0.00000003,-0.00000040,-0.00000068,-0.
 00000056,0.00000035,0.00000036,-0.00000070,0.00000055,0.00000050,-0.00
 000002,-0.00000030,0.00000034,-0.00000050,0.00000025,-0.00000007,-0.00
 000011,0.00000035,0.00000022,-0.00000042,0.00000019,-0.00000007,0.0000
 0058,-0.00000011,-0.00000006,0.00000005,-0.00000065,0.00000063,-0.0000
 0077,-0.00000018,0.00000013,-0.00000008,0.00000011,-0.00000034,-0.0000
 0010,-0.00000041,0.00000033,-0.00000031,0.00000002,0.00000009,-0.00000
 014,0.,0.00000022,0.00000022,0.00000044,-0.00000004,0.00000004,-0.0000
 0165,0.00000092,-0.00000014,0.00000068,0.00000253,-0.00000509,0.000006
 22,-0.00000164,0.00000192,-0.00000257,0.00000973,0.00000273,0.00002483
 ,0.00000750,0.00006131,-0.00026345,-0.00014432,-0.00003255,0.36039704,
 0.00000024,0.00000129,0.00000338,0.00000298,0.00000036,-0.00000255,-0.
 00000661,-0.00000050,0.00000206,0.00000092,-0.00000077,-0.00000068,-0.
 00000012,-0.00000023,-0.00000020,0.00000246,0.00000077,-0.00000323,-0.
 00000060,0.00000096,0.00000040,0.00000058,0.00000068,-0.00000125,0.000
 00110,-0.00000031,0.00000062,0.00000529,0.00000437,-0.00000023,0.00000
 355,-0.00000091,-0.00002408,-0.00005443,0.00006282,-0.00002763,0.00004
 192,-0.00012498,0.00006408,0.00000734,0.00008183,0.00006689,0.00004040
 ,0.00004200,0.00058673,-0.00004057,-0.00096172,-0.00013637,0.00015893,
 -0.00126295,-0.00525756,0.02213494,0.00300165,-0.00203179,0.00365243,-
 0.00045791,0.00021540,0.00001261,-0.00001188,0.00078536,-0.00061544,0.
 00032207,0.00020864,-0.00232815,-0.00096566,0.00051572,0.01209198,-0.0
 5019393,-0.01218493,-0.02059684,0.00505808,0.00365830,-0.00338967,-0.0
 0018498,0.00096760,0.00221797,-0.00135673,-0.00017259,0.00016619,-0.00
 007394,0.00076292,0.00065071,0.00025998,0.00007721,-0.00174521,-0.0011
 7773,-0.00500793,-0.00000083,-0.00000125,-0.00000335,0.00000003,-0.000
 00063,-0.00000077,0.00000076,0.00000040,0.00000056,-0.00000202,0.00000
 028,0.00000038,0.00000040,-0.00000032,0.00000093,0.00000049,-0.0000000
 8,0.00000094,-0.00000116,0.00000039,0.00000028,-0.00000112,-0.00000052
 ,0.00000093,-0.00000064,0.00000116,-0.00000141,0.00000128,-0.00000006,
 0.00000010,-0.00000036,0.00000080,0.00000076,-0.00000035,-0.00000031,0
 .00000028,0.00000028,0.00000027,0.00000009,-0.00000060,-0.00000064,0.0
 0000045,0.00000019,-0.00000034,0.00000017,-0.00000113,-0.00000060,0.00
 000115,0.00000026,0.00000009,-0.00000071,-0.00000100,-0.00000014,-0.00
 000013,-0.00000051,-0.00000227,0.00000085,-0.00000955,0.00000637,0.000
 00345,-0.00001304,-0.00001201,-0.00001726,-0.00009349,-0.00003909,-0.0
 0005978,0.00113188,0.00022945,-0.00030620,-0.01250784,0.04731179,0.000
 00394,0.00000171,-0.00000026,-0.00000472,-0.00000062,0.00001144,-0.000
 00029,0.00000637,-0.00001512,0.00000079,-0.00000428,-0.00000098,-0.000
 00262,0.00000026,0.00000132,0.00000359,-0.00000625,0.00001274,0.000000
 62,0.00000272,-0.00000041,-0.00000114,-0.00000356,0.00000110,0.0000004
 3,0.00000690,0.00000214,-0.00001228,-0.00001050,0.00000238,0.00001405,
 0.00000639,0.00003064,0.00002370,-0.00000098,0.00005553,-0.00000142,-0
 .00017130,-0.00011667,-0.00025010,-0.00005661,0.00009033,0.00005284,0.
 00033245,-0.00060830,-0.00006013,-0.00006683,-0.00080922,0.00096245,-0
 .00529771,0.00249839,0.01647425,0.00036160,0.00206792,0.00179568,0.001
 39164,-0.00219272,-0.00085169,-0.00005978,-0.00085202,-0.00031683,0.00
 069551,0.00040106,-0.00046589,0.00008305,-0.00010670,0.03826341,-0.012
 71360,-0.04909439,-0.01253702,0.00164916,0.00603086,-0.00173895,0.0012
 0984,-0.00170234,0.00010366,-0.00036601,-0.00051092,0.00060101,-0.0000
 4340,-0.00095675,0.00038799,0.00065856,0.00034769,-0.00115549,-0.00474
 415,0.00287181,-0.00000066,-0.00000199,0.00000478,-0.00000164,0.000001
 63,-0.00000030,-0.00000172,-0.00000128,-0.00000319,0.00000053,0.000001
 00,-0.00000289,0.00000127,0.00000168,0.00000104,-0.00000084,0.00000182
 ,-0.00000173,0.00000052,0.00000070,0.00000051,0.00000085,0.00000024,-0
 .00000173,0.00000107,-0.00000026,0.00000039,-0.00000006,0.00000037,0.0
 0000019,-0.00000143,0.00000046,-0.00000220,-0.00000168,0.00000077,-0.0
 0000073,0.00000022,-0.00000133,-0.00000036,-0.00000199,0.00000120,-0.0
 0000136,0.00000016,0.00000048,-0.00000048,-0.00000082,0.00000010,-0.00
 000039,0.00000051,-0.00000055,-0.00000057,-0.00000250,0.00000253,0.000
 00124,0.00000488,0.00000992,-0.00001348,0.00001793,-0.00001308,-0.0000
 0181,0.00001223,0.00000311,0.00000949,-0.00008425,0.00000674,0.0000420
 1,0.00086932,-0.00022591,0.00030178,-0.04163343,0.01727433,0.04182178,
 -0.00003314,-0.00001159,-0.00001282,-0.00000894,0.00000782,-0.00009343
 ,0.00019120,-0.00012127,0.00014415,-0.00004002,0.00013796,0.00002186,0
 .00000842,-0.00001698,-0.00000959,-0.00008028,0.00007142,-0.00007663,0
 .00000331,-0.00004067,0.00001314,-0.00000820,0.00002337,0.00001451,-0.
 00003167,-0.00002258,-0.00001852,0.00000397,0.00003600,0.00001974,-0.0
 0032553,-0.00016873,-0.00001303,0.00054346,-0.00140382,-0.00008627,0.0
 0017006,0.00562977,0.00079447,-0.00407294,-0.00394071,0.00080986,-0.00
 221524,-0.00224714,-0.00083068,0.01557122,0.00984308,0.00713595,-0.001
 71896,0.00140742,0.00226482,0.00002654,0.00079095,0.00045107,-0.000559
 77,-0.00023838,-0.00026003,0.00013217,0.00006353,0.00014239,0.00011275
 ,0.00008252,0.00005485,0.00024828,0.00001644,-0.00006512,-0.00411715,0
 .00111650,0.00236390,-0.01215299,-0.01959914,-0.01165950,-0.00255275,-
 0.00273817,-0.00156660,0.00097504,0.00007533,0.00019422,0.00035668,0.0
 0024568,-0.00025580,0.00170545,0.00150531,0.00036839,-0.15524762,-0.11
 855812,-0.07449917,0.00003473,0.00002937,-0.00000556,0.00001988,-0.000
 02227,0.00000801,0.00000215,0.00000943,0.00001319,0.00002133,-0.000014
 10,0.00003292,-0.00002232,-0.00002433,-0.00001307,0.00000089,-0.000016
 90,0.00001068,0.00003085,-0.00002363,-0.00001110,-0.00001111,0.0000101
 2,0.00001274,-0.00000368,0.00001163,-0.00000321,0.00001068,-0.00001813
 ,0.00000116,0.00001133,-0.00001368,-0.00000295,0.00003165,-0.00000538,
 0.00000640,-0.00000313,0.00000551,-0.00000527,0.00002634,0.00000321,0.
 00000692,-0.00000295,-0.00000980,-0.00000651,0.00002905,0.00001454,-0.
 00001339,0.00000019,-0.00000327,0.00000492,0.00002509,-0.00002405,-0.0
 0000484,-0.00001891,-0.00003782,0.00005935,-0.00001130,0.00003241,-0.0
 0000035,0.00006306,0.00026394,0.00015616,0.00000681,-0.00005968,-0.000
 45988,0.00037285,0.00087993,0.00025590,-0.00038109,-0.00091684,-0.0004
 6832,0.16288426,0.00003231,0.00000896,0.00004765,0.00002169,0.00000786
 ,-0.00005053,-0.00000878,-0.00000217,0.00004425,0.00001077,-0.00000820
 ,-0.00000461,0.00000271,0.00000152,-0.00000028,0.00001431,0.00000393,-
 0.00000936,0.00000052,0.00000139,0.00000351,0.00000117,-0.00000090,-0.
 00000441,0.00000522,0.00000838,0.00000020,0.00000873,0.00001163,0.0000
 1770,-0.00005511,-0.00006610,-0.00015025,-0.00027524,-0.00043430,-0.00
 006538,0.00200111,0.00178306,-0.00028884,-0.00369052,-0.00222293,0.001
 28273,-0.00181454,-0.00108529,0.00229410,-0.01308040,-0.01057206,-0.00
 869605,0.00221129,0.00018726,-0.00407751,0.00067794,-0.00019722,0.0002
 0987,0.00008782,-0.00043203,0.00009545,0.00008397,0.00006809,0.0001660
 6,-0.00008328,0.00008227,0.00004091,-0.00005898,0.00004436,0.00007847,
 0.00163955,0.00244894,-0.00284335,0.00129914,0.00688414,0.00266854,0.0
 0097521,0.00008507,0.00112942,-0.00014182,-0.00022589,-0.00008669,-0.0
 0025407,-0.00010227,0.00085498,0.00106865,-0.00205205,-0.00081136,-0.1
 1819040,-0.19488106,-0.09973047,-0.00000975,-0.00001658,-0.00004280,-0
 .00002025,0.00000601,-0.00000884,0.00000461,-0.00000048,0.00000698,-0.
 00002131,-0.00000296,0.00001299,0.00000436,0.00000153,0.00000536,0.000
 00385,-0.00000333,0.00000318,-0.00000542,-0.00000013,0.00000228,-0.000
 00111,-0.00000169,0.00000231,-0.00000184,-0.00000175,-0.00000274,-0.00
 000151,0.00000266,0.00000036,-0.00000229,0.00000425,0.00000644,-0.0000
 0242,0.00000034,-0.00000004,0.00000186,0.00000240,0.00000096,-0.000004
 74,-0.00000211,0.00000049,0.00000068,-0.00000021,0.00000149,-0.0000032
 8,-0.00000174,0.00000422,0.00000304,0.00000035,-0.00000208,-0.00000578
 ,0.00000142,0.00000291,0.00000605,-0.00000487,-0.00001559,-0.00006374,
 0.00003163,0.00003180,0.00005102,0.00002779,-0.00002790,-0.00008288,-0
 .00014456,0.00001286,-0.00062590,-0.00049164,-0.00021902,0.00030375,0.
 00044554,0.00007676,0.12798401,0.20080375,0.00000879,-0.00000878,-0.00
 001165,-0.00002712,0.00001374,0.00010102,-0.00006398,0.00005075,-0.000
 13221,0.00001382,-0.00005244,-0.00001484,-0.00000227,0.00000696,0.0000
 0637,0.00005041,-0.00005306,0.00010314,0.00000187,0.00003151,-0.000003
 04,-0.00000276,-0.00002789,-0.00000243,0.00001480,0.00004840,0.0000134
 2,-0.00005518,-0.00004844,0.00001638,0.00010644,0.00005450,0.00008610,
 -0.00001439,0.00052982,0.00010797,0.00008375,-0.00280994,-0.00076303,0
 .00080633,0.00108791,0.00019291,0.00040488,0.00296427,-0.00245409,-0.0
 1036026,-0.01109881,-0.00101431,0.00194030,-0.00445803,0.00274872,0.00
 096916,0.00035946,-0.00054716,-0.00005810,0.00002649,-0.00057485,-0.00
 005964,0.00001757,-0.00007802,-0.00009842,0.00012986,0.00005709,0.0000
 5674,0.00002461,0.00000484,0.00155799,-0.00272560,0.00465902,0.0025275
 7,0.00265545,0.00635565,0.00049127,0.00178118,-0.00185461,-0.00074551,
 0.00025341,0.00018865,0.00006287,-0.00035309,-0.00113196,0.00101950,-0
 .00016714,-0.00057332,-0.07336764,-0.09605329,-0.09704282,-0.00000232,
 0.00001614,0.00004446,0.00001252,-0.00000286,-0.00000132,-0.00001475,0
 .00000332,-0.00003436,0.00000262,0.00000528,-0.00002934,0.00000042,0.0
 0000459,0.00001856,-0.00000402,0.00001585,-0.00001021,-0.00000829,0.00
 000652,0.00000390,0.00000624,-0.00000418,-0.00001117,0.00000169,-0.000
 00467,0.00000430,-0.00000513,0.00000593,-0.00000241,-0.00001357,0.0000
 1395,-0.00001390,-0.00001836,0.00000426,-0.00000587,0.00000231,-0.0000
 0992,-0.00000004,-0.00001968,0.00000458,-0.00000889,0.00000185,0.00000
 630,-0.00000026,-0.00001526,-0.00000569,0.00000450,0.00000510,-0.00000
 257,-0.00000309,-0.00002752,0.00002543,0.00000715,0.00003111,0.0000565
 5,-0.00010718,0.00008272,-0.00005186,0.00003198,0.00001332,-0.00000848
 ,0.00006358,-0.00012286,0.00004308,-0.00008250,-0.00047472,-0.00037346
 ,-0.00037777,0.00022535,0.00003967,0.00038945,0.07507998,0.10803285,0.
 09167752\\-0.00000017,0.00000051,0.00000015,0.00000004,0.00000025,0.00
 000220,-0.00000163,-0.00000044,-0.00000092,-0.00000007,-0.00000065,0.0
 0000152,-0.00000016,-0.00000051,0.00000151,0.00000127,-0.00000078,0.00
 000114,-0.00000053,-0.00000093,0.00000078,0.00000026,-0.00000120,0.000
 00021,0.00000090,-0.00000027,0.00000028,0.00000036,-0.00000114,-0.0000
 0030,-0.00000036,-0.00000052,0.00000214,0.00000049,-0.00000093,-0.0000
 0274,-0.00000412,-0.00000461,0.00000360,0.00000024,0.00000166,-0.00000
 197,0.00000259,0.00000280,-0.00000354,0.00000087,0.00000306,-0.0000035
 7,0.00000219,0.00000206,-0.00000029,0.00000492,-0.00000109,0.00000007,
 -0.00000311,0.00000156,0.00000290,0.00000007,0.00000052,-0.00000187,-0
 .00000081,-0.00000074,-0.00000128,0.00000211,0.00000125,-0.00000291,-0
 .00000031,0.00000051,-0.00000340,-0.00000243,-0.00000085,-0.00000065,-
 0.00000492,0.00000269,-0.00000550,0.00000073,-0.00000092,-0.00000165,0
 .00000106,0.00000104,-0.00000118,0.00000318,0.00000200,-0.00000006,0.0
 0000190,0.00000188,0.00000269,-0.00000071,0.00000058,0.00000059,-0.000
 00102,0.00000082,0.00000080,-0.00000098,0.00000080,0.00000010,-0.00000
 060,0.00000041,0.00000063,-0.00000024,0.00000010,0.00000012,-0.0000005
 8,0.00000022,0.00000093,-0.00000043,-0.00000042,0.00000138,-0.00000015
 ,-0.00000066,0.00000127,-0.00000038,-0.00000016,0.00000095,-0.00000064
 ,-0.00000030,0.00000171,-0.00000014,-0.00000090,0.00000072,0.00000015,
 -0.00000034,0.00000083,-0.00000004,-0.00000026,0.00000056,0.00000029,-
 0.00000101,0.00000067,0.00000042,-0.00000108,0.00000080,0.00000112,-0.
 00000132,0.00000012,0.00000050,-0.00000083,-0.00000028,0.00000059,-0.0
 0000078,0.00000022,0.00000045,-0.00000046,-0.00000023,-0.00000007,-0.0
 0000015,-0.00000087,0.00000047,-0.00000037,0.00000040,-0.00000041,-0.0
 0000044,0.00000209,-0.00000111,-0.00000083,0.00000072,-0.00000045,0.00
 000143,0.00000051,-0.00000061,-0.00000026,-0.00000210\\\@
 The archive entry for this job was punched.


 FORGIVE MY NONSENSE AS I ALSO FORGIVE THOSE WHO THINK THEY TALK SENSE

                                                       -- ROBERT FROST
 Job cpu time:       0 days  2 hours 58 minutes 42.9 seconds.
 Elapsed time:       0 days  0 hours  4 minutes 32.2 seconds.
 File lengths (MBytes):  RWF=   1424 Int=      0 D2E=      0 Chk=     20 Scr=      1
 Normal termination of Gaussian 16 at Mon Feb 26 06:43:44 2024.
