 Entering Gaussian System, Link 0=g16
 Initial command:
 /public/apps/g16-C01//g16/l1.exe "/public/home/ljq/tmp/Gau-49116.inp" -scrdir="/public/home/ljq/tmp/"
 Entering Link 1 = /public/apps/g16-C01//g16/l1.exe PID=     49117.
  
 Copyright (c) 1988-2019, Gaussian, Inc.  All Rights Reserved.
  
 This is part of the Gaussian(R) 16 program.  It is based on
 the Gaussian(R) 09 system (copyright 2009, Gaussian, Inc.),
 the Gaussian(R) 03 system (copyright 2003, Gaussian, Inc.),
 the Gaussian(R) 98 system (copyright 1998, Gaussian, Inc.),
 the Gaussian(R) 94 system (copyright 1995, Gaussian, Inc.),
 the Gaussian 92(TM) system (copyright 1992, Gaussian, Inc.),
 the Gaussian 90(TM) system (copyright 1990, Gaussian, Inc.),
 the Gaussian 88(TM) system (copyright 1988, Gaussian, Inc.),
 the Gaussian 86(TM) system (copyright 1986, Carnegie Mellon
 University), and the Gaussian 82(TM) system (copyright 1983,
 Carnegie Mellon University). Gaussian is a federally registered
 trademark of Gaussian, Inc.
  
 This software contains proprietary and confidential information,
 including trade secrets, belonging to Gaussian, Inc.
  
 This software is provided under written license and may be
 used, copied, transmitted, or stored only in accord with that
 written license.
  
 The following legend is applicable only to US Government
 contracts under FAR:
  
                    RESTRICTED RIGHTS LEGEND
  
 Use, reproduction and disclosure by the US Government is
 subject to restrictions as set forth in subparagraphs (a)
 and (c) of the Commercial Computer Software - Restricted
 Rights clause in FAR 52.227-19.
  
 Gaussian, Inc.
 340 Quinnipiac St., Bldg. 40, Wallingford CT 06492
  
  
 ---------------------------------------------------------------
 Warning -- This program may not be used in any manner that
 competes with the business of Gaussian, Inc. or will provide
 assistance to any competitor of Gaussian, Inc.  The licensee
 of this program is prohibited from giving any competitor of
 Gaussian, Inc. access to this program.  By using this program,
 the user acknowledges that Gaussian, Inc. is engaged in the
 business of creating and licensing software in the field of
 computational chemistry and represents and warrants to the
 licensee that it is not a competitor of Gaussian, Inc. and that
 it will not use this program in any manner prohibited above.
 ---------------------------------------------------------------
  

 Cite this work as:
 Gaussian 16, Revision C.01,
 M. J. Frisch, G. W. Trucks, H. B. Schlegel, G. E. Scuseria, 
 M. A. Robb, J. R. Cheeseman, G. Scalmani, V. Barone, 
 G. A. Petersson, H. Nakatsuji, X. Li, M. Caricato, A. V. Marenich, 
 J. Bloino, B. G. Janesko, R. Gomperts, B. Mennucci, H. P. Hratchian, 
 J. V. Ortiz, A. F. Izmaylov, J. L. Sonnenberg, D. Williams-Young, 
 F. Ding, F. Lipparini, F. Egidi, J. Goings, B. Peng, A. Petrone, 
 T. Henderson, D. Ranasinghe, V. G. Zakrzewski, J. Gao, N. Rega, 
 G. Zheng, W. Liang, M. Hada, M. Ehara, K. Toyota, R. Fukuda, 
 J. Hasegawa, M. Ishida, T. Nakajima, Y. Honda, O. Kitao, H. Nakai, 
 T. Vreven, K. Throssell, J. A. Montgomery, Jr., J. E. Peralta, 
 F. Ogliaro, M. J. Bearpark, J. J. Heyd, E. N. Brothers, K. N. Kudin, 
 V. N. Staroverov, T. A. Keith, R. Kobayashi, J. Normand, 
 K. Raghavachari, A. P. Rendell, J. C. Burant, S. S. Iyengar, 
 J. Tomasi, M. Cossi, J. M. Millam, M. Klene, C. Adamo, R. Cammi, 
 J. W. Ochterski, R. L. Martin, K. Morokuma, O. Farkas, 
 J. B. Foresman, and D. J. Fox, Gaussian, Inc., Wallingford CT, 2019.
 
 ******************************************
 Gaussian 16:  ES64L-G16RevC.01  3-Jul-2019
                26-Feb-2024 
 ******************************************
 %nproc=40
 Will use up to   40 processors via shared memory.
 %mem=56GB
 ------------------------------------------
 #p opt freq b3lyp/def2svpp em=gd3bj nosymm
 ------------------------------------------
 1/18=20,19=15,26=3,38=1/1,3;
 2/9=110,12=2,15=1,17=6,18=5,40=1/2;
 3/5=43,7=202,11=2,25=1,30=1,71=1,74=-5,124=41/1,2,3;
 4//1;
 5/5=2,38=5/2;
 6/7=2,8=2,9=2,10=2,28=1/1;
 7/30=1/1,2,3,16;
 1/18=20,19=15,26=3/3(2);
 2/9=110,15=1/2;
 99//99;
 2/9=110,15=1/2;
 3/5=43,7=202,11=2,25=1,30=1,71=1,74=-5,124=41/1,2,3;
 4/5=5,16=3,69=1/1;
 5/5=2,38=5/2;
 7/30=1/1,2,3,16;
 1/18=20,19=15,26=3/3(-5);
 2/9=110,15=1/2;
 6/7=2,8=2,9=2,10=2,19=2,28=1/1;
 99/9=1/99;
 Leave Link    1 at Mon Feb 26 06:32:30 2024, MaxMem=  7516192768 cpu:               1.2 elap:               0.0
 (Enter /public/apps/g16-C01//g16/l101.exe)
 -----------------------
 $$$$Singlemol####-2????
 -----------------------
 Symbolic Z-matrix:
 Charge = -2 Multiplicity = 1
 O                    -3.09183   0.90943   0.07075 
 C                    -1.89886   0.9436    0.61889 
 C                    -0.68351   0.62755  -0.3452 
 C                    -0.97946  -0.6699   -1.09749 
 C                    -0.72089  -1.90631  -0.24651 
 C                     0.7191   -1.9068    0.24683 
 C                     0.97883  -0.67028   1.09735 
 C                     0.68403   0.62728   0.3448 
 C                     1.89985   0.94186  -0.6191 
 O                     3.09265   0.90897  -0.07037 
 H                    -1.78984   0.22698   1.51356 
 H                    -1.63456   1.96651   1.0829 
 H                    -0.68703   1.43902  -1.09048 
 H                    -2.03912  -0.62368  -1.37543 
 H                    -0.37453  -0.73167  -2.01157 
 H                    -0.92904  -2.81945  -0.82794 
 H                    -1.40013  -1.89146   0.60874 
 H                     0.92634  -2.81989   0.82865 
 H                     1.39835  -1.89308  -0.60845 
 H                     0.37367  -0.73111   2.01134 
 H                     2.03844  -0.62485   1.37557 
 H                     0.68821   1.43899   1.08984 
 H                     1.79157   0.22348  -1.51236 
 H                     1.63547   1.96368  -1.08547 
 
 ITRead=  0  0  0  0  0  0  0  0  0  0  0  0  0  0  0  0  0  0  0  0
 ITRead=  0  0  0  0
 MicOpt= -1 -1 -1 -1 -1 -1 -1 -1 -1 -1 -1 -1 -1 -1 -1 -1 -1 -1 -1 -1
 MicOpt= -1 -1 -1 -1
 NAtoms=     24 NQM=       24 NQMF=       0 NMMI=      0 NMMIF=      0
                NMic=       0 NMicF=      0.
                    Isotopes and Nuclear Properties:
 (Nuclear quadrupole moments (NQMom) in fm**2, nuclear magnetic moments (NMagM)
  in nuclear magnetons)

  Atom         1           2           3           4           5           6           7           8           9          10
 IAtWgt=          16          12          12          12          12          12          12          12          12          16
 AtmWgt=  15.9949146  12.0000000  12.0000000  12.0000000  12.0000000  12.0000000  12.0000000  12.0000000  12.0000000  15.9949146
 NucSpn=           0           0           0           0           0           0           0           0           0           0
 AtZEff=  -0.0000000  -0.0000000  -0.0000000  -0.0000000  -0.0000000  -0.0000000  -0.0000000  -0.0000000  -0.0000000  -0.0000000
 NQMom=    0.0000000   0.0000000   0.0000000   0.0000000   0.0000000   0.0000000   0.0000000   0.0000000   0.0000000   0.0000000
 NMagM=    0.0000000   0.0000000   0.0000000   0.0000000   0.0000000   0.0000000   0.0000000   0.0000000   0.0000000   0.0000000
 AtZNuc=   8.0000000   6.0000000   6.0000000   6.0000000   6.0000000   6.0000000   6.0000000   6.0000000   6.0000000   8.0000000

  Atom        11          12          13          14          15          16          17          18          19          20
 IAtWgt=           1           1           1           1           1           1           1           1           1           1
 AtmWgt=   1.0078250   1.0078250   1.0078250   1.0078250   1.0078250   1.0078250   1.0078250   1.0078250   1.0078250   1.0078250
 NucSpn=           1           1           1           1           1           1           1           1           1           1
 AtZEff=  -0.0000000  -0.0000000  -0.0000000  -0.0000000  -0.0000000  -0.0000000  -0.0000000  -0.0000000  -0.0000000  -0.0000000
 NQMom=    0.0000000   0.0000000   0.0000000   0.0000000   0.0000000   0.0000000   0.0000000   0.0000000   0.0000000   0.0000000
 NMagM=    2.7928460   2.7928460   2.7928460   2.7928460   2.7928460   2.7928460   2.7928460   2.7928460   2.7928460   2.7928460
 AtZNuc=   1.0000000   1.0000000   1.0000000   1.0000000   1.0000000   1.0000000   1.0000000   1.0000000   1.0000000   1.0000000

  Atom        21          22          23          24
 IAtWgt=           1           1           1           1
 AtmWgt=   1.0078250   1.0078250   1.0078250   1.0078250
 NucSpn=           1           1           1           1
 AtZEff=  -0.0000000  -0.0000000  -0.0000000  -0.0000000
 NQMom=    0.0000000   0.0000000   0.0000000   0.0000000
 NMagM=    2.7928460   2.7928460   2.7928460   2.7928460
 AtZNuc=   1.0000000   1.0000000   1.0000000   1.0000000
 Leave Link  101 at Mon Feb 26 06:32:30 2024, MaxMem=  7516192768 cpu:               6.8 elap:               0.2
 (Enter /public/apps/g16-C01//g16/l103.exe)

 GradGradGradGradGradGradGradGradGradGradGradGradGradGradGradGradGradGrad
 Berny optimization.
 Initialization pass.
                           ----------------------------
                           !    Initial Parameters    !
                           ! (Angstroms and Degrees)  !
 --------------------------                            --------------------------
 ! Name  Definition              Value          Derivative Info.                !
 --------------------------------------------------------------------------------
 ! R1    R(1,2)                  1.3133         estimate D2E/DX2                !
 ! R2    R(2,3)                  1.5832         estimate D2E/DX2                !
 ! R3    R(2,11)                 1.1515         estimate D2E/DX2                !
 ! R4    R(2,12)                 1.1539         estimate D2E/DX2                !
 ! R5    R(3,4)                  1.5287         estimate D2E/DX2                !
 ! R6    R(3,8)                  1.5318         estimate D2E/DX2                !
 ! R7    R(3,13)                 1.1018         estimate D2E/DX2                !
 ! R8    R(4,5)                  1.5231         estimate D2E/DX2                !
 ! R9    R(4,14)                 1.0965         estimate D2E/DX2                !
 ! R10   R(4,15)                 1.0979         estimate D2E/DX2                !
 ! R11   R(5,6)                  1.5221         estimate D2E/DX2                !
 ! R12   R(5,16)                 1.1024         estimate D2E/DX2                !
 ! R13   R(5,17)                 1.0923         estimate D2E/DX2                !
 ! R14   R(6,7)                  1.5231         estimate D2E/DX2                !
 ! R15   R(6,18)                 1.1024         estimate D2E/DX2                !
 ! R16   R(6,19)                 1.0923         estimate D2E/DX2                !
 ! R17   R(7,8)                  1.5287         estimate D2E/DX2                !
 ! R18   R(7,20)                 1.0979         estimate D2E/DX2                !
 ! R19   R(7,21)                 1.0965         estimate D2E/DX2                !
 ! R20   R(8,9)                  1.5831         estimate D2E/DX2                !
 ! R21   R(8,22)                 1.1018         estimate D2E/DX2                !
 ! R22   R(9,10)                 1.3134         estimate D2E/DX2                !
 ! R23   R(9,23)                 1.1514         estimate D2E/DX2                !
 ! R24   R(9,24)                 1.1539         estimate D2E/DX2                !
 ! A1    A(1,2,3)              115.9741         estimate D2E/DX2                !
 ! A2    A(1,2,11)             113.2103         estimate D2E/DX2                !
 ! A3    A(1,2,12)             113.5128         estimate D2E/DX2                !
 ! A4    A(3,2,11)             106.0353         estimate D2E/DX2                !
 ! A5    A(3,2,12)             104.2412         estimate D2E/DX2                !
 ! A6    A(11,2,12)            102.5668         estimate D2E/DX2                !
 ! A7    A(2,3,4)              108.6924         estimate D2E/DX2                !
 ! A8    A(2,3,8)              114.2736         estimate D2E/DX2                !
 ! A9    A(2,3,13)             105.2147         estimate D2E/DX2                !
 ! A10   A(4,3,8)              113.2266         estimate D2E/DX2                !
 ! A11   A(4,3,13)             106.9536         estimate D2E/DX2                !
 ! A12   A(8,3,13)             107.9202         estimate D2E/DX2                !
 ! A13   A(3,4,5)              112.4059         estimate D2E/DX2                !
 ! A14   A(3,4,14)             106.0254         estimate D2E/DX2                !
 ! A15   A(3,4,15)             110.5368         estimate D2E/DX2                !
 ! A16   A(5,4,14)             109.8721         estimate D2E/DX2                !
 ! A17   A(5,4,15)             109.0251         estimate D2E/DX2                !
 ! A18   A(14,4,15)            108.8942         estimate D2E/DX2                !
 ! A19   A(4,5,6)              109.9964         estimate D2E/DX2                !
 ! A20   A(4,5,16)             110.2238         estimate D2E/DX2                !
 ! A21   A(4,5,17)             108.7161         estimate D2E/DX2                !
 ! A22   A(6,5,16)             110.4448         estimate D2E/DX2                !
 ! A23   A(6,5,17)             109.5439         estimate D2E/DX2                !
 ! A24   A(16,5,17)            107.8676         estimate D2E/DX2                !
 ! A25   A(5,6,7)              110.0012         estimate D2E/DX2                !
 ! A26   A(5,6,18)             110.4373         estimate D2E/DX2                !
 ! A27   A(5,6,19)             109.5427         estimate D2E/DX2                !
 ! A28   A(7,6,18)             110.2228         estimate D2E/DX2                !
 ! A29   A(7,6,19)             108.7241         estimate D2E/DX2                !
 ! A30   A(18,6,19)            107.8646         estimate D2E/DX2                !
 ! A31   A(6,7,8)              112.4153         estimate D2E/DX2                !
 ! A32   A(6,7,20)             109.0208         estimate D2E/DX2                !
 ! A33   A(6,7,21)             109.8843         estimate D2E/DX2                !
 ! A34   A(8,7,20)             110.5222         estimate D2E/DX2                !
 ! A35   A(8,7,21)             106.0279         estimate D2E/DX2                !
 ! A36   A(20,7,21)            108.889          estimate D2E/DX2                !
 ! A37   A(3,8,7)              113.2083         estimate D2E/DX2                !
 ! A38   A(3,8,9)              114.2896         estimate D2E/DX2                !
 ! A39   A(3,8,22)             107.93           estimate D2E/DX2                !
 ! A40   A(7,8,9)              108.681          estimate D2E/DX2                !
 ! A41   A(7,8,22)             106.9603         estimate D2E/DX2                !
 ! A42   A(9,8,22)             105.2132         estimate D2E/DX2                !
 ! A43   A(8,9,10)             115.9842         estimate D2E/DX2                !
 ! A44   A(8,9,23)             106.0312         estimate D2E/DX2                !
 ! A45   A(8,9,24)             104.2459         estimate D2E/DX2                !
 ! A46   A(10,9,23)            113.1985         estimate D2E/DX2                !
 ! A47   A(10,9,24)            113.5225         estimate D2E/DX2                !
 ! A48   A(23,9,24)            102.5564         estimate D2E/DX2                !
 ! D1    D(1,2,3,4)            -50.3229         estimate D2E/DX2                !
 ! D2    D(1,2,3,8)           -177.8604         estimate D2E/DX2                !
 ! D3    D(1,2,3,13)            63.9468         estimate D2E/DX2                !
 ! D4    D(11,2,3,4)            76.2721         estimate D2E/DX2                !
 ! D5    D(11,2,3,8)           -51.2654         estimate D2E/DX2                !
 ! D6    D(11,2,3,13)         -169.4582         estimate D2E/DX2                !
 ! D7    D(12,2,3,4)          -175.8788         estimate D2E/DX2                !
 ! D8    D(12,2,3,8)            56.5837         estimate D2E/DX2                !
 ! D9    D(12,2,3,13)          -61.6091         estimate D2E/DX2                !
 ! D10   D(2,3,4,5)            -78.8054         estimate D2E/DX2                !
 ! D11   D(2,3,4,14)            41.2585         estimate D2E/DX2                !
 ! D12   D(2,3,4,15)           159.1228         estimate D2E/DX2                !
 ! D13   D(8,3,4,5)             49.3252         estimate D2E/DX2                !
 ! D14   D(8,3,4,14)           169.3891         estimate D2E/DX2                !
 ! D15   D(8,3,4,15)           -72.7465         estimate D2E/DX2                !
 ! D16   D(13,3,4,5)           168.0672         estimate D2E/DX2                !
 ! D17   D(13,3,4,14)          -71.8689         estimate D2E/DX2                !
 ! D18   D(13,3,4,15)           45.9954         estimate D2E/DX2                !
 ! D19   D(2,3,8,7)             80.0823         estimate D2E/DX2                !
 ! D20   D(2,3,8,9)           -154.7585         estimate D2E/DX2                !
 ! D21   D(2,3,8,22)           -38.1035         estimate D2E/DX2                !
 ! D22   D(4,3,8,7)            -45.0947         estimate D2E/DX2                !
 ! D23   D(4,3,8,9)             80.0644         estimate D2E/DX2                !
 ! D24   D(4,3,8,22)          -163.2805         estimate D2E/DX2                !
 ! D25   D(13,3,8,7)          -163.2766         estimate D2E/DX2                !
 ! D26   D(13,3,8,9)           -38.1175         estimate D2E/DX2                !
 ! D27   D(13,3,8,22)           78.5376         estimate D2E/DX2                !
 ! D28   D(3,4,5,6)            -57.0359         estimate D2E/DX2                !
 ! D29   D(3,4,5,16)          -179.0547         estimate D2E/DX2                !
 ! D30   D(3,4,5,17)            62.9081         estimate D2E/DX2                !
 ! D31   D(14,4,5,6)          -174.8454         estimate D2E/DX2                !
 ! D32   D(14,4,5,16)           63.1358         estimate D2E/DX2                !
 ! D33   D(14,4,5,17)          -54.9015         estimate D2E/DX2                !
 ! D34   D(15,4,5,6)            65.8893         estimate D2E/DX2                !
 ! D35   D(15,4,5,16)          -56.1295         estimate D2E/DX2                !
 ! D36   D(15,4,5,17)         -174.1667         estimate D2E/DX2                !
 ! D37   D(4,5,6,7)             60.4828         estimate D2E/DX2                !
 ! D38   D(4,5,6,18)          -177.6328         estimate D2E/DX2                !
 ! D39   D(4,5,6,19)           -58.9697         estimate D2E/DX2                !
 ! D40   D(16,5,6,7)          -177.6298         estimate D2E/DX2                !
 ! D41   D(16,5,6,18)          -55.7454         estimate D2E/DX2                !
 ! D42   D(16,5,6,19)           62.9178         estimate D2E/DX2                !
 ! D43   D(17,5,6,7)           -58.9576         estimate D2E/DX2                !
 ! D44   D(17,5,6,18)           62.9268         estimate D2E/DX2                !
 ! D45   D(17,5,6,19)         -178.4101         estimate D2E/DX2                !
 ! D46   D(5,6,7,8)            -57.0342         estimate D2E/DX2                !
 ! D47   D(5,6,7,20)            65.8758         estimate D2E/DX2                !
 ! D48   D(5,6,7,21)          -174.8607         estimate D2E/DX2                !
 ! D49   D(18,6,7,8)          -179.0461         estimate D2E/DX2                !
 ! D50   D(18,6,7,20)          -56.1361         estimate D2E/DX2                !
 ! D51   D(18,6,7,21)           63.1274         estimate D2E/DX2                !
 ! D52   D(19,6,7,8)            62.9161         estimate D2E/DX2                !
 ! D53   D(19,6,7,20)         -174.1739         estimate D2E/DX2                !
 ! D54   D(19,6,7,21)          -54.9104         estimate D2E/DX2                !
 ! D55   D(6,7,8,3)             49.3122         estimate D2E/DX2                !
 ! D56   D(6,7,8,9)            -78.8165         estimate D2E/DX2                !
 ! D57   D(6,7,8,22)           168.06           estimate D2E/DX2                !
 ! D58   D(20,7,8,3)           -72.7502         estimate D2E/DX2                !
 ! D59   D(20,7,8,9)           159.1212         estimate D2E/DX2                !
 ! D60   D(20,7,8,22)           45.9976         estimate D2E/DX2                !
 ! D61   D(21,7,8,3)           169.398          estimate D2E/DX2                !
 ! D62   D(21,7,8,9)            41.2693         estimate D2E/DX2                !
 ! D63   D(21,7,8,22)          -71.8542         estimate D2E/DX2                !
 ! D64   D(3,8,9,10)          -177.9516         estimate D2E/DX2                !
 ! D65   D(3,8,9,23)           -51.3683         estimate D2E/DX2                !
 ! D66   D(3,8,9,24)            56.4696         estimate D2E/DX2                !
 ! D67   D(7,8,9,10)           -50.4358         estimate D2E/DX2                !
 ! D68   D(7,8,9,23)            76.1475         estimate D2E/DX2                !
 ! D69   D(7,8,9,24)          -176.0146         estimate D2E/DX2                !
 ! D70   D(22,8,9,10)           63.8357         estimate D2E/DX2                !
 ! D71   D(22,8,9,23)         -169.581          estimate D2E/DX2                !
 ! D72   D(22,8,9,24)          -61.7431         estimate D2E/DX2                !
 --------------------------------------------------------------------------------
 Trust Radius=3.00D-01 FncErr=1.00D-07 GrdErr=1.00D-06 EigMax=2.50D+02 EigMin=1.00D-04
 Number of steps in this run=    144 maximum allowed number of steps=    144.
 GradGradGradGradGradGradGradGradGradGradGradGradGradGradGradGradGradGrad

 Leave Link  103 at Mon Feb 26 06:32:30 2024, MaxMem=  7516192768 cpu:               0.5 elap:               0.0
 (Enter /public/apps/g16-C01//g16/l202.exe)
                          Input orientation:                          
 ---------------------------------------------------------------------
 Center     Atomic      Atomic             Coordinates (Angstroms)
 Number     Number       Type             X           Y           Z
 ---------------------------------------------------------------------
      1          8           0       -3.091830    0.909428    0.070748
      2          6           0       -1.898862    0.943597    0.618892
      3          6           0       -0.683508    0.627553   -0.345196
      4          6           0       -0.979460   -0.669903   -1.097487
      5          6           0       -0.720885   -1.906307   -0.246507
      6          6           0        0.719100   -1.906803    0.246831
      7          6           0        0.978825   -0.670281    1.097350
      8          6           0        0.684033    0.627277    0.344802
      9          6           0        1.899846    0.941855   -0.619099
     10          8           0        3.092653    0.908974   -0.070369
     11          1           0       -1.789840    0.226979    1.513560
     12          1           0       -1.634562    1.966513    1.082900
     13          1           0       -0.687030    1.439024   -1.090476
     14          1           0       -2.039119   -0.623683   -1.375431
     15          1           0       -0.374530   -0.731668   -2.011567
     16          1           0       -0.929036   -2.819446   -0.827936
     17          1           0       -1.400131   -1.891464    0.608740
     18          1           0        0.926343   -2.819893    0.828649
     19          1           0        1.398347   -1.893083   -0.608446
     20          1           0        0.373666   -0.731112    2.011339
     21          1           0        2.038436   -0.624853    1.375574
     22          1           0        0.688210    1.438986    1.089841
     23          1           0        1.791569    0.223478   -1.512356
     24          1           0        1.635467    1.963681   -1.085471
 ---------------------------------------------------------------------
                    Distance matrix (angstroms):
                    1          2          3          4          5
     1  O    0.000000
     2  C    1.313317   0.000000
     3  C    2.460178   1.583172   0.000000
     4  C    2.884643   2.528762   1.528699   0.000000
     5  C    3.694644   3.202889   2.536057   1.523064   0.000000
     6  C    4.741872   3.888050   2.956479   2.494438   1.522150
     7  C    4.485490   3.333858   2.555125   2.941460   2.494539
     8  C    3.796295   2.616588   1.531752   2.555403   2.956770
     9  C    5.039223   3.995348   2.616778   3.334220   3.888326
    10  O    6.186093   5.038998   3.796593   4.486639   4.743406
    11  H    2.059762   1.151459   2.199865   2.877269   2.965031
    12  H    2.065311   1.153913   2.176414   3.483380   4.195338
    13  H    2.722494   2.153120   1.101789   2.129117   3.450314
    14  H    2.355857   2.540347   2.112973   1.096479   2.158086
    15  H    3.796439   3.471227   2.172497   1.097860   2.148296
    16  H    4.403386   4.146609   3.489287   2.166965   1.102365
    17  H    3.316063   2.878612   2.787291   2.140184   1.092265
    18  H    5.534254   4.710588   3.981760   3.458980   2.168861
    19  H    5.336390   4.519369   3.279791   2.718326   2.149958
    20  H    4.297316   3.147688   2.918363   3.391091   2.770739
    21  H    5.511462   4.305220   3.455221   3.902020   3.447771
    22  H    3.950656   2.675845   2.144613   3.465969   3.868121
    23  H    5.179221   4.322045   2.766143   2.940892   3.528567
    24  H    4.979521   4.054245   2.776849   3.711301   4.607935
                    6          7          8          9         10
     6  C    0.000000
     7  C    1.523098   0.000000
     8  C    2.536216   1.528688   0.000000
     9  C    3.202944   2.528529   1.583119   0.000000
    10  O    3.696345   2.885461   2.460319   1.313383   0.000000
    11  H    3.528797   2.940036   2.765191   4.321234   5.178097
    12  H    4.608830   3.712504   2.777449   4.054475   4.979456
    13  H    3.867835   3.465663   2.144474   2.676061   3.950642
    14  H    3.447594   3.901897   3.455381   4.305623   5.512468
    15  H    2.770800   3.391269   2.918863   3.148402   4.298990
    16  H    2.168961   3.459128   3.982111   4.711005   5.536154
    17  H    2.149966   2.718356   3.279857   4.519417   5.337485
    18  H    1.102359   2.166976   3.489384   4.146617   4.405177
    19  H    1.092274   2.140323   2.787677   2.878973   3.318392
    20  H    2.148270   1.097859   2.172302   3.470915   3.796878
    21  H    2.158264   1.096471   2.112990   2.540177   2.356852
    22  H    3.450496   2.129207   1.101804   2.153062   2.721828
    23  H    2.963617   2.875747   2.199710   1.151389   2.059624
    24  H    4.194688   3.483338   2.176438   1.153918   2.065485
                   11         12         13         14         15
    11  H    0.000000
    12  H    1.798766   0.000000
    13  H    3.076727   2.428914   0.000000
    14  H    3.021926   3.593908   2.482761   0.000000
    15  H    3.917732   4.294600   2.378648   1.785269   0.000000
    16  H    3.937549   5.201391   4.273413   2.520597   2.463184
    17  H    2.336316   3.894069   3.806310   2.439776   3.043517
    18  H    4.138862   5.434387   4.942104   4.298287   3.757630
    19  H    4.377455   5.191885   3.960314   3.743770   2.541796
    20  H    2.417950   3.488862   3.931389   4.159722   4.091891
    21  H    3.924329   4.504637   4.215348   4.918789   4.160113
    22  H    2.790919   2.381933   2.577803   4.215506   3.931906
    23  H    4.688568   4.638092   2.792667   3.925634   2.419401
    24  H    4.637222   3.923637   2.381025   4.503456   3.487499
                   16         17         18         19         20
    16  H    0.000000
    17  H    1.774012   0.000000
    18  H    2.487309   2.514522   0.000000
    19  H    2.514565   3.051725   1.773980   0.000000
    20  H    3.757613   2.541664   2.463171   3.043587   0.000000
    21  H    4.298556   3.743806   2.520730   2.440176   1.785202
    22  H    4.942428   3.960369   4.273521   3.806725   2.378534
    23  H    4.138781   4.377097   3.935864   2.334846   3.916391
    24  H    5.433351   5.191084   5.200893   3.893380   4.294681
                   21         22         23         24
    21  H    0.000000
    22  H    2.482778   0.000000
    23  H    3.020058   3.076734   0.000000
    24  H    3.594389   2.429935   1.798584   0.000000
 Symmetry turned off by external request.
 Stoichiometry    C8H14O2(2-)
 Framework group  C1[X(C8H14O2)]
 Deg. of freedom    66
 Full point group                 C1      NOp   1
 Rotational constants (GHZ):           1.9553769           0.9493589           0.7672512
 Leave Link  202 at Mon Feb 26 06:32:30 2024, MaxMem=  7516192768 cpu:               0.2 elap:               0.0
 (Enter /public/apps/g16-C01//g16/l301.exe)
 Standard basis: def2SVPP (5D, 7F)
 Ernie: Thresh=  0.10000D-02 Tol=  0.10000D-05 Strict=F.
   168 basis functions,   306 primitive gaussians,   178 cartesian basis functions
    40 alpha electrons       40 beta electrons
       nuclear repulsion energy       567.5753919168 Hartrees.
 IExCor=  402 DFT=T Ex+Corr=B3LYP ExCW=0 ScaHFX=  0.200000
 ScaDFX=  0.800000  0.720000  1.000000  0.810000 ScalE2=  1.000000  1.000000
 IRadAn=      5 IRanWt=     -1 IRanGd=            0 ICorTp=0 IEmpDi=141
 NAtoms=   24 NActive=   24 NUniq=   24 SFac= 1.00D+00 NAtFMM=   60 NAOKFM=F Big=F
 Integral buffers will be    131072 words long.
 Raffenetti 2 integral format.
 Two-electron integral symmetry is turned off.
 R6Disp:  Grimme-D3(BJ) Dispersion energy=       -0.0422539746 Hartrees.
 Nuclear repulsion after empirical dispersion term =      567.5331379422 Hartrees.
 Leave Link  301 at Mon Feb 26 06:32:30 2024, MaxMem=  7516192768 cpu:               1.1 elap:               0.0
 (Enter /public/apps/g16-C01//g16/l302.exe)
 NPDir=0 NMtPBC=     1 NCelOv=     1 NCel=       1 NClECP=     1 NCelD=      1
         NCelK=      1 NCelE2=     1 NClLst=     1 CellRange=     0.0.
 One-electron integrals computed using PRISM.
   1 Symmetry operations used in ECPInt.
 ECPInt:  NShTT=    3916 NPrTT=   15748 LenC2=    3865 LenP2D=   12209.
 LDataN:  DoStor=T MaxTD1= 4 Len=   56
 NBasis=   168 RedAO= T EigKep=  1.23D-03  NBF=   168
 NBsUse=   168 1.00D-06 EigRej= -1.00D+00 NBFU=   168
 Precomputing XC quadrature grid using
 IXCGrd= 4 IRadAn=           5 IRanWt=          -1 IRanGd=           0 AccXCQ= 0.00D+00.
 Generated NRdTot=       0 NPtTot=           0 NUsed=           0 NTot=          32
 NSgBfM=   178   178   178   178   178 MxSgAt=    24 MxSgA2=    24.
 Leave Link  302 at Mon Feb 26 06:32:30 2024, MaxMem=  7516192768 cpu:               5.3 elap:               0.1
 (Enter /public/apps/g16-C01//g16/l303.exe)
 DipDrv:  MaxL=1.
 Leave Link  303 at Mon Feb 26 06:32:30 2024, MaxMem=  7516192768 cpu:               0.6 elap:               0.0
 (Enter /public/apps/g16-C01//g16/l401.exe)
 ExpMin= 1.22D-01 ExpMax= 2.27D+03 ExpMxC= 3.41D+02 IAcc=3 IRadAn=         5 AccDes= 0.00D+00
 Harris functional with IExCor=  402 and IRadAn=       5 diagonalized for initial guess.
 HarFok:  IExCor=  402 AccDes= 0.00D+00 IRadAn=         5 IDoV= 1 UseB2=F ITyADJ=14
 ICtDFT=  3500011 ScaDFX=  1.000000  1.000000  1.000000  1.000000
 FoFCou: FMM=F IPFlag=           0 FMFlag=      100000 FMFlg1=           0
         NFxFlg=           0 DoJE=T BraDBF=F KetDBF=T FulRan=T
         wScrn=  0.000000 ICntrl=       500 IOpCl=  0 I1Cent=   200000004 NGrid=           0
         NMat0=    1 NMatS0=      1 NMatT0=    0 NMatD0=    1 NMtDS0=    0 NMtDT0=    0
 Symmetry not used in FoFCou.
 Harris En= -463.820792427412    
 JPrj=0 DoOrth=F DoCkMO=F.
 Leave Link  401 at Mon Feb 26 06:32:31 2024, MaxMem=  7516192768 cpu:               9.4 elap:               0.3
 (Enter /public/apps/g16-C01//g16/l502.exe)
 Two-electron integral symmetry not used.
 Closed shell SCF:
 Using DIIS extrapolation, IDIIS=  1040.
 NGot=  7516192768 LenX=  7516119928 LenY=  7516087803
 Requested convergence on RMS density matrix=1.00D-08 within 128 cycles.
 Requested convergence on MAX density matrix=1.00D-06.
 Requested convergence on             energy=1.00D-06.
 No special actions if energy rises.
 Fock matrices will be formed incrementally for  20 cycles.
 Integral accuracy reduced to 1.0D-05 until final iterations.

 Cycle   1  Pass 0  IDiag  1:
 FoFJK:  IHMeth= 1 ICntrl=       0 DoSepK=F KAlg= 0 I1Cent=           0 FoldK=F
 IRaf= 970000000 NMat=       1 IRICut=       1 DoRegI=T DoRafI=F ISym2E= 0 IDoP0=0 IntGTp=1.
 FoFCou: FMM=F IPFlag=           0 FMFlag=      100000 FMFlg1=           0
         NFxFlg=           0 DoJE=F BraDBF=F KetDBF=F FulRan=T
         wScrn=  0.000000 ICntrl=         0 IOpCl=  0 I1Cent=           0 NGrid=           0
         NMat0=    1 NMatS0=      1 NMatT0=    0 NMatD0=    1 NMtDS0=    0 NMtDT0=    0
 Symmetry not used in FoFCou.
 E= -462.677468920240    
 DIIS: error= 6.07D-02 at cycle   1 NSaved=   1.
 NSaved= 1 IEnMin= 1 EnMin= -462.677468920240     IErMin= 1 ErrMin= 6.07D-02
 ErrMax= 6.07D-02  0.00D+00 EMaxC= 1.00D-01 BMatC= 5.34D-01 BMatP= 5.34D-01
 IDIUse=3 WtCom= 3.93D-01 WtEn= 6.07D-01
 Coeff-Com:  0.100D+01
 Coeff-En:   0.100D+01
 Coeff:      0.100D+01
 Gap=     0.001 Goal=   None    Shift=    0.000
 GapD=    0.001 DampG=0.250 DampE=0.500 DampFc=0.2500 IDamp=-1.
 Damping current iteration by 2.50D-01
 RMSDP=1.00D-01 MaxDP=4.19D+00              OVMax= 9.64D-01

 Cycle   2  Pass 0  IDiag  1:
 RMSU=  2.50D-02    CP:  9.70D-01
 E= -462.660899050443     Delta-E=        0.016569869797 Rises=F Damp=T
 DIIS: error= 1.93D-02 at cycle   2 NSaved=   2.
 NSaved= 2 IEnMin= 1 EnMin= -462.677468920240     IErMin= 2 ErrMin= 1.93D-02
 ErrMax= 1.93D-02  0.00D+00 EMaxC= 1.00D-01 BMatC= 7.46D-02 BMatP= 5.34D-01
 IDIUse=3 WtCom= 8.07D-01 WtEn= 1.93D-01
 Coeff-Com: -0.833D-01 0.108D+01
 Coeff-En:   0.521D+00 0.479D+00
 Coeff:      0.334D-01 0.967D+00
 Gap=     0.178 Goal=   None    Shift=    0.000
 RMSDP=2.46D-02 MaxDP=1.01D+00 DE= 1.66D-02 OVMax= 6.69D-01

 Cycle   3  Pass 0  IDiag  1:
 RMSU=  7.54D-03    CP:  9.50D-01  6.65D-02
 E= -462.977673667499     Delta-E=       -0.316774617055 Rises=F Damp=F
 DIIS: error= 2.89D-02 at cycle   3 NSaved=   3.
 NSaved= 3 IEnMin= 3 EnMin= -462.977673667499     IErMin= 2 ErrMin= 1.93D-02
 ErrMax= 2.89D-02  0.00D+00 EMaxC= 1.00D-01 BMatC= 2.51D-01 BMatP= 7.46D-02
 IDIUse=2 WtCom= 0.00D+00 WtEn= 1.00D+00
 EnCoef did     4 forward-backward iterations
 Coeff-En:   0.103D+00 0.103D+00 0.794D+00
 Coeff:      0.103D+00 0.103D+00 0.794D+00
 Gap=     0.267 Goal=   None    Shift=    0.000
 RMSDP=4.72D-02 MaxDP=1.33D+00 DE=-3.17D-01 OVMax= 7.80D-01

 Cycle   4  Pass 0  IDiag  1:
 RMSU=  3.26D-02    CP:  1.01D+00  1.39D+00 -8.56D-02
 E= -461.258322402184     Delta-E=        1.719351265315 Rises=F Damp=F
 DIIS: error= 8.82D-02 at cycle   4 NSaved=   4.
 NSaved= 4 IEnMin= 3 EnMin= -462.977673667499     IErMin= 2 ErrMin= 1.93D-02
 ErrMax= 8.82D-02  0.00D+00 EMaxC= 1.00D-01 BMatC= 1.73D+00 BMatP= 7.46D-02
 IDIUse=2 WtCom= 0.00D+00 WtEn= 1.00D+00
 EnCoef did     2 forward-backward iterations
 Coeff-En:   0.761D-01 0.000D+00 0.774D+00 0.150D+00
 Coeff:      0.761D-01 0.000D+00 0.774D+00 0.150D+00
 Gap=     0.001 Goal=   None    Shift=    0.000
 RMSDP=4.45D-02 MaxDP=1.33D+00 DE= 1.72D+00 OVMax= 8.63D-01

 Cycle   5  Pass 0  IDiag  1:
 RMSU=  9.18D-03    CP:  1.02D+00  6.32D-02  6.05D-01  1.54D-01
 E= -463.122835455669     Delta-E=       -1.864513053485 Rises=F Damp=F
 DIIS: error= 1.98D-02 at cycle   5 NSaved=   5.
 NSaved= 5 IEnMin= 5 EnMin= -463.122835455669     IErMin= 2 ErrMin= 1.93D-02
 ErrMax= 1.98D-02  0.00D+00 EMaxC= 1.00D-01 BMatC= 1.25D-01 BMatP= 7.46D-02
 IDIUse=2 WtCom= 0.00D+00 WtEn= 1.00D+00
 Coeff-En:   0.000D+00 0.000D+00 0.333D+00 0.000D+00 0.667D+00
 Coeff:      0.000D+00 0.000D+00 0.333D+00 0.000D+00 0.667D+00
 Gap=     0.148 Goal=   None    Shift=    0.000
 RMSDP=5.70D-03 MaxDP=2.52D-01 DE=-1.86D+00 OVMax= 8.55D-02

 Cycle   6  Pass 0  IDiag  1:
 RMSU=  2.28D-03    CP:  9.86D-01  6.93D-02  8.08D-01  7.26D-02  5.51D-01
 E= -463.221446580866     Delta-E=       -0.098611125197 Rises=F Damp=F
 DIIS: error= 7.65D-03 at cycle   6 NSaved=   6.
 NSaved= 6 IEnMin= 6 EnMin= -463.221446580866     IErMin= 6 ErrMin= 7.65D-03
 ErrMax= 7.65D-03  0.00D+00 EMaxC= 1.00D-01 BMatC= 1.76D-02 BMatP= 7.46D-02
 IDIUse=3 WtCom= 9.24D-01 WtEn= 7.65D-02
 Coeff-Com: -0.221D-01 0.508D-01 0.123D+00-0.122D-01 0.356D+00 0.504D+00
 Coeff-En:   0.000D+00 0.000D+00 0.000D+00 0.000D+00 0.133D+00 0.867D+00
 Coeff:     -0.204D-01 0.469D-01 0.113D+00-0.112D-01 0.339D+00 0.532D+00
 Gap=     0.149 Goal=   None    Shift=    0.000
 RMSDP=1.64D-03 MaxDP=6.22D-02 DE=-9.86D-02 OVMax= 2.42D-02

 Cycle   7  Pass 0  IDiag  1:
 RMSU=  5.01D-04    CP:  9.95D-01  6.27D-02  7.50D-01  9.08D-02  6.61D-01
                    CP:  6.08D-01
 E= -463.236846892617     Delta-E=       -0.015400311752 Rises=F Damp=F
 DIIS: error= 1.13D-03 at cycle   7 NSaved=   7.
 NSaved= 7 IEnMin= 7 EnMin= -463.236846892617     IErMin= 7 ErrMin= 1.13D-03
 ErrMax= 1.13D-03  0.00D+00 EMaxC= 1.00D-01 BMatC= 4.65D-04 BMatP= 1.76D-02
 IDIUse=3 WtCom= 9.89D-01 WtEn= 1.13D-02
 Coeff-Com: -0.371D-02-0.400D-02 0.288D-02-0.217D-02 0.105D+00 0.296D+00
 Coeff-Com:  0.606D+00
 Coeff-En:   0.000D+00 0.000D+00 0.000D+00 0.000D+00 0.000D+00 0.000D+00
 Coeff-En:   0.100D+01
 Coeff:     -0.366D-02-0.395D-02 0.285D-02-0.215D-02 0.104D+00 0.293D+00
 Coeff:      0.610D+00
 Gap=     0.145 Goal=   None    Shift=    0.000
 RMSDP=2.53D-04 MaxDP=4.87D-03 DE=-1.54D-02 OVMax= 4.27D-03

 Cycle   8  Pass 0  IDiag  1:
 RMSU=  1.25D-04    CP:  9.94D-01  6.47D-02  7.64D-01  9.09D-02  6.67D-01
                    CP:  6.74D-01  8.02D-01
 E= -463.237311406358     Delta-E=       -0.000464513741 Rises=F Damp=F
 DIIS: error= 2.51D-04 at cycle   8 NSaved=   8.
 NSaved= 8 IEnMin= 8 EnMin= -463.237311406358     IErMin= 8 ErrMin= 2.51D-04
 ErrMax= 2.51D-04  0.00D+00 EMaxC= 1.00D-01 BMatC= 1.77D-05 BMatP= 4.65D-04
 IDIUse=3 WtCom= 9.97D-01 WtEn= 2.51D-03
 Coeff-Com:  0.132D-02-0.230D-02-0.304D-02-0.285D-03 0.109D-01 0.593D-01
 Coeff-Com:  0.208D+00 0.726D+00
 Coeff-En:   0.000D+00 0.000D+00 0.000D+00 0.000D+00 0.000D+00 0.000D+00
 Coeff-En:   0.000D+00 0.100D+01
 Coeff:      0.132D-02-0.229D-02-0.303D-02-0.284D-03 0.109D-01 0.591D-01
 Coeff:      0.207D+00 0.727D+00
 Gap=     0.146 Goal=   None    Shift=    0.000
 RMSDP=5.62D-05 MaxDP=2.37D-03 DE=-4.65D-04 OVMax= 9.95D-04

 Cycle   9  Pass 0  IDiag  1:
 RMSU=  1.98D-05    CP:  9.94D-01  6.43D-02  7.62D-01  9.02D-02  6.63D-01
                    CP:  6.75D-01  8.37D-01  8.69D-01
 E= -463.237328175966     Delta-E=       -0.000016769608 Rises=F Damp=F
 DIIS: error= 6.60D-05 at cycle   9 NSaved=   9.
 NSaved= 9 IEnMin= 9 EnMin= -463.237328175966     IErMin= 9 ErrMin= 6.60D-05
 ErrMax= 6.60D-05  0.00D+00 EMaxC= 1.00D-01 BMatC= 1.19D-06 BMatP= 1.77D-05
 IDIUse=1 WtCom= 1.00D+00 WtEn= 0.00D+00
 Coeff-Com:  0.104D-02-0.904D-03-0.105D-02-0.112D-03 0.808D-03 0.148D-01
 Coeff-Com:  0.714D-01 0.323D+00 0.591D+00
 Coeff:      0.104D-02-0.904D-03-0.105D-02-0.112D-03 0.808D-03 0.148D-01
 Coeff:      0.714D-01 0.323D+00 0.591D+00
 Gap=     0.146 Goal=   None    Shift=    0.000
 RMSDP=1.41D-05 MaxDP=4.72D-04 DE=-1.68D-05 OVMax= 2.83D-04

 Cycle  10  Pass 0  IDiag  1:
 RMSU=  8.55D-06    CP:  9.94D-01  6.42D-02  7.62D-01  9.00D-02  6.62D-01
                    CP:  6.75D-01  8.42D-01  8.75D-01  8.75D-01
 E= -463.237329213617     Delta-E=       -0.000001037651 Rises=F Damp=F
 DIIS: error= 1.70D-05 at cycle  10 NSaved=  10.
 NSaved=10 IEnMin=10 EnMin= -463.237329213617     IErMin=10 ErrMin= 1.70D-05
 ErrMax= 1.70D-05  0.00D+00 EMaxC= 1.00D-01 BMatC= 1.26D-07 BMatP= 1.19D-06
 IDIUse=1 WtCom= 1.00D+00 WtEn= 0.00D+00
 Coeff-Com:  0.443D-03-0.307D-03 0.150D-03-0.131D-04-0.111D-02-0.223D-02
 Coeff-Com:  0.997D-03 0.317D-01 0.262D+00 0.708D+00
 Coeff:      0.443D-03-0.307D-03 0.150D-03-0.131D-04-0.111D-02-0.223D-02
 Coeff:      0.997D-03 0.317D-01 0.262D+00 0.708D+00
 Gap=     0.146 Goal=   None    Shift=    0.000
 RMSDP=5.19D-06 MaxDP=2.06D-04 DE=-1.04D-06 OVMax= 9.79D-05

 Initial convergence to 1.0D-05 achieved.  Increase integral accuracy.
 Cycle  11  Pass 1  IDiag  1:
 E= -463.237339985850     Delta-E=       -0.000010772233 Rises=F Damp=F
 DIIS: error= 1.40D-05 at cycle   1 NSaved=   1.
 NSaved= 1 IEnMin= 1 EnMin= -463.237339985850     IErMin= 1 ErrMin= 1.40D-05
 ErrMax= 1.40D-05  0.00D+00 EMaxC= 1.00D-01 BMatC= 4.20D-08 BMatP= 4.20D-08
 IDIUse=1 WtCom= 1.00D+00 WtEn= 0.00D+00
 Coeff-Com:  0.100D+01
 Coeff:      0.100D+01
 Gap=     0.146 Goal=   None    Shift=    0.000
 RMSDP=5.19D-06 MaxDP=2.06D-04 DE=-1.08D-05 OVMax= 1.02D-04

 Cycle  12  Pass 1  IDiag  1:
 RMSU=  8.83D-06    CP:  1.00D+00
 E= -463.237339969621     Delta-E=        0.000000016229 Rises=F Damp=F
 DIIS: error= 2.18D-05 at cycle   2 NSaved=   2.
 NSaved= 2 IEnMin= 1 EnMin= -463.237339985850     IErMin= 1 ErrMin= 1.40D-05
 ErrMax= 2.18D-05  0.00D+00 EMaxC= 1.00D-01 BMatC= 7.41D-08 BMatP= 4.20D-08
 IDIUse=1 WtCom= 1.00D+00 WtEn= 0.00D+00
 Coeff-Com:  0.584D+00 0.416D+00
 Coeff:      0.584D+00 0.416D+00
 Gap=     0.146 Goal=   None    Shift=    0.000
 RMSDP=4.26D-06 MaxDP=2.04D-04 DE= 1.62D-08 OVMax= 7.69D-05

 Cycle  13  Pass 1  IDiag  1:
 RMSU=  3.30D-06    CP:  1.00D+00  7.08D-01
 E= -463.237340025180     Delta-E=       -0.000000055559 Rises=F Damp=F
 DIIS: error= 4.75D-06 at cycle   3 NSaved=   3.
 NSaved= 3 IEnMin= 3 EnMin= -463.237340025180     IErMin= 3 ErrMin= 4.75D-06
 ErrMax= 4.75D-06  0.00D+00 EMaxC= 1.00D-01 BMatC= 3.56D-09 BMatP= 4.20D-08
 IDIUse=1 WtCom= 1.00D+00 WtEn= 0.00D+00
 Coeff-Com:  0.725D-02 0.178D+00 0.815D+00
 Coeff:      0.725D-02 0.178D+00 0.815D+00
 Gap=     0.146 Goal=   None    Shift=    0.000
 RMSDP=8.50D-07 MaxDP=3.47D-05 DE=-5.56D-08 OVMax= 1.48D-05

 Cycle  14  Pass 1  IDiag  1:
 RMSU=  3.78D-07    CP:  1.00D+00  7.74D-01  8.54D-01
 E= -463.237340027683     Delta-E=       -0.000000002503 Rises=F Damp=F
 DIIS: error= 9.79D-07 at cycle   4 NSaved=   4.
 NSaved= 4 IEnMin= 4 EnMin= -463.237340027683     IErMin= 4 ErrMin= 9.79D-07
 ErrMax= 9.79D-07  0.00D+00 EMaxC= 1.00D-01 BMatC= 2.90D-10 BMatP= 3.56D-09
 IDIUse=1 WtCom= 1.00D+00 WtEn= 0.00D+00
 Coeff-Com: -0.711D-02 0.923D-01 0.460D+00 0.455D+00
 Coeff:     -0.711D-02 0.923D-01 0.460D+00 0.455D+00
 Gap=     0.146 Goal=   None    Shift=    0.000
 RMSDP=1.83D-07 MaxDP=3.60D-06 DE=-2.50D-09 OVMax= 3.51D-06

 Cycle  15  Pass 1  IDiag  1:
 RMSU=  9.99D-08    CP:  1.00D+00  7.74D-01  8.65D-01  6.08D-01
 E= -463.237340027977     Delta-E=       -0.000000000294 Rises=F Damp=F
 DIIS: error= 1.13D-07 at cycle   5 NSaved=   5.
 NSaved= 5 IEnMin= 5 EnMin= -463.237340027977     IErMin= 5 ErrMin= 1.13D-07
 ErrMax= 1.13D-07  0.00D+00 EMaxC= 1.00D-01 BMatC= 4.94D-12 BMatP= 2.90D-10
 IDIUse=1 WtCom= 1.00D+00 WtEn= 0.00D+00
 Coeff-Com: -0.309D-02 0.297D-01 0.149D+00 0.185D+00 0.640D+00
 Coeff:     -0.309D-02 0.297D-01 0.149D+00 0.185D+00 0.640D+00
 Gap=     0.146 Goal=   None    Shift=    0.000
 RMSDP=4.59D-08 MaxDP=2.00D-06 DE=-2.94D-10 OVMax= 7.66D-07

 Cycle  16  Pass 1  IDiag  1:
 RMSU=  3.43D-08    CP:  1.00D+00  7.75D-01  8.65D-01  6.01D-01  7.46D-01
 E= -463.237340027979     Delta-E=       -0.000000000001 Rises=F Damp=F
 DIIS: error= 9.55D-08 at cycle   6 NSaved=   6.
 NSaved= 6 IEnMin= 6 EnMin= -463.237340027979     IErMin= 6 ErrMin= 9.55D-08
 ErrMax= 9.55D-08  0.00D+00 EMaxC= 1.00D-01 BMatC= 1.87D-12 BMatP= 4.94D-12
 IDIUse=1 WtCom= 1.00D+00 WtEn= 0.00D+00
 Coeff-Com: -0.145D-02 0.105D-01 0.527D-01 0.761D-01 0.406D+00 0.456D+00
 Coeff:     -0.145D-02 0.105D-01 0.527D-01 0.761D-01 0.406D+00 0.456D+00
 Gap=     0.146 Goal=   None    Shift=    0.000
 RMSDP=2.02D-08 MaxDP=1.10D-06 DE=-1.36D-12 OVMax= 3.42D-07

 Cycle  17  Pass 1  IDiag  1:
 RMSU=  9.92D-09    CP:  1.00D+00  7.75D-01  8.65D-01  6.07D-01  8.31D-01
                    CP:  5.88D-01
 E= -463.237340027980     Delta-E=       -0.000000000001 Rises=F Damp=F
 DIIS: error= 1.64D-08 at cycle   7 NSaved=   7.
 NSaved= 7 IEnMin= 7 EnMin= -463.237340027980     IErMin= 7 ErrMin= 1.64D-08
 ErrMax= 1.64D-08  0.00D+00 EMaxC= 1.00D-01 BMatC= 5.79D-14 BMatP= 1.87D-12
 IDIUse=1 WtCom= 1.00D+00 WtEn= 0.00D+00
 Coeff-Com: -0.281D-04-0.788D-03-0.378D-02-0.144D-03 0.608D-01 0.177D+00
 Coeff-Com:  0.767D+00
 Coeff:     -0.281D-04-0.788D-03-0.378D-02-0.144D-03 0.608D-01 0.177D+00
 Coeff:      0.767D+00
 Gap=     0.146 Goal=   None    Shift=    0.000
 RMSDP=4.31D-09 MaxDP=1.45D-07 DE=-1.36D-12 OVMax= 7.81D-08

 SCF Done:  E(RB3LYP) =  -463.237340028     A.U. after   17 cycles
            NFock= 17  Conv=0.43D-08     -V/T= 2.0088
 KE= 4.591954827354D+02 PE=-2.240691427679D+03 EE= 7.507254669734D+02
 Leave Link  502 at Mon Feb 26 06:32:34 2024, MaxMem=  7516192768 cpu:             142.6 elap:               3.6
 (Enter /public/apps/g16-C01//g16/l601.exe)
 Copying SCF densities to generalized density rwf, IOpCl= 0 IROHF=0.

 **********************************************************************

            Population analysis using the SCF Density.

 **********************************************************************

 Alpha  occ. eigenvalues --  -18.67133 -18.67130  -9.90286  -9.90277  -9.87545
 Alpha  occ. eigenvalues --   -9.87543  -9.87318  -9.87317  -9.85050  -9.85041
 Alpha  occ. eigenvalues --   -0.56985  -0.56390  -0.52934  -0.43942  -0.43835
 Alpha  occ. eigenvalues --   -0.31784  -0.31662  -0.29016  -0.21606  -0.21167
 Alpha  occ. eigenvalues --   -0.19465  -0.16335  -0.15285  -0.10910  -0.10690
 Alpha  occ. eigenvalues --   -0.09211  -0.08569  -0.06995  -0.06526  -0.03382
 Alpha  occ. eigenvalues --   -0.03279  -0.02317  -0.00698   0.00401   0.00512
 Alpha  occ. eigenvalues --    0.02061   0.14628   0.15610   0.15875   0.16133
 Alpha virt. eigenvalues --    0.30705   0.33588   0.35842   0.36083   0.38762
 Alpha virt. eigenvalues --    0.39418   0.40300   0.40891   0.42440   0.42470
 Alpha virt. eigenvalues --    0.44793   0.46224   0.47508   0.48103   0.51494
 Alpha virt. eigenvalues --    0.52106   0.52756   0.53699   0.55062   0.56424
 Alpha virt. eigenvalues --    0.56742   0.59481   0.63520   0.64795   0.71813
 Alpha virt. eigenvalues --    0.72297   0.72875   0.73653   0.75533   0.82676
 Alpha virt. eigenvalues --    0.87078   0.88658   0.89755   0.90718   0.91870
 Alpha virt. eigenvalues --    0.92649   0.93284   0.93750   0.93988   0.94374
 Alpha virt. eigenvalues --    0.95356   0.95673   0.95945   0.96253   0.97030
 Alpha virt. eigenvalues --    0.98685   0.98810   1.00191   1.00349   1.00626
 Alpha virt. eigenvalues --    1.00785   1.02784   1.02812   1.03721   1.04669
 Alpha virt. eigenvalues --    1.06257   1.06970   1.08323   1.12926   1.14808
 Alpha virt. eigenvalues --    1.15266   1.26669   1.28309   1.30460   1.34701
 Alpha virt. eigenvalues --    1.38079   1.41229   1.43883   1.48149   1.49411
 Alpha virt. eigenvalues --    1.51259   1.53250   1.53263   1.54465   1.64886
 Alpha virt. eigenvalues --    1.65112   1.69153   1.70970   1.80192   1.83328
 Alpha virt. eigenvalues --    1.92353   1.95125   2.00847   2.02123   2.06202
 Alpha virt. eigenvalues --    2.09498   2.09595   2.13603   2.15660   2.20451
 Alpha virt. eigenvalues --    2.22532   2.23328   2.24348   2.28158   2.30083
 Alpha virt. eigenvalues --    2.35264   2.35705   2.39912   2.40336   2.42089
 Alpha virt. eigenvalues --    2.43709   2.47090   2.55802   2.56931   2.58941
 Alpha virt. eigenvalues --    2.61948   2.64345   2.64489   2.67685   2.69895
 Alpha virt. eigenvalues --    2.81747   2.84922   2.89922   2.96052   2.96907
 Alpha virt. eigenvalues --    2.98792   3.04236   3.07701   3.12533   3.12882
 Alpha virt. eigenvalues --    3.13817   3.15261   3.43897   3.44376   3.49299
 Alpha virt. eigenvalues --    3.52859   3.89344   3.90073
          Condensed to atoms (all electrons):
               1          2          3          4          5          6
     1  O    8.220150   0.584354  -0.138795  -0.016761  -0.003861  -0.000026
     2  C    0.584354   4.614860   0.206213  -0.027925  -0.013104  -0.005788
     3  C   -0.138795   0.206213   5.962981   0.284736  -0.029652   0.000052
     4  C   -0.016761  -0.027925   0.284736   5.122323   0.366292  -0.063839
     5  C   -0.003861  -0.013104  -0.029652   0.366292   4.895479   0.404709
     6  C   -0.000026  -0.005788   0.000052  -0.063839   0.404709   4.894978
     7  C    0.000115  -0.005759  -0.033741  -0.004642  -0.063914   0.366747
     8  C    0.006629   0.044840  -0.130772  -0.033669   0.000071  -0.029958
     9  C   -0.000111  -0.001225   0.044892  -0.005801  -0.005780  -0.013067
    10  O    0.000000  -0.000111   0.006634   0.000113  -0.000027  -0.003814
    11  H   -0.068632   0.254715  -0.101129  -0.058745   0.020672  -0.001502
    12  H   -0.059094   0.232313  -0.115537   0.028090  -0.002563   0.000064
    13  H    0.017212  -0.005074   0.217045  -0.055935   0.016622  -0.001045
    14  H    0.081955  -0.013999  -0.093593   0.226090  -0.008169   0.007406
    15  H    0.000236   0.008973  -0.007801   0.313208  -0.040027  -0.002623
    16  H   -0.000043  -0.000384   0.010042  -0.018888   0.292122  -0.024304
    17  H    0.003554   0.010129  -0.015409  -0.009659   0.327037  -0.029259
    18  H    0.000004   0.000098  -0.000021   0.010340  -0.024315   0.292138
    19  H   -0.000001   0.000206  -0.005820   0.000220  -0.029289   0.327232
    20  H   -0.000299   0.000279  -0.007796  -0.008929  -0.002581  -0.039984
    21  H    0.000006  -0.000873   0.021008  -0.000465   0.007403  -0.008155
    22  H    0.000343  -0.014919  -0.035043   0.017258  -0.001054   0.016611
    23  H    0.000015  -0.000996   0.023332  -0.014032  -0.001505   0.020584
    24  H    0.000007  -0.000489  -0.001766   0.001302   0.000064  -0.002546
               7          8          9         10         11         12
     1  O    0.000115   0.006629  -0.000111   0.000000  -0.068632  -0.059094
     2  C   -0.005759   0.044840  -0.001225  -0.000111   0.254715   0.232313
     3  C   -0.033741  -0.130772   0.044892   0.006634  -0.101129  -0.115537
     4  C   -0.004642  -0.033669  -0.005801   0.000113  -0.058745   0.028090
     5  C   -0.063914   0.000071  -0.005780  -0.000027   0.020672  -0.002563
     6  C    0.366747  -0.029958  -0.013067  -0.003814  -0.001502   0.000064
     7  C    5.121974   0.285088  -0.027959  -0.016793  -0.014127   0.001321
     8  C    0.285088   5.962730   0.206313  -0.138710   0.023394  -0.001798
     9  C   -0.027959   0.206313   4.614907   0.584301  -0.000992  -0.000498
    10  O   -0.016793  -0.138710   0.584301   8.220298   0.000015   0.000007
    11  H   -0.014127   0.023394  -0.000992   0.000015   1.148340  -0.127502
    12  H    0.001321  -0.001798  -0.000498   0.000007  -0.127502   1.164795
    13  H    0.017258  -0.035109  -0.014921   0.000341   0.025214  -0.021388
    14  H   -0.000464   0.020992  -0.000874   0.000006   0.006713   0.008687
    15  H   -0.008897  -0.007814   0.000295  -0.000297  -0.000935  -0.000578
    16  H    0.010338  -0.000021   0.000098   0.000004  -0.000037   0.000022
    17  H    0.000261  -0.005833   0.000207  -0.000001  -0.001633   0.000438
    18  H   -0.018920   0.010051  -0.000384  -0.000044   0.000175   0.000016
    19  H   -0.009828  -0.015286   0.010068   0.003501  -0.000263   0.000009
    20  H    0.313072  -0.007707   0.008972   0.000230   0.019548  -0.001757
    21  H    0.226180  -0.093716  -0.013918   0.081858   0.000579   0.000021
    22  H   -0.055891   0.216918  -0.005157   0.017266  -0.002630   0.027986
    23  H   -0.058771  -0.101022   0.254579  -0.068638   0.000111  -0.000058
    24  H    0.028059  -0.115656   0.232355  -0.059078  -0.000058   0.001015
              13         14         15         16         17         18
     1  O    0.017212   0.081955   0.000236  -0.000043   0.003554   0.000004
     2  C   -0.005074  -0.013999   0.008973  -0.000384   0.010129   0.000098
     3  C    0.217045  -0.093593  -0.007801   0.010042  -0.015409  -0.000021
     4  C   -0.055935   0.226090   0.313208  -0.018888  -0.009659   0.010340
     5  C    0.016622  -0.008169  -0.040027   0.292122   0.327037  -0.024315
     6  C   -0.001045   0.007406  -0.002623  -0.024304  -0.029259   0.292138
     7  C    0.017258  -0.000464  -0.008897   0.010338   0.000261  -0.018920
     8  C   -0.035109   0.020992  -0.007814  -0.000021  -0.005833   0.010051
     9  C   -0.014921  -0.000874   0.000295   0.000098   0.000207  -0.000384
    10  O    0.000341   0.000006  -0.000297   0.000004  -0.000001  -0.000044
    11  H    0.025214   0.006713  -0.000935  -0.000037  -0.001633   0.000175
    12  H   -0.021388   0.008687  -0.000578   0.000022   0.000438   0.000016
    13  H    0.868268   0.006878  -0.016586  -0.000512  -0.000220   0.000082
    14  H    0.006878   0.803965  -0.039369  -0.003147  -0.005894  -0.000315
    15  H   -0.016586  -0.039369   0.785591  -0.010071   0.011940   0.000199
    16  H   -0.000512  -0.003147  -0.010071   0.828895  -0.043373  -0.007326
    17  H   -0.000220  -0.005894   0.011940  -0.043373   0.707848  -0.005806
    18  H    0.000082  -0.000315   0.000199  -0.007326  -0.005806   0.828917
    19  H   -0.000210  -0.000230   0.005614  -0.005808   0.009944  -0.043381
    20  H    0.000350   0.000168  -0.000040   0.000197   0.005596  -0.010074
    21  H    0.000437   0.000133   0.000168  -0.000315  -0.000230  -0.003151
    22  H   -0.002274   0.000437   0.000350   0.000082  -0.000208  -0.000510
    23  H   -0.002638   0.000580   0.019461   0.000174  -0.000264  -0.000031
    24  H    0.028030   0.000021  -0.001745   0.000016   0.000009   0.000021
              19         20         21         22         23         24
     1  O   -0.000001  -0.000299   0.000006   0.000343   0.000015   0.000007
     2  C    0.000206   0.000279  -0.000873  -0.014919  -0.000996  -0.000489
     3  C   -0.005820  -0.007796   0.021008  -0.035043   0.023332  -0.001766
     4  C    0.000220  -0.008929  -0.000465   0.017258  -0.014032   0.001302
     5  C   -0.029289  -0.002581   0.007403  -0.001054  -0.001505   0.000064
     6  C    0.327232  -0.039984  -0.008155   0.016611   0.020584  -0.002546
     7  C   -0.009828   0.313072   0.226180  -0.055891  -0.058771   0.028059
     8  C   -0.015286  -0.007707  -0.093716   0.216918  -0.101022  -0.115656
     9  C    0.010068   0.008972  -0.013918  -0.005157   0.254579   0.232355
    10  O    0.003501   0.000230   0.081858   0.017266  -0.068638  -0.059078
    11  H   -0.000263   0.019548   0.000579  -0.002630   0.000111  -0.000058
    12  H    0.000009  -0.001757   0.000021   0.027986  -0.000058   0.001015
    13  H   -0.000210   0.000350   0.000437  -0.002274  -0.002638   0.028030
    14  H   -0.000230   0.000168   0.000133   0.000437   0.000580   0.000021
    15  H    0.005614  -0.000040   0.000168   0.000350   0.019461  -0.001745
    16  H   -0.005808   0.000197  -0.000315   0.000082   0.000174   0.000016
    17  H    0.009944   0.005596  -0.000230  -0.000208  -0.000264   0.000009
    18  H   -0.043381  -0.010074  -0.003151  -0.000510  -0.000031   0.000021
    19  H    0.707812   0.011934  -0.005908  -0.000217  -0.001503   0.000421
    20  H    0.011934   0.785578  -0.039397  -0.016611  -0.000934  -0.000582
    21  H   -0.005908  -0.039397   0.804105   0.006865   0.006680   0.008698
    22  H   -0.000217  -0.016611   0.006865   0.868319   0.025241  -0.021327
    23  H   -0.001503  -0.000934   0.006680   0.025241   1.148438  -0.127471
    24  H    0.000421  -0.000582   0.008698  -0.021327  -0.127471   1.164714
 Mulliken charges:
               1
     1  O   -0.626955
     2  C    0.133664
     3  C   -0.060059
     4  C   -0.050683
     5  C   -0.104631
     6  C   -0.104610
     7  C   -0.050708
     8  C   -0.059958
     9  C    0.133701
    10  O   -0.627063
    11  H   -0.121291
    12  H   -0.134011
    13  H   -0.041823
    14  H    0.002025
    15  H   -0.009253
    16  H   -0.027760
    17  H    0.040824
    18  H   -0.027761
    19  H    0.040782
    20  H   -0.009234
    21  H    0.001987
    22  H   -0.041834
    23  H   -0.121331
    24  H   -0.134015
 Sum of Mulliken charges =  -2.00000
 Mulliken charges with hydrogens summed into heavy atoms:
               1
     1  O   -0.626955
     2  C   -0.121638
     3  C   -0.101883
     4  C   -0.057912
     5  C   -0.091567
     6  C   -0.091590
     7  C   -0.057956
     8  C   -0.101792
     9  C   -0.121645
    10  O   -0.627063
 Electronic spatial extent (au):  <R**2>=           1675.7966
 Charge=             -2.0000 electrons
 Dipole moment (field-independent basis, Debye):
    X=             -0.0045    Y=             -5.9113    Z=             -0.0007  Tot=              5.9113
 Quadrupole moment (field-independent basis, Debye-Ang):
   XX=           -143.4882   YY=            -85.4332   ZZ=            -76.7281
   XY=              0.0022   XZ=              2.5330   YZ=             -0.0020
 Traceless Quadrupole moment (field-independent basis, Debye-Ang):
   XX=            -41.6050   YY=             16.4500   ZZ=             25.1550
   XY=              0.0022   XZ=              2.5330   YZ=             -0.0020
 Octapole moment (field-independent basis, Debye-Ang**2):
  XXX=             -0.0982  YYY=              7.9315  ZZZ=              0.0039  XYY=              0.0150
  XXY=            -61.1125  XXZ=             -0.0041  XZZ=             -0.0042  YZZ=              1.0473
  YYZ=             -0.0051  XYZ=              6.9620
 Hexadecapole moment (field-independent basis, Debye-Ang**3):
 XXXX=          -2017.4938 YYYY=           -772.2237 ZZZZ=           -354.5841 XXXY=             -0.0378
 XXXZ=             19.8174 YYYX=              0.0233 YYYZ=             -0.0053 ZZZX=             12.7323
 ZZZY=              0.0021 XXYY=           -405.8460 XXZZ=           -287.8330 YYZZ=           -183.9754
 XXYZ=             -0.0181 YYXZ=              6.6675 ZZXY=              0.0028
 N-N= 5.675331379422D+02 E-N=-2.240691430535D+03  KE= 4.591954827354D+02
 No NMR shielding tensors so no spin-rotation constants.
 Leave Link  601 at Mon Feb 26 06:32:34 2024, MaxMem=  7516192768 cpu:               3.0 elap:               0.1
 (Enter /public/apps/g16-C01//g16/l701.exe)
 ... and contract with generalized density number  0.
 Compute integral first derivatives.
 R6Disp: Adding Grimme-D3(BJ) dispersion energy 1st derivatives to the gradient.
   1 Symmetry operations used in ECPInt.
 ECPInt:  NShTT=    3916 NPrTT=   15748 LenC2=    3865 LenP2D=   12209.
 LDataN:  DoStor=T MaxTD1= 5 Len=  102
 Leave Link  701 at Mon Feb 26 06:32:34 2024, MaxMem=  7516192768 cpu:               4.4 elap:               0.1
 (Enter /public/apps/g16-C01//g16/l702.exe)
 L702 exits ... SP integral derivatives will be done elsewhere.
 Leave Link  702 at Mon Feb 26 06:32:34 2024, MaxMem=  7516192768 cpu:               0.4 elap:               0.0
 (Enter /public/apps/g16-C01//g16/l703.exe)
 Integral derivatives from FoFJK, PRISM(SPDF).
 Compute integral first derivatives, UseDBF=F ICtDFT=           0.
 Calling FoFJK, ICntrl=      2127 FMM=F ISym2X=0 I1Cent= 0 IOpClX= 0 NMat=1 NMatS=1 NMatT=0.
 FoFJK:  IHMeth= 1 ICntrl=    2127 DoSepK=F KAlg= 0 I1Cent=           0 FoldK=F
 IRaf=         0 NMat=       1 IRICut=       1 DoRegI=T DoRafI=F ISym2E= 0 IDoP0=0 IntGTp=1.
 FoFCou: FMM=F IPFlag=           0 FMFlag=      100000 FMFlg1=         800
         NFxFlg=           0 DoJE=F BraDBF=F KetDBF=F FulRan=T
         wScrn=  0.000000 ICntrl=      2127 IOpCl=  0 I1Cent=           0 NGrid=           0
         NMat0=    1 NMatS0=      1 NMatT0=    0 NMatD0=    1 NMtDS0=    0 NMtDT0=    0
 Symmetry not used in FoFCou.
 Leave Link  703 at Mon Feb 26 06:32:35 2024, MaxMem=  7516192768 cpu:              26.0 elap:               0.7
 (Enter /public/apps/g16-C01//g16/l716.exe)
 Dipole        =-1.77399292D-03-2.32569577D+00-2.57850188D-04
 -------------------------------------------------------------------
 Center     Atomic                   Forces (Hartrees/Bohr)
 Number     Number              X              Y              Z
 -------------------------------------------------------------------
      1        8          -0.006608995   -0.002198065   -0.006832978
      2        6          -0.011158237    0.003252594   -0.003981314
      3        6          -0.001022797   -0.001514337    0.008438089
      4        6          -0.002429357    0.001085542    0.001261123
      5        6           0.005689176    0.001628530   -0.006928478
      6        6          -0.005674036    0.001614433    0.006929755
      7        6           0.002410203    0.001087486   -0.001212414
      8        6           0.001059558   -0.001587753   -0.008471445
      9        6           0.011192709    0.003270431    0.003948607
     10        8           0.006527226   -0.002169118    0.006851334
     11        1           0.006252369   -0.001402485    0.005665076
     12        1           0.007085343    0.001783852    0.002798849
     13        1          -0.001402992    0.004574497   -0.003509290
     14        1          -0.007300833    0.002364986   -0.001396098
     15        1           0.004548084   -0.001473273   -0.005634262
     16        1          -0.002664806   -0.006409802   -0.003027850
     17        1          -0.006031581   -0.001640558    0.006991503
     18        1           0.002669970   -0.006410098    0.003040844
     19        1           0.006021939   -0.001644304   -0.006986698
     20        1          -0.004542600   -0.001484737    0.005639464
     21        1           0.007311796    0.002342988    0.001393876
     22        1           0.001397968    0.004568309    0.003495623
     23        1          -0.006266105   -0.001433398   -0.005694596
     24        1          -0.007064000    0.001794281   -0.002778722
 -------------------------------------------------------------------
 Cartesian Forces:  Max     0.011192709 RMS     0.004838539
 Leave Link  716 at Mon Feb 26 06:32:35 2024, MaxMem=  7516192768 cpu:               0.9 elap:               0.0
 (Enter /public/apps/g16-C01//g16/l103.exe)

 GradGradGradGradGradGradGradGradGradGradGradGradGradGradGradGradGradGrad
 Berny optimization.
 FormGI is forming the generalized inverse of G from B-inverse, IUseBI=4.
 Internal  Forces:  Max     0.009202991 RMS     0.003258582
 Search for a local minimum.
 Step number   1 out of a maximum of  144
 All quantities printed in internal units (Hartrees-Bohrs-Radians)
 RMS Force = .32586D-02 SwitMx=.10000D-02 MixMth= 1
 Mixed Optimization -- RFO/linear search
 Second derivative matrix not updated -- first step.
 ITU=  0
     Eigenvalues ---    0.00230   0.00230   0.00511   0.00589   0.00746
     Eigenvalues ---    0.02033   0.02134   0.03419   0.04070   0.04190
     Eigenvalues ---    0.04369   0.04389   0.04588   0.04880   0.04927
     Eigenvalues ---    0.04929   0.04961   0.05099   0.05460   0.05495
     Eigenvalues ---    0.06080   0.06662   0.06663   0.06702   0.07909
     Eigenvalues ---    0.07923   0.08016   0.08235   0.08276   0.09737
     Eigenvalues ---    0.11944   0.13199   0.14243   0.16000   0.16000
     Eigenvalues ---    0.16000   0.16000   0.17072   0.17801   0.20290
     Eigenvalues ---    0.22446   0.22447   0.25013   0.25017   0.27470
     Eigenvalues ---    0.28231   0.28360   0.28360   0.28366   0.28577
     Eigenvalues ---    0.28583   0.29735   0.29816   0.29856   0.33422
     Eigenvalues ---    0.33423   0.33483   0.33485   0.33920   0.33920
     Eigenvalues ---    0.34075   0.34075   0.34551   0.34552   0.63609
     Eigenvalues ---    0.63626
 RFO step:  Lambda=-7.19341924D-03 EMin= 2.30000000D-03
 Linear search not attempted -- first point.
 Iteration  1 RMS(Cart)=  0.03591549 RMS(Int)=  0.00089982
 Iteration  2 RMS(Cart)=  0.00101042 RMS(Int)=  0.00022788
 Iteration  3 RMS(Cart)=  0.00000107 RMS(Int)=  0.00022788
 Iteration  4 RMS(Cart)=  0.00000000 RMS(Int)=  0.00022788
 ITry= 1 IFail=0 DXMaxC= 1.49D-01 DCOld= 1.00D+10 DXMaxT= 3.00D-01 DXLimC= 3.00D+00 Rises=F
 Variable       Old X    -DE/DX   Delta X   Delta X   Delta X     New X
                                 (Linear)    (Quad)   (Total)
    R1        2.48181   0.00891   0.00000   0.01385   0.01385   2.49566
    R2        2.99176   0.00226   0.00000   0.00877   0.00877   3.00053
    R3        2.17594   0.00587   0.00000   0.02003   0.02003   2.19597
    R4        2.18058   0.00433   0.00000   0.01489   0.01489   2.19547
    R5        2.88882   0.00595   0.00000   0.01835   0.01838   2.90721
    R6        2.89459   0.00830   0.00000   0.02483   0.02493   2.91952
    R7        2.08208   0.00575   0.00000   0.01680   0.01680   2.09888
    R8        2.87817   0.00697   0.00000   0.02401   0.02398   2.90215
    R9        2.07205   0.00751   0.00000   0.02158   0.02158   2.09363
   R10        2.07466   0.00728   0.00000   0.02102   0.02102   2.09567
   R11        2.87645   0.00760   0.00000   0.02726   0.02716   2.90361
   R12        2.08317   0.00741   0.00000   0.02170   0.02170   2.10487
   R13        2.06408   0.00920   0.00000   0.02609   0.02609   2.09017
   R14        2.87824   0.00695   0.00000   0.02391   0.02388   2.90212
   R15        2.08316   0.00742   0.00000   0.02172   0.02172   2.10488
   R16        2.06410   0.00919   0.00000   0.02607   0.02607   2.09017
   R17        2.88880   0.00600   0.00000   0.01849   0.01852   2.90732
   R18        2.07465   0.00728   0.00000   0.02102   0.02102   2.09567
   R19        2.07203   0.00752   0.00000   0.02160   0.02160   2.09363
   R20        2.99166   0.00225   0.00000   0.00873   0.00873   3.00039
   R21        2.08211   0.00573   0.00000   0.01677   0.01677   2.09887
   R22        2.48193   0.00884   0.00000   0.01375   0.01375   2.49568
   R23        2.17581   0.00590   0.00000   0.02014   0.02014   2.19595
   R24        2.18059   0.00433   0.00000   0.01489   0.01489   2.19548
    A1        2.02413  -0.00307   0.00000  -0.00653  -0.00656   2.01757
    A2        1.97589   0.00548   0.00000   0.04003   0.04000   2.01590
    A3        1.98117   0.00671   0.00000   0.04867   0.04862   2.02980
    A4        1.85067  -0.00398   0.00000  -0.02767  -0.02806   1.82261
    A5        1.81935  -0.00597   0.00000  -0.03945  -0.03989   1.77946
    A6        1.79013  -0.00005   0.00000  -0.02584  -0.02724   1.76289
    A7        1.89704  -0.00096   0.00000   0.00178   0.00145   1.89849
    A8        1.99445   0.00234   0.00000   0.02121   0.02116   2.01561
    A9        1.83634  -0.00150   0.00000  -0.02405  -0.02403   1.81231
   A10        1.97618  -0.00021   0.00000   0.00379   0.00369   1.97987
   A11        1.86669   0.00017   0.00000  -0.00888  -0.00894   1.85776
   A12        1.88356  -0.00004   0.00000   0.00198   0.00211   1.88567
   A13        1.96185   0.00065   0.00000   0.00596   0.00586   1.96771
   A14        1.85049  -0.00162   0.00000  -0.01114  -0.01117   1.83933
   A15        1.92923   0.00054   0.00000  -0.00045  -0.00045   1.92878
   A16        1.91763   0.00149   0.00000   0.01599   0.01603   1.93366
   A17        1.90285  -0.00146   0.00000  -0.01469  -0.01461   1.88824
   A18        1.90056   0.00045   0.00000   0.00498   0.00500   1.90557
   A19        1.91980   0.00006   0.00000   0.01144   0.01123   1.93103
   A20        1.92377   0.00050   0.00000   0.00492   0.00484   1.92861
   A21        1.89745   0.00006   0.00000  -0.00107  -0.00101   1.89644
   A22        1.92763   0.00067   0.00000   0.00765   0.00758   1.93520
   A23        1.91190  -0.00044   0.00000  -0.00787  -0.00782   1.90408
   A24        1.88265  -0.00087   0.00000  -0.01585  -0.01584   1.86680
   A25        1.91988   0.00005   0.00000   0.01133   0.01111   1.93100
   A26        1.92749   0.00069   0.00000   0.00782   0.00775   1.93525
   A27        1.91188  -0.00045   0.00000  -0.00791  -0.00787   1.90402
   A28        1.92375   0.00049   0.00000   0.00489   0.00482   1.92857
   A29        1.89759   0.00006   0.00000  -0.00110  -0.00104   1.89655
   A30        1.88259  -0.00087   0.00000  -0.01581  -0.01580   1.86679
   A31        1.96202   0.00064   0.00000   0.00588   0.00578   1.96780
   A32        1.90277  -0.00146   0.00000  -0.01474  -0.01466   1.88811
   A33        1.91784   0.00148   0.00000   0.01586   0.01589   1.93373
   A34        1.92898   0.00055   0.00000  -0.00026  -0.00026   1.92872
   A35        1.85054  -0.00161   0.00000  -0.01105  -0.01108   1.83946
   A36        1.90047   0.00045   0.00000   0.00497   0.00500   1.90547
   A37        1.97586  -0.00018   0.00000   0.00405   0.00394   1.97980
   A38        1.99473   0.00231   0.00000   0.02112   0.02106   2.01579
   A39        1.88373  -0.00005   0.00000   0.00182   0.00195   1.88568
   A40        1.89684  -0.00093   0.00000   0.00203   0.00169   1.89853
   A41        1.86681   0.00015   0.00000  -0.00905  -0.00911   1.85770
   A42        1.83632  -0.00150   0.00000  -0.02417  -0.02415   1.81217
   A43        2.02431  -0.00314   0.00000  -0.00687  -0.00691   2.01740
   A44        1.85059  -0.00397   0.00000  -0.02754  -0.02793   1.82266
   A45        1.81943  -0.00596   0.00000  -0.03946  -0.03991   1.77953
   A46        1.97569   0.00552   0.00000   0.04032   0.04029   2.01598
   A47        1.98134   0.00671   0.00000   0.04847   0.04842   2.02976
   A48        1.78995  -0.00003   0.00000  -0.02564  -0.02703   1.76292
    D1       -0.87830   0.00104   0.00000   0.05756   0.05760  -0.82070
    D2       -3.10425   0.00031   0.00000   0.03460   0.03449  -3.06976
    D3        1.11608   0.00006   0.00000   0.03631   0.03640   1.15248
    D4        1.33120   0.00282   0.00000   0.08321   0.08281   1.41401
    D5       -0.89475   0.00209   0.00000   0.06025   0.05970  -0.83505
    D6       -2.95760   0.00184   0.00000   0.06196   0.06162  -2.89599
    D7       -3.06966  -0.00095   0.00000   0.02970   0.03015  -3.03952
    D8        0.98757  -0.00169   0.00000   0.00673   0.00704   0.99461
    D9       -1.07528  -0.00193   0.00000   0.00844   0.00895  -1.06633
   D10       -1.37541  -0.00223   0.00000  -0.04358  -0.04350  -1.41891
   D11        0.72010  -0.00108   0.00000  -0.02778  -0.02777   0.69233
   D12        2.77722  -0.00119   0.00000  -0.02850  -0.02845   2.74877
   D13        0.86089  -0.00005   0.00000  -0.01099  -0.01096   0.84992
   D14        2.95640   0.00110   0.00000   0.00482   0.00477   2.96117
   D15       -1.26967   0.00098   0.00000   0.00409   0.00409  -1.26558
   D16        2.93333  -0.00012   0.00000  -0.01216  -0.01210   2.92123
   D17       -1.25435   0.00104   0.00000   0.00364   0.00364  -1.25071
   D18        0.80277   0.00092   0.00000   0.00292   0.00295   0.80572
   D19        1.39770   0.00051   0.00000   0.02542   0.02542   1.42313
   D20       -2.70105   0.00100   0.00000   0.04948   0.04954  -2.65150
   D21       -0.66503   0.00046   0.00000   0.03303   0.03309  -0.63194
   D22       -0.78705   0.00004   0.00000   0.00184   0.00178  -0.78527
   D23        1.39739   0.00053   0.00000   0.02589   0.02590   1.42329
   D24       -2.84978  -0.00001   0.00000   0.00945   0.00945  -2.84033
   D25       -2.84971  -0.00002   0.00000   0.00928   0.00929  -2.84043
   D26       -0.66528   0.00048   0.00000   0.03334   0.03340  -0.63187
   D27        1.37074  -0.00006   0.00000   0.01689   0.01695   1.38769
   D28       -0.99546   0.00053   0.00000   0.02693   0.02699  -0.96848
   D29       -3.12509  -0.00068   0.00000   0.00652   0.00653  -3.11857
   D30        1.09795   0.00006   0.00000   0.02353   0.02354   1.12150
   D31       -3.05163   0.00117   0.00000   0.02661   0.02662  -3.02501
   D32        1.10193  -0.00004   0.00000   0.00620   0.00616   1.10809
   D33       -0.95821   0.00070   0.00000   0.02321   0.02318  -0.93504
   D34        1.14999   0.00061   0.00000   0.01990   0.01995   1.16994
   D35       -0.97964  -0.00059   0.00000  -0.00051  -0.00051  -0.98015
   D36       -3.03978   0.00014   0.00000   0.01650   0.01651  -3.02328
   D37        1.05562  -0.00133   0.00000  -0.03446  -0.03459   1.02103
   D38       -3.10028  -0.00023   0.00000  -0.01562  -0.01566  -3.11594
   D39       -1.02922  -0.00116   0.00000  -0.03517  -0.03521  -1.06443
   D40       -3.10022  -0.00023   0.00000  -0.01562  -0.01566  -3.11589
   D41       -0.97294   0.00088   0.00000   0.00322   0.00327  -0.96967
   D42        1.09812  -0.00005   0.00000  -0.01633  -0.01628   1.08184
   D43       -1.02900  -0.00117   0.00000  -0.03530  -0.03535  -1.06435
   D44        1.09828  -0.00006   0.00000  -0.01646  -0.01641   1.08187
   D45       -3.11384  -0.00099   0.00000  -0.03601  -0.03597   3.13337
   D46       -0.99544   0.00054   0.00000   0.02705   0.02710  -0.96833
   D47        1.14975   0.00063   0.00000   0.02016   0.02021   1.16996
   D48       -3.05190   0.00117   0.00000   0.02675   0.02676  -3.02514
   D49       -3.12494  -0.00068   0.00000   0.00652   0.00652  -3.11842
   D50       -0.97976  -0.00059   0.00000  -0.00037  -0.00037  -0.98013
   D51        1.10178  -0.00005   0.00000   0.00622   0.00618   1.10796
   D52        1.09809   0.00006   0.00000   0.02351   0.02352   1.12161
   D53       -3.03991   0.00015   0.00000   0.01662   0.01663  -3.02328
   D54       -0.95837   0.00069   0.00000   0.02321   0.02317  -0.93519
   D55        0.86066  -0.00005   0.00000  -0.01091  -0.01089   0.84977
   D56       -1.37561  -0.00222   0.00000  -0.04377  -0.04369  -1.41929
   D57        2.93320  -0.00011   0.00000  -0.01224  -0.01218   2.92102
   D58       -1.26973   0.00099   0.00000   0.00416   0.00415  -1.26558
   D59        2.77719  -0.00119   0.00000  -0.02870  -0.02865   2.74854
   D60        0.80281   0.00092   0.00000   0.00283   0.00286   0.80567
   D61        2.95655   0.00109   0.00000   0.00474   0.00469   2.96125
   D62        0.72029  -0.00108   0.00000  -0.02811  -0.02811   0.69218
   D63       -1.25409   0.00103   0.00000   0.00341   0.00340  -1.25069
   D64       -3.10584   0.00028   0.00000   0.03475   0.03464  -3.07120
   D65       -0.89655   0.00207   0.00000   0.06063   0.06009  -0.83646
   D66        0.98558  -0.00168   0.00000   0.00738   0.00769   0.99327
   D67       -0.88027   0.00105   0.00000   0.05818   0.05822  -0.82205
   D68        1.32902   0.00284   0.00000   0.08406   0.08367   1.41269
   D69       -3.07203  -0.00091   0.00000   0.03082   0.03127  -3.04077
   D70        1.11414   0.00006   0.00000   0.03679   0.03688   1.15102
   D71       -2.95975   0.00185   0.00000   0.06267   0.06233  -2.89742
   D72       -1.07762  -0.00190   0.00000   0.00942   0.00993  -1.06769
         Item               Value     Threshold  Converged?
 Maximum Force            0.009203     0.000450     NO 
 RMS     Force            0.003259     0.000300     NO 
 Maximum Displacement     0.148526     0.001800     NO 
 RMS     Displacement     0.036040     0.001200     NO 
 Predicted change in Energy=-3.930432D-03
 Lowest energy point so far.  Saving SCF results.
 GradGradGradGradGradGradGradGradGradGradGradGradGradGradGradGradGradGrad

 Leave Link  103 at Mon Feb 26 06:32:35 2024, MaxMem=  7516192768 cpu:               1.7 elap:               0.1
 (Enter /public/apps/g16-C01//g16/l202.exe)
                          Input orientation:                          
 ---------------------------------------------------------------------
 Center     Atomic      Atomic             Coordinates (Angstroms)
 Number     Number       Type             X           Y           Z
 ---------------------------------------------------------------------
      1          8           0       -3.113012    0.890411    0.040915
      2          6           0       -1.920368    0.972021    0.602206
      3          6           0       -0.692409    0.623712   -0.342221
      4          6           0       -1.002621   -0.680406   -1.097073
      5          6           0       -0.725634   -1.934253   -0.254650
      6          6           0        0.723818   -1.934861    0.255245
      7          6           0        1.002036   -0.680850    1.096990
      8          6           0        0.692969    0.623292    0.341580
      9          6           0        1.921308    0.970375   -0.602678
     10          8           0        3.113599    0.889564   -0.040494
     11          1           0       -1.762301    0.304972    1.540521
     12          1           0       -1.616941    2.013925    1.017090
     13          1           0       -0.701621    1.435490   -1.100209
     14          1           0       -2.075505   -0.616357   -1.365884
     15          1           0       -0.397940   -0.745883   -2.024389
     16          1           0       -0.939630   -2.855081   -0.843670
     17          1           0       -1.413827   -1.937926    0.611244
     18          1           0        0.936902   -2.855560    0.844803
     19          1           0        1.411952   -1.939777   -0.610688
     20          1           0        0.397244   -0.745365    2.024301
     21          1           0        2.074943   -0.617722    1.365939
     22          1           0        0.702829    1.435311    1.099293
     23          1           0        1.763784    0.302075   -1.540183
     24          1           0        1.618127    2.011743   -1.019103
 ---------------------------------------------------------------------
                    Distance matrix (angstroms):
                    1          2          3          4          5
     1  O    0.000000
     2  C    1.320647   0.000000
     3  C    2.465206   1.587812   0.000000
     4  C    2.866398   2.541717   1.538427   0.000000
     5  C    3.710210   3.256996   2.559680   1.535751   0.000000
     6  C    4.769629   3.944878   2.984788   2.526462   1.536524
     7  C    4.529655   3.393706   2.577664   2.971962   2.526419
     8  C    3.827171   2.649352   1.544945   2.577668   2.984788
     9  C    5.075922   4.026192   2.649439   3.393945   3.945161
    10  O    6.227143   5.075498   3.827193   4.530389   4.770694
    11  H    2.101423   1.162056   2.188831   2.916331   3.051466
    12  H    2.110315   1.161792   2.152947   3.479439   4.242625
    13  H    2.722880   2.144379   1.110681   2.137200   3.474293
    14  H    2.307781   2.533849   2.120993   1.107900   2.189484
    15  H    3.783458   3.488264   2.189108   1.108982   2.156753
    16  H    4.419818   4.207032   3.523432   2.190295   1.113850
    17  H    3.348432   2.953720   2.826930   2.160740   1.106072
    18  H    5.574974   4.782595   4.021071   3.501988   2.195821
    19  H    5.376788   4.588467   3.327444   2.766359   2.167041
    20  H    4.351032   3.216068   2.943151   3.421522   2.804983
    21  H    5.562826   4.367274   3.480978   3.942303   3.493250
    22  H    3.997214   2.709777   2.164103   3.494115   3.902260
    23  H    5.160344   4.314120   2.751626   2.968941   3.584824
    24  H    4.976414   4.028723   2.779096   3.757934   4.652794
                    6          7          8          9         10
     6  C    0.000000
     7  C    1.535735   0.000000
     8  C    2.559795   1.538490   0.000000
     9  C    3.257362   2.541746   1.587736   0.000000
    10  O    3.711588   2.866839   2.465021   1.320659   0.000000
    11  H    3.584630   2.968185   2.750843   4.313355   5.159046
    12  H    4.653222   3.758622   2.779543   4.028877   4.976010
    13  H    3.902358   3.494141   2.164094   2.709913   3.997116
    14  H    3.493239   3.942228   3.480892   4.367461   5.563385
    15  H    2.805127   3.421574   2.943218   3.216475   4.352175
    16  H    2.195786   3.501929   4.021103   4.783007   5.576390
    17  H    2.167089   2.766331   3.327333   4.588567   5.377458
    18  H    1.113854   2.190252   3.523513   4.207378   4.421280
    19  H    1.106070   2.160808   2.827202   2.954402   3.350507
    20  H    2.156643   1.108982   2.189115   3.488201   3.783510
    21  H    2.189528   1.107903   2.121151   2.533991   2.308413
    22  H    3.474323   2.137210   1.110676   2.144192   2.721905
    23  H    3.051060   2.915661   2.188802   1.162047   2.101478
    24  H    4.242574   3.479580   2.152945   1.161799   2.110308
                   11         12         13         14         15
[...]
 4,-0.05498880,-0.03087263,-0.01884354,-0.00503816,-0.02814636,-0.01858
 191,-0.00673205,0.00232582,-0.00067953,-0.00013806,0.00058511,-0.00007
 725,-0.00028592,0.00008082,-0.00052340,0.00009834,-0.00030935,0.000544
 42,-0.00002649,0.00021032,-0.00024805,0.00005354,0.00015932,-0.0001104
 2,0.00024075,0.00038916,0.00011859,0.00023157,-0.00031197,0.00054364,0
 .00021595,-0.00044889,-0.00021587,0.05781766,0.00089541,-0.00001216,0.
 00006015,-0.00105105,0.00039933,0.00063439,0.00190475,-0.00173617,0.00
 650473,-0.00487666,-0.02399936,-0.01663176,-0.03273523,-0.19838249,-0.
 10217783,0.00100791,-0.00001946,0.00090677,-0.00130218,0.00127838,0.00
 005256,0.00057879,0.00065356,0.00067218,0.00024262,-0.00016011,-0.0005
 2734,-0.00065051,-0.00006230,0.00014728,0.00007301,0.00009429,-0.00022
 198,0.00012812,-0.00017669,-0.00031218,-0.00031395,-0.00181201,-0.0009
 5026,0.00055497,0.00102222,-0.00000164,-0.00070300,0.00132427,0.000595
 72,0.03599642,0.22025033,0.00041936,-0.00015313,0.00037212,-0.00014915
 ,0.00077217,-0.00110760,-0.00107239,0.00165746,-0.00199003,0.00406974,
 0.01743118,0.01075794,-0.02001138,-0.10294204,-0.11647702,-0.00056021,
 -0.00914901,-0.00684270,-0.00399793,0.00100233,0.00028781,-0.00012551,
 0.00040692,-0.00021328,-0.00029474,0.00014971,-0.00034521,-0.00001953,
 -0.00033465,0.00041584,0.00009341,-0.00057861,0.00065585,-0.00011778,-
 0.00019906,0.00027955,0.00012847,0.00080346,0.00028620,0.00022132,-0.0
 0096505,0.00048084,0.00005138,-0.00056221,0.00137533,0.02594263,0.1120
 6741,0.12373502,-0.00070838,-0.00103436,-0.00069247,0.00157828,-0.0001
 1259,0.00233255,-0.00021929,0.00028601,0.00049947,0.00411496,-0.000390
 24,-0.00531108,-0.14347972,-0.00313291,0.11939321,-0.02218126,-0.00078
 916,0.02512964,0.00154990,0.00102069,0.00174426,-0.00006056,-0.0001940
 1,-0.00017732,-0.00009062,0.00040563,0.00035104,0.00007704,-0.00016150
 ,-0.00019071,-0.00011998,0.00109224,-0.00096047,-0.00009962,0.00020898
 ,-0.00039584,0.00000416,-0.00014440,-0.00011073,0.00054747,-0.00025686
 ,-0.00031510,0.00077550,0.00133929,-0.00102224,0.00436416,0.00110139,-
 0.00521625,0.15807350,-0.00008886,0.00093044,-0.00057644,-0.00013515,-
 0.00184236,0.00067792,-0.00037267,0.00107053,-0.00014684,-0.01668922,0
 .00042146,0.02274454,-0.00025644,-0.04898033,-0.00314586,0.00108308,-0
 .00024197,0.00004816,-0.00081216,0.00019923,0.00082288,0.00008309,-0.0
 0025316,-0.00010646,0.00007890,0.00033588,0.00054709,-0.00011301,-0.00
 005666,-0.00020600,0.00012729,-0.00005933,-0.00089144,0.00007745,0.000
 43258,-0.00013910,0.00020283,0.00024176,-0.00026045,-0.00016765,0.0011
 5091,-0.00033368,0.00070196,-0.00417199,0.00388123,0.01603220,0.000104
 16,-0.01956912,0.00063545,0.04992010,-0.00077022,-0.00090447,0.0004329
 1,0.00098382,0.00058463,-0.00039374,-0.00033413,-0.00092564,0.00030643
 ,0.01129075,0.00149653,-0.01678297,0.12101752,0.00046503,-0.19830310,-
 0.00769643,-0.00002003,0.00876053,-0.00050157,-0.00000615,0.00089655,-
 0.00005168,0.00041117,-0.00006899,-0.00046643,-0.00033749,-0.00058928,
 0.00037027,-0.00010103,0.00028476,0.00021200,-0.00068389,0.00055233,-0
 .00024314,-0.00024434,0.00026884,-0.00006124,0.00002319,0.00008779,0.0
 0023332,-0.00064257,0.00020726,-0.00108468,0.00397460,-0.00119787,0.00
 897630,-0.00061015,-0.01264497,-0.13037615,-0.00261035,0.21604723,0.00
 009912,0.00030949,0.00054416,-0.00028619,-0.00008096,-0.00052294,-0.00
 013900,-0.00058451,-0.00007752,-0.00673285,-0.00231968,-0.00067844,-0.
 00501639,0.02814164,-0.01859586,-0.05493763,0.03074845,-0.01877583,0.0
 0077327,-0.00479051,0.00423584,0.00031922,-0.00066981,-0.00114526,-0.0
 0001352,0.00054408,0.00031953,0.00003322,-0.00015607,-0.00007795,0.000
 04198,-0.00009970,0.00022825,0.00004727,0.00021951,0.00016430,0.000149
 41,0.00013001,0.00009153,0.00015278,0.00139748,-0.00139863,0.00017861,
 -0.00008876,-0.00031813,0.00128811,-0.00069036,0.00030591,0.00121683,-
 0.00012716,0.00075875,0.05775984,0.00065038,-0.00006299,-0.00014749,-0
 .00024267,-0.00015968,0.00052767,-0.00057822,0.00065397,-0.00067253,0.
 00130672,0.00127869,-0.00005251,-0.00100415,-0.00003740,-0.00089502,0.
 03261046,-0.19833691,0.10223127,0.00485854,-0.02399975,0.01664470,-0.0
 0190681,-0.00173804,-0.00650394,0.00105132,0.00039740,-0.00063537,-0.0
 0089525,-0.00001126,-0.00005991,-0.00003253,0.00010053,-0.00024260,0.0
 0010059,-0.00000447,-0.00012250,0.00002403,0.00001995,0.00022772,-0.00
 036401,-0.00013821,0.00023013,-0.00016902,0.00005772,0.00001292,0.0006
 9036,0.00110636,0.00043523,0.00060021,0.00009111,-0.00033279,-0.035853
 53,0.22020263,-0.00001957,0.00033490,0.00041575,-0.00029474,-0.0001495
 6,-0.00034539,-0.00012556,-0.00040724,-0.00021276,-0.00399936,-0.00099
 957,0.00028836,-0.00055239,0.00914629,-0.00684661,-0.01994394,0.102996
 33,-0.11657329,0.00405338,-0.01741806,0.01075846,-0.00107277,-0.001656
 73,-0.00198625,-0.00015028,-0.00077277,-0.00110695,0.00041991,0.000152
 97,0.00037208,0.00003438,-0.00001978,0.00011699,0.00006451,0.00024230,
 0.00015446,0.00012639,0.00007355,0.00001072,0.00018846,0.00081531,-0.0
 0045050,0.00023165,-0.00036679,0.00045368,0.00030524,-0.00043608,-0.00
 017290,-0.00031257,-0.00047138,0.00086182,0.02586941,-0.11213348,0.123
 84008,0.00007726,0.00016129,-0.00019061,-0.00009100,-0.00040510,0.0003
 5078,-0.00006049,0.00019375,-0.00017737,0.00154938,-0.00102129,0.00174
 383,-0.02218124,0.00081856,0.02512909,-0.14347672,0.00326348,0.1193949
 6,0.00412860,0.00038485,-0.00532927,-0.00021960,-0.00028478,0.00049955
 ,0.00157850,0.00011086,0.00233200,-0.00070747,0.00103541,-0.00069250,-
 0.00002821,0.00021212,-0.00023646,0.00006719,0.00013732,-0.00006480,-0
 .00001834,0.00011230,0.00000084,0.00013731,-0.00020366,-0.00024943,0.0
 0022993,0.00046047,-0.00109354,0.00121647,-0.00060126,-0.00031191,-0.0
 0572941,-0.00024172,-0.00272550,0.00435041,-0.00110723,-0.00520004,0.1
 5807191,0.00011308,-0.00005674,0.00020632,-0.00007877,0.00033618,-0.00
 054783,-0.00008327,-0.00025336,0.00010673,0.00081114,0.00019957,-0.000
 82360,-0.00106922,-0.00024186,-0.00006405,0.00038724,-0.04897984,0.002
 98060,0.01669164,0.00039563,-0.02274867,0.00037399,0.00107159,0.000145
 79,0.00013301,-0.00184363,-0.00067981,0.00008987,0.00093033,0.00057678
 ,0.00007494,-0.00021571,0.00038239,-0.00005645,-0.00008085,0.00005074,
 0.00006126,-0.00002001,0.00013339,-0.00011372,-0.00008511,0.00005727,0
 .00005204,0.00009780,0.00012420,0.00012662,0.00009186,0.00047200,0.000
 24586,0.00101064,-0.00047931,-0.01603143,0.00012732,0.01956729,-0.0007
 8226,0.04992184,0.00037030,0.00010088,0.00028462,-0.00046610,0.0003374
 4,-0.00058920,-0.00005200,-0.00041104,-0.00006882,-0.00050221,0.000006
 92,0.00089697,-0.00769591,0.00003045,0.00876064,0.12101759,-0.00063234
 ,-0.19830425,0.01128193,-0.00151384,-0.01677171,-0.00033348,0.00092563
 ,0.00030568,0.00098345,-0.00058463,-0.00039315,-0.00076958,0.00090496,
 0.00043218,0.00019115,-0.00025822,0.00032704,-0.00002204,-0.00006411,0
 .00003276,0.00008428,-0.00008456,0.00011358,0.00006641,-0.00016174,0.0
 0020346,0.00014800,-0.00037426,0.00010150,0.00075899,0.00033255,0.0008
 6141,-0.00272527,0.00048124,0.00049634,0.00898431,0.00059694,-0.012654
 42,-0.13037445,0.00279279,0.21604466,-0.00009021,-0.00035890,0.0000379
 6,0.00060352,0.00077201,0.00057321,0.00009772,-0.00076068,-0.00006795,
 -0.00008101,0.00007982,-0.00019166,0.00091064,0.00000558,-0.00091953,0
 .00240190,-0.00011614,-0.00539612,-0.12087115,-0.00866880,0.11081188,0
 .00497373,0.00153827,-0.00772523,-0.00314963,0.00050395,-0.00084142,0.
 00106970,-0.00208784,0.00213145,-0.00098618,0.00063918,-0.00053000,-0.
 00028144,-0.00009407,-0.00019180,0.00008112,0.00003544,0.00004764,0.00
 001985,0.00001236,-0.00000261,-0.00003079,0.00001174,0.00002295,0.0001
 7883,0.00016904,0.00023185,0.00022926,-0.00005189,0.00014818,0.0002168
 6,0.00070392,0.00005149,0.00077386,-0.00070647,-0.00108758,0.12501911,
 -0.00032438,0.00008415,-0.00071247,0.00018647,-0.00087343,0.00151233,-
 0.00034142,0.00058918,-0.00059974,0.00008456,-0.00021287,-0.00002192,0
 .00119440,0.00060915,0.00038990,0.01481699,-0.00136289,-0.02505704,-0.
 00828534,-0.04474833,0.00983918,-0.01752193,-0.00424156,0.02358308,0.0
 0384359,-0.00394158,0.00096703,-0.00024212,0.00060484,-0.00037008,0.00
 027185,0.00037976,-0.00087092,0.00014167,0.00028348,-0.00005264,0.0000
 2909,-0.00013704,0.00006127,0.00002005,0.00014590,0.00004148,-0.000011
 78,-0.00009001,-0.00001815,0.00008853,0.00005768,0.00036680,-0.0004609
 1,0.00009850,0.00037417,0.00044966,0.00132332,0.00056228,-0.00134374,-
 0.00417404,-0.00397226,0.00931264,0.05635850,0.00100221,-0.00014052,0.
 00147339,-0.00065563,0.00188720,-0.00358781,0.00077446,-0.00044274,0.0
 0043131,-0.00037664,0.00009395,-0.00019500,0.00154518,0.00069836,0.000
 39626,0.01090427,0.00027860,-0.01813980,0.10662297,0.00912667,-0.21300
 669,0.01032479,0.00177709,-0.01449616,-0.00438986,0.00258240,0.0008199
 7,0.00059870,-0.00069397,0.00065741,0.00049331,-0.00144671,0.00229428,
 -0.00027994,-0.00069794,0.00032209,-0.00018823,0.00016292,0.00009031,0
 .00004024,-0.00016805,-0.00018676,0.00002298,0.00001832,0.00031573,-0.
 00031817,-0.00001246,0.00045353,-0.00109374,-0.00012312,0.00010125,-0.
 00021659,-0.00059549,0.00137530,-0.00102469,-0.00387899,-0.00119415,-0
 .12188263,-0.00938712,0.23322719,-0.00075695,-0.00015385,0.00007653,0.
 00045067,-0.00021228,-0.00046162,0.00024555,0.00211263,0.00073571,0.00
 029045,0.00011163,0.00014774,0.00089080,-0.00069678,-0.00001873,-0.000
 94941,-0.00032963,-0.00108816,-0.28019818,-0.01278678,-0.05637771,-0.0
 0844859,0.00548236,-0.00864724,-0.00101638,-0.00101714,0.00304523,-0.0
 0173840,-0.00210292,0.00254605,-0.00014866,0.00009588,0.00009570,0.000
 00554,0.00010107,0.00000275,-0.00041761,-0.00032247,0.00017199,-0.0001
 0846,-0.00005977,0.00012113,0.00001982,-0.00001993,0.00004039,0.000151
 95,0.00036387,0.00018762,0.00013757,0.00011358,0.00006649,0.00023139,-
 0.00055424,0.00022237,0.00054772,0.00016816,0.00023376,-0.01177310,-0.
 00053423,-0.00231444,0.30346089,0.00069341,0.00016854,0.00012464,-0.00
 073974,0.00031870,-0.00014811,-0.00110573,-0.00483874,0.00214328,-0.00
 013951,-0.00031744,-0.00016212,0.00045320,-0.00427719,-0.00259610,-0.0
 2680095,-0.00190912,-0.00715248,-0.01180597,-0.04479008,-0.00829658,0.
 02648655,0.00035210,0.00979398,0.00679665,-0.00079483,0.00391690,-0.00
 201465,0.00094963,-0.00440002,0.00010043,-0.00017677,0.00021723,0.0000
 1059,-0.00022872,0.00000669,0.00140952,-0.00026278,0.00095294,0.000060
 00,0.00010288,-0.00002580,-0.00001226,0.00014599,0.00016785,-0.0013984
 0,-0.00013789,-0.00081562,0.00020336,-0.00008531,0.00016182,0.00031284
 ,0.00102291,0.00096461,0.00025712,0.00115089,0.00064189,-0.00043935,-0
 .00119820,0.00013671,0.00923974,0.05387081,0.00016724,0.00005534,0.000
 53138,-0.00011832,0.00035901,-0.00137546,0.00024790,0.00346085,-0.0006
 5551,0.00041167,-0.00012492,0.00053737,0.00066683,-0.00392838,-0.00152
 612,-0.01892331,0.00032558,-0.00577182,-0.04945718,-0.00780899,-0.0599
 0734,-0.01649656,0.00219512,-0.00610745,-0.00732939,0.00121203,-0.0041
 4186,0.00256715,-0.00317252,0.00241132,0.00019274,-0.00046994,0.000740
 60,-0.00005774,-0.00007216,0.00014317,-0.00091680,0.00027620,-0.000511
 17,0.00012112,0.00002563,-0.00004122,-0.00000265,-0.00004164,-0.000186
 82,-0.00139815,-0.00022914,-0.00044999,-0.00024958,-0.00005693,0.00020
 342,0.00054350,0.00000093,0.00048043,-0.00031496,0.00033362,0.00020684
 ,0.02470219,0.00145955,0.00782567,0.06356780,0.00688997,0.06571371,0.0
 0130794,0.00078610,0.00111139,-0.00033735,-0.00260256,-0.00197729,-0.0
 0249300,-0.02167126,-0.01934822,-0.00477786,0.00138752,-0.00217883,-0.
 00002045,0.00049413,0.00001454,0.00030834,0.00077174,-0.00073065,-0.00
 034918,0.00431375,0.00459151,-0.04400367,0.00270960,-0.00075376,-0.002
 26452,0.01546565,0.01981921,0.00236959,-0.00219797,-0.00230520,0.00013
 392,0.00002729,0.00052536,0.00019522,0.00104573,0.00015369,0.00045356,
 0.00045241,-0.00001098,-0.00041849,-0.00140982,-0.00091633,0.00008106,
 -0.00002937,-0.00018836,0.00014928,-0.00002407,0.00012634,-0.00001848,
 -0.00006122,0.00008438,0.00024068,0.00031234,0.00012767,0.00000411,-0.
 00020268,-0.00006117,0.00038587,-0.00044285,-0.00043817,0.00048065,0.0
 0023314,0.00032671,0.05094512,-0.00016297,0.00063229,0.00035262,0.0019
 6805,-0.00089935,-0.00142186,-0.00323809,-0.00068571,-0.00077310,-0.00
 058549,0.00094098,-0.00062818,0.00056321,0.00050909,0.00018674,0.00210
 837,-0.00336956,0.00465167,0.00019335,-0.02445074,-0.01894379,0.003083
 29,-0.16845190,-0.11472626,-0.00318415,0.00186314,0.00534570,0.0018264
 5,0.00054037,0.00105747,-0.00002949,-0.00013879,0.00042074,-0.00001632
 ,0.00126554,0.00110601,-0.00045263,0.00018103,-0.00040196,0.00032268,-
 0.00026248,-0.00027557,-0.00003560,-0.00013710,-0.00016266,-0.00013007
 ,0.00001993,-0.00007366,-0.00011229,-0.00001989,0.00008456,-0.00039076
 ,-0.00181188,-0.00080259,0.00014454,0.00024195,-0.00002319,-0.00084959
 ,0.00091298,0.00014780,0.00009055,0.00042053,-0.00000266,0.00008345,0.
 18863253,-0.00040442,0.00078740,0.00033669,0.00293111,-0.00246761,-0.0
 0159711,-0.00360106,-0.01170881,-0.00951717,-0.00251164,0.00141940,-0.
 00128164,-0.00000474,0.00030988,-0.00017733,-0.00131513,0.00258604,-0.
 00079603,0.00036995,0.01447266,0.00862188,-0.00056841,-0.11825804,-0.1
 5318397,0.00067693,-0.01618417,-0.01988541,-0.00044425,0.00243739,0.00
 402499,-0.00053154,0.00016990,0.00054856,0.00031962,0.00208948,0.00113
 465,-0.00001042,0.00040191,0.00006298,0.00017106,-0.00095319,-0.000510
 58,0.00004760,-0.00006122,0.00009041,0.00009141,-0.00022780,0.00001086
 ,0.00000078,-0.00013332,0.00011360,0.00011954,0.00095118,0.00028614,-0
 .00011060,0.00026046,0.00008766,0.00021202,-0.00013621,0.00199088,0.00
 013847,-0.00063446,0.00035920,0.00064954,0.12332569,0.17209567,-0.0000
 9040,0.00000843,-0.00003082,0.00023867,0.00026195,0.00023056,0.0015896
 5,0.00019584,-0.00021437,-0.00087608,-0.00064644,-0.00046753,-0.000134
 78,0.00018680,0.00008350,0.00052791,-0.00064103,-0.00048134,0.00077288
 ,0.00073919,-0.00085646,0.00022955,0.01176431,0.01765465,-0.05135267,0
 .00221808,-0.00311092,-0.01574911,-0.01677169,-0.03789257,-0.00002947,
 0.00000739,-0.00004381,-0.00008680,-0.00007375,-0.00001898,0.00013367,
 0.00002915,-0.00053159,-0.00014882,-0.00010036,0.00019317,-0.00098763,
 -0.00027078,0.00049466,0.00004208,0.00003258,0.00003438,-0.00002845,-0
 .00007500,0.00019140,-0.00002672,-0.00007287,0.00009393,-0.00012028,-0
 .00012745,0.00021253,-0.00001853,-0.00011756,0.00003183,-0.00044475,-0
 .00100969,0.00060001,-0.00317507,-0.00112122,0.00414229,0.06421435,0.0
 0054422,0.00038219,0.00041622,-0.00043436,-0.00032080,-0.00004450,-0.0
 0010335,-0.00009319,-0.00063871,-0.00046089,-0.00044083,-0.00181723,-0
 .00005262,0.00038851,0.00024413,0.00098351,-0.00104574,-0.00103714,0.0
 0044275,0.00034289,-0.00002624,-0.00037990,0.00169276,0.00261597,0.006
 32734,-0.09007665,-0.04962774,-0.01529963,0.01615427,-0.00277059,-0.00
 000735,0.00005039,0.00013174,0.00010307,0.00046269,0.00022852,-0.00002
 713,-0.00013909,-0.00016920,-0.00009584,-0.00017648,0.00047020,-0.0006
 3870,0.00038169,0.00144683,0.00009985,0.00010054,0.00001976,-0.0002123
 9,-0.00021552,0.00025832,-0.00021034,0.00009490,0.00057881,-0.00109227
 ,-0.00005743,0.00068402,0.00012130,0.00041920,-0.00015259,-0.00024408,
 -0.00056144,0.00070151,-0.00032123,0.00179707,0.00085775,0.00752946,0.
 09656167,0.00117471,0.00056465,0.00080657,-0.00032214,-0.00041810,-0.0
 0027418,-0.00172381,0.00001120,-0.00147488,0.00019508,-0.00072502,-0.0
 0237525,-0.00048593,0.00044632,0.00046748,0.00127671,-0.00041513,-0.00
 139435,0.00025596,-0.00156795,0.00083026,0.00492170,-0.01680775,-0.021
 08487,0.00940569,-0.04650180,-0.11237487,-0.03618913,-0.00329462,-0.01
 921249,-0.00004391,-0.00013152,0.00044274,0.00016186,0.00075590,0.0004
 1471,0.00052508,-0.00042086,0.00054879,0.00009561,-0.00021688,0.000740
 46,-0.00052817,0.00087280,0.00229365,0.00022840,0.00024243,0.00011687,
 -0.00023667,-0.00038193,0.00032709,-0.00024777,0.00022245,0.00065547,-
 0.00095927,0.00089255,0.00055173,0.00018061,0.00088673,-0.00003858,-0.
 00097967,-0.00119849,0.00047120,0.00282526,0.00127125,-0.00368546,0.01
 622406,0.06897785,0.14749988,0.00001671,-0.00026499,-0.00006320,0.0004
 3384,0.00055857,0.00019330,0.00131176,-0.00112262,0.00041200,0.0002417
 0,-0.00015622,0.00035082,-0.00003042,-0.00000702,-0.00014713,0.0001011
 9,-0.00010954,0.00040104,-0.00281812,-0.00077314,0.00208584,0.00079021
 ,-0.01730259,0.00803114,-0.04980341,0.01117041,-0.00731255,-0.02225667
 ,0.03351984,-0.02188281,-0.00008681,-0.00010255,0.00016129,-0.00005737
 ,-0.00019095,-0.00013646,0.00019454,0.00001726,0.00031802,0.00000545,-
 0.00001081,-0.00005767,-0.00028147,-0.00014133,-0.00027930,0.00004701,
 -0.00010060,0.00006436,0.00006712,0.00005632,-0.00002201,0.00005331,-0
 .00012836,-0.00011756,-0.00009986,-0.00007713,-0.00024291,0.00032009,-
 0.00081327,0.00081778,-0.00091252,-0.00079030,0.00114977,0.00080274,-0
 .00007527,-0.00036811,0.00552078,0.00342858,0.00424575,0.06644020,-0.0
 0056037,0.00069076,0.00008871,-0.00054867,-0.00088862,-0.00063702,0.00
 123973,-0.00118772,0.00276692,-0.00057589,0.00015624,-0.00109698,0.000
 43797,0.00031791,0.00036787,0.00037486,0.00071557,-0.00047267,-0.00299
 086,0.00154652,0.00165609,-0.00091809,-0.01682573,0.00231284,0.0009906
 4,-0.15114610,0.02572503,0.03032798,0.00745904,0.01583086,0.00007419,0
 .00046225,-0.00075605,0.00019171,0.00095002,0.00035458,-0.00104485,0.0
 0126481,-0.00208975,-0.00010124,-0.00022859,0.00007238,0.00009446,0.00
 028387,0.00069814,-0.00021947,-0.00000427,-0.00024228,-0.00013747,-0.0
 0008078,0.00006418,-0.00015956,-0.00017621,0.00019938,-0.00020874,0.00
 043301,0.00024447,0.00022847,-0.00088670,0.00082965,0.00115464,0.00107
 552,-0.00138806,0.00088017,0.00226998,0.00069568,-0.00194534,-0.025701
 60,-0.00306410,-0.02658428,0.17950084,0.00050717,-0.00014592,0.0001354
 0,0.00002215,0.00032697,0.00025957,-0.00142660,0.00044028,-0.00186940,
 0.00006148,-0.00027908,-0.00041007,-0.00030176,-0.00005590,-0.00003342
 ,0.00040206,-0.00076825,-0.00077361,0.00471715,-0.00023993,-0.00162905
 ,0.00479129,0.02556536,-0.00935809,-0.00142022,0.02168429,-0.05493574,
 -0.01934145,0.01734815,-0.00467508,-0.00001920,-0.00022853,0.00041517,
 -0.00013684,-0.00035495,-0.00006662,0.00015346,-0.00110615,0.00113615,
 0.00000280,-0.00000652,0.00014314,-0.00019179,0.00005281,0.00032173,0.
 00016450,0.00012244,0.00015452,-0.00006478,-0.00005064,0.00003275,-0.0
 0011010,0.00031248,0.00027931,-0.00039564,0.00013933,0.00026864,-0.000
 31491,0.00115476,-0.00092961,-0.00151217,-0.00068872,0.00105047,-0.001
 44664,0.00028524,0.00087050,0.00346143,-0.02134769,0.00574804,0.012398
 60,-0.04215986,0.06386531\\-0.00000396,0.00000027,-0.00000035,0.000016
 72,-0.00000480,-0.00001249,-0.00000087,0.00003309,0.00000777,-0.000007
 59,-0.00003536,-0.00003556,0.00000970,0.00000793,0.00000908,-0.0000096
 6,0.00000802,-0.00000920,0.00000753,-0.00003543,0.00003550,0.00000106,
 0.00003323,-0.00000815,-0.00001635,-0.00000435,0.00001324,0.00000353,0
 .00000018,0.00000029,0.00000157,-0.00000618,-0.00000250,-0.00000258,0.
 00000721,-0.00000060,0.00000264,-0.00000597,0.00000327,0.00000120,0.00
 000199,-0.00000018,-0.00000766,0.00000834,0.00001687,0.00000167,-0.000
 00100,-0.00000026,0.00000669,-0.00000579,-0.00000797,-0.00000165,-0.00
 000107,0.00000021,-0.00000672,-0.00000576,0.00000802,0.00000767,0.0000
 0841,-0.00001688,-0.00000111,0.00000202,0.00000023,-0.00000267,-0.0000
 0588,-0.00000314,-0.00000177,-0.00000629,0.00000221,0.00000261,0.00000
 719,0.00000058\\\@
 The archive entry for this job was punched.


 There are more things in heaven and earth, Horatio,
 than are dreamt of in your philosophy.
                   -- Hamlet, Act I, Scene 5
 Job cpu time:       0 days  0 hours 16 minutes 22.3 seconds.
 Elapsed time:       0 days  0 hours  0 minutes 25.2 seconds.
 File lengths (MBytes):  RWF=     90 Int=      0 D2E=      0 Chk=      4 Scr=      1
 Normal termination of Gaussian 16 at Mon Feb 26 06:33:26 2024.
