 
       ==============================================
       |                                            |
       |                 C R E S T                  |
       |                                            |
       |  Conformer-Rotamer Ensemble Sampling Tool  |
       |          based on the GFN methods          |
       |             P.Pracht, S.Grimme             |
       |          Universitaet Bonn, MCTC           |
       ==============================================
       Version 2.11.2, Fr 17. Dec 12:10:44 CEST 2021
  Using the xTB program. Compatible with xTB version 6.4.0
 
   Cite work conducted with this code as

   P. Pracht, F. Bohle, S. Grimme, PCCP, 2020, 22, 7169-7192.

   and  S. Grimme, JCTC, 2019, 15, 2847-2862.
 
   with help from:
   C.Bannwarth, F.Bohle, S.Ehlert, S.Grimme,
   C. Plett, P.Pracht, S. Spicher
 
   This program is distributed in the hope that it will be useful,
   but WITHOUT ANY WARRANTY; without even the implied warranty of
   MERCHANTABILITY or FITNESS FOR A PARTICULAR PURPOSE.

 Command line input:
 > crest 00183_r_0.xyz -T 28 -gfn2 -chrg 0 -uhf 0 -rthr 0.25 -shake 1 --mdlen 0.5

  -T 28 (CPUs/Threads selected)
  -gfn2 : Use of GFN2-xTB requested.
  -chrg 0
  -uhf 0
  -rthr 0.25
  --mdlen 0.5 (MD length in ps)
 
 -------------------------
 xTB Geometry Optimization
 -------------------------
 Geometry successfully optimized.
 
------------------------------------------------
Generating MTD length from a flexibility measure
------------------------------------------------
      -----------------------------------------------------------      
     |                   =====================                   |     
     |                           x T B                           |     
     |                   =====================                   |     
     |                         S. Grimme                         |     
     |          Mulliken Center for Theoretical Chemistry        |     
     |                    University of Bonn                     |     
      -----------------------------------------------------------      

   * xtb version 6.4.1 (afa7bdf) compiled by 'ehlert@majestix' on 2021-06-10

   xtb is free software: you can redistribute it and/or modify it under
   the terms of the GNU Lesser General Public License as published by
   the Free Software Foundation, either version 3 of the License, or
   (at your option) any later version.
   
   xtb is distributed in the hope that it will be useful,
   but WITHOUT ANY WARRANTY; without even the implied warranty of
   MERCHANTABILITY or FITNESS FOR A PARTICULAR PURPOSE.  See the
   GNU Lesser General Public License for more details.
   
   Cite this work as:
   * C. Bannwarth, E. Caldeweyher, S. Ehlert, A. Hansen, P. Pracht,
     J. Seibert, S. Spicher, S. Grimme, WIREs Comput. Mol. Sci., 2020, 11,
     e01493. DOI: 10.1002/wcms.1493
   
   for GFN2-xTB:
   * C. Bannwarth, S. Ehlert and S. Grimme., J. Chem. Theory Comput., 2019,
     15, 1652-1671. DOI: 10.1021/acs.jctc.8b01176
   for GFN1-xTB:
   * S. Grimme, C. Bannwarth, P. Shushkov, J. Chem. Theory Comput., 2017,
     13, 1989-2009. DOI: 10.1021/acs.jctc.7b00118
   for GFN0-xTB:
   * P. Pracht, E. Caldeweyher, S. Ehlert, S. Grimme, ChemRxiv, 2019, preprint.
     DOI: 10.26434/chemrxiv.8326202.v1
   for GFN-FF:
   * S. Spicher and S. Grimme, Angew. Chem. Int. Ed., 2020, 59, 15665-15673.
     DOI: 10.1002/anie.202004239
   
   for DFT-D4:
   * E. Caldeweyher, C. Bannwarth and S. Grimme, J. Chem. Phys., 2017,
     147, 034112. DOI: 10.1063/1.4993215
   * E. Caldeweyher, S. Ehlert, A. Hansen, H. Neugebauer, S. Spicher,
     C. Bannwarth and S. Grimme, J. Chem. Phys., 2019, 150, 154122.
     DOI: 10.1063/1.5090222
   * E. Caldeweyher, J.-M. Mewes, S. Ehlert and S. Grimme, Phys. Chem. Chem. Phys.
     2020, 22, 8499-8512. DOI: 10.1039/D0CP00502A
   
   for sTDA-xTB:
   * S. Grimme and C. Bannwarth, J. Chem. Phys., 2016, 145, 054103.
     DOI: 10.1063/1.4959605
   
   in the mass-spec context:
   * V. Asgeirsson, C. Bauer and S. Grimme, Chem. Sci., 2017, 8, 4879.
     DOI: 10.1039/c7sc00601b
   * J. Koopman and S. Grimme, ACS Omega 2019, 4, 12, 15120-15133.
     DOI: 10.1021/acsomega.9b02011
   
   for metadynamics refer to:
   * S. Grimme, J. Chem. Theory Comput., 2019, 155, 2847-2862
     DOI: 10.1021/acs.jctc.9b00143
   
   for SPH calculations refer to:
   * S. Spicher and S. Grimme, J. Chem. Theory Comput., 2021, 17, 1701-1714
     DOI: 10.1021/acs.jctc.0c01306
   
   with help from (in alphabetical order)
   P. Atkinson, C. Bannwarth, F. Bohle, G. Brandenburg, E. Caldeweyher
   M. Checinski, S. Dohm, S. Ehlert, S. Ehrlich, I. Gerasimov, J. Koopman
   C. Lavigne, S. Lehtola, F. März, M. Müller, F. Musil, H. Neugebauer
   J. Pisarek, C. Plett, P. Pracht, J. Seibert, P. Shushkov, S. Spicher
   M. Stahn, M. Steiner, T. Strunk, J. Stückrath, T. Rose, and J. Unsleber
   
 * started run on 2025/01/21 at 11:34:53.446     

           -------------------------------------------------
          |                Calculation Setup                |
           -------------------------------------------------

          program call               : xtb tmpcoord --gfn0 --sp
          hostname                   : node64
          coordinate file            : tmpcoord
          omp threads                :                    28
          number of atoms            :                    72
          number of electrons        :                   178
          charge                     :                     0
          spin                       :                   0.0
          first test random number   :      0.25774681424186

   ID    Z sym.   atoms
    1    6 c      1-3, 5-17, 19, 21-33
    2   14 si     4, 20
    3    8 o      18, 34
    4    1 h      35-72
########################################################################
[WARNING] Please study the warnings concerning your input carefully
-1- prog_main_parseArguments: The use of '--gfn0' is discouraged, please use '--gfn 0' next time
########################################################################

           -------------------------------------------------
          |                 G F N 0 - x T B                 |
           -------------------------------------------------

        Reference                      10.26434/chemrxiv.8326202.v1
      * Hamiltonian:
        H0-scaling (s, p, d)           2.000000    2.486800    2.270000
        zeta-weighting                 1.000000
      * Dispersion:
        s8                             2.850000
        a1                             0.800000
        a2                             4.600000
        s9                             0.000000
      * Repulsion:
        kExp                           1.500000
        rExp                           1.000000
      * Coulomb:
        alpha                          0.000000
        third order                    atomic
        anisotropic                    false
      * Polar bond correction:
        rad-shift                      0.053700
        strength                      -0.012900
        en-exp                         3.484700
        en-scale                       0.509700


          ...................................................
          :                      SETUP                      :
          :.................................................:
          :  # basis functions                 224          :
          :  # atomic orbitals                 222          :
          :  # shells                          146          :
          :  # electrons                       178          :
          :  electronic temp.          300.0000000     K    :
          :  accuracy                    1.0000000          :
          :  -> integral cutoff          0.2500000E+02      :
          :  -> integral neglect         0.1000000E-07      :
          ...................................................
  Checking positiv definite overlap ...  done.
 

         #    Occupation            Energy/Eh            Energy/eV
      -------------------------------------------------------------
         1        2.0000           -0.6934870             -18.8707
       ...           ...                  ...                  ...
        83        2.0000           -0.4275261             -11.6336
        84        2.0000           -0.4246251             -11.5546
        85        2.0000           -0.4208741             -11.4526
        86        2.0000           -0.4192641             -11.4088
        87        2.0000           -0.4176316             -11.3643
        88        2.0000           -0.3940924             -10.7238
        89        2.0000           -0.3912863             -10.6474 (HOMO)
        90                         -0.3027838              -8.2392 (LUMO)
        91                         -0.3013596              -8.2004
        92                         -0.2686726              -7.3110
        93                         -0.2679843              -7.2922
        94                         -0.2360549              -6.4234
       ...                                ...                  ...
       222                          0.6993553              19.0304
      -------------------------------------------------------------
                  HL-Gap            0.0885025 Eh            2.4083 eV
             Fermi-level            0.0000000 Eh            0.0000 eV

 EHT (total)                   0 d,  0 h,  0 min,  0.049 sec
 EHT setup                      ...        0 min,  0.001 sec (  2.274%)
 Coordination number            ...        0 min,  0.001 sec (  2.409%)
 EEQ model density              ...        0 min,  0.001 sec (  1.665%)
 D4 Dispersion                  ...        0 min,  0.003 sec (  5.811%)
 Integral evaluation            ...        0 min,  0.001 sec (  3.029%)
 Cholesky factorization         ...        0 min,  0.009 sec ( 18.751%)
 Zeroth order Hamiltonian       ...        0 min,  0.029 sec ( 58.263%)
 Gradient calculation           ...        0 min,  0.003 sec (  6.306%)

         :::::::::::::::::::::::::::::::::::::::::::::::::::::
         ::                     SUMMARY                     ::
         :::::::::::::::::::::::::::::::::::::::::::::::::::::
         :: total energy             -94.430228181428 Eh    ::
         :: gradient norm              0.058114255951 Eh/a0 ::
         :: HOMO-LUMO gap              2.408276698240 eV    ::
         ::.................................................::
         :: H0 energy                -95.709066346998 Eh    ::
         :: repulsion energy           1.602291001460 Eh    ::
         :: electrostat energy        -0.249266723533 Eh    ::
         :: -> Gsolv                   0.000000000000 Eh    ::
         ::    -> Gsasa                0.000000000000 Eh    ::
         ::    -> Gshift               0.000000000000 Eh    ::
         :: dispersion energy         -0.049024924389 Eh    ::
         :: short-range corr.         -0.025161187967 Eh    ::
         :: add. restraining           0.000000000000 Eh    ::
         :: total charge               0.000000000000 e     ::
         :::::::::::::::::::::::::::::::::::::::::::::::::::::

           -------------------------------------------------
          |                Property Printout                |
           -------------------------------------------------

    * Orbital Energies and Occupations

         #    Occupation            Energy/Eh            Energy/eV
      -------------------------------------------------------------
         1        2.0000           -0.6934870             -18.8707
       ...           ...                  ...                  ...
        77        2.0000           -0.4521579             -12.3038
        78        2.0000           -0.4462335             -12.1426
        79        2.0000           -0.4459245             -12.1342
        80        2.0000           -0.4380178             -11.9191
        81        2.0000           -0.4367535             -11.8847
        82        2.0000           -0.4289865             -11.6733
        83        2.0000           -0.4275261             -11.6336
        84        2.0000           -0.4246251             -11.5546
        85        2.0000           -0.4208741             -11.4526
        86        2.0000           -0.4192641             -11.4088
        87        2.0000           -0.4176316             -11.3643
        88        2.0000           -0.3940924             -10.7238
        89        2.0000           -0.3912863             -10.6474 (HOMO)
        90                         -0.3027838              -8.2392 (LUMO)
        91                         -0.3013596              -8.2004
        92                         -0.2686726              -7.3110
        93                         -0.2679843              -7.2922
        94                         -0.2360549              -6.4234
        95                         -0.2345764              -6.3831
        96                         -0.2058495              -5.6014
        97                         -0.2051477              -5.5824
        98                         -0.1995960              -5.4313
        99                         -0.1989659              -5.4141
       100                         -0.1963878              -5.3440
       ...                                ...                  ...
       222                          0.6993553              19.0304
      -------------------------------------------------------------
                  HL-Gap            0.0885025 Eh            2.4083 eV
             Fermi-level            0.0000000 Eh            0.0000 eV

     #   Z          covCN         q      C6AA      α(0)
     1   6 c        3.768    -0.346    31.158     8.051
     2   6 c        3.745    -0.137    25.949     7.353
     3   6 c        3.768    -0.352    31.313     8.071
     4  14 si       3.553     0.621   134.754    21.575
     5   6 c        3.649    -0.664    42.314     9.447
     6   6 c        3.648    -0.676    42.805     9.502
     7   6 c        2.856    -0.209    35.370     9.717
     8   6 c        2.933    -0.145    33.436     9.453
     9   6 c        2.983     0.058    28.132     8.673
    10   6 c        2.919    -0.139    33.248     9.426
    11   6 c        2.915    -0.090    31.886     9.230
    12   6 c        2.917    -0.095    32.011     9.249
    13   6 c        2.917    -0.124    32.836     9.367
    14   6 c        2.989     0.035    28.663     8.755
    15   6 c        2.971    -0.099    32.118     9.267
    16   6 c        2.971    -0.101    32.155     9.272
    17   6 c        2.874     0.282    23.466     7.916
    18   8 o        1.660    -0.615    25.326     6.808
    19   6 c        2.855    -0.205    35.223     9.697
    20  14 si       3.543     0.619   135.009    21.610
    21   6 c        3.649    -0.661    42.164     9.431
    22   6 c        3.648    -0.662    42.226     9.438
    23   6 c        3.744    -0.149    26.215     7.391
    24   6 c        3.764    -0.344    31.100     8.045
    25   6 c        3.763    -0.343    31.084     8.043
    26   6 c        2.931    -0.149    33.528     9.466
    27   6 c        2.983     0.059    28.105     8.669
    28   6 c        2.919    -0.139    33.257     9.427
    29   6 c        2.915    -0.090    31.884     9.230
    30   6 c        2.917    -0.095    32.027     9.251
    31   6 c        2.917    -0.124    32.827     9.366
    32   6 c        2.989     0.035    28.655     8.754
    33   6 c        2.871     0.276    23.575     7.934
    34   8 o        1.660    -0.623    25.511     6.832
    35   1 h        0.925     0.120     1.617     1.989
    36   1 h        0.925     0.128     1.549     1.947
    37   1 h        0.925     0.114     1.661     2.015
    38   1 h        0.924     0.127     1.558     1.952
    39   1 h        0.925     0.115     1.652     2.010
    40   1 h        0.925     0.107     1.725     2.054
    41   1 h        0.925     0.119     1.623     1.992
    42   1 h        0.925     0.213     1.035     1.591
    43   1 h        0.925     0.169     1.272     1.764
    44   1 h        0.925     0.183     1.188     1.704
    45   1 h        0.925     0.173     1.245     1.745
    46   1 h        0.925     0.178     1.217     1.725
    47   1 h        0.925     0.174     1.241     1.742
    48   1 h        0.926     0.099     1.798     2.097
    49   1 h        0.926     0.092     1.863     2.134
    50   1 h        0.926     0.086     1.923     2.169
    51   1 h        0.926     0.088     1.903     2.157
    52   1 h        0.926     0.115     1.657     2.013
    53   1 h        0.805     0.315     0.678     1.294
    54   1 h        0.925     0.166     1.288     1.775
    55   1 h        0.925     0.219     1.009     1.571
    56   1 h        0.925     0.180     1.207     1.718
    57   1 h        0.925     0.167     1.282     1.771
    58   1 h        0.925     0.179     1.209     1.720
    59   1 h        0.925     0.219     1.008     1.570
    60   1 h        0.924     0.086     1.920     2.167
    61   1 h        0.925     0.116     1.644     2.005
    62   1 h        0.925     0.117     1.642     2.004
    63   1 h        0.925     0.108     1.714     2.048
    64   1 h        0.925     0.116     1.645     2.006
    65   1 h        0.925     0.108     1.718     2.049
    66   1 h        0.925     0.116     1.650     2.009
    67   1 h        0.926     0.093     1.850     2.127
    68   1 h        0.926     0.091     1.869     2.138
    69   1 h        0.926     0.085     1.926     2.170
    70   1 h        0.926     0.087     1.913     2.163
    71   1 h        0.926     0.111     1.689     2.032
    72   1 h        0.805     0.317     0.672     1.288

 Mol. C6AA /au·bohr⁶  :      61949.984685
 Mol. C8AA /au·bohr⁸  :    1721994.039880
 Mol. α(0) /au        :        396.142097


Wiberg/Mayer (AO) data.
largest (>0.10) Wiberg bond orders for each atom

 ---------------------------------------------------------------------------
     #   Z sym  total        # sym  WBO       # sym  WBO       # sym  WBO
 ---------------------------------------------------------------------------
     1   6 c    3.979 --     2 c    1.017    35 h    0.978    37 h    0.978
                            36 h    0.976
     2   6 c    3.928 --     1 c    1.017     3 c    1.016    38 h    0.962
                             4 si   0.891
     3   6 c    3.979 --     2 c    1.016    39 h    0.978    41 h    0.978
                            40 h    0.977
     4  14 si   4.076 --     5 c    0.966     6 c    0.965     7 c    0.894
                             2 c    0.891
     5   6 c    3.904 --     4 si   0.966    42 h    0.958    43 h    0.958
                            44 h    0.957
     6   6 c    3.902 --     4 si   0.965    47 h    0.960    46 h    0.958
                            45 h    0.957
     7   6 c    3.903 --     8 c    1.536    33 c    1.232     4 si   0.894
     8   6 c    3.984 --     7 c    1.536     9 c    1.264    48 h    0.963
     9   6 c    3.978 --    10 c    1.281     8 c    1.264    14 c    1.242
    10   6 c    3.980 --    11 c    1.551     9 c    1.281    49 h    0.969
                            13 c    0.116
    11   6 c    3.975 --    10 c    1.551    12 c    1.319    50 h    0.973
    12   6 c    3.984 --    13 c    1.557    11 c    1.319    51 h    0.972
    13   6 c    3.987 --    12 c    1.557    14 c    1.272    52 h    0.966
                            10 c    0.116
    14   6 c    3.977 --    13 c    1.272    15 c    1.252     9 c    1.242
    15   6 c    3.967 --    33 c    1.405    14 c    1.252    16 c    0.993
    16   6 c    3.964 --    17 c    1.405    32 c    1.253    15 c    0.993
    17   6 c    3.941 --    16 c    1.405    19 c    1.231    18 o    1.133
    18   8 o    2.343 --    17 c    1.133    53 h    0.967
    19   6 c    3.905 --    26 c    1.538    17 c    1.231    20 si   0.894
    20  14 si   4.073 --    21 c    0.963    22 c    0.962    23 c    0.894
                            19 c    0.894
    21   6 c    3.902 --    20 si   0.963    56 h    0.959    54 h    0.958
                            55 h    0.957
    22   6 c    3.902 --    20 si   0.962    58 h    0.959    57 h    0.958
                            59 h    0.957
    23   6 c    3.924 --    25 c    1.017    24 c    1.017    60 h    0.959
                            20 si   0.894
    24   6 c    3.979 --    23 c    1.017    63 h    0.978    61 h    0.977
                            62 h    0.976
    25   6 c    3.979 --    23 c    1.017    65 h    0.978    64 h    0.977
                            66 h    0.976
    26   6 c    3.985 --    19 c    1.538    27 c    1.263    67 h    0.959
    27   6 c    3.978 --    28 c    1.281    26 c    1.263    32 c    1.242
    28   6 c    3.980 --    29 c    1.551    27 c    1.281    68 h    0.969
                            31 c    0.116
    29   6 c    3.975 --    28 c    1.551    30 c    1.319    69 h    0.973
    30   6 c    3.984 --    31 c    1.557    29 c    1.319    70 h    0.972
    31   6 c    3.987 --    30 c    1.557    32 c    1.272    71 h    0.966
                            28 c    0.116
    32   6 c    3.977 --    31 c    1.272    16 c    1.253    27 c    1.242
    33   6 c    3.941 --    15 c    1.405     7 c    1.232    34 o    1.133
    34   8 o    2.339 --    33 c    1.133    72 h    0.968
    35   1 h    0.980 --     1 c    0.978
    36   1 h    0.982 --     1 c    0.976
    37   1 h    0.980 --     1 c    0.978
    38   1 h    0.997 --     2 c    0.962
    39   1 h    0.979 --     3 c    0.978
    40   1 h    0.981 --     3 c    0.977
    41   1 h    0.980 --     3 c    0.978
    42   1 h    0.992 --     5 c    0.958
    43   1 h    0.983 --     5 c    0.958
    44   1 h    0.983 --     5 c    0.957
    45   1 h    0.983 --     6 c    0.957
    46   1 h    0.982 --     6 c    0.958
    47   1 h    0.982 --     6 c    0.960
    48   1 h    0.975 --     8 c    0.963
    49   1 h    0.978 --    10 c    0.969
    50   1 h    0.983 --    11 c    0.973
    51   1 h    0.983 --    12 c    0.972
    52   1 h    0.981 --    13 c    0.966
    53   1 h    0.987 --    18 o    0.967
    54   1 h    0.983 --    21 c    0.958
    55   1 h    0.994 --    21 c    0.957
    56   1 h    0.983 --    21 c    0.959
    57   1 h    0.983 --    22 c    0.958
    58   1 h    0.983 --    22 c    0.959
    59   1 h    0.993 --    22 c    0.957
    60   1 h    0.987 --    23 c    0.959
    61   1 h    0.980 --    24 c    0.977
    62   1 h    0.980 --    24 c    0.976
    63   1 h    0.980 --    24 c    0.978
    64   1 h    0.980 --    25 c    0.977
    65   1 h    0.980 --    25 c    0.978
    66   1 h    0.980 --    25 c    0.976
    67   1 h    0.974 --    26 c    0.959
    68   1 h    0.978 --    28 c    0.969
    69   1 h    0.983 --    29 c    0.973
    70   1 h    0.983 --    30 c    0.972
    71   1 h    0.981 --    31 c    0.966
    72   1 h    0.987 --    34 o    0.968
 ---------------------------------------------------------------------------

Topologies differ in total number of bonds
Writing topology from bond orders to xtbtopo.mol

 dipole moment from electron density (au)
     X       Y       Z   
  -0.0617   0.5451  -0.2358  total (Debye):    1.518


           -------------------------------------------------
          | TOTAL ENERGY              -94.430228181428 Eh   |
          | GRADIENT NORM               0.058114255951 Eh/α |
          | HOMO-LUMO GAP               2.408276698240 eV   |
           -------------------------------------------------

------------------------------------------------------------------------
 * finished run on 2025/01/21 at 11:34:53.581     
------------------------------------------------------------------------
 total:
 * wall-time:     0 d,  0 h,  0 min,  0.135 sec
 *  cpu-time:     0 d,  0 h,  0 min,  3.023 sec
 * ratio c/w:    22.331 speedup
 SCF:
 * wall-time:     0 d,  0 h,  0 min,  0.050 sec
 *  cpu-time:     0 d,  0 h,  0 min,  1.211 sec
 * ratio c/w:    24.298 speedup

 Calculating WBOs... done.
      -----------------------------------------------------------      
     |                   =====================                   |     
     |                           x T B                           |     
     |                   =====================                   |     
     |                         S. Grimme                         |     
     |          Mulliken Center for Theoretical Chemistry        |     
     |                    University of Bonn                     |     
      -----------------------------------------------------------      

   * xtb version 6.4.1 (afa7bdf) compiled by 'ehlert@majestix' on 2021-06-10

   xtb is free software: you can redistribute it and/or modify it under
   the terms of the GNU Lesser General Public License as published by
   the Free Software Foundation, either version 3 of the License, or
   (at your option) any later version.
   
   xtb is distributed in the hope that it will be useful,
   but WITHOUT ANY WARRANTY; without even the implied warranty of
   MERCHANTABILITY or FITNESS FOR A PARTICULAR PURPOSE.  See the
   GNU Lesser General Public License for more details.
   
   Cite this work as:
   * C. Bannwarth, E. Caldeweyher, S. Ehlert, A. Hansen, P. Pracht,
     J. Seibert, S. Spicher, S. Grimme, WIREs Comput. Mol. Sci., 2020, 11,
     e01493. DOI: 10.1002/wcms.1493
   
   for GFN2-xTB:
   * C. Bannwarth, S. Ehlert and S. Grimme., J. Chem. Theory Comput., 2019,
     15, 1652-1671. DOI: 10.1021/acs.jctc.8b01176
   for GFN1-xTB:
   * S. Grimme, C. Bannwarth, P. Shushkov, J. Chem. Theory Comput., 2017,
     13, 1989-2009. DOI: 10.1021/acs.jctc.7b00118
   for GFN0-xTB:
   * P. Pracht, E. Caldeweyher, S. Ehlert, S. Grimme, ChemRxiv, 2019, preprint.
     DOI: 10.26434/chemrxiv.8326202.v1
   for GFN-FF:
   * S. Spicher and S. Grimme, Angew. Chem. Int. Ed., 2020, 59, 15665-15673.
     DOI: 10.1002/anie.202004239
   
   for DFT-D4:
   * E. Caldeweyher, C. Bannwarth and S. Grimme, J. Chem. Phys., 2017,
     147, 034112. DOI: 10.1063/1.4993215
   * E. Caldeweyher, S. Ehlert, A. Hansen, H. Neugebauer, S. Spicher,
     C. Bannwarth and S. Grimme, J. Chem. Phys., 2019, 150, 154122.
     DOI: 10.1063/1.5090222
   * E. Caldeweyher, J.-M. Mewes, S. Ehlert and S. Grimme, Phys. Chem. Chem. Phys.
     2020, 22, 8499-8512. DOI: 10.1039/D0CP00502A
   
   for sTDA-xTB:
   * S. Grimme and C. Bannwarth, J. Chem. Phys., 2016, 145, 054103.
     DOI: 10.1063/1.4959605
   
   in the mass-spec context:
   * V. Asgeirsson, C. Bauer and S. Grimme, Chem. Sci., 2017, 8, 4879.
     DOI: 10.1039/c7sc00601b
   * J. Koopman and S. Grimme, ACS Omega 2019, 4, 12, 15120-15133.
     DOI: 10.1021/acsomega.9b02011
   
   for metadynamics refer to:
   * S. Grimme, J. Chem. Theory Comput., 2019, 155, 2847-2862
     DOI: 10.1021/acs.jctc.9b00143
   
   for SPH calculations refer to:
   * S. Spicher and S. Grimme, J. Chem. Theory Comput., 2021, 17, 1701-1714
     DOI: 10.1021/acs.jctc.0c01306
   
   with help from (in alphabetical order)
   P. Atkinson, C. Bannwarth, F. Bohle, G. Brandenburg, E. Caldeweyher
   M. Checinski, S. Dohm, S. Ehlert, S. Ehrlich, I. Gerasimov, J. Koopman
   C. Lavigne, S. Lehtola, F. März, M. Müller, F. Musil, H. Neugebauer
   J. Pisarek, C. Plett, P. Pracht, J. Seibert, P. Shushkov, S. Spicher
   M. Stahn, M. Steiner, T. Strunk, J. Stückrath, T. Rose, and J. Unsleber
   
 * started run on 2025/01/21 at 11:34:53.627     

           -------------------------------------------------
          |                Calculation Setup                |
           -------------------------------------------------

          program call               : xtb tmpcoord --gfnff --sp
          hostname                   : node64
          coordinate file            : tmpcoord
          omp threads                :                    28
          number of atoms            :                    72
          number of electrons        :                   178
          charge                     :                     0
          spin                       :                   0.0
          first test random number   :      0.03103622125372

   ID    Z sym.   atoms
    1    6 c      1-3, 5-17, 19, 21-33
    2   14 si     4, 20
    3    8 o      18, 34
    4    1 h      35-72
 
          ==================== Thresholds ====================
          CN  :   150.00000
          rep :   500.00000
          disp:  2500.00000
          HB1 :   250.00000
          HB2 :   450.00000
 
          Pauling EN used:
          Z : 1  EN :  2.20
          Z : 6  EN :  2.55
          Z : 8  EN :  3.44
          Z :14  EN :  1.90
          electric field strengths (au): 0.000
 
           ------------------------------------------------- 
          |           Force Field Initialization            |
           ------------------------------------------------- 
 
          distances ...
          ----------------------------------------
          generating topology and atomic info file ...
          pair mat ...
          computing topology distances matrix with Floyd-Warshall algo ...
          making topology EEQ charges ...
          #fragments for EEQ constrain: 1
          ----------------------------------------
          generating topology and atomic info file ...
          pair mat ...
          computing topology distances matrix with Floyd-Warshall algo ...
          making topology EEQ charges ...
          #fragments for EEQ constrain: 1
          rings ...
          # BATM   932
          # H in HB   12
          doing iterative Hueckel for 1 subsystem(s) ...
 
  atom   neighbors  erfCN metchar sp-hybrid imet pi  qest     coordinates
    1  c       4    3.50   0.00         3    0    0  -0.069   -9.323886   -2.223049   -2.506473
    2  c       4    3.48   0.00         3    0    0  -0.002   -8.661620    0.289381   -3.764188
    3  c       4    3.50   0.00         3    0    0  -0.069  -10.800271    1.109602   -5.517325
    4  si      4    3.50   0.06         3    0    0   0.080   -7.880631    2.848100   -1.306522
    5  c       4    3.48   0.00         3    0    0  -0.028   -6.437553    5.761170   -2.860865
    6  c       4    3.48   0.00         3    0    0  -0.028  -10.865712    3.836155    0.461506
    7  c       3    2.80   0.00         2    0    1  -0.026   -5.573677    1.467026    1.067676
    8  c       3    2.83   0.00         2    0    1  -0.035   -6.056044    1.232240    3.597921
    9  c       3    2.82   0.00         2    0    1  -0.011   -4.305033    0.141962    5.286098
   10  c       3    2.81   0.00         2    0    1  -0.040   -4.817055   -0.111203    7.888019
   11  c       3    2.81   0.00         2    0    1  -0.020   -3.092427   -1.193810    9.477783
   12  c       3    2.81   0.00         2    0    1  -0.036   -0.776515   -2.072778    8.532970
   13  c       3    2.81   0.00         2    0    1  -0.021   -0.216578   -1.851266    6.020733
   14  c       3    2.83   0.00         2    0    1  -0.001   -1.958097   -0.740233    4.337026
   15  c       3    2.82   0.00         2    0    1  -0.010   -1.446157   -0.489064    1.719108
   16  c       3    2.82   0.00         2    0    1  -0.010    1.006303   -1.352047    0.643946
   17  c       3    2.84   0.00         2    0    1   0.099    3.058050    0.253417    0.688168
   18  o       2    1.92   0.00         3    0    1  -0.441    2.889236    2.604398    1.714382
   19  c       3    2.79   0.00         2    0    1  -0.026    5.427675   -0.440227   -0.336617
   20  si      4    3.49   0.05         3    0    0   0.080    8.044558    2.014743   -0.114271
   21  c       4    3.48   0.00         3    0    0  -0.028    8.576879    2.833941    3.357932
   22  c       4    3.48   0.00         3    0    0  -0.028    7.020117    4.924255   -1.985483
   23  c       4    3.48   0.00         3    0    0  -0.002   11.232736    0.894819   -1.461793
   24  c       4    3.49   0.00         3    0    0  -0.069   12.329572   -1.364216   -0.041085
   25  c       4    3.49   0.00         3    0    0  -0.069   11.156556    0.370398   -4.297683
   26  c       3    2.82   0.00         2    0    1  -0.035    5.638034   -2.792833   -1.392919
   27  c       3    2.82   0.00         2    0    1  -0.011    3.603629   -4.512926   -1.479861
   28  c       3    2.81   0.00         2    0    1  -0.040    3.846310   -6.935878   -2.560016
   29  c       3    2.81   0.00         2    0    1  -0.020    1.845662   -8.569622   -2.608019
   30  c       3    2.81   0.00         2    0    1  -0.036   -0.487933   -7.850980   -1.575080
   31  c       3    2.81   0.00         2    0    1  -0.021   -0.788739   -5.513525   -0.517033
   32  c       3    2.83   0.00         2    0    1  -0.001    1.240839   -3.788169   -0.443735
   33  c       3    2.84   0.00         2    0    1   0.099   -3.227104    0.584859    0.149934
   34  o       2    1.92   0.00         3    0    1  -0.441   -2.809254    0.859984   -2.372282
   35  h       1    0.97   0.00         0    0    0   0.029   -9.684718   -3.672589   -3.923391
   36  h       1    0.97   0.00         0    0    0   0.029   -7.784654   -2.864245   -1.304519
   37  h       1    0.97   0.00         0    0    0   0.029  -11.009574   -2.033185   -1.344607
   38  h       1    0.97   0.00         0    0    0   0.007   -6.982172   -0.018934   -4.927692
   39  h       1    0.97   0.00         0    0    0   0.029  -12.538718    1.391564   -4.457722
   40  h       1    0.97   0.00         0    0    0   0.029  -10.330326    2.867234   -6.471647
   41  h       1    0.97   0.00         0    0    0   0.029  -11.153567   -0.325796   -6.950505
   42  h       1    0.97   0.00         0    0    0   0.010   -4.761827    5.275047   -3.934875
   43  h       1    0.97   0.00         0    0    0   0.010   -7.771653    6.650645   -4.139678
   44  h       1    0.97   0.00         0    0    0   0.010   -5.901058    7.156481   -1.455488
   45  h       1    0.97   0.00         0    0    0   0.010  -12.210986    4.697527   -0.823909
   46  h       1    0.97   0.00         0    0    0   0.010  -10.449504    5.214648    1.922456
   47  h       1    0.97   0.00         0    0    0   0.010  -11.794851    2.238874    1.351989
   48  h       1    0.97   0.00         0    0    0   0.043   -7.835776    1.887923    4.348009
   49  h       1    0.97   0.00         0    0    0   0.041   -6.607901    0.566201    8.598811
   50  h       1    0.97   0.00         0    0    0   0.044   -3.500862   -1.384912   11.468446
   51  h       1    0.97   0.00         0    0    0   0.041    0.565278   -2.932154    9.808648
   52  h       1    0.97   0.00         0    0    0   0.035    1.563631   -2.534105    5.289162
   53  h       1    0.97   0.01         0    0    0   0.217    1.215244    2.837333    2.415841
   54  h       1    0.97   0.00         0    0    0   0.010   10.257841    3.986366    3.594331
   55  h       1    0.97   0.00         0    0    0   0.010    6.985100    3.881558    4.108662
   56  h       1    0.97   0.00         0    0    0   0.010    8.805851    1.147915    4.504858
   57  h       1    0.97   0.00         0    0    0   0.010    8.535734    6.302640   -2.092921
   58  h       1    0.97   0.00         0    0    0   0.010    6.477021    4.439080   -3.904055
   59  h       1    0.97   0.00         0    0    0   0.010    5.412152    5.827640   -1.094189
   60  h       1    0.97   0.00         0    0    0   0.007   12.547402    2.471342   -1.182942
   61  h       1    0.97   0.00         0    0    0   0.029   14.187640   -1.853729   -0.783152
   62  h       1    0.97   0.00         0    0    0   0.029   11.119629   -3.014701   -0.216313
   63  h       1    0.97   0.00         0    0    0   0.029   12.531677   -0.932991    1.956861
   64  h       1    0.97   0.00         0    0    0   0.029   13.028102   -0.142283   -4.988502
   65  h       1    0.97   0.00         0    0    0   0.029   10.529418    2.034894   -5.324621
   66  h       1    0.97   0.00         0    0    0   0.029    9.872808   -1.171057   -4.738788
   67  h       1    0.97   0.00         0    0    0   0.043    7.414213   -3.392089   -2.194043
   68  h       1    0.97   0.00         0    0    0   0.041    5.651409   -7.478120   -3.347522
   69  h       1    0.97   0.00         0    0    0   0.044    2.047540  -10.424397   -3.435663
   70  h       1    0.97   0.00         0    0    0   0.041   -2.050379   -9.163584   -1.618657
   71  h       1    0.97   0.00         0    0    0   0.035   -2.582128   -4.961038    0.288729
   72  h       1    0.97   0.01         0    0    0   0.217   -1.189662    0.126942   -2.803355
 
          #atoms :   72
          #bonds :   75
          #angl  :   134
          #tors  :   226
          #nmol  :   1
          #optfrag :   1
           ------------------------------------------------- 
          |                   G F N - F F                   |
          |          A general generic force-field          |
          |                  Version 1.0.3                  | 
           ------------------------------------------------- 
          nhb123   2561 254 0

 E+G (total)                   0 d,  0 h,  0 min,  0.004 sec
 distance/D3 list               ...        0 min,  0.000 sec (  0.822%)
 non bonded repulsion           ...        0 min,  0.000 sec (  7.995%)
 dCN                            ...        0 min,  0.000 sec (  5.698%)
 EEQ energy and q               ...        0 min,  0.000 sec ( 13.549%)
 D3                             ...        0 min,  0.001 sec ( 13.765%)
 EEQ gradient                   ...        0 min,  0.000 sec (  9.202%)
 bonds                          ...        0 min,  0.000 sec (  9.992%)
 bend and torsion               ...        0 min,  0.000 sec ( 13.334%)
 bonded ATM                     ...        0 min,  0.000 sec (  1.207%)
 HB/XB (incl list setup)        ...        0 min,  0.001 sec ( 18.751%)

         :::::::::::::::::::::::::::::::::::::::::::::::::::::
         ::                     SUMMARY                     ::
         :::::::::::::::::::::::::::::::::::::::::::::::::::::
         :: total energy             -12.737545459010 Eh    ::
         :: gradient norm              0.068542319502 Eh/a0 ::
         ::.................................................::
         :: bond energy              -13.352676619841 Eh    ::
         :: angle energy               0.019084439045 Eh    ::
         :: torsion energy             0.011238322654 Eh    ::
         :: repulsion energy           0.822109759790 Eh    ::
         :: electrostat energy        -0.149397050771 Eh    ::
         :: dispersion energy         -0.075317998126 Eh    ::
         :: HB energy                 -0.001157596898 Eh    ::
         :: XB energy                  0.000000000000 Eh    ::
         :: bonded atm energy         -0.011428714863 Eh    ::
         :: external energy            0.000000000000 Eh    ::
         :: add. restraining           0.000000000000 Eh    ::
         :: total charge              -0.000000000000 e     ::
         :::::::::::::::::::::::::::::::::::::::::::::::::::::

           -------------------------------------------------
          |                Property Printout                |
           -------------------------------------------------

           -------------------------------------------------
          | TOTAL ENERGY              -12.737545459010 Eh   |
          | GRADIENT NORM               0.068542319502 Eh/α |
           -------------------------------------------------

------------------------------------------------------------------------
 * finished run on 2025/01/21 at 11:34:53.681     
------------------------------------------------------------------------
 total:
 * wall-time:     0 d,  0 h,  0 min,  0.054 sec
 *  cpu-time:     0 d,  0 h,  0 min,  0.962 sec
 * ratio c/w:    17.908 speedup
 SCF:
 * wall-time:     0 d,  0 h,  0 min,  0.006 sec
 *  cpu-time:     0 d,  0 h,  0 min,  0.143 sec
 * ratio c/w:    23.292 speedup

 Calculating NCI flexibility... done.
     covalent flexibility measure :   0.150
 non-covalent flexibility measure :   1.000
 flexibility measure :   0.269
 t(MTD) / ps set by command line  :     0.5
 t(MTD) / ps    :     0.5
 Σ(t(MTD)) / ps :     7.0 (14 MTDs)
 
-------------------------------------
Starting a trial MTD to test settings
-------------------------------------
 Estimated runtime for one MTD (0.5 ps) on a single thread: 2 min 51 sec
 Estimated runtime for a batch of 14 MTDs on 28 threads: 1 min 26 sec
 
 list of Vbias parameters applied:
$metadyn    0.00300   1.300
$metadyn    0.00150   1.300
$metadyn    0.00075   1.300
$metadyn    0.00300   0.780
$metadyn    0.00150   0.780
$metadyn    0.00075   0.780
$metadyn    0.00300   0.468
$metadyn    0.00150   0.468
$metadyn    0.00075   0.468
$metadyn    0.00300   0.281
$metadyn    0.00150   0.281
$metadyn    0.00075   0.281
$metadyn    0.00100   0.100
$metadyn    0.00500   0.800
 
*******************************************************************************************
**                        N E W    I T E R A T I O N    C Y C L E                        **
*******************************************************************************************
 
========================================
            MTD Iteration  1
========================================
 
     ========================================
     |         Meta-MD (MTD) Sampling       |
     ========================================
 
Starting Meta-MD   8 with the settings:
     MD time /ps        :     0.5
     dt /fs             :     1.5
     dumpstep(trj) /fs  :     100
     dumpstep(Vbias)/ps :     1.0
     Vbias factor k /Eh :  0.1080
     Vbias exp α /bohr⁻²:    0.47
Starting Meta-MD   1 with the settings:
     MD time /ps        :     0.5
     dt /fs             :     1.5
     dumpstep(trj) /fs  :     100
     dumpstep(Vbias)/ps :     1.0
     Vbias factor k /Eh :  0.2160
     Vbias exp α /bohr⁻²:    1.30
Starting Meta-MD   9 with the settings:
     MD time /ps        :     0.5
     dt /fs             :     1.5
     dumpstep(trj) /fs  :     100
     dumpstep(Vbias)/ps :     1.0
     Vbias factor k /Eh :  0.0540
     Vbias exp α /bohr⁻²:    0.47
Starting Meta-MD  10 with the settings:
     MD time /ps        :     0.5
     dt /fs             :     1.5
     dumpstep(trj) /fs  :     100
     dumpstep(Vbias)/ps :     1.0
     Vbias factor k /Eh :  0.2160
     Vbias exp α /bohr⁻²:    0.28
Starting Meta-MD  11 with the settings:
     MD time /ps        :     0.5
     dt /fs             :     1.5
     dumpstep(trj) /fs  :     100
     dumpstep(Vbias)/ps :     1.0
     Vbias factor k /Eh :  0.1080
     Vbias exp α /bohr⁻²:    0.28
Starting Meta-MD   3 with the settings:
     MD time /ps        :     0.5
     dt /fs             :     1.5
     dumpstep(trj) /fs  :     100
     dumpstep(Vbias)/ps :     1.0
     Vbias factor k /Eh :  0.0540
     Vbias exp α /bohr⁻²:    1.30
Starting Meta-MD   5 with the settings:
     MD time /ps        :     0.5
     dt /fs             :     1.5
     dumpstep(trj) /fs  :     100
     dumpstep(Vbias)/ps :     1.0
     Vbias factor k /Eh :  0.1080
     Vbias exp α /bohr⁻²:    0.78
Starting Meta-MD  12 with the settings:
     MD time /ps        :     0.5
     dt /fs             :     1.5
     dumpstep(trj) /fs  :     100
     dumpstep(Vbias)/ps :     1.0
     Vbias factor k /Eh :  0.0540
     Vbias exp α /bohr⁻²:    0.28
Starting Meta-MD   7 with the settings:
     MD time /ps        :     0.5
     dt /fs             :     1.5
     dumpstep(trj) /fs  :     100
     dumpstep(Vbias)/ps :     1.0
     Vbias factor k /Eh :  0.2160
     Vbias exp α /bohr⁻²:    0.47
Starting Meta-MD  14 with the settings:
     MD time /ps        :     0.5
     dt /fs             :     1.5
     dumpstep(trj) /fs  :     100
     dumpstep(Vbias)/ps :     1.0
     Vbias factor k /Eh :  0.3600
     Vbias exp α /bohr⁻²:    0.80
Starting Meta-MD  13 with the settings:
     MD time /ps        :     0.5
     dt /fs             :     1.5
     dumpstep(trj) /fs  :     100
     dumpstep(Vbias)/ps :     1.0
     Vbias factor k /Eh :  0.0720
     Vbias exp α /bohr⁻²:    0.10
Starting Meta-MD   2 with the settings:
     MD time /ps        :     0.5
     dt /fs             :     1.5
     dumpstep(trj) /fs  :     100
     dumpstep(Vbias)/ps :     1.0
     Vbias factor k /Eh :  0.1080
     Vbias exp α /bohr⁻²:    1.30
Starting Meta-MD   6 with the settings:
     MD time /ps        :     0.5
     dt /fs             :     1.5
     dumpstep(trj) /fs  :     100
     dumpstep(Vbias)/ps :     1.0
     Vbias factor k /Eh :  0.0540
     Vbias exp α /bohr⁻²:    0.78
Starting Meta-MD   4 with the settings:
     MD time /ps        :     0.5
     dt /fs             :     1.5
     dumpstep(trj) /fs  :     100
     dumpstep(Vbias)/ps :     1.0
     Vbias factor k /Eh :  0.2160
     Vbias exp α /bohr⁻²:    0.78
*Meta-MTD 11 finished*
*Meta-MTD 1 finished*
*Meta-MTD 13 finished*
*Meta-MTD 7 finished*
*Meta-MTD 12 finished*
*Meta-MTD 14 finished*
*Meta-MTD 2 finished*
*Meta-MTD 5 finished*
*Meta-MTD 6 finished*
*Meta-MTD 3 finished*
*Meta-MTD 8 finished*
*Meta-MTD 4 finished*
*Meta-MTD 9 finished*
*Meta-MTD 10 finished*
 
-----------------------
Multilevel Optimization
-----------------------
 
 -------------------------
 1. crude pre-optimization
 -------------------------
 Optimizing all 70 structures from file "crest_rotamers_0.xyz" ...
 1 2 3 4 5 6 7 8 9 10 11 12 13 14 15 16 17 18 19 20 21 22 23 24 25 26 27 28 29 30 31 32 33 34 35 36 37 38 39 40 41 42 43 44 45 46 47 48 49 50 51 52 53 54 55 56 57 58 59 60 61 62 63 64 65 66 67 68 69 70
 done.
 running RMSDs...
 done.
 E lowest :   -95.20283
 70 structures remain within    12.00 kcal/mol window
 
 -------------------------------------
 2. optimization with tight thresholds
 -------------------------------------
 Optimizing all 71 structures from file "crest_rotamers_1.xyz" ...
 1 2 3 4 5 6 7 8 9 10 11 12 13 14 15 16 17 18 19 20 21 22 23 24 25 26 27 28 29 30 31 32 33 34 35 36 37 38 39 40 41 42 43 44 45 46 47 48 49 50 51 52 53 54 55 56 57 58 59 60 61 62 63 64 65 66 67 68 69 70 71
 done.
 running RMSDs...
 done.
 E lowest :   -95.20600
 54 structures remain within     6.00 kcal/mol window
 
 
========================================
            MTD Iteration  2
========================================
 
     ========================================
     |         Meta-MD (MTD) Sampling       |
     ========================================
 
Starting Meta-MD   1 with the settings:
     MD time /ps        :     0.5
     dt /fs             :     1.5
     dumpstep(trj) /fs  :     100
     dumpstep(Vbias)/ps :     1.0
     Vbias factor k /Eh :  0.2160
     Vbias exp α /bohr⁻²:    1.30
Starting Meta-MD   2 with the settings:
     MD time /ps        :     0.5
     dt /fs             :     1.5
     dumpstep(trj) /fs  :     100
     dumpstep(Vbias)/ps :     1.0
     Vbias factor k /Eh :  0.1080
     Vbias exp α /bohr⁻²:    1.30
Starting Meta-MD   3 with the settings:
     MD time /ps        :     0.5
     dt /fs             :     1.5
     dumpstep(trj) /fs  :     100
     dumpstep(Vbias)/ps :     1.0
     Vbias factor k /Eh :  0.0540
     Vbias exp α /bohr⁻²:    1.30
Starting Meta-MD   4 with the settings:
     MD time /ps        :     0.5
     dt /fs             :     1.5
     dumpstep(trj) /fs  :     100
     dumpstep(Vbias)/ps :     1.0
     Vbias factor k /Eh :  0.2160
     Vbias exp α /bohr⁻²:    0.78
Starting Meta-MD   5 with the settings:
     MD time /ps        :     0.5
     dt /fs             :     1.5
     dumpstep(trj) /fs  :     100
     dumpstep(Vbias)/ps :     1.0
     Vbias factor k /Eh :  0.1080
     Vbias exp α /bohr⁻²:    0.78
Starting Meta-MD   6 with the settings:
     MD time /ps        :     0.5
     dt /fs             :     1.5
     dumpstep(trj) /fs  :     100
     dumpstep(Vbias)/ps :     1.0
     Vbias factor k /Eh :  0.0540
     Vbias exp α /bohr⁻²:    0.78
Starting Meta-MD   7 with the settings:
     MD time /ps        :     0.5
     dt /fs             :     1.5
     dumpstep(trj) /fs  :     100
     dumpstep(Vbias)/ps :     1.0
     Vbias factor k /Eh :  0.2160
     Vbias exp α /bohr⁻²:    0.47
Starting Meta-MD   8 with the settings:
     MD time /ps        :     0.5
     dt /fs             :     1.5
     dumpstep(trj) /fs  :     100
     dumpstep(Vbias)/ps :     1.0
     Vbias factor k /Eh :  0.1080
     Vbias exp α /bohr⁻²:    0.47
Starting Meta-MD   9 with the settings:
     MD time /ps        :     0.5
     dt /fs             :     1.5
     dumpstep(trj) /fs  :     100
     dumpstep(Vbias)/ps :     1.0
     Vbias factor k /Eh :  0.0540
     Vbias exp α /bohr⁻²:    0.47
Starting Meta-MD  10 with the settings:
     MD time /ps        :     0.5
     dt /fs             :     1.5
     dumpstep(trj) /fs  :     100
     dumpstep(Vbias)/ps :     1.0
     Vbias factor k /Eh :  0.2160
     Vbias exp α /bohr⁻²:    0.28
Starting Meta-MD  11 with the settings:
     MD time /ps        :     0.5
     dt /fs             :     1.5
     dumpstep(trj) /fs  :     100
     dumpstep(Vbias)/ps :     1.0
     Vbias factor k /Eh :  0.1080
     Vbias exp α /bohr⁻²:    0.28
Starting Meta-MD  12 with the settings:
     MD time /ps        :     0.5
     dt /fs             :     1.5
     dumpstep(trj) /fs  :     100
     dumpstep(Vbias)/ps :     1.0
     Vbias factor k /Eh :  0.0540
     Vbias exp α /bohr⁻²:    0.28
*Meta-MTD 5 finished*
*Meta-MTD 11 finished*
*Meta-MTD 7 finished*
*Meta-MTD 9 finished*
*Meta-MTD 6 finished*
*Meta-MTD 1 finished*
*Meta-MTD 8 finished*
*Meta-MTD 3 finished*
*Meta-MTD 10 finished*
*Meta-MTD 2 finished*
*Meta-MTD 12 finished*
*Meta-MTD 4 finished*
 
-----------------------
Multilevel Optimization
-----------------------
 
 -------------------------
 1. crude pre-optimization
 -------------------------
 Optimizing all 60 structures from file "crest_rotamers_0.xyz" ...
 1 2 3 4 5 6 7 8 9 10 11 12 13 14 15 16 17 18 19 20 21 22 23 24 25 26 27 28 29 30 31 32 33 34 35 36 37 38 39 40 41 42 43 44 45 46 47 48 49 50 51 52 53 54 55 56 57 58 59 60
 done.
 running RMSDs...
 done.
 E lowest :   -95.20517
 57 structures remain within    12.00 kcal/mol window
 
 -------------------------------------
 2. optimization with tight thresholds
 -------------------------------------
 Optimizing all 58 structures from file "crest_rotamers_1.xyz" ...
 1 2 3 4 5 6 7 8 9 10 11 12 13 14 15 16 17 18 19 20 21 22 23 24 25 26 27 28 29 30 31 32 33 34 35 36 37 38 39 40 41 42 43 44 45 46 47 48 49 50 51 52 53 54 55 56 57 58
 done.
 running RMSDs...
 done.
 E lowest :   -95.20685
 38 structures remain within     6.00 kcal/mol window
 
 ...............................................
 A new lower conformer was found!
 Improved by    0.00085 Eh or    0.53108kcal/mol
 ...............................................
 
========================================
            MTD Iteration  3
========================================
 
     ========================================
     |         Meta-MD (MTD) Sampling       |
     ========================================
 
Starting Meta-MD   1 with the settings:
     MD time /ps        :     0.5
     dt /fs             :     1.5
     dumpstep(trj) /fs  :     100
     dumpstep(Vbias)/ps :     1.0
     Vbias factor k /Eh :  0.2160
     Vbias exp α /bohr⁻²:    1.30
Starting Meta-MD   2 with the settings:
     MD time /ps        :     0.5
     dt /fs             :     1.5
     dumpstep(trj) /fs  :     100
     dumpstep(Vbias)/ps :     1.0
     Vbias factor k /Eh :  0.1080
     Vbias exp α /bohr⁻²:    1.30
Starting Meta-MD   3 with the settings:
     MD time /ps        :     0.5
     dt /fs             :     1.5
     dumpstep(trj) /fs  :     100
     dumpstep(Vbias)/ps :     1.0
     Vbias factor k /Eh :  0.0540
     Vbias exp α /bohr⁻²:    1.30
Starting Meta-MD   4 with the settings:
     MD time /ps        :     0.5
     dt /fs             :     1.5
     dumpstep(trj) /fs  :     100
     dumpstep(Vbias)/ps :     1.0
     Vbias factor k /Eh :  0.2160
     Vbias exp α /bohr⁻²:    0.78
Starting Meta-MD   5 with the settings:
     MD time /ps        :     0.5
     dt /fs             :     1.5
     dumpstep(trj) /fs  :     100
     dumpstep(Vbias)/ps :     1.0
     Vbias factor k /Eh :  0.1080
     Vbias exp α /bohr⁻²:    0.78
Starting Meta-MD   6 with the settings:
     MD time /ps        :     0.5
     dt /fs             :     1.5
     dumpstep(trj) /fs  :     100
     dumpstep(Vbias)/ps :     1.0
     Vbias factor k /Eh :  0.0540
     Vbias exp α /bohr⁻²:    0.78
Starting Meta-MD   7 with the settings:
     MD time /ps        :     0.5
     dt /fs             :     1.5
     dumpstep(trj) /fs  :     100
     dumpstep(Vbias)/ps :     1.0
     Vbias factor k /Eh :  0.2160
     Vbias exp α /bohr⁻²:    0.47
Starting Meta-MD   8 with the settings:
     MD time /ps        :     0.5
     dt /fs             :     1.5
     dumpstep(trj) /fs  :     100
     dumpstep(Vbias)/ps :     1.0
     Vbias factor k /Eh :  0.1080
     Vbias exp α /bohr⁻²:    0.47
Starting Meta-MD   9 with the settings:
     MD time /ps        :     0.5
     dt /fs             :     1.5
     dumpstep(trj) /fs  :     100
     dumpstep(Vbias)/ps :     1.0
     Vbias factor k /Eh :  0.0540
     Vbias exp α /bohr⁻²:    0.47
Starting Meta-MD  10 with the settings:
     MD time /ps        :     0.5
     dt /fs             :     1.5
     dumpstep(trj) /fs  :     100
     dumpstep(Vbias)/ps :     1.0
     Vbias factor k /Eh :  0.2160
     Vbias exp α /bohr⁻²:    0.28
Starting Meta-MD  11 with the settings:
     MD time /ps        :     0.5
     dt /fs             :     1.5
     dumpstep(trj) /fs  :     100
     dumpstep(Vbias)/ps :     1.0
     Vbias factor k /Eh :  0.1080
     Vbias exp α /bohr⁻²:    0.28
Starting Meta-MD  12 with the settings:
     MD time /ps        :     0.5
     dt /fs             :     1.5
     dumpstep(trj) /fs  :     100
     dumpstep(Vbias)/ps :     1.0
     Vbias factor k /Eh :  0.0540
     Vbias exp α /bohr⁻²:    0.28
*Meta-MTD 7 finished*
*Meta-MTD 2 finished*
*Meta-MTD 12 finished*
*Meta-MTD 11 finished*
*Meta-MTD 10 finished*
*Meta-MTD 9 finished*
*Meta-MTD 6 finished*
*Meta-MTD 1 finished*
*Meta-MTD 5 finished*
*Meta-MTD 4 finished*
*Meta-MTD 3 finished*
*Meta-MTD 8 finished*
 
-----------------------
Multilevel Optimization
-----------------------
 
 -------------------------
 1. crude pre-optimization
 -------------------------
 Optimizing all 60 structures from file "crest_rotamers_0.xyz" ...
 1 2 3 4 5 6 7 8 9 10 11 12 13 14 15 16 17 18 19 20 21 22 23 24 25 26 27 28 29 30 31 32 33 34 35 36 37 38 39 40 41 42 43 44 45 46 47 48 49 50 51 52 53 54 55 56 57 58 59 60
 done.
 running RMSDs...
 done.
 E lowest :   -95.20588
 58 structures remain within    12.00 kcal/mol window
 
 -------------------------------------
 2. optimization with tight thresholds
 -------------------------------------
 Optimizing all 59 structures from file "crest_rotamers_1.xyz" ...
 1 2 3 4 5 6 7 8 9 10 11 12 13 14 15 16 17 18 19 20 21 22 23 24 25 26 27 28 29 30 31 32 33 34 35 36 37 38 39 40 41 42 43 44 45 46 47 48 49 50 51 52 53 54 55 56 57 58 59
 done.
 running RMSDs...
 done.
 E lowest :   -95.20685
 39 structures remain within     6.00 kcal/mol window
 
========================================
            MTD Iterations done         
========================================
 Collecting ensmbles.
 running RMSDs...
 done.
 E lowest :   -95.20685
 127 structures remain within     6.00 kcal/mol window
 
 -------------------------------
 Additional orientation sampling
 -------------------------------
 Optimizing all 96 structures from file "oh_ensemble.xyz" ...
 1 2 3 4 5 6 7 8 9 10 11 12 13 14 15 16 17 18 19 20 21 22 23 24 25 26 27 28 29 30 31 32 33 34 35 36 37 38 39 40 41 42 43 44 45 46 47 48 49 50 51 52 53 54 55 56 57 58 59 60 61 62 63 64 65 66 67 68 69 70 71 72 73 74 75 76 77 78 79 80 81 82 83 84 85 86 87 88 89 90 91 92 93 94 95 96
 done.
 running RMSDs...
 done.
 E lowest :   -95.20685
 216 structures remain within     6.00 kcal/mol window
 
-----------------------------------------------
Additional regular MDs on lowest 4 conformer(s)
-----------------------------------------------
Starting MD   1 with the settings:
     MD time /ps        :     0.2
     MD Temperature /K  :   400.0
     dt /fs             :     1.5
     dumpstep(trj) /fs  :     100
Starting MD   2 with the settings:
     MD time /ps        :     0.2
     MD Temperature /K  :   500.0
     dt /fs             :     1.5
     dumpstep(trj) /fs  :     100
Starting MD   3 with the settings:
     MD time /ps        :     0.2
     MD Temperature /K  :   400.0
     dt /fs             :     1.5
     dumpstep(trj) /fs  :     100
Starting MD   4 with the settings:
     MD time /ps        :     0.2
     MD Temperature /K  :   500.0
     dt /fs             :     1.5
     dumpstep(trj) /fs  :     100
Starting MD   5 with the settings:
     MD time /ps        :     0.2
     MD Temperature /K  :   400.0
     dt /fs             :     1.5
     dumpstep(trj) /fs  :     100
Starting MD   6 with the settings:
     MD time /ps        :     0.2
     MD Temperature /K  :   500.0
     dt /fs             :     1.5
     dumpstep(trj) /fs  :     100
Starting MD   7 with the settings:
     MD time /ps        :     0.2
     MD Temperature /K  :   400.0
     dt /fs             :     1.5
     dumpstep(trj) /fs  :     100
Starting MD   8 with the settings:
     MD time /ps        :     0.2
     MD Temperature /K  :   500.0
     dt /fs             :     1.5
     dumpstep(trj) /fs  :     100
*MD 8 finished*
*MD 7 finished*
*MD 1 finished*
*MD 3 finished*
*MD 4 finished*
*MD 6 finished*
*MD 2 finished*
*MD 5 finished*
 Appending file crest_rotamers_2.xyz with new structures
 
 -------------------------------------------
 Ensemble optimization with tight thresholds
 -------------------------------------------
 Optimizing all 232 structures from file "crest_rotamers_2.xyz" ...
 1 2 3 4 5 6 7 8 9 10 11 12 13 14 15 16 17 18 19 20 21 22 23 24 25 26 27 28 29 30 31 32 33 34 35 36 37 38 39 40 41 42 43 44 45 46 47 48 49 50 51 52 53 54 55 56 57 58 59 60 61 62 63 64 65 66 67 68 69 70 71 72 73 74 75 76 77 78 79 80 81 82 83 84 85 86 87 88 89 90 91 92 93 94 95 96 97 98 99 100 101 102 103 104 105 106 107 108 109 110 111 112 113 114 115 116 117 118 119 120 121 122 123 124 125 126 127 128 129 130 131 132 133 134 135 136 137 138 139 140 141 142 143 144 145 146 147 148 149 150 151 152 153 154 155 156 157 158 159 160 161 162 163 164 165 166 167 168 169 170 171 172 173 174 175 176 177 178 179 180 181 182 183 184 185 186 187 188 189 190 191 192 193 194 195 196 197 198 199 200 201 202 203 204 205 206 207 208 209 210 211 212 213 214 215 216 217 218 219 220 221 222 223 224 225 226 227 228 229 230 231 232
 done.
 running RMSDs...
 done.
 E lowest :   -95.20685
 227 structures remain within     6.00 kcal/mol window
 
 
     ========================================
     |        Structure Crossing (GC)       |
     ========================================
 =============================
  # threads =          28
 =============================
 input  file name : crest_rotamers_4.xyz
number of atoms                :    72
number of points on xyz files  :   227
conformer energy window  /kcal :    6.00
CN per atom difference cut-off :  0.3000
RMSD threshold                 :  0.5000
max. # of generated structures : 25
 reading xyz file ...
 # in E window                227
 generating pairs ...       25877
  29.5 % done
  83.7 % done
 generated pairs           :        4841
 number of clash discarded :       20810
 average rmsd w.r.t input  : 3.36642
 sd of ensemble            : 1.33334
 number of new structures      :          30
 removed identical structures  :          20
 writing           25  TMPCONF* dirs ...
 --------------------------
 GC: loose pre-optimization
 --------------------------
 Starting optimization of generated structures
 25 jobs to do.
 1 2 3 4 5 6 7 8 9 10 11 12 13 14 15 16 17 18 19 20 21 22 23 24 25 
 done.
 Now appending opt.xyz file with new structures
 running RMSDs...
 done.
 E lowest :   -95.20684
 25 structures remain within    10.00 kcal/mol window
 --------------------------------------
 GC: optimization with tight thresholds
 --------------------------------------
 Optimizing all 25 structures from file "crest_rotamers_1.xyz" ...
 1 2 3 4 5 6 7 8 9 10 11 12 13 14 15 16 17 18 19 20 21 22 23 24 25
 done.
 running RMSDs...
 done.
 E lowest :   -95.20685
 
 
   ================================================
   |           Final Geometry Optimization        |
   ================================================
 ------------------------------------------------
 Ensemble optimization with very tight thresholds
 ------------------------------------------------
 Optimizing all 248 structures from file "crest_rotamers_5.xyz" ...
 1 2 3 4 5 6 7 8 9 10 11 12 13 14 15 16 17 18 19 20 21 22 23 24 25 26 27 28 29 30 31 32 33 34 35 36 37 38 39 40 41 42 43 44 45 46 47 48 49 50 51 52 53 54 55 56 57 58 59 60 61 62 63 64 65 66 67 68 69 70 71 72 73 74 75 76 77 78 79 80 81 82 83 84 85 86 87 88 89 90 91 92 93 94 95 96 97 98 99 100 101 102 103 104 105 106 107 108 109 110 111 112 113 114 115 116 117 118 119 120 121 122 123 124 125 126 127 128 129 130 131 132 133 134 135 136 137 138 139 140 141 142 143 144 145 146 147 148 149 150 151 152 153 154 155 156 157 158 159 160 161 162 163 164 165 166 167 168 169 170 171 172 173 174 175 176 177 178 179 180 181 182 183 184 185 186 187 188 189 190 191 192 193 194 195 196 197 198 199 200 201 202 203 204 205 206 207 208 209 210 211 212 213 214 215 216 217 218 219 220 221 222 223 224 225 226 227 228 229 230 231 232 233 234 235 236 237 238 239 240 241 242 243 244 245 246 247 248
 done.
 running RMSDs...
 done.
 E lowest :   -95.20685
 247 structures remain within     6.00 kcal/mol window
 
 input  file name : crest_rotamers_6.xyz
 output file name : crest_rotamers_7.xyz
 number of atoms                :   72
 number of points on xyz files  :   248
 RMSD threshold                 :   0.2500
 Bconst threshold               :   0.0100
 population threshold           :   0.0500
 conformer energy window  /kcal :   6.0000
 # fragment in coord            :     1
 # bonds in reference structure :    75
   => # of C=C bonds :     8
 number of reliable points      :   248
 reference state Etot :  -95.2068505000000
 number of doubles removed by rot/RMSD         :           1
 total number unique points considered further :         247
       Erel/kcal        Etot weight/tot  conformer     set   degen     origin
       1   0.000   -95.20685    0.01735    0.41319       1      24     mtd4
       2   0.001   -95.20685    0.01732                                mtd7
       3   0.001   -95.20685    0.01732                                mtd2
       4   0.002   -95.20685    0.01729                                gc
       5   0.002   -95.20685    0.01729                                mtd5
       6   0.002   -95.20685    0.01729                                mtd6
       7   0.002   -95.20685    0.01729                                mtd7
       8   0.003   -95.20685    0.01726                                md5
       9   0.003   -95.20685    0.01726                                md8
      10   0.003   -95.20684    0.01725                                mtd9
      11   0.004   -95.20684    0.01723                                md8
      12   0.004   -95.20684    0.01723                                mtd2
      13   0.005   -95.20684    0.01722                                md3
      14   0.005   -95.20684    0.01721                                mtd5
      15   0.005   -95.20684    0.01720                                md5
      16   0.005   -95.20684    0.01720                                md1
      17   0.005   -95.20684    0.01719                                mtd9
      18   0.006   -95.20684    0.01717                                mtd6
      19   0.006   -95.20684    0.01717                                mtd8
      20   0.007   -95.20684    0.01715                                mtd7
      21   0.008   -95.20684    0.01713                                mtd5
      22   0.008   -95.20684    0.01711                                md2
      23   0.010   -95.20683    0.01705                                mtd10
      24   0.012   -95.20683    0.01701                                md7
      25   0.017   -95.20682    0.01686    0.06683       2       4     mtd11
      26   0.026   -95.20681    0.01661                                md6
      27   0.021   -95.20682    0.01676                                mtd12
      28   0.026   -95.20681    0.01660                                mtd6
      29   0.021   -95.20682    0.01674    0.09761       3       6     mtd11
      30   0.044   -95.20678    0.01610                                md6
      31   0.021   -95.20682    0.01673                                md2
      32   0.046   -95.20678    0.01605                                md4
      33   0.048   -95.20677    0.01600                                mtd12
      34   0.049   -95.20677    0.01598                                mtd6
      35   0.055   -95.20676    0.01580    0.01580       4       1     mtd12
      36   0.170   -95.20658    0.01304    0.02606       5       2     mtd10
      37   0.170   -95.20658    0.01303                                mtd10
      38   0.349   -95.20629    0.00963    0.01924       6       2     gc
      39   0.350   -95.20629    0.00961                                gc
      40   0.352   -95.20629    0.00958    0.01916       7       2     gc
      41   0.352   -95.20629    0.00958                                gc
      42   0.369   -95.20626    0.00931    0.01846       8       2     gc
      43   0.379   -95.20625    0.00915                                gc
      44   0.458   -95.20612    0.00801    0.00801       9       1     mtd12
      45   0.534   -95.20600    0.00705    0.06306      10       9     mtd6
      46   0.534   -95.20600    0.00704                                mtd5
      47   0.536   -95.20600    0.00702                                mtd4
      48   0.536   -95.20600    0.00702                                mtd5
      49   0.538   -95.20599    0.00700                                mtd5
      50   0.538   -95.20599    0.00700                                mtd5
      51   0.540   -95.20599    0.00698                                mtd11
      52   0.540   -95.20599    0.00698                                mtd10
      53   0.541   -95.20599    0.00696                                mtd5
      54   0.541   -95.20599    0.00697    0.04105      11       6     mtd9
      55   0.547   -95.20598    0.00690                                mtd1
      56   0.547   -95.20598    0.00690                                mtd1
      57   0.555   -95.20597    0.00681                                mtd1
      58   0.558   -95.20596    0.00677                                mtd10
      59   0.564   -95.20595    0.00671                                mtd8
      60   0.564   -95.20595    0.00670    0.01349      12       2     mtd7
      61   0.556   -95.20596    0.00679                                mtd8
      62   0.574   -95.20594    0.00659    0.01320      13       2     mtd5
      63   0.572   -95.20594    0.00661                                mtd10
      64   0.557   -95.20596    0.00678    0.00678      14       1     mtd7
      65   0.679   -95.20577    0.00552    0.02738      15       5     mtd1
      66   0.680   -95.20577    0.00551                                mtd8
      67   0.684   -95.20576    0.00547                                mtd4
      68   0.688   -95.20575    0.00544                                mtd4
      69   0.688   -95.20575    0.00544                                mtd1
      70   0.696   -95.20574    0.00536    0.02135      16       4     gc
      71   0.697   -95.20574    0.00536                                mtd9
      72   0.701   -95.20573    0.00532                                gc
      73   0.702   -95.20573    0.00531                                gc
      74   0.702   -95.20573    0.00531    0.02094      17       4     mtd11
      75   0.703   -95.20573    0.00530                                gc
      76   0.707   -95.20572    0.00527                                mtd10
      77   0.730   -95.20569    0.00507                                mtd10
      78   0.729   -95.20569    0.00508    0.00508      18       1     gc
      79   0.773   -95.20562    0.00471    0.00471      19       1     mtd10
      80   0.846   -95.20550    0.00416    0.00829      20       2     mtd11
      81   0.852   -95.20549    0.00412                                mtd11
      82   0.930   -95.20537    0.00362    0.00362      21       1     gc
      83   0.930   -95.20537    0.00361    0.01787      22       5     mtd6
      84   0.932   -95.20537    0.00360                                mtd9
      85   0.934   -95.20536    0.00359                                mtd4
      86   0.943   -95.20535    0.00353                                mtd6
      87   0.944   -95.20535    0.00353                                mtd9
      88   1.203   -95.20493    0.00228    0.00455      23       2     mtd10
      89   1.207   -95.20493    0.00227                                mtd10
      90   1.204   -95.20493    0.00228    0.00452      24       2     mtd2
      91   1.213   -95.20492    0.00224                                mtd2
      92   1.228   -95.20489    0.00219    0.00219      25       1     mtd2
      93   1.292   -95.20479    0.00196    0.00393      26       2     gc
      94   1.292   -95.20479    0.00196                                gc
      95   1.343   -95.20471    0.00180    0.00360      27       2     mtd1
      96   1.344   -95.20471    0.00180                                mtd6
      97   1.364   -95.20468    0.00174    0.00347      28       2     gc
      98   1.368   -95.20467    0.00173                                gc
      99   1.384   -95.20464    0.00168    0.00168      29       1     mtd1
     100   1.462   -95.20452    0.00148    0.00148      30       1     mtd2
     101   1.587   -95.20432    0.00119    0.00119      31       1     mtd7
     102   1.606   -95.20429    0.00116    0.00231      32       2     gc
     103   1.606   -95.20429    0.00116                                mtd10
     104   1.632   -95.20425    0.00111    0.02195      33      20     mtd9
     105   1.632   -95.20425    0.00111                                mtd4
     106   1.632   -95.20425    0.00111                                input
     107   1.633   -95.20425    0.00110                                mtd4
     108   1.634   -95.20425    0.00110                                mtd1
     109   1.635   -95.20424    0.00110                                mtd4
     110   1.636   -95.20424    0.00110                                mtd1
     111   1.636   -95.20424    0.00110                                mtd4
     112   1.637   -95.20424    0.00110                                mtd3
     113   1.637   -95.20424    0.00110                                mtd4
     114   1.637   -95.20424    0.00110                                mtd8
     115   1.637   -95.20424    0.00110                                mtd13
     116   1.637   -95.20424    0.00110                                mtd6
     117   1.638   -95.20424    0.00110                                mtd12
     118   1.638   -95.20424    0.00110                                mtd10
     119   1.638   -95.20424    0.00110                                mtd13
     120   1.639   -95.20424    0.00109                                mtd13
     121   1.642   -95.20423    0.00109                                mtd1
     122   1.643   -95.20423    0.00109                                mtd7
     123   1.649   -95.20422    0.00108                                mtd5
     124   1.655   -95.20421    0.00106    0.00212      34       2     mtd11
     125   1.659   -95.20421    0.00106                                mtd7
     126   1.667   -95.20419    0.00104    0.00209      35       2     mtd12
     127   1.667   -95.20419    0.00104                                mtd7
     128   1.659   -95.20421    0.00106    0.00106      36       1     mtd7
     129   1.764   -95.20404    0.00089    0.00089      37       1     gc
     130   1.850   -95.20390    0.00077    0.00077      38       1     mtd8
     131   1.850   -95.20390    0.00077    0.00077      39       1     mtd2
     132   1.982   -95.20369    0.00061    0.00061      40       1     mtd14
     133   1.995   -95.20367    0.00060    0.00060      41       1     mtd2
     134   2.004   -95.20366    0.00059    0.00059      42       1     mtd14
     135   2.017   -95.20364    0.00058    0.00058      43       1     mtd2
     136   2.035   -95.20361    0.00056    0.00056      44       1     mtd1
     137   2.074   -95.20354    0.00052    0.00052      45       1     gc
     138   2.287   -95.20321    0.00037    0.00037      46       1     mtd2
     139   2.299   -95.20319    0.00036    0.00178      47       5     mtd4
     140   2.302   -95.20318    0.00036                                mtd14
     141   2.302   -95.20318    0.00036                                mtd6
     142   2.304   -95.20318    0.00036                                mtd8
     143   2.307   -95.20317    0.00035                                mtd1
     144   2.315   -95.20316    0.00035    0.00070      48       2     mtd1
     145   2.323   -95.20315    0.00035                                mtd6
     146   2.319   -95.20316    0.00035    0.00068      49       2     mtd8
     147   2.337   -95.20313    0.00034                                mtd8
     148   2.559   -95.20277    0.00023    0.00092      50       4     mtd4
     149   2.560   -95.20277    0.00023                                mtd4
     150   2.561   -95.20277    0.00023                                mtd7
     151   2.566   -95.20276    0.00023                                mtd7
     152   2.744   -95.20248    0.00017    0.00017      51       1     mtd8
     153   2.925   -95.20219    0.00013    0.00013      52       1     gc
     154   3.070   -95.20196    0.00010    0.00020      53       2     mtd3
     155   3.071   -95.20196    0.00010                                mtd12
     156   3.151   -95.20183    0.00009    0.00009      54       1     mtd9
     157   3.355   -95.20150    0.00006    0.00024      55       4     hor
     158   3.355   -95.20150    0.00006                                hor
     159   3.356   -95.20150    0.00006                                hor
     160   3.356   -95.20150    0.00006                                hor
     161   3.375   -95.20147    0.00006    0.00006      56       1     hor
     162   3.377   -95.20147    0.00006    0.00006      57       1     hor
     163   3.435   -95.20138    0.00005    0.00005      58       1     hor
     164   3.446   -95.20136    0.00005    0.00005      59       1     hor
     165   3.473   -95.20132    0.00005    0.00005      60       1     hor
     166   3.486   -95.20129    0.00005    0.00005      61       1     hor
     167   3.516   -95.20125    0.00005    0.00009      62       2     mtd14
     168   3.524   -95.20123    0.00005                                mtd14
     169   3.701   -95.20095    0.00003    0.00007      63       2     hor
     170   3.715   -95.20093    0.00003                                hor
     171   3.718   -95.20092    0.00003    0.00010      64       3     hor
     172   3.709   -95.20094    0.00003                                hor
     173   3.719   -95.20092    0.00003                                hor
     174   3.743   -95.20089    0.00003    0.00006      65       2     hor
     175   3.745   -95.20088    0.00003                                hor
     176   3.781   -95.20082    0.00003    0.00003      66       1     hor
     177   3.882   -95.20066    0.00002    0.00005      67       2     hor
     178   3.882   -95.20066    0.00002                                hor
     179   3.884   -95.20066    0.00002    0.00002      68       1     hor
     180   3.901   -95.20063    0.00002    0.00010      69       4     hor
     181   3.901   -95.20063    0.00002                                hor
     182   3.901   -95.20063    0.00002                                hor
     183   3.906   -95.20063    0.00002                                hor
     184   3.915   -95.20061    0.00002    0.00007      70       3     hor
     185   3.916   -95.20061    0.00002                                hor
     186   3.921   -95.20060    0.00002                                hor
     187   3.963   -95.20053    0.00002    0.00002      71       1     hor
     188   3.968   -95.20053    0.00002    0.00002      72       1     hor
     189   3.984   -95.20050    0.00002    0.00002      73       1     hor
     190   3.987   -95.20050    0.00002    0.00002      74       1     hor
     191   3.989   -95.20049    0.00002    0.00012      75       6     hor
     192   3.989   -95.20049    0.00002                                hor
     193   3.989   -95.20049    0.00002                                hor
     194   3.989   -95.20049    0.00002                                hor
     195   3.991   -95.20049    0.00002                                hor
     196   3.992   -95.20049    0.00002                                hor
     197   4.005   -95.20047    0.00002    0.00006      76       3     hor
     198   4.005   -95.20047    0.00002                                hor
     199   4.006   -95.20047    0.00002                                hor
     200   4.010   -95.20046    0.00002    0.00004      77       2     hor
     201   4.032   -95.20043    0.00002                                hor
     202   4.024   -95.20044    0.00002    0.00002      78       1     hor
     203   4.054   -95.20039    0.00002    0.00002      79       1     hor
     204   4.255   -95.20007    0.00001    0.00001      80       1     hor
     205   4.272   -95.20004    0.00001    0.00001      81       1     hor
     206   4.292   -95.20001    0.00001    0.00001      82       1     hor
     207   4.292   -95.20001    0.00001    0.00004      83       3     hor
     208   4.294   -95.20001    0.00001                                hor
     209   4.303   -95.19999    0.00001                                hor
     210   4.336   -95.19994    0.00001    0.00001      84       1     hor
     211   4.339   -95.19994    0.00001    0.00001      85       1     hor
     212   4.351   -95.19992    0.00001    0.00001      86       1     hor
     213   4.486   -95.19970    0.00001    0.00001      87       1     hor
     214   4.487   -95.19970    0.00001    0.00001      88       1     hor
     215   4.525   -95.19964    0.00001    0.00002      89       2     hor
     216   4.533   -95.19963    0.00001                                hor
     217   4.596   -95.19953    0.00001    0.00001      90       2     hor
     218   4.611   -95.19950    0.00001                                hor
     219   4.774   -95.19924    0.00001    0.00001      91       2     hor
     220   4.786   -95.19922    0.00001                                hor
     221   4.812   -95.19918    0.00001    0.00001      92       1     hor
     222   4.918   -95.19901    0.00000    0.00001      93       3     hor
     223   4.919   -95.19901    0.00000                                hor
     224   4.925   -95.19900    0.00000                                hor
     225   4.925   -95.19900    0.00000    0.00001      94       3     hor
     226   4.942   -95.19897    0.00000                                hor
     227   4.925   -95.19900    0.00000                                hor
     228   4.942   -95.19897    0.00000    0.00001      95       3     hor
     229   4.943   -95.19897    0.00000                                hor
     230   4.945   -95.19897    0.00000                                hor
     231   4.952   -95.19896    0.00000    0.00001      96       3     hor
     232   4.952   -95.19896    0.00000                                hor
     233   4.953   -95.19896    0.00000                                hor
     234   4.967   -95.19893    0.00000    0.00000      97       1     hor
     235   4.997   -95.19889    0.00000    0.00000      98       1     hor
     236   5.010   -95.19887    0.00000    0.00001      99       2     hor
     237   5.011   -95.19887    0.00000                                hor
     238   5.035   -95.19883    0.00000    0.00000     100       1     hor
     239   5.037   -95.19882    0.00000    0.00000     101       1     hor
     240   5.141   -95.19866    0.00000    0.00000     102       1     hor
     241   5.380   -95.19828    0.00000    0.00000     103       1     hor
     242   5.399   -95.19825    0.00000    0.00000     104       1     hor
     243   5.555   -95.19800    0.00000    0.00000     105       3     hor
     244   5.556   -95.19800    0.00000                                hor
     245   5.564   -95.19798    0.00000                                hor
     246   5.848   -95.19753    0.00000    0.00000     106       2     hor
     247   5.850   -95.19753    0.00000                                hor
T /K                                  :   298.15
E lowest                              :   -95.20685
ensemble average energy (kcal)        :    0.308
ensemble entropy (J/mol K, cal/mol K) :   38.031    9.090
ensemble free energy (kcal/mol)       :   -2.710
population of lowest in %             :   41.319
 number of unique conformers for further calc          106
 list of relative energies saved as "crest.energies"
 
 -----------------
 Wall Time Summary
 -----------------
             test MD wall time :         0h : 0m :42s
                 MTD wall time :         0h : 1m :54s
      multilevel OPT wall time :         0h : 2m :33s
                  MD wall time :         0h : 0m :51s
                  GC wall time :         0h : 0m :21s
--------------------
Overall wall time  : 0h : 6m :45s
 
 CREST terminated normally.
