 Entering Gaussian System, Link 0=g16
 Initial command:
 /public/software/apps/Gaussian/g16/l1.exe "/public/home/LJQ_HG/tmp/Gau-87859.inp" -scrdir="/public/home/LJQ_HG/tmp/"
 Entering Link 1 = /public/software/apps/Gaussian/g16/l1.exe PID=     87860.
  
 Copyright (c) 1988-2019, Gaussian, Inc.  All Rights Reserved.
  
 This is part of the Gaussian(R) 16 program.  It is based on
 the Gaussian(R) 09 system (copyright 2009, Gaussian, Inc.),
 the Gaussian(R) 03 system (copyright 2003, Gaussian, Inc.),
 the Gaussian(R) 98 system (copyright 1998, Gaussian, Inc.),
 the Gaussian(R) 94 system (copyright 1995, Gaussian, Inc.),
 the Gaussian 92(TM) system (copyright 1992, Gaussian, Inc.),
 the Gaussian 90(TM) system (copyright 1990, Gaussian, Inc.),
 the Gaussian 88(TM) system (copyright 1988, Gaussian, Inc.),
 the Gaussian 86(TM) system (copyright 1986, Carnegie Mellon
 University), and the Gaussian 82(TM) system (copyright 1983,
 Carnegie Mellon University). Gaussian is a federally registered
 trademark of Gaussian, Inc.
  
 This software contains proprietary and confidential information,
 including trade secrets, belonging to Gaussian, Inc.
  
 This software is provided under written license and may be
 used, copied, transmitted, or stored only in accord with that
 written license.
  
 The following legend is applicable only to US Government
 contracts under FAR:
  
                    RESTRICTED RIGHTS LEGEND
  
 Use, reproduction and disclosure by the US Government is
 subject to restrictions as set forth in subparagraphs (a)
 and (c) of the Commercial Computer Software - Restricted
 Rights clause in FAR 52.227-19.
  
 Gaussian, Inc.
 340 Quinnipiac St., Bldg. 40, Wallingford CT 06492
  
  
 ---------------------------------------------------------------
 Warning -- This program may not be used in any manner that
 competes with the business of Gaussian, Inc. or will provide
 assistance to any competitor of Gaussian, Inc.  The licensee
 of this program is prohibited from giving any competitor of
 Gaussian, Inc. access to this program.  By using this program,
 the user acknowledges that Gaussian, Inc. is engaged in the
 business of creating and licensing software in the field of
 computational chemistry and represents and warrants to the
 licensee that it is not a competitor of Gaussian, Inc. and that
 it will not use this program in any manner prohibited above.
 ---------------------------------------------------------------
  

 Cite this work as:
 Gaussian 16, Revision C.01,
 M. J. Frisch, G. W. Trucks, H. B. Schlegel, G. E. Scuseria, 
 M. A. Robb, J. R. Cheeseman, G. Scalmani, V. Barone, 
 G. A. Petersson, H. Nakatsuji, X. Li, M. Caricato, A. V. Marenich, 
 J. Bloino, B. G. Janesko, R. Gomperts, B. Mennucci, H. P. Hratchian, 
 J. V. Ortiz, A. F. Izmaylov, J. L. Sonnenberg, D. Williams-Young, 
 F. Ding, F. Lipparini, F. Egidi, J. Goings, B. Peng, A. Petrone, 
 T. Henderson, D. Ranasinghe, V. G. Zakrzewski, J. Gao, N. Rega, 
 G. Zheng, W. Liang, M. Hada, M. Ehara, K. Toyota, R. Fukuda, 
 J. Hasegawa, M. Ishida, T. Nakajima, Y. Honda, O. Kitao, H. Nakai, 
 T. Vreven, K. Throssell, J. A. Montgomery, Jr., J. E. Peralta, 
 F. Ogliaro, M. J. Bearpark, J. J. Heyd, E. N. Brothers, K. N. Kudin, 
 V. N. Staroverov, T. A. Keith, R. Kobayashi, J. Normand, 
 K. Raghavachari, A. P. Rendell, J. C. Burant, S. S. Iyengar, 
 J. Tomasi, M. Cossi, J. M. Millam, M. Klene, C. Adamo, R. Cammi, 
 J. W. Ochterski, R. L. Martin, K. Morokuma, O. Farkas, 
 J. B. Foresman, and D. J. Fox, Gaussian, Inc., Wallingford CT, 2019.
 
 ******************************************
 Gaussian 16:  ES64L-G16RevC.01  3-Jul-2019
                 8-Mar-2024 
 ******************************************
 %nprocshared=32
 Will use up to   32 processors via shared memory.
 %mem=100GB
 ------------------------------------------
 #p opt freq b3lyp/def2svpp em=gd3bj nosymm
 ------------------------------------------
 1/18=20,19=15,26=3,38=1/1,3;
 2/9=110,12=2,15=1,17=6,18=5,40=1/2;
 3/5=43,7=202,11=2,25=1,30=1,71=1,74=-5,124=41/1,2,3;
 4//1;
 5/5=2,38=5/2;
 6/7=2,8=2,9=2,10=2,28=1/1;
 7/30=1/1,2,3,16;
 1/18=20,19=15,26=3/3(2);
 2/9=110,15=1/2;
 99//99;
 2/9=110,15=1/2;
 3/5=43,7=202,11=2,25=1,30=1,71=1,74=-5,124=41/1,2,3;
 4/5=5,16=3,69=1/1;
 5/5=2,38=5/2;
 7/30=1/1,2,3,16;
 1/18=20,19=15,26=3/3(-5);
 2/9=110,15=1/2;
 6/7=2,8=2,9=2,10=2,19=2,28=1/1;
 99/9=1/99;
 Leave Link    1 at Fri Mar  8 03:34:33 2024, MaxMem= 13421772800 cpu:               2.1 elap:               0.1
 (Enter /public/software/apps/Gaussian/g16/l101.exe)
 ------------------
 $$$$Title####0????
 ------------------
 Symbolic Z-matrix:
 Charge =  0 Multiplicity = 2
 O                     0.83314  -0.85262   3.11289 
 C                     1.59207  -0.66116   1.96272 
 C                     2.86089  -1.23658   1.88098 
 C                     3.65037  -1.04681   0.74839 
 C                     3.18518  -0.26033  -0.3138 
 C                     3.9943   -0.05475  -1.4425 
 C                     3.54436   0.74399  -2.49468 
 C                     2.28905   1.34833  -2.42847 
 C                     1.47067   1.15275  -1.31351 
 C                     1.89797   0.33625  -0.24434 
 C                     1.08614   0.10775   0.89812 
 C                    -0.28499   0.67394   1.01493 
 C                    -0.51847   1.68739   1.96305 
 O                     0.50884   2.11976   2.79565 
 C                    -1.78203   2.26754   2.0837 
 C                    -2.83426   1.84192   1.27517 
 C                    -2.63888   0.81326   0.34411 
 C                    -3.70853   0.37382  -0.45191 
 C                    -3.52484  -0.66391  -1.36673 
 C                    -2.27747  -1.27537  -1.49156 
 C                    -1.20217  -0.84918  -0.70847 
 C                    -1.36013   0.20908   0.21213 
 H                     3.23759  -1.83332   2.70207 
 H                     4.63144  -1.50531   0.70808 
 H                     4.97626  -0.50823  -1.50868 
 H                     4.17345   0.90011  -3.36153 
 H                     1.94885   1.97354  -3.24395 
 H                     0.50901   1.64802  -1.29535 
 H                    -1.9492    3.05235   2.81054 
 H                    -3.80569   2.30907   1.38669 
 H                    -4.68744   0.83004  -0.36319 
 H                    -4.3538   -0.99943  -1.97648 
 H                    -2.14312  -2.08536  -2.1969 
 H                    -0.25409  -1.35664  -0.82699 
 Cu                    0.9377    0.79316   4.17688 
 
 ITRead=  0  0  0  0  0  0  0  0  0  0  0  0  0  0  0  0  0  0  0  0
 ITRead=  0  0  0  0  0  0  0  0  0  0  0  0  0  0  0
 MicOpt= -1 -1 -1 -1 -1 -1 -1 -1 -1 -1 -1 -1 -1 -1 -1 -1 -1 -1 -1 -1
 MicOpt= -1 -1 -1 -1 -1 -1 -1 -1 -1 -1 -1 -1 -1 -1 -1
 NAtoms=     35 NQM=       35 NQMF=       0 NMMI=      0 NMMIF=      0
                NMic=       0 NMicF=      0.
                    Isotopes and Nuclear Properties:
 (Nuclear quadrupole moments (NQMom) in fm**2, nuclear magnetic moments (NMagM)
  in nuclear magnetons)

  Atom         1           2           3           4           5           6           7           8           9          10
 IAtWgt=          16          12          12          12          12          12          12          12          12          12
 AtmWgt=  15.9949146  12.0000000  12.0000000  12.0000000  12.0000000  12.0000000  12.0000000  12.0000000  12.0000000  12.0000000
 NucSpn=           0           0           0           0           0           0           0           0           0           0
 AtZEff=  -0.0000000  -0.0000000  -0.0000000  -0.0000000  -0.0000000  -0.0000000  -0.0000000  -0.0000000  -0.0000000  -0.0000000
 NQMom=    0.0000000   0.0000000   0.0000000   0.0000000   0.0000000   0.0000000   0.0000000   0.0000000   0.0000000   0.0000000
 NMagM=    0.0000000   0.0000000   0.0000000   0.0000000   0.0000000   0.0000000   0.0000000   0.0000000   0.0000000   0.0000000
 AtZNuc=   8.0000000   6.0000000   6.0000000   6.0000000   6.0000000   6.0000000   6.0000000   6.0000000   6.0000000   6.0000000

  Atom        11          12          13          14          15          16          17          18          19          20
 IAtWgt=          12          12          12          16          12          12          12          12          12          12
 AtmWgt=  12.0000000  12.0000000  12.0000000  15.9949146  12.0000000  12.0000000  12.0000000  12.0000000  12.0000000  12.0000000
 NucSpn=           0           0           0           0           0           0           0           0           0           0
 AtZEff=  -0.0000000  -0.0000000  -0.0000000  -0.0000000  -0.0000000  -0.0000000  -0.0000000  -0.0000000  -0.0000000  -0.0000000
 NQMom=    0.0000000   0.0000000   0.0000000   0.0000000   0.0000000   0.0000000   0.0000000   0.0000000   0.0000000   0.0000000
 NMagM=    0.0000000   0.0000000   0.0000000   0.0000000   0.0000000   0.0000000   0.0000000   0.0000000   0.0000000   0.0000000
 AtZNuc=   6.0000000   6.0000000   6.0000000   8.0000000   6.0000000   6.0000000   6.0000000   6.0000000   6.0000000   6.0000000

  Atom        21          22          23          24          25          26          27          28          29          30
 IAtWgt=          12          12           1           1           1           1           1           1           1           1
 AtmWgt=  12.0000000  12.0000000   1.0078250   1.0078250   1.0078250   1.0078250   1.0078250   1.0078250   1.0078250   1.0078250
 NucSpn=           0           0           1           1           1           1           1           1           1           1
 AtZEff=  -0.0000000  -0.0000000  -0.0000000  -0.0000000  -0.0000000  -0.0000000  -0.0000000  -0.0000000  -0.0000000  -0.0000000
 NQMom=    0.0000000   0.0000000   0.0000000   0.0000000   0.0000000   0.0000000   0.0000000   0.0000000   0.0000000   0.0000000
 NMagM=    0.0000000   0.0000000   2.7928460   2.7928460   2.7928460   2.7928460   2.7928460   2.7928460   2.7928460   2.7928460
 AtZNuc=   6.0000000   6.0000000   1.0000000   1.0000000   1.0000000   1.0000000   1.0000000   1.0000000   1.0000000   1.0000000

  Atom        31          32          33          34          35
 IAtWgt=           1           1           1           1          63
 AtmWgt=   1.0078250   1.0078250   1.0078250   1.0078250  62.9295992
 NucSpn=           1           1           1           1           3
 AtZEff=  -0.0000000  -0.0000000  -0.0000000  -0.0000000  -0.0000000
 NQMom=    0.0000000   0.0000000   0.0000000   0.0000000 -22.0000000
 NMagM=    2.7928460   2.7928460   2.7928460   2.7928460   2.2233000
 AtZNuc=   1.0000000   1.0000000   1.0000000   1.0000000  29.0000000
 Leave Link  101 at Fri Mar  8 03:34:34 2024, MaxMem= 13421772800 cpu:              18.7 elap:               0.6
 (Enter /public/software/apps/Gaussian/g16/l103.exe)

 GradGradGradGradGradGradGradGradGradGradGradGradGradGradGradGradGradGrad
 Berny optimization.
 Initialization pass.
                           ----------------------------
                           !    Initial Parameters    !
                           ! (Angstroms and Degrees)  !
 --------------------------                            --------------------------
 ! Name  Definition              Value          Derivative Info.                !
 --------------------------------------------------------------------------------
 ! R1    R(1,2)                  1.3912         estimate D2E/DX2                !
 ! R2    R(1,35)                 1.9625         estimate D2E/DX2                !
 ! R3    R(2,3)                  1.3956         estimate D2E/DX2                !
 ! R4    R(2,11)                 1.4073         estimate D2E/DX2                !
 ! R5    R(3,4)                  1.3936         estimate D2E/DX2                !
 ! R6    R(3,23)                 1.0827         estimate D2E/DX2                !
 ! R7    R(4,5)                  1.4011         estimate D2E/DX2                !
 ! R8    R(4,24)                 1.0837         estimate D2E/DX2                !
 ! R9    R(5,6)                  1.4039         estimate D2E/DX2                !
 ! R10   R(5,10)                 1.4204         estimate D2E/DX2                !
 ! R11   R(6,7)                  1.3955         estimate D2E/DX2                !
 ! R12   R(6,25)                 1.0836         estimate D2E/DX2                !
 ! R13   R(7,8)                  1.3948         estimate D2E/DX2                !
 ! R14   R(7,26)                 1.0824         estimate D2E/DX2                !
 ! R15   R(8,9)                  1.3968         estimate D2E/DX2                !
 ! R16   R(8,27)                 1.0824         estimate D2E/DX2                !
 ! R17   R(9,10)                 1.4115         estimate D2E/DX2                !
 ! R18   R(9,28)                 1.0819         estimate D2E/DX2                !
 ! R19   R(10,11)                1.42           estimate D2E/DX2                !
 ! R20   R(11,12)                1.488          estimate D2E/DX2                !
 ! R21   R(12,13)                1.4073         estimate D2E/DX2                !
 ! R22   R(12,22)                1.42           estimate D2E/DX2                !
 ! R23   R(13,14)                1.3912         estimate D2E/DX2                !
 ! R24   R(13,15)                1.3956         estimate D2E/DX2                !
 ! R25   R(14,35)                1.9625         estimate D2E/DX2                !
 ! R26   R(15,16)                1.3936         estimate D2E/DX2                !
 ! R27   R(15,29)                1.0827         estimate D2E/DX2                !
 ! R28   R(16,17)                1.4011         estimate D2E/DX2                !
 ! R29   R(16,30)                1.0837         estimate D2E/DX2                !
 ! R30   R(17,18)                1.4039         estimate D2E/DX2                !
 ! R31   R(17,22)                1.4204         estimate D2E/DX2                !
 ! R32   R(18,19)                1.3955         estimate D2E/DX2                !
 ! R33   R(18,31)                1.0836         estimate D2E/DX2                !
 ! R34   R(19,20)                1.3948         estimate D2E/DX2                !
 ! R35   R(19,32)                1.0824         estimate D2E/DX2                !
 ! R36   R(20,21)                1.3968         estimate D2E/DX2                !
 ! R37   R(20,33)                1.0824         estimate D2E/DX2                !
 ! R38   R(21,22)                1.4115         estimate D2E/DX2                !
 ! R39   R(21,34)                1.0819         estimate D2E/DX2                !
 ! A1    A(2,1,35)             107.6825         estimate D2E/DX2                !
 ! A2    A(1,2,3)              119.1849         estimate D2E/DX2                !
 ! A3    A(1,2,11)             120.297          estimate D2E/DX2                !
 ! A4    A(3,2,11)             120.5178         estimate D2E/DX2                !
 ! A5    A(2,3,4)              120.4312         estimate D2E/DX2                !
 ! A6    A(2,3,23)             119.9446         estimate D2E/DX2                !
 ! A7    A(4,3,23)             119.6241         estimate D2E/DX2                !
 ! A8    A(3,4,5)              120.2959         estimate D2E/DX2                !
 ! A9    A(3,4,24)             119.0445         estimate D2E/DX2                !
 ! A10   A(5,4,24)             120.655          estimate D2E/DX2                !
 ! A11   A(4,5,6)              120.0225         estimate D2E/DX2                !
 ! A12   A(4,5,10)             119.9703         estimate D2E/DX2                !
 ! A13   A(6,5,10)             120.0059         estimate D2E/DX2                !
 ! A14   A(5,6,7)              120.2762         estimate D2E/DX2                !
 ! A15   A(5,6,25)             120.669          estimate D2E/DX2                !
 ! A16   A(7,6,25)             119.0542         estimate D2E/DX2                !
 ! A17   A(6,7,8)              120.1573         estimate D2E/DX2                !
 ! A18   A(6,7,26)             119.9335         estimate D2E/DX2                !
 ! A19   A(8,7,26)             119.9081         estimate D2E/DX2                !
 ! A20   A(7,8,9)              120.2998         estimate D2E/DX2                !
 ! A21   A(7,8,27)             119.8262         estimate D2E/DX2                !
 ! A22   A(9,8,27)             119.8739         estimate D2E/DX2                !
 ! A23   A(8,9,10)             120.5466         estimate D2E/DX2                !
 ! A24   A(8,9,28)             118.0402         estimate D2E/DX2                !
 ! A25   A(10,9,28)            121.4125         estimate D2E/DX2                !
 ! A26   A(5,10,9)             118.7015         estimate D2E/DX2                !
 ! A27   A(5,10,11)            119.3295         estimate D2E/DX2                !
 ! A28   A(9,10,11)            121.9657         estimate D2E/DX2                !
 ! A29   A(2,11,10)            119.4062         estimate D2E/DX2                !
 ! A30   A(2,11,12)            118.67           estimate D2E/DX2                !
 ! A31   A(10,11,12)           121.9186         estimate D2E/DX2                !
 ! A32   A(11,12,13)           118.6701         estimate D2E/DX2                !
 ! A33   A(11,12,22)           121.9186         estimate D2E/DX2                !
 ! A34   A(13,12,22)           119.4062         estimate D2E/DX2                !
 ! A35   A(12,13,14)           120.297          estimate D2E/DX2                !
 ! A36   A(12,13,15)           120.5178         estimate D2E/DX2                !
 ! A37   A(14,13,15)           119.1848         estimate D2E/DX2                !
 ! A38   A(13,14,35)           111.8685         estimate D2E/DX2                !
 ! A39   A(13,15,16)           120.4312         estimate D2E/DX2                !
 ! A40   A(13,15,29)           119.9446         estimate D2E/DX2                !
 ! A41   A(16,15,29)           119.6241         estimate D2E/DX2                !
 ! A42   A(15,16,17)           120.2959         estimate D2E/DX2                !
 ! A43   A(15,16,30)           119.0445         estimate D2E/DX2                !
 ! A44   A(17,16,30)           120.655          estimate D2E/DX2                !
 ! A45   A(16,17,18)           120.0225         estimate D2E/DX2                !
 ! A46   A(16,17,22)           119.9703         estimate D2E/DX2                !
 ! A47   A(18,17,22)           120.006          estimate D2E/DX2                !
 ! A48   A(17,18,19)           120.2762         estimate D2E/DX2                !
 ! A49   A(17,18,31)           120.669          estimate D2E/DX2                !
 ! A50   A(19,18,31)           119.0542         estimate D2E/DX2                !
 ! A51   A(18,19,20)           120.1573         estimate D2E/DX2                !
 ! A52   A(18,19,32)           119.9334         estimate D2E/DX2                !
 ! A53   A(20,19,32)           119.9082         estimate D2E/DX2                !
 ! A54   A(19,20,21)           120.2999         estimate D2E/DX2                !
 ! A55   A(19,20,33)           119.8261         estimate D2E/DX2                !
 ! A56   A(21,20,33)           119.8739         estimate D2E/DX2                !
 ! A57   A(20,21,22)           120.5466         estimate D2E/DX2                !
 ! A58   A(20,21,34)           118.0402         estimate D2E/DX2                !
 ! A59   A(22,21,34)           121.4124         estimate D2E/DX2                !
 ! A60   A(12,22,17)           119.3295         estimate D2E/DX2                !
 ! A61   A(12,22,21)           121.9657         estimate D2E/DX2                !
 ! A62   A(17,22,21)           118.7015         estimate D2E/DX2                !
 ! A63   A(1,35,14)            100.0            estimate D2E/DX2                !
 ! D1    D(35,1,2,3)           102.5655         estimate D2E/DX2                !
 ! D2    D(35,1,2,11)          -77.2082         estimate D2E/DX2                !
 ! D3    D(2,1,35,14)           49.5759         estimate D2E/DX2                !
 ! D4    D(1,2,3,4)           -179.148          estimate D2E/DX2                !
 ! D5    D(1,2,3,23)             0.7426         estimate D2E/DX2                !
 ! D6    D(11,2,3,4)             0.6251         estimate D2E/DX2                !
 ! D7    D(11,2,3,23)         -179.4842         estimate D2E/DX2                !
 ! D8    D(1,2,11,10)          177.4586         estimate D2E/DX2                !
 ! D9    D(1,2,11,12)           -1.7326         estimate D2E/DX2                !
 ! D10   D(3,2,11,10)           -2.3121         estimate D2E/DX2                !
 ! D11   D(3,2,11,12)          178.4968         estimate D2E/DX2                !
 ! D12   D(2,3,4,5)              0.8697         estimate D2E/DX2                !
 ! D13   D(2,3,4,24)          -179.9017         estimate D2E/DX2                !
 ! D14   D(23,3,4,5)          -179.0213         estimate D2E/DX2                !
 ! D15   D(23,3,4,24)            0.2073         estimate D2E/DX2                !
 ! D16   D(3,4,5,6)            178.9407         estimate D2E/DX2                !
 ! D17   D(3,4,5,10)            -0.6432         estimate D2E/DX2                !
 ! D18   D(24,4,5,6)            -0.2754         estimate D2E/DX2                !
 ! D19   D(24,4,5,10)         -179.8592         estimate D2E/DX2                !
 ! D20   D(4,5,6,7)           -179.0371         estimate D2E/DX2                !
 ! D21   D(4,5,6,25)             0.6869         estimate D2E/DX2                !
 ! D22   D(10,5,6,7)             0.5466         estimate D2E/DX2                !
 ! D23   D(10,5,6,25)         -179.7294         estimate D2E/DX2                !
 ! D24   D(4,5,10,9)           178.3095         estimate D2E/DX2                !
 ! D25   D(4,5,10,11)           -1.0483         estimate D2E/DX2                !
 ! D26   D(6,5,10,9)            -1.2745         estimate D2E/DX2                !
 ! D27   D(6,5,10,11)          179.3678         estimate D2E/DX2                !
 ! D28   D(5,6,7,8)              0.2855         estimate D2E/DX2                !
 ! D29   D(5,6,7,26)           179.897          estimate D2E/DX2                !
 ! D30   D(25,6,7,8)          -179.4429         estimate D2E/DX2                !
 ! D31   D(25,6,7,26)            0.1686         estimate D2E/DX2                !
 ! D32   D(6,7,8,9)             -0.369          estimate D2E/DX2                !
 ! D33   D(6,7,8,27)           179.4857         estimate D2E/DX2                !
 ! D34   D(26,7,8,9)          -179.9806         estimate D2E/DX2                !
 ! D35   D(26,7,8,27)           -0.1259         estimate D2E/DX2                !
 ! D36   D(7,8,9,10)            -0.3872         estimate D2E/DX2                !
 ! D37   D(7,8,9,28)           179.3098         estimate D2E/DX2                !
 ! D38   D(27,8,9,10)          179.7581         estimate D2E/DX2                !
 ! D39   D(27,8,9,28)           -0.5449         estimate D2E/DX2                !
 ! D40   D(8,9,10,5)             1.1985         estimate D2E/DX2                !
 ! D41   D(8,9,10,11)         -179.4616         estimate D2E/DX2                !
 ! D42   D(28,9,10,5)         -178.4882         estimate D2E/DX2                !
 ! D43   D(28,9,10,11)           0.8518         estimate D2E/DX2                !
 ! D44   D(5,10,11,2)            2.504          estimate D2E/DX2                !
 ! D45   D(5,10,11,12)        -178.3321         estimate D2E/DX2                !
 ! D46   D(9,10,11,2)         -176.832          estimate D2E/DX2                !
 ! D47   D(9,10,11,12)           2.3319         estimate D2E/DX2                !
 ! D48   D(2,11,12,13)          68.1332         estimate D2E/DX2                !
 ! D49   D(2,11,12,22)        -111.0366         estimate D2E/DX2                !
 ! D50   D(10,11,12,13)       -111.0367         estimate D2E/DX2                !
 ! D51   D(10,11,12,22)         69.7935         estimate D2E/DX2                !
 ! D52   D(11,12,13,14)         -1.7326         estimate D2E/DX2                !
 ! D53   D(11,12,13,15)        178.4967         estimate D2E/DX2                !
 ! D54   D(22,12,13,14)        177.4586         estimate D2E/DX2                !
 ! D55   D(22,12,13,15)         -2.3122         estimate D2E/DX2                !
 ! D56   D(11,12,22,17)       -178.3321         estimate D2E/DX2                !
 ! D57   D(11,12,22,21)          2.3319         estimate D2E/DX2                !
 ! D58   D(13,12,22,17)          2.504          estimate D2E/DX2                !
 ! D59   D(13,12,22,21)       -176.8319         estimate D2E/DX2                !
 ! D60   D(12,13,14,35)        -72.8124         estimate D2E/DX2                !
 ! D61   D(15,13,14,35)        106.9613         estimate D2E/DX2                !
 ! D62   D(12,13,15,16)          0.6253         estimate D2E/DX2                !
 ! D63   D(12,13,15,29)       -179.4842         estimate D2E/DX2                !
 ! D64   D(14,13,15,16)       -179.148          estimate D2E/DX2                !
 ! D65   D(14,13,15,29)          0.7426         estimate D2E/DX2                !
 ! D66   D(13,14,35,1)          41.0641         estimate D2E/DX2                !
 ! D67   D(13,15,16,17)          0.8696         estimate D2E/DX2                !
 ! D68   D(13,15,16,30)       -179.9017         estimate D2E/DX2                !
 ! D69   D(29,15,16,17)       -179.0212         estimate D2E/DX2                !
 ! D70   D(29,15,16,30)          0.2074         estimate D2E/DX2                !
 ! D71   D(15,16,17,18)        178.9407         estimate D2E/DX2                !
 ! D72   D(15,16,17,22)         -0.6432         estimate D2E/DX2                !
 ! D73   D(30,16,17,18)         -0.2754         estimate D2E/DX2                !
 ! D74   D(30,16,17,22)       -179.8592         estimate D2E/DX2                !
 ! D75   D(16,17,18,19)       -179.0371         estimate D2E/DX2                !
 ! D76   D(16,17,18,31)          0.6868         estimate D2E/DX2                !
 ! D77   D(22,17,18,19)          0.5466         estimate D2E/DX2                !
 ! D78   D(22,17,18,31)       -179.7295         estimate D2E/DX2                !
 ! D79   D(16,17,22,12)         -1.0482         estimate D2E/DX2                !
 ! D80   D(16,17,22,21)        178.3095         estimate D2E/DX2                !
 ! D81   D(18,17,22,12)        179.3678         estimate D2E/DX2                !
 ! D82   D(18,17,22,21)         -1.2745         estimate D2E/DX2                !
 ! D83   D(17,18,19,20)          0.2854         estimate D2E/DX2                !
 ! D84   D(17,18,19,32)        179.897          estimate D2E/DX2                !
 ! D85   D(31,18,19,20)       -179.4429         estimate D2E/DX2                !
 ! D86   D(31,18,19,32)          0.1687         estimate D2E/DX2                !
 ! D87   D(18,19,20,21)         -0.3689         estimate D2E/DX2                !
 ! D88   D(18,19,20,33)        179.4857         estimate D2E/DX2                !
 ! D89   D(32,19,20,21)       -179.9806         estimate D2E/DX2                !
 ! D90   D(32,19,20,33)         -0.1259         estimate D2E/DX2                !
 ! D91   D(19,20,21,22)         -0.3873         estimate D2E/DX2                !
 ! D92   D(19,20,21,34)        179.3097         estimate D2E/DX2                !
 ! D93   D(33,20,21,22)        179.7581         estimate D2E/DX2                !
 ! D94   D(33,20,21,34)         -0.5449         estimate D2E/DX2                !
 ! D95   D(20,21,22,12)       -179.4616         estimate D2E/DX2                !
 ! D96   D(20,21,22,17)          1.1985         estimate D2E/DX2                !
 ! D97   D(34,21,22,12)          0.8518         estimate D2E/DX2                !
 ! D98   D(34,21,22,17)       -178.4881         estimate D2E/DX2                !
 --------------------------------------------------------------------------------
 Trust Radius=3.00D-01 FncErr=1.00D-07 GrdErr=1.00D-06 EigMax=2.50D+02 EigMin=1.00D-04
 Number of steps in this run=    210 maximum allowed number of steps=    210.
 GradGradGradGradGradGradGradGradGradGradGradGradGradGradGradGradGradGrad

 Leave Link  103 at Fri Mar  8 03:34:34 2024, MaxMem= 13421772800 cpu:               0.4 elap:               0.0
 (Enter /public/software/apps/Gaussian/g16/l202.exe)
                          Input orientation:                          
 ---------------------------------------------------------------------
 Center     Atomic      Atomic             Coordinates (Angstroms)
 Number     Number       Type             X           Y           Z
 ---------------------------------------------------------------------
      1          8           0        0.833144   -0.852617    3.112893
      2          6           0        1.592067   -0.661157    1.962719
      3          6           0        2.860893   -1.236577    1.880982
      4          6           0        3.650372   -1.046808    0.748388
      5          6           0        3.185184   -0.260329   -0.313797
      6          6           0        3.994298   -0.054745   -1.442499
      7          6           0        3.544358    0.743987   -2.494679
      8          6           0        2.289050    1.348329   -2.428465
      9          6           0        1.470672    1.152754   -1.313507
     10          6           0        1.897973    0.336249   -0.244344
     11          6           0        1.086141    0.107749    0.898123
     12          6           0       -0.284987    0.673935    1.014928
     13          6           0       -0.518470    1.687388    1.963053
     14          8           0        0.508842    2.119756    2.795645
     15          6           0       -1.782028    2.267536    2.083699
     16          6           0       -2.834260    1.841918    1.275171
     17          6           0       -2.638879    0.813258    0.344112
     18          6           0       -3.708526    0.373818   -0.451908
     19          6           0       -3.524840   -0.663907   -1.366725
     20          6           0       -2.277466   -1.275369   -1.491555
     21          6           0       -1.202167   -0.849180   -0.708472
     22          6           0       -1.360132    0.209083    0.212127
     23          1           0        3.237589   -1.833319    2.702068
     24          1           0        4.631436   -1.505306    0.708081
     25          1           0        4.976264   -0.508233   -1.508679
     26          1           0        4.173445    0.900105   -3.361532
     27          1           0        1.948848    1.973540   -3.243953
     28          1           0        0.509007    1.648024   -1.295350
     29          1           0       -1.949196    3.052353    2.810543
     30          1           0       -3.805685    2.309068    1.386688
     31          1           0       -4.687441    0.830043   -0.363191
     32          1           0       -4.353802   -0.999434   -1.976479
     33          1           0       -2.143125   -2.085363   -2.196899
     34          1           0       -0.254087   -1.356643   -0.826986
     35         29           0        0.937696    0.793161    4.176882
 ---------------------------------------------------------------------
                    Distance matrix (angstroms):
                    1          2          3          4          5
     1  O    0.000000
     2  C    1.391230   0.000000
     3  C    2.403497   1.395603   0.000000
     4  C    3.683119   2.420733   1.393578   0.000000
     5  C    4.198226   2.807349   2.423898   1.401137   0.000000
     6  C    5.601883   4.211171   3.704978   2.429498   1.403887
     7  C    6.429984   5.065004   4.851409   3.706166   2.427736
     8  C    6.137628   4.879172   5.057675   4.205030   2.804043
     9  C    4.901119   3.746821   4.224497   3.720292   2.436345
    10  C    3.717298   2.441214   2.813895   2.443208   1.420437
    11  C    2.427245   1.407317   2.433715   2.816150   2.451574
    12  C    2.825250   2.490805   3.781093   4.303377   3.831507
    13  C    3.098486   3.157535   4.469497   5.131324   4.763896
    14  O    3.006796   3.098487   4.199253   4.907912   4.743020
    15  C    4.199252   4.469496   5.820362   6.502223   6.067230
    16  C    4.907911   5.131323   6.502223   7.118475   6.570994
    17  C    4.743019   4.763895   6.067230   6.570994   5.958619
    18  C    5.902433   5.915901   7.154929   7.590275   6.924193
    19  C    6.252569   6.104748   7.187012   7.490259   6.804113
    20  C    5.572751   5.223270   6.146401   6.341045   5.679610
    21  C    4.329588   3.870188   4.833612   5.070368   4.444251
    22  C    3.788418   3.540815   4.763619   5.193264   4.599657
    23  H    2.629051   2.151358   1.082674   2.146126   3.401836
    24  H    4.542702   3.394771   2.140732   1.083666   2.164682
    25  H    6.216347   4.850441   4.061414   2.672528   2.167295
    26  H    7.493185   6.119534   5.811382   4.577720   3.407632
    27  H    7.045669   5.846226   6.115688   5.287388   3.886452
    28  H    5.078472   4.137674   4.892993   4.615968   3.430332
    29  H    4.804334   5.200914   6.511218   7.239528   6.862741
    30  H    5.873225   6.187873   7.566980   8.201348   7.639745
    31  H    6.737311   6.860449   8.141534   8.618428   7.947929
    32  H    7.268265   7.140383   8.184624   8.455409   7.755456
    33  H    6.210614   5.769094   6.510741   6.581635   5.938661
    34  H    4.118102   3.416788   4.129238   4.221682   3.646074
    35  Cu   1.962547   2.728692   3.617966   4.743276   5.131008
                    6          7          8          9         10
     6  C    0.000000
     7  C    1.395529   0.000000
     8  C    2.418391   1.394780   0.000000
     9  C    2.800604   2.421246   1.396826   0.000000
    10  C    2.446023   2.817950   2.438777   1.411516   0.000000
    11  C    3.736615   4.237775   3.748629   2.476127   1.420040
    12  C    4.988206   5.194818   4.351716   2.955201   2.542658
    13  C    5.915901   6.104748   5.223271   3.870189   3.540816
    14  O    5.902434   6.252570   5.572752   4.329589   3.788419
    15  C    7.154929   7.187012   6.146401   4.833612   4.763618
    16  C    7.590274   7.490260   6.341045   5.070369   5.193264
    17  C    6.924193   6.804113   5.679610   4.444251   4.599657
    18  C    7.778074   7.544154   6.389630   5.307842   5.610466
    19  C    7.544154   7.295753   6.243213   5.315847   5.627340
    20  C    6.389629   6.243212   5.349267   4.469454   4.646196
    21  C    5.307841   5.315846   4.469454   3.393800   3.351347
    22  C    5.610465   5.627339   4.646196   3.351347   3.292383
    23  H    4.573114   5.808855   6.111054   5.306927   3.896529
    24  H    2.671155   4.061863   4.844371   4.598101   3.430781
    25  H    1.083646   2.142570   3.393221   3.884089   3.433303
    26  H    2.150935   1.082385   2.149991   3.400473   3.900329
    27  H    3.397505   2.149154   1.082426   2.151503   3.417743
    28  H    3.881794   3.386595   2.131272   1.081860   2.180503
    29  H    7.941508   7.978287   6.950801   5.684344   5.613400
    30  H    8.627378   8.457992   7.254254   6.038879   6.251719
    31  H    8.793199   8.503715   7.294203   6.239359   6.604970
    32  H    8.418334   8.104874   7.060012   6.244673   6.623370
    33  H    6.508494   6.359352   5.611420   4.932070   5.099720
    34  H    4.485819   4.649950   4.043409   3.083597   2.799414
    35  Cu   6.452845   7.162879   6.764982   5.527906   4.547322
                   11         12         13         14         15
    11  C    0.000000
    12  C    1.488019   0.000000
    13  C    2.490805   1.407317   0.000000
    14  O    2.825250   2.427245   1.391230   0.000000
    15  C    3.781093   2.433715   1.395602   2.403496   0.000000
    16  C    4.303377   2.816150   2.420732   3.683119   1.393578
    17  C    3.831507   2.451573   2.807349   4.198226   2.423898
    18  C    4.988207   3.736616   4.211171   5.601883   3.704978
    19  C    5.194818   4.237775   5.065004   6.429984   4.851410
    20  C    4.351716   3.748629   4.879171   6.137627   5.057675
    21  C    2.955201   2.476127   3.746821   4.901119   4.224497
    22  C    2.542658   1.420040   2.441213   3.717297   2.813895
    23  H    3.413311   4.641261   5.200913   4.804333   6.511217
    24  H    3.899638   5.386507   6.187874   5.873226   7.566980
    25  H    4.615754   5.953728   6.860450   6.737313   8.141534
    26  H    5.320144   6.251573   7.140384   7.268266   8.184624
    27  H    4.624093   4.981672   5.769095   6.210615   6.510741
    28  H    2.741688   2.629954   3.416789   4.118103   4.129238
    29  H    4.641262   3.413312   2.151359   2.629051   1.082675
    30  H    5.386507   3.899638   3.394770   4.542702   2.140733
    31  H    5.953727   4.615754   4.850440   6.216346   4.061414
    32  H    6.251573   5.320144   6.119534   7.493185   5.811382
    33  H    4.981672   4.624093   5.846226   7.045669   6.115688
    34  H    2.629954   2.741687   4.137673   5.078471   4.892991
    35  Cu   3.352922   3.392215   2.796623   1.962546   3.735250
                   16         17         18         19         20
    16  C    0.000000
    17  C    1.401137   0.000000
    18  C    2.429498   1.403887   0.000000
    19  C    3.706167   2.427737   1.395530   0.000000
    20  C    4.205029   2.804043   2.418391   1.394780   0.000000
    21  C    3.720292   2.436345   2.800604   2.421246   1.396826
    22  C    2.443208   1.420437   2.446024   2.817951   2.438777
    23  H    7.239527   6.862740   7.941507   7.978286   6.950800
    24  H    8.201348   7.639744   8.627378   8.457991   7.254254
    25  H    8.618429   7.947929   8.793199   8.503714   7.294202
    26  H    8.455410   7.755456   8.418335   8.104874   7.060011
    27  H    6.581636   5.938662   6.508495   6.359353   5.611420
    28  H    4.221683   3.646074   4.485820   4.649951   4.043409
    29  H    2.146126   3.401836   4.573115   5.808856   6.111054
    30  H    1.083666   2.164682   2.671155   4.061864   4.844370
    31  H    2.672527   2.167295   1.083645   2.142570   3.393220
    32  H    4.577720   3.407632   2.150934   1.082385   2.149991
    33  H    5.287388   3.886452   3.397506   2.149154   1.082427
    34  H    4.615967   3.430331   3.881794   3.386595   2.131272
    35  Cu   4.873138   5.242368   6.571828   7.264217   6.837197
                   21         22         23         24         25
    21  C    0.000000
    22  C    1.411516   0.000000
    23  H    5.684342   5.613399   0.000000
    24  H    6.038878   6.251719   2.454870   0.000000
    25  H    6.239358   6.604970   4.744390   2.455012   0.000000
    26  H    6.244672   6.623370   6.716746   4.749474   2.461910
    27  H    4.932069   5.099720   7.176921   5.909080   4.282011
    28  H    3.083597   2.799414   5.961901   5.563420   4.965011
    29  H    5.306927   3.896530   7.126310   8.276311   8.904799
    30  H    4.598101   3.430781   8.276310   9.284124   9.666590
    31  H    3.884089   3.433303   8.904797   9.666589   9.822949
    32  H    3.400474   3.900329   8.956192   9.391340   9.354691
    33  H    2.151503   3.417743   7.281173   7.393920   7.324390
    34  H    1.081859   2.180502   4.987308   5.123170   5.342385
    35  Cu   5.580590   4.619572   3.789852   5.564103   7.094312
                   26         27         28         29         30
    26  H    0.000000
    27  H    2.472836   0.000000
    28  H    4.272774   2.444618   0.000000
    29  H    8.956194   7.281175   4.987310   0.000000
    30  H    9.391341   7.393921   5.123170   2.454870   0.000000
    31  H    9.354692   7.324391   5.342386   4.744390   2.455012
    32  H    8.845370   7.082970   5.578520   6.716747   4.749475
    33  H    7.082969   5.857923   4.667416   7.176922   5.909080
    34  H    5.578519   4.667416   3.135235   5.961900   5.563420
    35  Cu   8.204218   7.581854   5.555168   3.912157   5.708136
                   31         32         33         34         35
    31  H    0.000000
    32  H    2.461910   0.000000
    33  H    4.282011   2.472836   0.000000
    34  H    4.965010   4.272774   2.444618   0.000000
    35  Cu   7.228817   8.311269   7.642149   5.575007   0.000000
 Symmetry turned off by external request.
 Stoichiometry    C20H12CuO2(2)
 Framework group  C1[X(C20H12CuO2)]
 Deg. of freedom    99
 Full point group                 C1      NOp   1
 Rotational constants (GHZ):           0.2629538           0.2480587           0.1537564
 Leave Link  202 at Fri Mar  8 03:34:34 2024, MaxMem= 13421772800 cpu:               1.3 elap:               0.1
 (Enter /public/software/apps/Gaussian/g16/l301.exe)
 Standard basis: def2SVPP (5D, 7F)
 Ernie: Thresh=  0.10000D-02 Tol=  0.10000D-05 Strict=F.
   356 basis functions,   669 primitive gaussians,   380 cartesian basis functions
    89 alpha electrons       88 beta electrons
       nuclear repulsion energy      2192.1743889871 Hartrees.
 IExCor=  402 DFT=T Ex+Corr=B3LYP ExCW=0 ScaHFX=  0.200000
 ScaDFX=  0.800000  0.720000  1.000000  0.810000 ScalE2=  1.000000  1.000000
 IRadAn=      5 IRanWt=     -1 IRanGd=            0 ICorTp=0 IEmpDi=141
 NAtoms=   35 NActive=   35 NUniq=   35 SFac= 1.00D+00 NAtFMM=   60 NAOKFM=F Big=F
 Integral buffers will be    131072 words long.
 Raffenetti 2 integral format.
 Two-electron integral symmetry is turned off.
 R6Disp:  Grimme-D3(BJ) Dispersion energy=       -0.0971491073 Hartrees.
 Nuclear repulsion after empirical dispersion term =     2192.0772398797 Hartrees.
 Leave Link  301 at Fri Mar  8 03:34:34 2024, MaxMem= 13421772800 cpu:               0.9 elap:               0.0
 (Enter /public/software/apps/Gaussian/g16/l302.exe)
 NPDir=0 NMtPBC=     1 NCelOv=     1 NCel=       1 NClECP=     1 NCelD=      1
         NCelK=      1 NCelE2=     1 NClLst=     1 CellRange=     0.0.
 One-electron integrals computed using PRISM.
   1 Symmetry operations used in ECPInt.
 ECPInt:  NShTT=   13861 NPrTT=   58332 LenC2=   13013 LenP2D=   36684.
 LDataN:  DoStor=T MaxTD1= 4 Len=   56
 NBasis=   356 RedAO= T EigKep=  1.91D-04  NBF=   356
 NBsUse=   356 1.00D-06 EigRej= -1.00D+00 NBFU=   356
 Precomputing XC quadrature grid using
 IXCGrd= 4 IRadAn=           5 IRanWt=          -1 IRanGd=           0 AccXCQ= 0.00D+00.
 Generated NRdTot=       0 NPtTot=           0 NUsed=           0 NTot=          32
 NSgBfM=   378   378   378   378   378 MxSgAt=    35 MxSgA2=    35.
 Leave Link  302 at Fri Mar  8 03:34:34 2024, MaxMem= 13421772800 cpu:               8.8 elap:               0.3
 (Enter /public/software/apps/Gaussian/g16/l303.exe)
 DipDrv:  MaxL=1.
 Leave Link  303 at Fri Mar  8 03:34:34 2024, MaxMem= 13421772800 cpu:               4.8 elap:               0.2
 (Enter /public/software/apps/Gaussian/g16/l401.exe)
 ExpMin= 3.30D-02 ExpMax= 7.64D+04 ExpMxC= 1.15D+04 IAcc=3 IRadAn=         5 AccDes= 0.00D+00
 Harris functional with IExCor=  402 and IRadAn=       5 diagonalized for initial guess.
 HarFok:  IExCor=  402 AccDes= 0.00D+00 IRadAn=         5 IDoV= 1 UseB2=F ITyADJ=14
 ICtDFT=  3500011 ScaDFX=  1.000000  1.000000  1.000000  1.000000
 FoFCou: FMM=F IPFlag=           0 FMFlag=      100000 FMFlg1=           0
         NFxFlg=           0 DoJE=T BraDBF=F KetDBF=T FulRan=T
         wScrn=  0.000000 ICntrl=       500 IOpCl=  0 I1Cent=   200000004 NGrid=           0
         NMat0=    1 NMatS0=      1 NMatT0=    0 NMatD0=    1 NMtDS0=    0 NMtDT0=    0
 Symmetry not used in FoFCou.
 Harris En= -2559.78106377242    
 JPrj=0 DoOrth=F DoCkMO=F.
 Initial guess <Sx>= 0.0000 <Sy>= 0.0000 <Sz>= 0.5000 <S**2>= 0.7500 S= 0.5000
 Leave Link  401 at Fri Mar  8 03:34:35 2024, MaxMem= 13421772800 cpu:              18.4 elap:               0.6
 (Enter /public/software/apps/Gaussian/g16/l502.exe)
 Two-electron integral symmetry not used.
 UHF open shell SCF:
 Using DIIS extrapolation, IDIIS=  1040.
 NGot= 13421772800 LenX= 13421467954 LenY= 13421323113
 Requested convergence on RMS density matrix=1.00D-08 within 128 cycles.
 Requested convergence on MAX density matrix=1.00D-06.
 Requested convergence on             energy=1.00D-06.
 No special actions if energy rises.
 Fock matrices will be formed incrementally for  20 cycles.

 Cycle   1  Pass 1  IDiag  1:
 FoFJK:  IHMeth= 1 ICntrl=       0 DoSepK=F KAlg= 0 I1Cent=           0 FoldK=F
 IRaf= 890000000 NMat=       1 IRICut=       1 DoRegI=T DoRafI=F ISym2E= 0 IDoP0=0 IntGTp=1.
 FoFCou: FMM=F IPFlag=           0 FMFlag=      100000 FMFlg1=           0
         NFxFlg=           0 DoJE=F BraDBF=F KetDBF=F FulRan=T
         wScrn=  0.000000 ICntrl=         0 IOpCl=  1 I1Cent=           0 NGrid=           0
         NMat0=    1 NMatS0=      1 NMatT0=    0 NMatD0=    1 NMtDS0=    0 NMtDT0=    0
 Symmetry not used in FoFCou.
 E= -2545.79583703055    
 DIIS: error= 3.99D-01 at cycle   1 NSaved=   1.
 NSaved= 1 IEnMin= 1 EnMin= -2545.79583703055     IErMin= 1 ErrMin= 3.99D-01
 ErrMax= 3.99D-01  0.00D+00 EMaxC= 1.00D-01 BMatC= 5.10D+01 BMatP= 5.10D+01
 IDIUse=3 WtCom= 0.00D+00 WtEn= 1.00D+00
 Coeff-Com:  0.100D+01
 Coeff-En:   0.100D+01
 Coeff:      0.100D+01
 Gap=     0.144 Goal=   None    Shift=    0.000
 Gap=     0.059 Goal=   None    Shift=    0.000
 GapD=    0.059 DampG=0.500 DampE=0.125 DampFc=0.1250 IDamp=-1.
 Damping current iteration by 1.25D-01
 RMSDP=7.67D-02 MaxDP=7.09D+00              OVMax= 9.87D-01

 Cycle   2  Pass 1  IDiag  1:
 RMSU=  9.57D-03    CP:  1.03D+00
 E= -2550.47120698592     Delta-E=       -4.675369955376 Rises=F Damp=T
 DIIS: error= 2.66D-01 at cycle   2 NSaved=   2.
 NSaved= 2 IEnMin= 2 EnMin= -2550.47120698592     IErMin= 2 ErrMin= 2.66D-01
 ErrMax= 2.66D-01  0.00D+00 EMaxC= 1.00D-01 BMatC= 1.95D+01 BMatP= 5.10D+01
 IDIUse=3 WtCom= 0.00D+00 WtEn= 1.00D+00
 Coeff-Com: -0.121D+01 0.221D+01
 Coeff-En:   0.000D+00 0.100D+01
 Coeff:      0.000D+00 0.100D+01
 Gap=     0.056 Goal=   None    Shift=    0.000
 Gap=     0.020 Goal=   None    Shift=    0.000
 RMSDP=2.10D-02 MaxDP=2.84D+00 DE=-4.68D+00 OVMax= 9.44D-01

 Cycle   3  Pass 1  IDiag  1:
 RMSU=  1.86D-02    CP:  9.40D-01  2.00D+00
 E= -2536.66917449921     Delta-E=       13.802032486713 Rises=F Damp=F
 DIIS: error= 3.20D-01 at cycle   3 NSaved=   3.
 NSaved= 3 IEnMin= 2 EnMin= -2550.47120698592     IErMin= 2 ErrMin= 2.66D-01
 ErrMax= 3.20D-01  0.00D+00 EMaxC= 1.00D-01 BMatC= 6.28D+01 BMatP= 1.95D+01
 IDIUse=2 WtCom= 0.00D+00 WtEn= 1.00D+00
 EnCoef did   100 forward-backward iterations
 Coeff-En:   0.576D+00 0.108D-01 0.413D+00
 Coeff:      0.576D+00 0.108D-01 0.413D+00
 Gap=     0.136 Goal=   None    Shift=    0.000
 Gap=     0.002 Goal=   None    Shift=    0.000
 RMSDP=2.62D-02 MaxDP=3.70D+00 DE= 1.38D+01 OVMax= 8.63D-01

 Cycle   4  Pass 1  IDiag  1:
 RMSU=  9.37D-03    CP:  8.87D-01  1.22D-01  1.13D-01
 E= -2553.38825962279     Delta-E=      -16.719085123579 Rises=F Damp=F
 DIIS: error= 1.55D-01 at cycle   4 NSaved=   4.
 NSaved= 4 IEnMin= 4 EnMin= -2553.38825962279     IErMin= 4 ErrMin= 1.55D-01
 ErrMax= 1.55D-01  0.00D+00 EMaxC= 1.00D-01 BMatC= 2.10D+01 BMatP= 1.95D+01
 IDIUse=3 WtCom= 0.00D+00 WtEn= 1.00D+00
 EnCoef did   100 forward-backward iterations
 Coeff-Com: -0.703D+00 0.142D+01 0.971D-01 0.185D+00
 Coeff-En:   0.372D+00 0.120D-01 0.159D+00 0.457D+00
 Coeff:      0.372D+00 0.120D-01 0.159D+00 0.457D+00
 Gap=     0.138 Goal=   None    Shift=    0.000
 Gap=    -0.015 Goal=   None    Shift=    0.000
 RMSDP=1.33D-02 MaxDP=9.25D-01 DE=-1.67D+01 OVMax= 8.58D-01

 Cycle   5  Pass 1  IDiag  1:
 RMSU=  1.02D-02    CP:  8.80D-01  1.16D-01  2.35D-01  1.27D-01
 E= -2549.25555954966     Delta-E=        4.132700073133 Rises=F Damp=F
 DIIS: error= 1.26D-01 at cycle   5 NSaved=   5.
 NSaved= 5 IEnMin= 4 EnMin= -2553.38825962279     IErMin= 5 ErrMin= 1.26D-01
 ErrMax= 1.26D-01  0.00D+00 EMaxC= 1.00D-01 BMatC= 2.80D+01 BMatP= 1.95D+01
 IDIUse=2 WtCom= 0.00D+00 WtEn= 1.00D+00
 EnCoef did   100 forward-backward iterations
 Coeff-En:   0.208D+00 0.600D-02 0.000D+00 0.494D+00 0.291D+00
 Coeff:      0.208D+00 0.600D-02 0.000D+00 0.494D+00 0.291D+00
 Gap=    -0.173 Goal=   None    Shift=    0.000
 Gap=     0.153 Goal=   None    Shift=    0.000
 RMSDP=9.22D-03 MaxDP=2.68D-01 DE= 4.13D+00 OVMax= 7.03D-01

 Cycle   6  Pass 1  IDiag  1:
 RMSU=  5.67D-03    CP:  8.75D-01  1.05D-01  1.69D-01  3.60D-01  3.33D-01
 E= -2557.90821263478     Delta-E=       -8.652653085128 Rises=F Damp=F
 DIIS: error= 3.13D-02 at cycle   6 NSaved=   6.
 NSaved= 6 IEnMin= 6 EnMin= -2557.90821263478     IErMin= 6 ErrMin= 3.13D-02
 ErrMax= 3.13D-02  0.00D+00 EMaxC= 1.00D-01 BMatC= 3.04D+00 BMatP= 1.95D+01
 IDIUse=3 WtCom= 6.87D-01 WtEn= 3.13D-01
 EnCoef did   100 forward-backward iterations
 Coeff-Com: -0.129D+00 0.376D+00-0.128D-01 0.152D+00 0.141D+00 0.473D+00
 Coeff-En:   0.163D+00 0.203D-02 0.000D+00 0.109D+00 0.361D-01 0.689D+00
 Coeff:     -0.376D-01 0.259D+00-0.881D-02 0.138D+00 0.108D+00 0.541D+00
 Gap=    -0.003 Goal=   None    Shift=    0.000
 Gap=     0.023 Goal=   None    Shift=    0.000
 RMSDP=1.07D-02 MaxDP=9.84D-01 DE=-8.65D+00 OVMax= 9.63D-01

 Cycle   7  Pass 1  IDiag  1:
 RMSU=  8.06D-03    CP:  9.00D-01  4.89D-02  9.05D-02  3.89D-01  3.15D-01
                    CP: -1.97D-01
 E= -2551.62738751163     Delta-E=        6.280825123152 Rises=F Damp=F
 DIIS: error= 9.68D-02 at cycle   7 NSaved=   7.
 NSaved= 7 IEnMin= 6 EnMin= -2557.90821263478     IErMin= 6 ErrMin= 3.13D-02
 ErrMax= 9.68D-02  0.00D+00 EMaxC= 1.00D-01 BMatC= 2.13D+01 BMatP= 3.04D+00
 IDIUse=2 WtCom= 0.00D+00 WtEn= 1.00D+00
 EnCoef did     8 forward-backward iterations
 Coeff-En:   0.961D-01 0.000D+00 0.000D+00 0.368D-01 0.000D+00 0.695D+00
 Coeff-En:   0.172D+00
 Coeff:      0.961D-01 0.000D+00 0.000D+00 0.368D-01 0.000D+00 0.695D+00
 Coeff:      0.172D+00
 Gap=    -0.073 Goal=   None    Shift=    0.000
 Gap=     0.087 Goal=   None    Shift=    0.000
 RMSDP=8.36D-03 MaxDP=2.78D-01 DE= 6.28D+00 OVMax= 7.17D-01

 Cycle   8  Pass 1  IDiag  1:
 RMSU=  4.28D-03    CP:  8.87D-01  1.16D-03  9.23D-02  5.65D-01  1.12D-01
                    CP:  3.11D-01  2.56D-01
 E= -2559.13169447810     Delta-E=       -7.504306966465 Rises=F Damp=F
 DIIS: error= 2.63D-02 at cycle   8 NSaved=   8.
 NSaved= 8 IEnMin= 8 EnMin= -2559.13169447810     IErMin= 8 ErrMin= 2.63D-02
 ErrMax= 2.63D-02  0.00D+00 EMaxC= 1.00D-01 BMatC= 1.33D+00 BMatP= 3.04D+00
 IDIUse=3 WtCom= 7.37D-01 WtEn= 2.63D-01
 Coeff-Com: -0.149D-01 0.552D-01 0.526D-03-0.761D-01 0.275D-01 0.331D+00
 Coeff-Com:  0.306D-01 0.646D+00
 Coeff-En:   0.000D+00 0.000D+00 0.000D+00 0.000D+00 0.000D+00 0.208D+00
 Coeff-En:   0.000D+00 0.792D+00
 Coeff:     -0.110D-01 0.407D-01 0.388D-03-0.560D-01 0.202D-01 0.299D+00
 Coeff:      0.225D-01 0.684D+00
 Gap=     0.143 Goal=   None    Shift=    0.000
 Gap=     0.053 Goal=   None    Shift=    0.000
 RMSDP=3.37D-03 MaxDP=2.01D-01 DE=-7.50D+00 OVMax= 3.34D-01

 Cycle   9  Pass 1  IDiag  1:
 RMSU=  2.65D-03    CP:  8.83D-01 -6.54D-03  1.08D-01  4.02D-01  2.12D-01
                    CP:  4.19D-01  2.43D-01  8.39D-01
 E= -2559.30529754827     Delta-E=       -0.173603070169 Rises=F Damp=F
 DIIS: error= 3.11D-02 at cycle   9 NSaved=   9.
 NSaved= 9 IEnMin= 9 EnMin= -2559.30529754827     IErMin= 8 ErrMin= 2.63D-02
 ErrMax= 3.11D-02  0.00D+00 EMaxC= 1.00D-01 BMatC= 7.50D-01 BMatP= 1.33D+00
 IDIUse=3 WtCom= 7.37D-01 WtEn= 2.63D-01
 EnCoef did     3 forward-backward iterations
 Coeff-Com: -0.459D-01 0.659D-01 0.354D-02-0.290D-01 0.234D-01 0.186D+00
 Coeff-Com: -0.202D-03 0.429D+00 0.367D+00
 Coeff-En:   0.000D+00 0.000D+00 0.000D+00 0.000D+00 0.000D+00 0.976D-01
 Coeff-En:   0.000D+00 0.309D+00 0.593D+00
 Coeff:     -0.338D-01 0.485D-01 0.261D-02-0.213D-01 0.172D-01 0.162D+00
 Coeff:     -0.149D-03 0.398D+00 0.427D+00
 Gap=     0.200 Goal=   None    Shift=    0.000
 Gap=     0.077 Goal=   None    Shift=    0.000
 RMSDP=2.53D-03 MaxDP=2.71D-01 DE=-1.74D-01 OVMax= 3.74D-01

 Cycle  10  Pass 1  IDiag  1:
 RMSU=  1.66D-03    CP:  8.76D-01 -1.38D-03  1.19D-01  4.48D-01  2.18D-01
                    CP:  4.58D-01  1.68D-01  7.82D-01  3.60D-01
 E= -2559.48315140499     Delta-E=       -0.177853856721 Rises=F Damp=F
 DIIS: error= 1.96D-02 at cycle  10 NSaved=  10.
 NSaved=10 IEnMin=10 EnMin= -2559.48315140499     IErMin=10 ErrMin= 1.96D-02
 ErrMax= 1.96D-02  0.00D+00 EMaxC= 1.00D-01 BMatC= 2.20D-01 BMatP= 7.50D-01
 IDIUse=3 WtCom= 8.04D-01 WtEn= 1.96D-01
 Coeff-Com: -0.433D-01 0.671D-01-0.157D-03-0.700D-02-0.372D-02 0.658D-01
 Coeff-Com: -0.388D-02 0.117D+00 0.326D+00 0.482D+00
 Coeff-En:   0.000D+00 0.000D+00 0.000D+00 0.000D+00 0.000D+00 0.000D+00
 Coeff-En:   0.000D+00 0.000D+00 0.196D+00 0.804D+00
 Coeff:     -0.348D-01 0.539D-01-0.126D-03-0.563D-02-0.299D-02 0.529D-01
 Coeff:     -0.312D-02 0.939D-01 0.301D+00 0.545D+00
 Gap=     0.100 Goal=   None    Shift=    0.000
 Gap=     0.025 Goal=   None    Shift=    0.000
 RMSDP=1.14D-03 MaxDP=6.09D-02 DE=-1.78D-01 OVMax= 2.50D-01

 Cycle  11  Pass 1  IDiag  1:
 RMSU=  8.35D-04    CP:  8.77D-01  1.93D-03  1.18D-01  4.48D-01  2.10D-01
                    CP:  4.66D-01  1.72D-01  7.36D-01  5.69D-01  7.07D-01
 E= -2559.51847092968     Delta-E=       -0.035319524692 Rises=F Damp=F
 DIIS: error= 6.44D-03 at cycle  11 NSaved=  11.
 NSaved=11 IEnMin=11 EnMin= -2559.51847092968     IErMin=11 ErrMin= 6.44D-03
 ErrMax= 6.44D-03  0.00D+00 EMaxC= 1.00D-01 BMatC= 5.10D-02 BMatP= 2.20D-01
 IDIUse=3 WtCom= 9.36D-01 WtEn= 6.44D-02
 Coeff-Com: -0.326D-01 0.571D-01-0.174D-02-0.104D-01-0.677D-02 0.333D-01
 Coeff-Com: -0.542D-02 0.454D-01 0.173D+00 0.367D+00 0.381D+00
 Coeff-En:   0.000D+00 0.000D+00 0.000D+00 0.000D+00 0.000D+00 0.000D+00
 Coeff-En:   0.000D+00 0.000D+00 0.000D+00 0.147D+00 0.853D+00
 Coeff:     -0.305D-01 0.534D-01-0.163D-02-0.974D-02-0.634D-02 0.311D-01
 Coeff:     -0.507D-02 0.425D-01 0.162D+00 0.353D+00 0.411D+00
 Gap=     0.103 Goal=   None    Shift=    0.000
 Gap=     0.034 Goal=   None    Shift=    0.000
 RMSDP=5.56D-04 MaxDP=3.57D-02 DE=-3.53D-02 OVMax= 1.05D-01

 Cycle  12  Pass 1  IDiag  1:
 RMSU=  2.61D-04    CP:  8.77D-01  9.05D-04  1.20D-01  4.45D-01  2.16D-01
                    CP:  4.69D-01  1.70D-01  7.44D-01  4.83D-01  8.76D-01
                    CP:  6.19D-01
 E= -2559.52023636458     Delta-E=       -0.001765434899 Rises=F Damp=F
 DIIS: error= 1.18D-02 at cycle  12 NSaved=  12.
 NSaved=12 IEnMin=12 EnMin= -2559.52023636458     IErMin=11 ErrMin= 6.44D-03
 ErrMax= 1.18D-02  0.00D+00 EMaxC= 1.00D-01 BMatC= 5.33D-02 BMatP= 5.10D-02
 IDIUse=3 WtCom= 9.36D-01 WtEn= 6.44D-02
 Coeff-Com: -0.327D-01 0.590D-01-0.203D-02-0.120D-01-0.580D-02 0.302D-01
 Coeff-Com: -0.620D-02 0.517D-01 0.139D+00 0.152D+00 0.244D+00 0.383D+00
 Coeff-En:   0.000D+00 0.000D+00 0.000D+00 0.000D+00 0.000D+00 0.000D+00
 Coeff-En:   0.000D+00 0.000D+00 0.000D+00 0.000D+00 0.434D+00 0.566D+00
 Coeff:     -0.306D-01 0.552D-01-0.190D-02-0.112D-01-0.542D-02 0.283D-01
 Coeff:     -0.580D-02 0.484D-01 0.130D+00 0.142D+00 0.256D+00 0.395D+00
 Gap=     0.106 Goal=   None    Shift=    0.000
 Gap=     0.036 Goal=   None    Shift=    0.000
 RMSDP=1.54D-04 MaxDP=9.79D-03 DE=-1.77D-03 OVMax= 3.74D-02

 Cycle  13  Pass 1  IDiag  1:
 RMSU=  1.18D-04    CP:  8.77D-01 -4.20D-04  1.19D-01  4.44D-01  2.15D-01
                    CP:  4.68D-01  1.70D-01  7.47D-01  4.86D-01  8.59D-01
                    CP:  6.90D-01  7.39D-01
 E= -2559.52259445561     Delta-E=       -0.002358091029 Rises=F Damp=F
 DIIS: error= 1.07D-02 at cycle  13 NSaved=  13.
 NSaved=13 IEnMin=13 EnMin= -2559.52259445561     IErMin=11 ErrMin= 6.44D-03
 ErrMax= 1.07D-02  0.00D+00 EMaxC= 1.00D-01 BMatC= 4.09D-02 BMatP= 5.10D-02
 IDIUse=3 WtCom= 9.36D-01 WtEn= 6.44D-02
 Coeff-Com: -0.318D-01 0.569D-01-0.120D-02-0.104D-01-0.567D-02 0.287D-01
 Coeff-Com: -0.483D-02 0.657D-01 0.111D+00-0.255D+00-0.253D+00-0.157D+00
 Coeff-Com:  0.146D+01
 Coeff-En:   0.000D+00 0.000D+00 0.000D+00 0.000D+00 0.000D+00 0.000D+00
 Coeff-En:   0.000D+00 0.000D+00 0.000D+00 0.000D+00 0.296D+00 0.000D+00
 Coeff-En:   0.704D+00
 Coeff:     -0.297D-01 0.532D-01-0.113D-02-0.971D-02-0.531D-02 0.269D-01
 Coeff:     -0.452D-02 0.614D-01 0.104D+00-0.239D+00-0.218D+00-0.146D+00
 Coeff:      0.141D+01
 Gap=     0.117 Goal=   None    Shift=    0.000
 Gap=     0.041 Goal=   None    Shift=    0.000
 RMSDP=2.07D-04 MaxDP=1.98D-02 DE=-2.36D-03 OVMax= 3.54D-02

 Cycle  14  Pass 1  IDiag  1:
 RMSU=  1.53D-04    CP:  8.77D-01 -1.90D-03  1.18D-01  4.42D-01  2.11D-01
                    CP:  4.67D-01  1.75D-01  7.56D-01  4.96D-01  8.12D-01
                    CP:  7.06D-01  9.73D-01  1.36D+00
 E= -2559.52560616896     Delta-E=       -0.003011713357 Rises=F Damp=F
 DIIS: error= 6.95D-03 at cycle  14 NSaved=  14.
 NSaved=14 IEnMin=14 EnMin= -2559.52560616896     IErMin=11 ErrMin= 6.44D-03
 ErrMax= 6.95D-03  0.00D+00 EMaxC= 1.00D-01 BMatC= 2.13D-02 BMatP= 4.09D-02
 IDIUse=3 WtCom= 9.36D-01 WtEn= 6.44D-02
 Coeff-Com: -0.274D-01 0.468D-01-0.644D-04-0.263D-02-0.353D-02 0.169D-01
 Coeff-Com: -0.274D-02 0.331D-01 0.479D-01-0.401D+00-0.481D+00-0.873D+00
 Coeff-Com:  0.159D+01 0.105D+01
 Coeff-En:   0.000D+00 0.000D+00 0.000D+00 0.000D+00 0.000D+00 0.000D+00
 Coeff-En:   0.000D+00 0.000D+00 0.000D+00 0.000D+00 0.636D-01 0.000D+00
 Coeff-En:   0.000D+00 0.936D+00
 Coeff:     -0.256D-01 0.438D-01-0.603D-04-0.246D-02-0.331D-02 0.158D-01
 Coeff:     -0.256D-02 0.309D-01 0.448D-01-0.375D+00-0.446D+00-0.817D+00
 Coeff:      0.149D+01 0.105D+01
 Gap=     0.117 Goal=   None    Shift=    0.000
 Gap=     0.043 Goal=   None    Shift=    0.000
 RMSDP=2.72D-04 MaxDP=1.26D-02 DE=-3.01D-03 OVMax= 7.00D-02

 Cycle  15  Pass 1  IDiag  1:
 RMSU=  1.59D-04    CP:  8.77D-01 -1.45D-03  1.17D-01  4.40D-01  2.09D-01
                    CP:  4.72D-01  1.69D-01  7.40D-01  5.06D-01  7.99D-01
                    CP:  8.31D-01  1.00D+00  2.76D+00  1.01D+00
 E= -2559.52837850151     Delta-E=       -0.002772332550 Rises=F Damp=F
 DIIS: error= 4.59D-03 at cycle  15 NSaved=  15.
 NSaved=15 IEnMin=15 EnMin= -2559.52837850151     IErMin=15 ErrMin= 4.59D-03
 ErrMax= 4.59D-03  0.00D+00 EMaxC= 1.00D-01 BMatC= 8.56D-03 BMatP= 2.13D-02
 IDIUse=3 WtCom= 9.54D-01 WtEn= 4.59D-02
 Coeff-Com: -0.119D-01 0.205D-01 0.238D-03-0.177D-02-0.125D-02 0.691D-02
 Coeff-Com: -0.710D-03 0.435D-02-0.158D-01-0.124D+00-0.174D+00-0.529D+00
 Coeff-Com: -0.775D-02 0.863D+00 0.970D+00
 Coeff-En:   0.000D+00 0.000D+00 0.000D+00 0.000D+00 0.000D+00 0.000D+00
 Coeff-En:   0.000D+00 0.000D+00 0.000D+00 0.000D+00 0.000D+00 0.000D+00
 Coeff-En:   0.000D+00 0.000D+00 0.100D+01
 Coeff:     -0.114D-01 0.196D-01 0.227D-03-0.169D-02-0.119D-02 0.659D-02
 Coeff:     -0.678D-03 0.415D-02-0.151D-01-0.118D+00-0.166D+00-0.505D+00
 Coeff:     -0.740D-02 0.823D+00 0.972D+00
 Gap=     0.113 Goal=   None    Shift=    0.000
 Gap=     0.043 Goal=   None    Shift=    0.000
 RMSDP=2.08D-04 MaxDP=1.07D-02 DE=-2.77D-03 OVMax= 4.45D-02

 Cycle  16  Pass 1  IDiag  1:
 RMSU=  1.20D-04    CP:  8.77D-01 -3.77D-05  1.16D-01  4.41D-01  2.06D-01
                    CP:  4.78D-01  1.65D-01  7.25D-01  4.85D-01  8.05D-01
                    CP:  9.22D-01  1.16D+00  3.00D+00  1.63D+00  1.13D+00
 E= -2559.52968254997     Delta-E=       -0.001304048455 Rises=F Damp=F
 DIIS: error= 2.13D-03 at cycle  16 NSaved=  16.
 NSaved=16 IEnMin=16 EnMin= -2559.52968254997     IErMin=16 ErrMin= 2.13D-03
 ErrMax= 2.13D-03  0.00D+00 EMaxC= 1.00D-01 BMatC= 2.05D-03 BMatP= 8.56D-03
 IDIUse=3 WtCom= 9.79D-01 WtEn= 2.13D-02
 Coeff-Com: -0.292D-02 0.544D-02 0.288D-04-0.221D-02 0.571D-03 0.132D-02
 Coeff-Com: -0.537D-03-0.182D-02-0.898D-02 0.353D-01 0.225D-01-0.699D-01
 Coeff-Com: -0.495D+00 0.207D+00 0.578D+00 0.732D+00
 Coeff-En:   0.000D+00 0.000D+00 0.000D+00 0.000D+00 0.000D+00 0.000D+00
 Coeff-En:   0.000D+00 0.000D+00 0.000D+00 0.000D+00 0.000D+00 0.000D+00
 Coeff-En:   0.000D+00 0.000D+00 0.000D+00 0.100D+01
 Coeff:     -0.286D-02 0.532D-02 0.282D-04-0.216D-02 0.559D-03 0.129D-02
 Coeff:     -0.525D-03-0.178D-02-0.879D-02 0.345D-01 0.221D-01-0.684D-01
 Coeff:     -0.485D+00 0.203D+00 0.566D+00 0.737D+00
 Gap=     0.112 Goal=   None    Shift=    0.000
 Gap=     0.043 Goal=   None    Shift=    0.000
 RMSDP=9.72D-05 MaxDP=5.17D-03 DE=-1.30D-03 OVMax= 2.18D-02

 Cycle  17  Pass 1  IDiag  1:
 RMSU=  6.79D-05    CP:  8.77D-01  2.04D-04  1.16D-01  4.40D-01  2.06D-01
                    CP:  4.80D-01  1.63D-01  7.20D-01  4.89D-01  8.00D-01
                    CP:  9.51D-01  1.13D+00  3.00D+00  1.67D+00  1.46D+00
                    CP:  1.01D+00
 E= -2559.53001155003     Delta-E=       -0.000329000062 Rises=F Damp=F
 DIIS: error= 8.88D-04 at cycle  17 NSaved=  17.
 NSaved=17 IEnMin=17 EnMin= -2559.53001155003     IErMin=17 ErrMin= 8.88D-04
 ErrMax= 8.88D-04  0.00D+00 EMaxC= 1.00D-01 BMatC= 4.95D-04 BMatP= 2.05D-03
 IDIUse=3 WtCom= 9.91D-01 WtEn= 8.88D-03
 Coeff-Com: -0.491D-03 0.902D-03-0.234D-04-0.616D-03 0.136D-03-0.455D-03
 Coeff-Com: -0.454D-04-0.187D-02 0.139D-01 0.370D-01 0.175D-01 0.335D-01
 Coeff-Com: -0.191D+00-0.110D-01 0.787D-02 0.381D+00 0.713D+00
 Coeff-En:   0.000D+00 0.000D+00 0.000D+00 0.000D+00 0.000D+00 0.000D+00
 Coeff-En:   0.000D+00 0.000D+00 0.000D+00 0.000D+00 0.000D+00 0.000D+00
 Coeff-En:   0.000D+00 0.000D+00 0.000D+00 0.000D+00 0.100D+01
 Coeff:     -0.487D-03 0.894D-03-0.232D-04-0.610D-03 0.135D-03-0.451D-03
 Coeff:     -0.450D-04-0.185D-02 0.138D-01 0.367D-01 0.174D-01 0.332D-01
 Coeff:     -0.189D+00-0.109D-01 0.780D-02 0.378D+00 0.716D+00
 Gap=     0.113 Goal=   None    Shift=    0.000
 Gap=     0.043 Goal=   None    Shift=    0.000
 RMSDP=5.42D-05 MaxDP=6.26D-03 DE=-3.29D-04 OVMax= 6.10D-03

 Cycle  18  Pass 1  IDiag  1:
 RMSU=  4.20D-05    CP:  8.77D-01  2.91D-04  1.16D-01  4.39D-01  2.06D-01
                    CP:  4.80D-01  1.64D-01  7.23D-01  4.90D-01  7.96D-01
                    CP:  9.32D-01  1.12D+00  3.00D+00  1.73D+00  1.43D+00
                    CP:  1.15D+00  8.03D-01
 E= -2559.53015053519     Delta-E=       -0.000138985160 Rises=F Damp=F
 DIIS: error= 1.49D-04 at cycle  18 NSaved=  18.
 NSaved=18 IEnMin=18 EnMin= -2559.53015053519     IErMin=18 ErrMin= 1.49D-04
 ErrMax= 1.49D-04  0.00D+00 EMaxC= 1.00D-01 BMatC= 5.77D-05 BMatP= 4.95D-04
 IDIUse=3 WtCom= 9.99D-01 WtEn= 1.49D-03
 Coeff-Com:  0.166D-03-0.299D-03-0.119D-04 0.626D-04-0.122D-03-0.451D-03
 Coeff-Com: -0.424D-04-0.720D-03 0.107D-01 0.187D-01 0.152D-01 0.321D-01
 Coeff-Com: -0.393D-01-0.265D-01-0.806D-01 0.740D-01 0.369D+00 0.628D+00
 Coeff-En:   0.000D+00 0.000D+00 0.000D+00 0.000D+00 0.000D+00 0.000D+00
 Coeff-En:   0.000D+00 0.000D+00 0.000D+00 0.000D+00 0.000D+00 0.000D+00
 Coeff-En:   0.000D+00 0.000D+00 0.000D+00 0.000D+00 0.000D+00 0.100D+01
 Coeff:      0.166D-03-0.299D-03-0.118D-04 0.625D-04-0.122D-03-0.451D-03
 Coeff:     -0.424D-04-0.719D-03 0.107D-01 0.186D-01 0.152D-01 0.321D-01
 Coeff:     -0.392D-01-0.264D-01-0.805D-01 0.739D-01 0.368D+00 0.629D+00
 Gap=     0.113 Goal=   None    Shift=    0.000
 Gap=     0.043 Goal=   None    Shift=    0.000
 RMSDP=3.11D-05 MaxDP=2.70D-03 DE=-1.39D-04 OVMax= 3.20D-03

 Cycle  19  Pass 1  IDiag  1:
 RMSU=  2.44D-05    CP:  8.77D-01  2.93D-04  1.16D-01  4.39D-01  2.06D-01
                    CP:  4.79D-01  1.64D-01  7.24D-01  4.93D-01  7.91D-01
                    CP:  9.29D-01  1.09D+00  3.00D+00  1.69D+00  1.43D+00
                    CP:  1.15D+00  9.51D-01  9.70D-01
 E= -2559.53017352211     Delta-E=       -0.000022986915 Rises=F Damp=F
 DIIS: error= 2.34D-04 at cycle  19 NSaved=  19.
 NSaved=19 IEnMin=19 EnMin= -2559.53017352211     IErMin=18 ErrMin= 1.49D-04
 ErrMax= 2.34D-04  0.00D+00 EMaxC= 1.00D-01 BMatC= 2.99D-05 BMatP= 5.77D-05
 IDIUse=3 WtCom= 9.99D-01 WtEn= 1.49D-03
 Coeff-Com:  0.112D-03-0.178D-03-0.152D-04 0.136D-03-0.343D-04 0.335D-03
 Coeff-Com: -0.883D-04 0.577D-03 0.730D-03 0.455D-02 0.159D-01 0.178D-01
 Coeff-Com:  0.760D-03-0.332D-02-0.199D-01-0.548D-01-0.221D-01 0.345D+00
 Coeff-Com:  0.714D+00
 Coeff-En:   0.000D+00 0.000D+00 0.000D+00 0.000D+00 0.000D+00 0.000D+00
 Coeff-En:   0.000D+00 0.000D+00 0.000D+00 0.000D+00 0.000D+00 0.000D+00
 Coeff-En:   0.000D+00 0.000D+00 0.000D+00 0.000D+00 0.000D+00 0.000D+00
 Coeff-En:   0.100D+01
 Coeff:      0.112D-03-0.178D-03-0.151D-04 0.136D-03-0.342D-04 0.335D-03
 Coeff:     -0.882D-04 0.576D-03 0.729D-03 0.454D-02 0.159D-01 0.177D-01
 Coeff:      0.759D-03-0.331D-02-0.199D-01-0.547D-01-0.220D-01 0.345D+00
 Coeff:      0.715D+00
 Gap=     0.113 Goal=   None    Shift=    0.000
 Gap=     0.042 Goal=   None    Shift=    0.000
 RMSDP=1.74D-05 MaxDP=1.45D-03 DE=-2.30D-05 OVMax= 3.45D-03

 Cycle  20  Pass 1  IDiag  1:
 RMSU=  1.05D-05    CP:  8.77D-01  2.19D-04  1.16D-01  4.39D-01  2.06D-01
                    CP:  4.79D-01  1.64D-01  7.24D-01  4.93D-01  7.91D-01
                    CP:  9.25D-01  1.07D+00  3.00D+00  1.66D+00  1.41D+00
                    CP:  1.14D+00  9.00D-01  1.20D+00  1.12D+00
 E= -2559.53018160414     Delta-E=       -0.000008082032 Rises=F Damp=F
 DIIS: error= 1.26D-04 at cycle  20 NSaved=  20.
 NSaved=20 IEnMin=20 EnMin= -2559.53018160414     IErMin=20 ErrMin= 1.26D-04
 ErrMax= 1.26D-04  0.00D+00 EMaxC= 1.00D-01 BMatC= 7.57D-06 BMatP= 2.99D-05
 IDIUse=3 WtCom= 9.99D-01 WtEn= 1.26D-03
 Coeff-Com: -0.108D-04 0.216D-04 0.578D-06 0.277D-04-0.398D-05 0.141D-03
 Coeff-Com: -0.220D-04 0.819D-04-0.119D-02 0.145D-02 0.844D-02 0.141D-01
 Coeff-Com:  0.142D-02-0.741D-02-0.415D-02-0.246D-01-0.340D-01 0.773D-01
 Coeff-Com:  0.269D+00 0.700D+00
 Coeff-En:   0.000D+00 0.000D+00 0.000D+00 0.000D+00 0.000D+00 0.000D+00
 Coeff-En:   0.000D+00 0.000D+00 0.000D+00 0.000D+00 0.000D+00 0.000D+00
 Coeff-En:   0.000D+00 0.000D+00 0.000D+00 0.000D+00 0.000D+00 0.000D+00
 Coeff-En:   0.000D+00 0.100D+01
 Coeff:     -0.108D-04 0.216D-04 0.577D-06 0.277D-04-0.397D-05 0.141D-03
 Coeff:     -0.219D-04 0.818D-04-0.119D-02 0.145D-02 0.843D-02 0.141D-01
 Coeff:      0.142D-02-0.740D-02-0.414D-02-0.246D-01-0.339D-01 0.772D-01
 Coeff:      0.268D+00 0.700D+00
 Gap=     0.113 Goal=   None    Shift=    0.000
 Gap=     0.042 Goal=   None    Shift=    0.000
 RMSDP=6.17D-06 MaxDP=7.01D-04 DE=-8.08D-06 OVMax= 9.07D-04

 Cycle  21  Pass 1  IDiag  1:
 Restarting incremental Fock formation.
 E= -2559.53018357630     Delta-E=       -0.000001972157 Rises=F Damp=F
 DIIS: error= 3.37D-05 at cycle  21 NSaved=  20.
 NSaved=20 IEnMin=20 EnMin= -2559.53018357630     IErMin=20 ErrMin= 3.37D-05
 ErrMax= 3.37D-05  0.00D+00 EMaxC= 1.00D-01 BMatC= 1.28D-06 BMatP= 7.57D-06
 IDIUse=1 WtCom= 1.00D+00 WtEn= 0.00D+00
 Coeff-Com: -0.738D-04 0.121D-03-0.182D-04 0.398D-05-0.329D-04 0.126D-04
 Coeff-Com: -0.947D-04-0.630D-03 0.117D-03 0.113D-02 0.816D-02 0.173D-02
 Coeff-Com: -0.633D-02-0.318D-02-0.260D-02-0.954D-02-0.187D-01-0.191D-01
 Coeff-Com:  0.353D+00 0.696D+00
 Coeff:     -0.738D-04 0.121D-03-0.182D-04 0.398D-05-0.329D-04 0.126D-04
 Coeff:     -0.947D-04-0.630D-03 0.117D-03 0.113D-02 0.816D-02 0.173D-02
 Coeff:     -0.633D-02-0.318D-02-0.260D-02-0.954D-02-0.187D-01-0.191D-01
 Coeff:      0.353D+00 0.696D+00
 Gap=     0.113 Goal=   None    Shift=    0.000
 Gap=     0.042 Goal=   None    Shift=    0.000
 RMSDP=4.33D-06 MaxDP=3.93D-04 DE=-1.97D-06 OVMax= 8.74D-04

 Cycle  22  Pass 1  IDiag  1:
 RMSU=  4.33D-06    CP:  1.00D+00
 E= -2559.53018413273     Delta-E=       -0.000000556435 Rises=F Damp=F
 DIIS: error= 3.84D-05 at cycle  22 NSaved=  20.
 NSaved=20 IEnMin=20 EnMin= -2559.53018413273     IErMin=19 ErrMin= 3.37D-05
 ErrMax= 3.84D-05  0.00D+00 EMaxC= 1.00D-01 BMatC= 9.44D-07 BMatP= 1.28D-06
 IDIUse=1 WtCom= 1.00D+00 WtEn= 0.00D+00
 Coeff-Com:  0.182D-05-0.235D-04-0.247D-06-0.655D-04 0.158D-04 0.108D-03
 Coeff-Com:  0.539D-04-0.466D-03-0.276D-02 0.905D-03 0.141D-02 0.474D-03
 Coeff-Com: -0.360D-02-0.274D-02-0.511D-02-0.781D-02-0.516D-01-0.212D-01
 Coeff-Com:  0.386D+00 0.707D+00
 Coeff:      0.182D-05-0.235D-04-0.247D-06-0.655D-04 0.158D-04 0.108D-03
 Coeff:      0.539D-04-0.466D-03-0.276D-02 0.905D-03 0.141D-02 0.474D-03
 Coeff:     -0.360D-02-0.274D-02-0.511D-02-0.781D-02-0.516D-01-0.212D-01
 Coeff:      0.386D+00 0.707D+00
 Gap=     0.113 Goal=   None    Shift=    0.000
 Gap=     0.042 Goal=   None    Shift=    0.000
 RMSDP=3.70D-06 MaxDP=1.66D-04 DE=-5.56D-07 OVMax= 9.40D-04

 Cycle  23  Pass 1  IDiag  1:
 RMSU=  3.13D-06    CP:  1.00D+00  1.46D+00
 E= -2559.53018452213     Delta-E=       -0.000000389399 Rises=F Damp=F
 DIIS: error= 3.08D-05 at cycle  23 NSaved=  20.
 NSaved=20 IEnMin=20 EnMin= -2559.53018452213     IErMin=20 ErrMin= 3.08D-05
 ErrMax= 3.08D-05  0.00D+00 EMaxC= 1.00D-01 BMatC= 5.58D-07 BMatP= 9.44D-07
 IDIUse=1 WtCom= 1.00D+00 WtEn= 0.00D+00
 Coeff-Com:  0.164D-05-0.160D-04-0.295D-04 0.832D-05 0.211D-03 0.207D-03
 Coeff-Com: -0.629D-03-0.289D-02-0.289D-02 0.816D-03 0.574D-02-0.873D-03
 Coeff-Com: -0.668D-02-0.102D-01 0.132D-01-0.943D-03-0.103D+00 0.250D-01
 Coeff-Com:  0.313D+00 0.769D+00
 Coeff:      0.164D-05-0.160D-04-0.295D-04 0.832D-05 0.211D-03 0.207D-03
 Coeff:     -0.629D-03-0.289D-02-0.289D-02 0.816D-03 0.574D-02-0.873D-03
 Coeff:     -0.668D-02-0.102D-01 0.132D-01-0.943D-03-0.103D+00 0.250D-01
 Coeff:      0.313D+00 0.769D+00
 Gap=     0.113 Goal=   None    Shift=    0.000
 Gap=     0.042 Goal=   None    Shift=    0.000
 RMSDP=3.14D-06 MaxDP=1.48D-04 DE=-3.89D-07 OVMax= 8.58D-04

 Cycle  24  Pass 1  IDiag  1:
 RMSU=  1.61D-06    CP:  1.00D+00  1.79D+00  1.73D+00
 E= -2559.53018479472     Delta-E=       -0.000000272586 Rises=F Damp=F
 DIIS: error= 1.74D-05 at cycle  24 NSaved=  20.
 NSaved=20 IEnMin=20 EnMin= -2559.53018479472     IErMin=20 ErrMin= 1.74D-05
 ErrMax= 1.74D-05  0.00D+00 EMaxC= 1.00D-01 BMatC= 2.12D-07 BMatP= 5.58D-07
 IDIUse=1 WtCom= 1.00D+00 WtEn= 0.00D+00
 Coeff-Com:  0.339D-05 0.152D-05-0.248D-05 0.373D-04 0.350D-04 0.527D-03
 Coeff-Com:  0.448D-03-0.166D-02-0.271D-02 0.479D-02 0.207D-02-0.663D-02
 Coeff-Com: -0.967D-02 0.269D-01 0.567D-01-0.282D-01-0.277D+00-0.562D+00
 Coeff-Com:  0.407D+00 0.139D+01
 Coeff:      0.339D-05 0.152D-05-0.248D-05 0.373D-04 0.350D-04 0.527D-03
 Coeff:      0.448D-03-0.166D-02-0.271D-02 0.479D-02 0.207D-02-0.663D-02
 Coeff:     -0.967D-02 0.269D-01 0.567D-01-0.282D-01-0.277D+00-0.562D+00
 Coeff:      0.407D+00 0.139D+01
 Gap=     0.113 Goal=   None    Shift=    0.000
 Gap=     0.042 Goal=   None    Shift=    0.000
 RMSDP=5.66D-06 MaxDP=2.99D-04 DE=-2.73D-07 OVMax= 1.70D-03

 Cycle  25  Pass 1  IDiag  1:
 RMSU=  1.37D-06    CP:  1.00D+00  2.37D+00  3.00D+00  2.16D+00
 E= -2559.53018504600     Delta-E=       -0.000000251284 Rises=F Damp=F
 DIIS: error= 4.93D-06 at cycle  25 NSaved=  20.
 NSaved=20 IEnMin=20 EnMin= -2559.53018504600     IErMin=20 ErrMin= 4.93D-06
 ErrMax= 4.93D-06  0.00D+00 EMaxC= 1.00D-01 BMatC= 4.25D-08 BMatP= 2.12D-07
 IDIUse=1 WtCom= 1.00D+00 WtEn= 0.00D+00
 Coeff-Com:  0.391D-05 0.187D-04-0.124D-04-0.507D-04 0.382D-03 0.525D-03
 Coeff-Com: -0.348D-04-0.173D-02 0.133D-02 0.110D-02-0.184D-02-0.209D-02
 Coeff-Com:  0.127D-01 0.235D-01-0.235D-02-0.146D+00-0.367D+00 0.608D-01
 Coeff-Com:  0.764D+00 0.656D+00
 Coeff:      0.391D-05 0.187D-04-0.124D-04-0.507D-04 0.382D-03 0.525D-03
 Coeff:     -0.348D-04-0.173D-02 0.133D-02 0.110D-02-0.184D-02-0.209D-02
 Coeff:      0.127D-01 0.235D-01-0.235D-02-0.146D+00-0.367D+00 0.608D-01
 Coeff:      0.764D+00 0.656D+00
 Gap=     0.113 Goal=   None    Shift=    0.000
 Gap=     0.042 Goal=   None    Shift=    0.000
 RMSDP=1.72D-06 MaxDP=9.23D-05 DE=-2.51D-07 OVMax= 5.01D-04

 Cycle  26  Pass 1  IDiag  1:
 RMSU=  1.17D-06    CP:  1.00D+00  2.54D+00  3.00D+00  2.56D+00  1.58D+00
 E= -2559.53018507468     Delta-E=       -0.000000028676 Rises=F Damp=F
 DIIS: error= 1.06D-05 at cycle  26 NSaved=  20.
 NSaved=20 IEnMin=20 EnMin= -2559.53018507468     IErMin=19 ErrMin= 4.93D-06
 ErrMax= 1.06D-05  0.00D+00 EMaxC= 1.00D-01 BMatC= 5.09D-08 BMatP= 4.25D-08
 IDIUse=1 WtCom= 1.00D+00 WtEn= 0.00D+00
 Coeff-Com:  0.138D-04-0.250D-04-0.383D-04 0.102D-03-0.577D-04 0.114D-02
 Coeff-Com: -0.485D-03-0.153D-02-0.337D-03 0.257D-02 0.459D-02-0.231D-02
 Coeff-Com: -0.187D-01-0.114D-01 0.257D-01 0.385D-01-0.898D-01-0.896D-01
 Coeff-Com:  0.342D+00 0.800D+00
 Coeff:      0.138D-04-0.250D-04-0.383D-04 0.102D-03-0.577D-04 0.114D-02
 Coeff:     -0.485D-03-0.153D-02-0.337D-03 0.257D-02 0.459D-02-0.231D-02
 Coeff:     -0.187D-01-0.114D-01 0.257D-01 0.385D-01-0.898D-01-0.896D-01
 Coeff:      0.342D+00 0.800D+00
 Gap=     0.113 Goal=   None    Shift=    0.000
 Gap=     0.042 Goal=   None    Shift=    0.000
 RMSDP=8.73D-07 MaxDP=4.81D-05 DE=-2.87D-08 OVMax= 2.49D-04

 Cycle  27  Pass 1  IDiag  1:
 RMSU=  3.94D-07    CP:  1.00D+00  2.63D+00  3.00D+00  2.66D+00  1.95D+00
                    CP:  1.34D+00
 E= -2559.53018509222     Delta-E=       -0.000000017538 Rises=F Damp=F
 DIIS: error= 5.94D-06 at cycle  27 NSaved=  20.
 NSaved=20 IEnMin=20 EnMin= -2559.53018509222     IErMin=18 ErrMin= 4.93D-06
 ErrMax= 5.94D-06  0.00D+00 EMaxC= 1.00D-01 BMatC= 1.63D-08 BMatP= 4.25D-08
 IDIUse=1 WtCom= 1.00D+00 WtEn= 0.00D+00
 Coeff-Com: -0.129D-04 0.456D-05-0.571D-04-0.301D-03 0.816D-03 0.265D-03
 Coeff-Com: -0.148D-02-0.727D-03 0.230D-02 0.421D-02-0.446D-02-0.217D-01
 Coeff-Com: -0.164D-01 0.682D-01 0.179D+00-0.424D-01-0.355D+00-0.208D+00
 Coeff-Com:  0.251D+00 0.114D+01
 Coeff:     -0.129D-04 0.456D-05-0.571D-04-0.301D-03 0.816D-03 0.265D-03
 Coeff:     -0.148D-02-0.727D-03 0.230D-02 0.421D-02-0.446D-02-0.217D-01
 Coeff:     -0.164D-01 0.682D-01 0.179D+00-0.424D-01-0.355D+00-0.208D+00
 Coeff:      0.251D+00 0.114D+01
 Gap=     0.113 Goal=   None    Shift=    0.000
 Gap=     0.042 Goal=   None    Shift=    0.000
 RMSDP=8.74D-07 MaxDP=4.65D-05 DE=-1.75D-08 OVMax= 2.39D-04

 Cycle  28  Pass 1  IDiag  1:
 RMSU=  2.40D-07    CP:  1.00D+00  2.72D+00  3.00D+00  2.74D+00  2.30D+00
                    CP:  1.70D+00  1.92D+00
 E= -2559.53018510066     Delta-E=       -0.000000008441 Rises=F Damp=F
 DIIS: error= 5.44D-07 at cycle  28 NSaved=  20.
 NSaved=20 IEnMin=20 EnMin= -2559.53018510066     IErMin=20 ErrMin= 5.44D-07
 ErrMax= 5.44D-07  0.00D+00 EMaxC= 1.00D-01 BMatC= 1.29D-09 BMatP= 1.63D-08
 IDIUse=1 WtCom= 1.00D+00 WtEn= 0.00D+00
 Coeff-Com:  0.831D-05-0.301D-05-0.742D-04 0.329D-03 0.117D-03-0.528D-03
 Coeff-Com: -0.297D-03 0.564D-03 0.122D-02-0.800D-03-0.659D-02-0.605D-02
 Coeff-Com:  0.279D-01 0.747D-01-0.844D-02-0.154D+00-0.196D+00-0.409D-01
 Coeff-Com:  0.682D+00 0.626D+00
 Coeff:      0.831D-05-0.301D-05-0.742D-04 0.329D-03 0.117D-03-0.528D-03
 Coeff:     -0.297D-03 0.564D-03 0.122D-02-0.800D-03-0.659D-02-0.605D-02
 Coeff:      0.279D-01 0.747D-01-0.844D-02-0.154D+00-0.196D+00-0.409D-01
 Coeff:      0.682D+00 0.626D+00
 Gap=     0.113 Goal=   None    Shift=    0.000
 Gap=     0.042 Goal=   None    Shift=    0.000
 RMSDP=3.40D-07 MaxDP=2.01D-05 DE=-8.44D-09 OVMax= 1.04D-04

 Cycle  29  Pass 1  IDiag  1:
 RMSU=  8.58D-08    CP:  1.00D+00  2.75D+00  3.00D+00  2.80D+00  2.45D+00
                    CP:  1.85D+00  2.15D+00  1.09D+00
 E= -2559.53018510178     Delta-E=       -0.000000001128 Rises=F Damp=F
 DIIS: error= 2.46D-07 at cycle  29 NSaved=  20.
 NSaved=20 IEnMin=20 EnMin= -2559.53018510178     IErMin=20 ErrMin= 2.46D-07
 ErrMax= 2.46D-07  0.00D+00 EMaxC= 1.00D-01 BMatC= 2.54D-10 BMatP= 1.29D-09
 IDIUse=1 WtCom= 1.00D+00 WtEn= 0.00D+00
 Coeff-Com:  0.205D-04 0.269D-04-0.650D-05-0.699D-04 0.146D-03 0.688D-04
 Coeff-Com: -0.275D-03-0.480D-03 0.755D-03 0.125D-02 0.175D-02 0.275D-03
 Coeff-Com: -0.104D-01 0.766D-03 0.179D-01-0.419D-01-0.608D-01 0.346D-01
 Coeff-Com:  0.243D+00 0.813D+00
 Coeff:      0.205D-04 0.269D-04-0.650D-05-0.699D-04 0.146D-03 0.688D-04
 Coeff:     -0.275D-03-0.480D-03 0.755D-03 0.125D-02 0.175D-02 0.275D-03
 Coeff:     -0.104D-01 0.766D-03 0.179D-01-0.419D-01-0.608D-01 0.346D-01
 Coeff:      0.243D+00 0.813D+00
 Gap=     0.113 Goal=   None    Shift=    0.000
 Gap=     0.042 Goal=   None    Shift=    0.000
 RMSDP=1.38D-07 MaxDP=7.69D-06 DE=-1.13D-09 OVMax= 4.21D-05

 Cycle  30  Pass 1  IDiag  1:
 RMSU=  6.07D-08    CP:  1.00D+00  2.76D+00  3.00D+00  2.83D+00  2.51D+00
                    CP:  1.91D+00  2.23D+00  1.14D+00  1.26D+00
 E= -2559.53018510204     Delta-E=       -0.000000000254 Rises=F Damp=F
 DIIS: error= 1.66D-07 at cycle  30 NSaved=  20.
 NSaved=20 IEnMin=20 EnMin= -2559.53018510204     IErMin=20 ErrMin= 1.66D-07
 ErrMax= 1.66D-07  0.00D+00 EMaxC= 1.00D-01 BMatC= 1.12D-10 BMatP= 2.54D-10
 IDIUse=1 WtCom= 1.00D+00 WtEn= 0.00D+00
 Coeff-Com:  0.935D-06-0.805D-04-0.308D-04 0.226D-03 0.770D-04-0.300D-03
 Coeff-Com: -0.538D-03 0.663D-03 0.177D-02 0.182D-02-0.474D-02-0.215D-01
 Coeff-Com:  0.498D-03 0.434D-01 0.222D-01-0.131D-01-0.162D+00-0.641D-01
 Coeff-Com:  0.428D+00 0.769D+00
 Coeff:      0.935D-06-0.805D-04-0.308D-04 0.226D-03 0.770D-04-0.300D-03
 Coeff:     -0.538D-03 0.663D-03 0.177D-02 0.182D-02-0.474D-02-0.215D-01
 Coeff:      0.498D-03 0.434D-01 0.222D-01-0.131D-01-0.162D+00-0.641D-01
 Coeff:      0.428D+00 0.769D+00
 Gap=     0.113 Goal=   None    Shift=    0.000
 Gap=     0.042 Goal=   None    Shift=    0.000
 RMSDP=1.03D-07 MaxDP=5.63D-06 DE=-2.54D-10 OVMax= 2.99D-05

 Cycle  31  Pass 1  IDiag  1:
 RMSU=  2.63D-08    CP:  1.00D+00  2.77D+00  3.00D+00  2.85D+00  2.55D+00
                    CP:  1.95D+00  2.27D+00  1.20D+00  1.60D+00  1.34D+00
 E= -2559.53018510214     Delta-E=       -0.000000000106 Rises=F Damp=F
 DIIS: error= 1.04D-07 at cycle  31 NSaved=  20.
 NSaved=20 IEnMin=20 EnMin= -2559.53018510214     IErMin=20 ErrMin= 1.04D-07
 ErrMax= 1.04D-07  0.00D+00 EMaxC= 1.00D-01 BMatC= 3.24D-11 BMatP= 1.12D-10
 IDIUse=1 WtCom= 1.00D+00 WtEn= 0.00D+00
 Coeff-Com: -0.262D-04-0.216D-04 0.107D-03 0.218D-04-0.155D-03-0.246D-03
 Coeff-Com:  0.422D-03 0.111D-02 0.845D-03-0.372D-02-0.140D-01 0.663D-03
 Coeff-Com:  0.285D-01 0.271D-01 0.930D-02-0.119D+00-0.115D+00 0.220D-01
 Coeff-Com:  0.413D+00 0.749D+00
 Coeff:     -0.262D-04-0.216D-04 0.107D-03 0.218D-04-0.155D-03-0.246D-03
 Coeff:      0.422D-03 0.111D-02 0.845D-03-0.372D-02-0.140D-01 0.663D-03
 Coeff:      0.285D-01 0.271D-01 0.930D-02-0.119D+00-0.115D+00 0.220D-01
 Coeff:      0.413D+00 0.749D+00
 Gap=     0.113 Goal=   None    Shift=    0.000
 Gap=     0.042 Goal=   None    Shift=    0.000
 RMSDP=5.27D-08 MaxDP=3.07D-06 DE=-1.06D-10 OVMax= 1.68D-05

 Cycle  32  Pass 1  IDiag  1:
 RMSU=  1.62D-08    CP:  1.00D+00  2.77D+00  3.00D+00  2.86D+00  2.57D+00
                    CP:  1.97D+00  2.30D+00  1.23D+00  1.78D+00  1.62D+00
                    CP:  1.29D+00
 E= -2559.53018510217     Delta-E=       -0.000000000029 Rises=F Damp=F
 DIIS: error= 6.03D-08 at cycle  32 NSaved=  20.
 NSaved=20 IEnMin=20 EnMin= -2559.53018510217     IErMin=20 ErrMin= 6.03D-08
 ErrMax= 6.03D-08  0.00D+00 EMaxC= 1.00D-01 BMatC= 9.33D-12 BMatP= 3.24D-11
 IDIUse=1 WtCom= 1.00D+00 WtEn= 0.00D+00
 Coeff-Com: -0.114D-04 0.249D-04-0.436D-05-0.287D-04-0.106D-04 0.196D-03
 Coeff-Com:  0.382D-03-0.416D-04-0.195D-02-0.530D-02 0.556D-03 0.974D-02
 Coeff-Com:  0.107D-01 0.571D-02-0.336D-01-0.366D-01-0.506D-01-0.379D-01
 Coeff-Com:  0.264D+00 0.875D+00
 Coeff:     -0.114D-04 0.249D-04-0.436D-05-0.287D-04-0.106D-04 0.196D-03
 Coeff:      0.382D-03-0.416D-04-0.195D-02-0.530D-02 0.556D-03 0.974D-02
 Coeff:      0.107D-01 0.571D-02-0.336D-01-0.366D-01-0.506D-01-0.379D-01
 Coeff:      0.264D+00 0.875D+00
 Gap=     0.113 Goal=   None    Shift=    0.000
 Gap=     0.042 Goal=   None    Shift=    0.000
 RMSDP=4.14D-08 MaxDP=2.32D-06 DE=-2.91D-11 OVMax= 1.25D-05

 Cycle  33  Pass 1  IDiag  1:
 RMSU=  9.29D-09    CP:  1.00D+00  2.77D+00  3.00D+00  2.87D+00  2.58D+00
                    CP:  1.99D+00  2.30D+00  1.24D+00  1.87D+00  1.78D+00
                    CP:  1.64D+00  1.45D+00
 E= -2559.53018510219     Delta-E=       -0.000000000014 Rises=F Damp=F
 DIIS: error= 4.95D-08 at cycle  33 NSaved=  20.
 NSaved=20 IEnMin=20 EnMin= -2559.53018510219     IErMin=20 ErrMin= 4.95D-08
 ErrMax= 4.95D-08  0.00D+00 EMaxC= 1.00D-01 BMatC= 2.25D-12 BMatP= 9.33D-12
 IDIUse=1 WtCom= 1.00D+00 WtEn= 0.00D+00
 Coeff-Com:  0.234D-05-0.414D-05-0.155D-05 0.181D-04 0.522D-04 0.852D-05
 Coeff-Com: -0.287D-03-0.228D-03 0.372D-03 0.125D-02-0.576D-03-0.358D-02
 Coeff-Com: -0.333D-02 0.143D-01 0.235D-01 0.319D-02-0.127D+00-0.115D+00
 Coeff-Com:  0.204D+00 0.100D+01
 Coeff:      0.234D-05-0.414D-05-0.155D-05 0.181D-04 0.522D-04 0.852D-05
 Coeff:     -0.287D-03-0.228D-03 0.372D-03 0.125D-02-0.576D-03-0.358D-02
[...]
 00005,0.00001098,0.00003019,-0.00000836,0.00000450,0.00003386,-0.00003
 067,-0.00002397,0.00018866,0.00035137,-0.00034628,-0.00012475,-0.00000
 770,-0.00080206,-0.00280031,-0.00561272,0.00317755,-0.00084279,0.00058
 555,-0.00077960,-0.01841206,0.00806222,0.00524423,0.00029434,-0.011119
 50,-0.04772126,0.01664916,-0.00826820,0.00339000,0.00189267,0.00144032
 ,-0.00089805,-0.00012154,0.00021296,0.00005206,0.00012885,0.00004865,-
 0.00001866,0.00092504,-0.00023005,0.00026091,-0.00132551,-0.00426930,0
 .00015130,-0.00001216,0.00000828,0.00000357,0.00000061,0.00000400,0.00
 000232,-0.00000142,0.00000025,-0.00000098,-0.00000108,0.00000047,0.000
 00144,0.00000152,0.00000018,-0.00000425,-0.00000103,-0.00000091,-0.000
 00243,0.00187236,0.00277831,-0.00224865,0.00255469,0.01628386,0.040514
 91,0.00009192,0.00019512,-0.00026259,0.00001807,-0.00021686,0.00019062
 ,0.00012112,-0.00001399,0.00001988,-0.00000913,-0.00007254,0.00012575,
 -0.00001173,0.00007142,-0.00008376,0.00002601,-0.00008806,0.00011162,-
 0.00007469,0.00004793,-0.00000457,0.00001438,0.00000700,-0.00004179,-0
 .00005586,-0.00000098,0.00002691,0.00005978,0.00005589,-0.00000131,-0.
 00033595,-0.00004455,-0.00035289,-0.00084806,0.00103083,0.00057809,0.0
 0007499,-0.00015571,-0.00002302,0.00021320,-0.00001497,0.00017449,0.00
 027841,-0.00033925,-0.00024668,0.00055723,0.00079702,0.00229835,-0.017
 07619,0.01198138,0.00182055,-0.27522612,0.11448024,0.00229518,-0.00041
 210,0.00029448,-0.00164077,0.00218058,0.00171552,-0.00065280,0.0003971
 2,-0.00061983,-0.00016381,-0.00062411,-0.00181870,-0.00400319,0.000001
 79,0.00000396,-0.00000789,-0.00001392,-0.00000109,0.00000538,-0.000009
 40,0.00000404,0.00000107,-0.00000442,-0.00000117,0.00000789,-0.0000001
 3,-0.00000948,0.00001700,0.00000574,0.00001071,0.00000395,-0.00000564,
 0.00002358,-0.00007162,0.00040346,-0.00091145,-0.00065910,0.29022664,-
 0.00011783,-0.00004931,0.00025428,0.00003222,0.00018271,-0.00025062,-0
 .00007490,0.00002122,0.00000736,0.00000260,0.00004383,-0.00008013,0.00
 000553,-0.00003791,0.00006733,-0.00000725,0.00004657,-0.00006906,0.000
 04635,-0.00003641,0.00001561,-0.00002310,-0.00000563,0.00003136,0.0000
 1377,-0.00000190,-0.00001265,-0.00001783,0.00000643,0.00000203,0.00013
 416,-0.00019648,0.00006327,-0.00047403,0.00017919,-0.00020028,-0.00026
 119,0.00019846,0.00006000,0.00005173,-0.00009117,0.00000309,0.00023969
 ,0.00008697,0.00023189,-0.00199996,-0.00082816,0.00153795,-0.00944400,
 0.00757246,-0.00065091,0.11444995,-0.10669996,-0.01278204,0.02350548,-
 0.00632266,0.00021941,0.00050026,-0.00032345,-0.00628692,-0.00061349,-
 0.00030174,-0.00003918,-0.00050442,0.00157749,-0.00357146,-0.00000213,
 -0.00000151,0.00000491,0.00000568,-0.00000008,-0.00000212,0.00000425,-
 0.00000243,0.00000075,0.00000194,0.00000023,-0.00000337,-0.00000391,0.
 00000175,-0.00000238,-0.00000353,0.00000718,-0.00000800,0.00005973,0.0
 0009823,-0.00007216,0.00033499,0.00000839,0.00000212,-0.12555228,0.106
 53266,0.00001526,-0.00008138,0.00004014,-0.00010761,0.00007068,0.00003
 644,-0.00003966,0.00002709,-0.00000777,-0.00001919,0.00004311,-0.00006
 334,0.00001154,-0.00001958,0.00005484,-0.00001300,0.00004875,-0.000064
 32,0.00004193,-0.00002815,0.00000708,-0.00001422,-0.00000298,0.0000316
 8,0.00003973,-0.00001267,-0.00001906,-0.00004398,0.00002632,-0.0000302
 5,-0.00006625,-0.00021178,-0.00009367,-0.00050070,0.00040676,0.0003627
 9,-0.00010168,0.00038737,0.00021564,-0.00004940,-0.00013155,-0.0001820
 2,0.00024280,-0.00003076,0.00004768,-0.00003014,0.00272872,-0.00128512
 ,-0.01604267,0.00780807,0.00404140,0.00247204,-0.01275060,-0.04737240,
 0.01786935,-0.00901572,0.00392180,-0.00172895,-0.00592876,0.00186106,-
 0.00005995,-0.00017518,-0.00072405,-0.00318371,-0.00395726,0.00087862,
 -0.00000909,0.00000340,0.00000163,0.00000244,-0.00000050,-0.00000187,0
 .00000065,-0.00000113,0.00000052,0.00000040,-0.00000012,-0.00000127,0.
 00000036,0.00000325,-0.00000596,0.00000043,0.00000068,-0.00000820,-0.0
 0004413,-0.00009905,0.00011894,0.00036136,-0.00048084,-0.00009804,-0.0
 0091697,0.01849783,0.04069686,-0.00001102,0.00007876,-0.00002446,0.000
 04645,-0.00002676,0.00001553,0.00001522,-0.00001116,0.00002294,-0.0000
 0265,-0.00000477,0.00001183,0.00001606,-0.00001224,-0.00001931,0.00001
 561,-0.00001214,0.00001395,-0.00000546,0.00000386,0.00000837,-0.000010
 72,0.00001230,-0.00000831,-0.00000466,0.00001205,-0.00002075,0.0000017
 4,-0.00001892,-0.00003763,-0.00006114,0.00002284,0.00001154,0.00002282
 ,-0.00017330,0.00013379,-0.00016816,-0.00002008,-0.00008788,0.00011712
 ,-0.00003414,0.00008757,0.00010716,-0.00010948,0.00014341,0.00014014,0
 .00000776,-0.00003715,0.00154953,0.00256669,-0.00040916,0.00712733,0.0
 0305689,0.00373473,-0.21145359,-0.06604015,-0.12401205,-0.01512490,-0.
 01161095,-0.01706594,-0.00321078,0.00438714,0.00021609,0.00014817,0.00
 048601,0.00068743,0.00000099,0.00000132,-0.00000452,-0.00000720,0.0000
 0184,0.00000311,-0.00000636,0.00000271,0.00000033,-0.00000661,-0.00000
 213,0.00000558,-0.00000201,-0.00001067,0.00000780,0.00000414,0.0000151
 2,-0.00000655,0.00001391,0.00000018,0.00002092,0.00001319,0.00001526,-
 0.00003797,0.00034169,-0.00128076,0.00092090,0.22022046,0.00001324,0.0
 0003298,-0.00006350,-0.00000576,-0.00002842,0.00003202,0.00005112,0.00
 000632,0.00000034,0.00000289,-0.00003974,0.00004882,0.00000657,0.00001
 359,-0.00004277,0.00000904,-0.00004391,0.00006477,-0.00003721,0.000026
 49,-0.00000170,-0.00000149,0.00001861,-0.00001729,-0.00002173,-0.00000
 264,-0.00000526,-0.00002832,-0.00001481,0.00008098,-0.00001331,0.00012
 899,-0.00002929,-0.00002031,-0.00000781,0.00053699,0.00026296,-0.00015
 068,-0.00009803,-0.00001237,0.00005763,0.00002982,-0.00014123,-0.00050
 341,-0.00010178,-0.00100401,0.00027780,-0.00034741,0.00345903,-0.00028
 756,-0.00561501,-0.02000967,-0.00374827,-0.01444614,-0.06568726,-0.082
 50436,-0.06379600,0.01122540,0.00859697,0.00869423,0.00347900,0.000958
 65,-0.00234100,0.00022243,-0.00073186,-0.00001306,0.00000097,-0.000000
 75,-0.00000256,-0.00000406,-0.00000020,0.00000103,-0.00000282,0.000000
 98,0.00000037,-0.00000284,-0.00000047,0.00000172,-0.00000190,-0.000007
 99,0.00000571,0.00000830,-0.00000158,-0.00000902,-0.00008499,-0.000054
 85,-0.00005028,0.00005743,0.00004136,-0.00006461,-0.00073902,-0.000960
 31,0.00286018,0.06982697,0.07927695,0.00010000,0.00010652,-0.00027996,
 -0.00000248,-0.00020174,0.00023858,0.00008345,-0.00003374,-0.00000749,
 -0.00001205,-0.00004423,0.00010123,-0.00002702,0.00006804,-0.00006157,
 0.00000503,-0.00005103,0.00007260,-0.00005440,0.00003900,-0.00001758,0
 .00003420,-0.00000650,-0.00003773,-0.00002045,-0.00000764,0.00004651,0
 .00006659,0.00006090,-0.00005580,-0.00017295,-0.00003168,-0.00018932,-
 0.00014330,0.00056661,-0.00016700,0.00012877,-0.00029935,-0.00006334,0
 .00002933,0.00011678,0.00010110,0.00030540,-0.00002003,-0.00042834,-0.
 00090486,-0.00009774,-0.00019798,0.00018533,-0.00593337,0.00313450,-0.
 01551182,-0.00524047,-0.00640056,-0.12385743,-0.06386349,-0.13962003,0
 .00234078,-0.00056734,0.00403271,-0.00060306,-0.00195002,0.00349406,0.
 00062837,0.00025652,-0.00018295,0.00000084,0.00000419,-0.00000561,-0.0
 0000804,-0.00000008,0.00000353,-0.00000610,0.00000244,-0.00000008,-0.0
 0000172,0.00000037,0.00000493,0.00000442,-0.00000056,0.00000430,0.0000
 0390,0.00000211,0.00001087,-0.00006148,0.00001197,-0.00007124,0.000011
 60,-0.00006946,0.00009882,0.00137652,0.00261522,-0.00198970,0.13541028
 ,0.07282629,0.13962215,-0.00000700,-0.00006758,0.00001678,-0.00007031,
 0.00001973,0.00002877,-0.00001283,0.00001616,-0.00001827,-0.00001559,0
 .00003207,-0.00002108,0.00003168,-0.00001844,0.00000951,-0.00001203,0.
 00001094,0.00000384,0.00000145,0.00000477,0.00001426,-0.00000033,0.000
 00838,0.00002448,0.00001897,0.00001484,-0.00001547,-0.00004059,0.00000
 651,0.00000830,0.00018324,-0.00000407,-0.00005039,0.00074046,-0.000726
 36,-0.00042933,-0.00016189,-0.00004683,0.00016939,-0.00011804,-0.00009
 795,-0.00028700,-0.00017732,0.00003541,-0.00009133,0.00015335,0.000042
 61,0.00040821,-0.00079339,-0.00041858,-0.00045941,-0.00425602,0.002702
 56,-0.00153314,0.00067195,0.02252714,0.01768936,-0.06308689,0.03596685
 ,0.02011505,0.00747619,-0.01971709,-0.01509494,-0.00294677,0.00039571,
 -0.00404652,-0.00001041,0.00000019,-0.00000131,-0.00000208,0.00000008,
 -0.00000219,-0.00000452,-0.00000338,0.00000020,-0.00000425,-0.00000361
 ,-0.00000125,-0.00000428,-0.00000757,-0.00000104,-0.00000659,0.0000086
 0,-0.00001347,0.00001216,0.00000154,0.00000014,0.00002255,-0.00005229,
 -0.00005132,-0.00012151,0.00107839,0.00078009,0.00092066,-0.00128851,0
 .00049799,0.06098767,0.00017505,0.00021926,-0.00048790,0.00005591,-0.0
 0039839,0.00042272,0.00018896,-0.00004112,0.00001620,-0.00001344,-0.00
 010848,0.00021796,0.00000929,0.00010313,-0.00018365,0.00003538,-0.0001
 4955,0.00021335,-0.00014997,0.00010668,-0.00000251,0.00005365,0.000030
 33,-0.00004765,-0.00006083,0.00004544,0.00003467,0.00006871,-0.0000031
 6,-0.00001219,-0.00030639,0.00036037,-0.00042428,0.00015200,0.00000241
 ,0.00005297,-0.00044046,-0.00054140,0.00002940,0.00030589,0.00017853,0
 .00030097,0.00031682,-0.00001114,-0.00006773,-0.00018535,-0.00053398,0
 .00009458,-0.00009820,0.00047239,0.00084708,0.00355355,0.00179226,-0.0
 0158325,-0.00068764,-0.00672092,-0.00865087,0.03563482,-0.22371600,-0.
 14026420,0.00319975,-0.00423800,-0.00582300,-0.00043421,0.00397125,-0.
 00398195,0.00000521,0.00000062,-0.00001150,-0.00001856,-0.00000257,0.0
 0000465,-0.00001402,0.00000166,-0.00000133,-0.00001096,-0.00000800,0.0
 0000692,-0.00000352,-0.00003324,0.00001748,0.00000527,-0.00002897,0.00
 000849,0.00001544,0.00000280,-0.00001961,0.00000679,0.00002252,-0.0000
 0794,-0.00001072,-0.00034175,-0.00048609,-0.00061418,-0.00063472,0.001
 82431,-0.03965944,0.23152349,0.00017317,0.00029068,-0.00045256,0.00005
 701,-0.00037736,0.00030635,0.00021863,-0.00003007,0.00001616,-0.000006
 97,-0.00012847,0.00023663,-0.00006038,0.00012310,-0.00015193,0.0000235
 5,-0.00012346,0.00018829,-0.00011660,0.00008494,-0.00002220,0.00003314
 ,0.00000014,-0.00006042,-0.00002683,-0.00000735,0.00006073,0.00011274,
 0.00008797,0.00001572,-0.00031664,0.00008198,-0.00009593,0.00023188,-0
 .00016515,0.00019076,-0.00001089,-0.00035128,-0.00081410,0.00023952,0.
 00014231,0.00023333,-0.00006351,-0.00002092,-0.00002044,0.00019934,0.0
 0031981,-0.00040910,-0.00014298,0.00068482,-0.00010311,-0.00093856,-0.
 00196234,0.00341399,-0.00167079,0.00048673,0.00310161,0.02002344,-0.14
 021601,-0.14653748,0.00382336,-0.01467363,-0.00644301,-0.00455066,-0.0
 0378863,0.00358611,0.00000794,-0.00000082,-0.00001642,-0.00002198,-0.0
 0000590,0.00000389,-0.00001448,0.00000208,-0.00000148,-0.00000268,-0.0
 0000156,0.00000654,0.00000605,-0.00000567,0.00000837,0.00001312,0.0000
 0627,0.00001730,0.00000011,-0.00001688,0.00001085,-0.00000319,-0.00004
 351,0.00002486,-0.00015022,-0.00005194,0.00013613,0.00107378,0.0015721
 9,-0.00139129,-0.01929854,0.15523895,0.14720670,-0.00011307,0.00002285
 ,0.00034999,0.00000462,-0.00027345,-0.00036630,0.00000172,0.00011300,0
 .00008505,0.00000012,0.00012379,-0.00010737,0.00031651,-0.00027851,-0.
 00001263,0.00000139,-0.00000050,0.00015171,-0.00004374,0.00002659,-0.0
 0002862,0.00002572,0.00007891,-0.00008383,-0.00026725,0.00004083,-0.00
 029811,-0.00186811,-0.00192493,-0.00038284,-0.00080534,-0.00102613,-0.
 00123270,-0.00084548,-0.00074703,0.00012251,-0.00026803,0.00005726,0.0
 0008621,0.00016911,0.00001823,0.00011688,0.00022976,-0.00005805,0.0000
 8709,-0.00018551,-0.00008202,-0.00034143,0.00151851,0.00092968,-0.0003
 6387,0.00053443,-0.00071935,-0.00019312,-0.00091437,-0.00116945,-0.004
 19878,-0.01526940,0.01211987,0.00179967,-0.28128576,0.11911913,0.00626
 184,0.00006791,0.00128098,-0.00045561,0.00000277,-0.00001159,0.0000095
 9,0.00000745,-0.00000004,-0.00000172,0.00000356,-0.00000203,-0.0000031
 4,0.00000449,0.00000985,-0.00000460,-0.00000507,0.00000189,-0.00000744
 ,-0.00000223,0.00005872,0.00003512,-0.00000489,0.00001524,0.00001065,0
 .00000116,0.00001954,0.00002308,-0.00013981,-0.00009991,0.00021116,-0.
 00073867,0.00047131,0.00018357,0.00059514,-0.00103663,0.00120369,0.299
 27838,0.00018191,0.00048392,-0.00082256,0.00025027,-0.00059499,0.00045
 311,0.00054483,-0.00005349,0.00006298,0.00010032,-0.00048661,0.0005559
 6,-0.00020761,0.00045586,-0.00041757,0.00010599,-0.00046368,0.00060361
 ,-0.00041783,0.00025636,-0.00006307,0.00007930,0.00013274,-0.00011996,
 -0.00020799,-0.00009925,0.00021630,-0.00072035,-0.00054992,0.00037320,
 -0.00101765,0.00100398,-0.00140917,-0.00035322,0.00062213,0.00283864,-
 0.00043308,-0.00150133,-0.00075492,0.00102775,0.00093237,0.00120663,0.
 00083622,-0.00020540,-0.00001026,0.00100217,-0.00079467,-0.00047350,0.
 00012939,-0.00056217,-0.00437804,-0.00083611,-0.00136605,-0.00096430,-
 0.00105492,0.00329419,-0.00433473,-0.01036358,0.00916568,-0.00054021,0
 .11760157,-0.10863371,-0.01434684,0.02217478,-0.00680794,-0.00053953,0
 .00004621,-0.00001361,-0.00000441,-0.00001358,-0.00002680,0.00001084,0
 .00000791,0.00000781,-0.00000708,0.00001544,-0.00000019,-0.00000374,0.
 00001186,-0.00003051,0.00000241,0.00005359,-0.00014519,0.00005932,0.00
 001560,0.00001494,-0.00001294,0.00003975,-0.00024134,-0.00027834,-0.00
 013850,-0.00036021,0.00050684,-0.00053177,0.00028981,-0.00008465,-0.00
 073101,-0.00136721,0.00285655,-0.12709279,0.10757480,0.00066712,0.0005
 6553,-0.00145315,-0.00026270,-0.00131751,0.00095310,0.00048815,0.00005
 958,-0.00003636,0.00000445,-0.00047387,0.00068009,-0.00009214,0.000273
 70,-0.00042107,0.00002746,-0.00030302,0.00044589,-0.00027886,0.0002174
 9,-0.00013234,0.00010216,0.00003393,-0.00027103,0.00000182,0.00009952,
 0.00014954,-0.00015207,-0.00008083,0.00033017,-0.00156741,0.00007921,-
 0.00136674,-0.00033300,0.00234496,-0.00012372,0.00028389,-0.00096503,-
 0.00081447,0.00060515,0.00076896,0.00088754,0.00049337,-0.00002613,-0.
 00020422,0.00084916,-0.00069890,-0.00025133,-0.00163622,-0.00426926,0.
 00063431,-0.00000697,-0.00044231,-0.00089832,-0.00380098,-0.00482836,0
 .00249481,-0.01717445,0.00796066,0.00496832,0.00591356,-0.01395477,-0.
 04661644,0.01746513,-0.00818314,0.00319808,0.00002750,-0.00000295,-0.0
 0001800,-0.00001068,0.00000114,-0.00000034,-0.00000987,0.00000493,-0.0
 0000657,0.00000434,0.00000909,0.00000902,0.00001762,0.00000244,0.00001
 718,-0.00004036,-0.00003790,0.00005935,0.00001183,-0.00002400,0.000021
 82,-0.00000857,-0.00033197,-0.00006855,0.00023985,0.00051553,-0.000521
 31,-0.00074595,0.00029274,0.00012028,0.00159350,0.00271606,-0.00227055
 ,-0.00257146,0.01993385,0.04034072,0.00240458,0.00798514,-0.00308269,-
 0.00370884,0.00076648,0.00926191,0.00070121,-0.00089275,0.00096296,-0.
 00065853,-0.00090016,0.00161401,-0.00007078,0.00073348,-0.00132884,0.0
 0001454,-0.00091100,0.00147749,-0.00087157,0.00070365,-0.00034076,0.00
 030384,-0.00002104,-0.00051554,-0.00032275,0.00002194,0.00021942,0.000
 13923,0.00017199,0.00046036,-0.00082614,0.00156396,-0.00232138,0.00053
 692,0.00380671,0.00235927,-0.01289676,-0.00121781,-0.01576197,0.002264
 87,0.01934626,-0.00602922,0.00184012,-0.00121096,-0.00009231,-0.001190
 75,-0.00192270,-0.00190174,0.00072152,0.00137986,0.00152536,-0.0006508
 5,-0.00176993,-0.00169619,-0.00102785,0.00118596,0.00060463,0.00059645
 ,0.00026436,0.00049248,-0.00043100,0.00004418,0.00004568,-0.00085005,-
 0.00005365,-0.00098435,0.00014206,0.00023716,-0.00007854,-0.00006642,0
 .00004873,0.00011992,-0.00003855,0.00002691,0.00000732,0.00000261,0.00
 001795,0.00002742,0.00003540,-0.00002811,0.00005002,0.00005664,-0.0000
 3698,0.00014928,0.00005357,0.00023731,-0.00001171,-0.00001857,0.000060
 70,-0.00007450,-0.00004335,0.00001378,0.00000085,-0.00000846,0.0000101
 6,-0.00000925,0.00003717,-0.00003798,-0.00004457,-0.00000601,-0.000104
 87,-0.00010435,0.01383650,-0.00066052,-0.08727449,-0.02842867,0.013744
 72,0.00121114,-0.02819279,-0.00505779,0.00156783,0.00358817,0.00014781
 ,0.00192545,-0.00335720,-0.00074033,-0.00115038,0.00258736,0.00028070,
 0.00140349,-0.00260059,0.00112678,-0.00121289,0.00085286,-0.00037131,-
 0.00024611,0.00065078,0.00017895,-0.00030958,0.00035928,0.00181571,-0.
 00060604,-0.00166533,-0.00081535,-0.00328193,0.00804195,-0.00212204,-0
 .00356068,-0.00624273,0.01459639,0.00752143,0.01543569,0.00942690,-0.0
 6835074,0.04179289,-0.00465397,0.00076830,-0.00170746,0.00082684,0.002
 04915,0.00196096,-0.00094878,-0.00139610,-0.00157094,0.00064227,0.0014
 9304,0.00156290,0.00067485,-0.00106650,-0.00061328,-0.00037513,-0.0002
 2730,-0.00037692,0.00003248,-0.00033220,-0.00015666,0.00144794,-0.0003
 5000,0.00078725,0.00031309,-0.00021140,-0.00005278,-0.00016612,-0.0000
 6196,0.00017272,0.00003382,0.00000876,-0.00000262,0.00002252,0.0000012
 6,0.00001162,-0.00004006,0.00004630,0.00001241,0.00002367,0.00008906,-
 0.00005455,0.00023809,-0.00020966,0.00002581,-0.00013428,-0.00006102,-
 0.00007416,0.00003000,-0.00000269,-0.00000496,0.00001592,-0.00000280,0
 .00000185,-0.00002978,0.00004545,-0.00000758,0.00001473,0.00006970,0.0
 0006064,-0.02951873,0.15171410,-0.00341441,-0.03570049,-0.00897688,0.0
 1571381,-0.00866343,-0.03227299,-0.00371893,0.00109327,0.00345166,-0.0
 0020660,0.00169616,-0.00331055,-0.00109954,-0.00079884,0.00216135,0.00
 047885,0.00140979,-0.00250939,0.00117505,-0.00122274,0.00081670,-0.000
 49395,-0.00050207,0.00061212,0.00042650,-0.00005753,0.00052453,0.00236
 967,-0.00008211,-0.00249807,-0.00201288,-0.00562195,0.00277059,0.00305
 755,0.00627134,0.00166257,-0.02564288,-0.00018745,-0.02944298,-0.00350
 366,0.04655128,-0.02803792,0.00549457,-0.00024242,0.00313718,-0.000531
 80,-0.00256420,-0.00288420,0.00175065,0.00128955,0.00160587,-0.0011299
 8,-0.00194406,-0.00192255,-0.00089424,0.00144306,0.00082171,0.00058716
 ,0.00063982,0.00029826,-0.00017491,0.00027758,0.00065762,-0.00327748,-
 0.00035973,-0.00176393,0.00029599,0.00001475,-0.00005086,-0.00021787,-
 0.00010457,0.00018807,0.00001602,0.00004198,-0.00000082,0.00002907,0.0
 0001840,0.00006615,-0.00005057,-0.00000399,0.00002589,0.00010687,0.000
 14660,0.00008102,-0.00039491,-0.00003281,0.00003331,0.00031378,0.00014
 648,0.00014010,-0.00001012,-0.00004670,0.00001511,-0.00001222,-0.00000
 350,0.00008140,0.00005612,0.00000888,0.00002572,-0.00008424,-0.0001144
 2,0.00016432,0.01499952,-0.00279593,0.09432988\\-0.00000401,-0.0000335
 6,0.00000018,-0.00002551,0.00001155,0.00003143,0.00002622,-0.00000096,
 -0.00001741,-0.00000284,-0.00000541,0.00000892,-0.00000045,0.00000632,
 -0.00000416,-0.00000206,0.00000139,-0.00000379,0.00000990,-0.00000572,
 -0.00000026,-0.00001203,0.00000174,0.00000428,-0.00000154,0.00000986,-
 0.00001932,0.00000411,-0.00001213,0.00002810,0.00001741,0.00001112,-0.
 00003352,-0.00002285,-0.00001812,-0.00002580,0.00003511,-0.00000546,0.
 00003074,-0.00000638,0.00002796,-0.00001247,-0.00003326,0.00000298,-0.
 00001650,0.00000585,0.00001040,0.00000765,-0.00000151,-0.00000986,-0.0
 0000420,0.00000179,-0.00000116,-0.00000176,-0.00000870,0.00000269,0.00
 000178,0.00001193,-0.00000233,0.00000250,-0.00000274,-0.00001606,-0.00
 001389,0.00000403,0.00002203,0.00002266,-0.00000519,0.00000134,0.00000
 546,0.00000075,0.00000250,-0.00000028,-0.00000030,-0.00000162,0.000002
 47,-0.00000284,-0.00000059,-0.00000071,0.00000281,-0.00000222,-0.00000
 167,-0.00000038,-0.00000285,0.00000346,0.00000652,0.00000195,0.0000018
 8,-0.00000113,-0.00000235,-0.00000042,0.00000081,0.00000116,0.00000162
 ,0.00000251,-0.00000189,0.00000019,-0.00000289,-0.00000016,0.00000107,
 0.00000095,0.00000272,0.00000405,0.00000588,0.00000474,-0.00000228\\\@
 The archive entry for this job was punched.


 THE WORLD OF CHEMICAL REACTIONS IS LIKE A STAGE,
 ON WHICH SCENE AFTER SCENE IS CEASELESSLY PLAYED.
 THE ACTORS ON IT ARE THE ELEMENTS.
   -- CLEMENS WINKLER   BER. 30,13(1897)
 (DISCOVERER OF GERMANIUM, FEB 6, 1886)
 Job cpu time:       0 days  2 hours 25 minutes 34.6 seconds.
 Elapsed time:       0 days  0 hours  4 minutes 34.7 seconds.
 File lengths (MBytes):  RWF=   1183 Int=      0 D2E=      0 Chk=     17 Scr=      2
 Normal termination of Gaussian 16 at Fri Mar  8 03:48:17 2024.
