 Entering Gaussian System, Link 0=g16
 Initial command:
 /public/software/apps/Gaussian/g16/l1.exe "/public/home/LJQ_HG/tmp/Gau-7267.inp" -scrdir="/public/home/LJQ_HG/tmp/"
 Entering Link 1 = /public/software/apps/Gaussian/g16/l1.exe PID=      7268.
  
 Copyright (c) 1988-2019, Gaussian, Inc.  All Rights Reserved.
  
 This is part of the Gaussian(R) 16 program.  It is based on
 the Gaussian(R) 09 system (copyright 2009, Gaussian, Inc.),
 the Gaussian(R) 03 system (copyright 2003, Gaussian, Inc.),
 the Gaussian(R) 98 system (copyright 1998, Gaussian, Inc.),
 the Gaussian(R) 94 system (copyright 1995, Gaussian, Inc.),
 the Gaussian 92(TM) system (copyright 1992, Gaussian, Inc.),
 the Gaussian 90(TM) system (copyright 1990, Gaussian, Inc.),
 the Gaussian 88(TM) system (copyright 1988, Gaussian, Inc.),
 the Gaussian 86(TM) system (copyright 1986, Carnegie Mellon
 University), and the Gaussian 82(TM) system (copyright 1983,
 Carnegie Mellon University). Gaussian is a federally registered
 trademark of Gaussian, Inc.
  
 This software contains proprietary and confidential information,
 including trade secrets, belonging to Gaussian, Inc.
  
 This software is provided under written license and may be
 used, copied, transmitted, or stored only in accord with that
 written license.
  
 The following legend is applicable only to US Government
 contracts under FAR:
  
                    RESTRICTED RIGHTS LEGEND
  
 Use, reproduction and disclosure by the US Government is
 subject to restrictions as set forth in subparagraphs (a)
 and (c) of the Commercial Computer Software - Restricted
 Rights clause in FAR 52.227-19.
  
 Gaussian, Inc.
 340 Quinnipiac St., Bldg. 40, Wallingford CT 06492
  
  
 ---------------------------------------------------------------
 Warning -- This program may not be used in any manner that
 competes with the business of Gaussian, Inc. or will provide
 assistance to any competitor of Gaussian, Inc.  The licensee
 of this program is prohibited from giving any competitor of
 Gaussian, Inc. access to this program.  By using this program,
 the user acknowledges that Gaussian, Inc. is engaged in the
 business of creating and licensing software in the field of
 computational chemistry and represents and warrants to the
 licensee that it is not a competitor of Gaussian, Inc. and that
 it will not use this program in any manner prohibited above.
 ---------------------------------------------------------------
  

 Cite this work as:
 Gaussian 16, Revision C.01,
 M. J. Frisch, G. W. Trucks, H. B. Schlegel, G. E. Scuseria, 
 M. A. Robb, J. R. Cheeseman, G. Scalmani, V. Barone, 
 G. A. Petersson, H. Nakatsuji, X. Li, M. Caricato, A. V. Marenich, 
 J. Bloino, B. G. Janesko, R. Gomperts, B. Mennucci, H. P. Hratchian, 
 J. V. Ortiz, A. F. Izmaylov, J. L. Sonnenberg, D. Williams-Young, 
 F. Ding, F. Lipparini, F. Egidi, J. Goings, B. Peng, A. Petrone, 
 T. Henderson, D. Ranasinghe, V. G. Zakrzewski, J. Gao, N. Rega, 
 G. Zheng, W. Liang, M. Hada, M. Ehara, K. Toyota, R. Fukuda, 
 J. Hasegawa, M. Ishida, T. Nakajima, Y. Honda, O. Kitao, H. Nakai, 
 T. Vreven, K. Throssell, J. A. Montgomery, Jr., J. E. Peralta, 
 F. Ogliaro, M. J. Bearpark, J. J. Heyd, E. N. Brothers, K. N. Kudin, 
 V. N. Staroverov, T. A. Keith, R. Kobayashi, J. Normand, 
 K. Raghavachari, A. P. Rendell, J. C. Burant, S. S. Iyengar, 
 J. Tomasi, M. Cossi, J. M. Millam, M. Klene, C. Adamo, R. Cammi, 
 J. W. Ochterski, R. L. Martin, K. Morokuma, O. Farkas, 
 J. B. Foresman, and D. J. Fox, Gaussian, Inc., Wallingford CT, 2019.
 
 ******************************************
 Gaussian 16:  ES64L-G16RevC.01  3-Jul-2019
                 8-Mar-2024 
 ******************************************
 %nprocshared=32
 Will use up to   32 processors via shared memory.
 %mem=100GB
 ------------------------------------------
 #p opt freq b3lyp/def2svpp em=gd3bj nosymm
 ------------------------------------------
 1/18=20,19=15,26=3,38=1/1,3;
 2/9=110,12=2,15=1,17=6,18=5,40=1/2;
 3/5=43,7=202,11=2,25=1,30=1,71=1,74=-5,124=41/1,2,3;
 4//1;
 5/5=2,38=5/2;
 6/7=2,8=2,9=2,10=2,28=1/1;
 7/30=1/1,2,3,16;
 1/18=20,19=15,26=3/3(2);
 2/9=110,15=1/2;
 99//99;
 2/9=110,15=1/2;
 3/5=43,7=202,11=2,25=1,30=1,71=1,74=-5,124=41/1,2,3;
 4/5=5,16=3,69=1/1;
 5/5=2,38=5/2;
 7/30=1/1,2,3,16;
 1/18=20,19=15,26=3/3(-5);
 2/9=110,15=1/2;
 6/7=2,8=2,9=2,10=2,19=2,28=1/1;
 99/9=1/99;
 Leave Link    1 at Fri Mar  8 02:50:04 2024, MaxMem= 13421772800 cpu:               1.8 elap:               0.1
 (Enter /public/software/apps/Gaussian/g16/l101.exe)
 ------------------
 $$$$Title####0????
 ------------------
 Symbolic Z-matrix:
 Charge =  0 Multiplicity = 2
 O                     0.47707  -0.14907   2.64251 
 C                     1.04168   0.80253   1.79748 
 C                     1.86052   1.81741   2.32735 
 N                     2.10708   1.90842   3.74337 
 C                     1.22546   1.72488   4.74259 
 C                     1.87795   1.95034   5.93308 
 N                     3.16241   2.28017   5.68945 
 C                     3.26581   2.24934   4.3445 
 C                     2.44869   2.74813   1.45992 
 C                     2.20031   2.70303   0.08277 
 C                     2.77489   3.66351  -0.76558 
 C                     2.51438   3.63829  -2.13625 
 C                     1.67582   2.66105  -2.67152 
 C                     1.09784   1.69786  -1.84153 
 C                     1.35947   1.6957   -0.45411 
 C                     0.79981   0.72388   0.41302 
 C                    -0.05187  -0.38421  -0.09962 
 C                    -1.42639  -0.37291   0.2038 
 O                    -1.93476   0.63001   1.02497 
 C                    -2.27935  -1.37814  -0.28915 
 N                    -3.69182  -1.35604  -0.00822 
 C                    -4.50751  -0.28656   0.00859 
 C                    -5.78212  -0.72715   0.28259 
 N                    -5.77495  -2.06706   0.43276 
 C                    -4.48563  -2.41736   0.24447 
 C                    -1.741    -2.41943  -1.05759 
 C                    -0.37072  -2.46914  -1.34048 
 C                     0.15044  -3.52842  -2.10119 
 C                     1.51731  -3.59335  -2.37432 
 C                     2.37576  -2.60771  -1.88838 
 C                     1.87291  -1.54657  -1.13221 
 C                     0.49134  -1.45293  -0.85642 
 H                     0.17905   1.47709   4.62141 
 H                     1.44131   1.88897   6.9208 
 H                     4.18419   2.46722   3.81452 
 H                     3.07826   3.53107   1.8664 
 H                     3.42204   4.43635  -0.36781 
 H                     2.95908   4.38225  -2.78457 
 H                     1.47073   2.65052  -3.73428 
 H                     0.44512   0.96296  -2.29368 
 H                    -4.21099   0.73455  -0.19259 
 H                    -6.66732  -0.11014   0.35819 
 H                    -4.13397  -3.43956   0.30091 
 H                    -2.3971   -3.19089  -1.44351 
 H                    -0.49894  -4.3084   -2.481 
 H                     1.91303  -4.41331  -2.95966 
 H                     3.43636  -2.66686  -2.09639 
 H                     2.57315  -0.8085   -0.76435 
 Cu                   -1.42255   0.279     2.88664 
 
 ITRead=  0  0  0  0  0  0  0  0  0  0  0  0  0  0  0  0  0  0  0  0
 ITRead=  0  0  0  0  0  0  0  0  0  0  0  0  0  0  0  0  0  0  0  0
 ITRead=  0  0  0  0  0  0  0  0  0
 MicOpt= -1 -1 -1 -1 -1 -1 -1 -1 -1 -1 -1 -1 -1 -1 -1 -1 -1 -1 -1 -1
 MicOpt= -1 -1 -1 -1 -1 -1 -1 -1 -1 -1 -1 -1 -1 -1 -1 -1 -1 -1 -1 -1
 MicOpt= -1 -1 -1 -1 -1 -1 -1 -1 -1
 NAtoms=     49 NQM=       49 NQMF=       0 NMMI=      0 NMMIF=      0
                NMic=       0 NMicF=      0.
                    Isotopes and Nuclear Properties:
 (Nuclear quadrupole moments (NQMom) in fm**2, nuclear magnetic moments (NMagM)
  in nuclear magnetons)

  Atom         1           2           3           4           5           6           7           8           9          10
 IAtWgt=          16          12          12          14          12          12          14          12          12          12
 AtmWgt=  15.9949146  12.0000000  12.0000000  14.0030740  12.0000000  12.0000000  14.0030740  12.0000000  12.0000000  12.0000000
 NucSpn=           0           0           0           2           0           0           2           0           0           0
 AtZEff=  -0.0000000  -0.0000000  -0.0000000  -0.0000000  -0.0000000  -0.0000000  -0.0000000  -0.0000000  -0.0000000  -0.0000000
 NQMom=    0.0000000   0.0000000   0.0000000   2.0440000   0.0000000   0.0000000   2.0440000   0.0000000   0.0000000   0.0000000
 NMagM=    0.0000000   0.0000000   0.0000000   0.4037610   0.0000000   0.0000000   0.4037610   0.0000000   0.0000000   0.0000000
 AtZNuc=   8.0000000   6.0000000   6.0000000   7.0000000   6.0000000   6.0000000   7.0000000   6.0000000   6.0000000   6.0000000

  Atom        11          12          13          14          15          16          17          18          19          20
 IAtWgt=          12          12          12          12          12          12          12          12          16          12
 AtmWgt=  12.0000000  12.0000000  12.0000000  12.0000000  12.0000000  12.0000000  12.0000000  12.0000000  15.9949146  12.0000000
 NucSpn=           0           0           0           0           0           0           0           0           0           0
 AtZEff=  -0.0000000  -0.0000000  -0.0000000  -0.0000000  -0.0000000  -0.0000000  -0.0000000  -0.0000000  -0.0000000  -0.0000000
 NQMom=    0.0000000   0.0000000   0.0000000   0.0000000   0.0000000   0.0000000   0.0000000   0.0000000   0.0000000   0.0000000
 NMagM=    0.0000000   0.0000000   0.0000000   0.0000000   0.0000000   0.0000000   0.0000000   0.0000000   0.0000000   0.0000000
 AtZNuc=   6.0000000   6.0000000   6.0000000   6.0000000   6.0000000   6.0000000   6.0000000   6.0000000   8.0000000   6.0000000

  Atom        21          22          23          24          25          26          27          28          29          30
 IAtWgt=          14          12          12          14          12          12          12          12          12          12
 AtmWgt=  14.0030740  12.0000000  12.0000000  14.0030740  12.0000000  12.0000000  12.0000000  12.0000000  12.0000000  12.0000000
 NucSpn=           2           0           0           2           0           0           0           0           0           0
 AtZEff=  -0.0000000  -0.0000000  -0.0000000  -0.0000000  -0.0000000  -0.0000000  -0.0000000  -0.0000000  -0.0000000  -0.0000000
 NQMom=    2.0440000   0.0000000   0.0000000   2.0440000   0.0000000   0.0000000   0.0000000   0.0000000   0.0000000   0.0000000
 NMagM=    0.4037610   0.0000000   0.0000000   0.4037610   0.0000000   0.0000000   0.0000000   0.0000000   0.0000000   0.0000000
 AtZNuc=   7.0000000   6.0000000   6.0000000   7.0000000   6.0000000   6.0000000   6.0000000   6.0000000   6.0000000   6.0000000

  Atom        31          32          33          34          35          36          37          38          39          40
 IAtWgt=          12          12           1           1           1           1           1           1           1           1
 AtmWgt=  12.0000000  12.0000000   1.0078250   1.0078250   1.0078250   1.0078250   1.0078250   1.0078250   1.0078250   1.0078250
 NucSpn=           0           0           1           1           1           1           1           1           1           1
 AtZEff=  -0.0000000  -0.0000000  -0.0000000  -0.0000000  -0.0000000  -0.0000000  -0.0000000  -0.0000000  -0.0000000  -0.0000000
 NQMom=    0.0000000   0.0000000   0.0000000   0.0000000   0.0000000   0.0000000   0.0000000   0.0000000   0.0000000   0.0000000
 NMagM=    0.0000000   0.0000000   2.7928460   2.7928460   2.7928460   2.7928460   2.7928460   2.7928460   2.7928460   2.7928460
 AtZNuc=   6.0000000   6.0000000   1.0000000   1.0000000   1.0000000   1.0000000   1.0000000   1.0000000   1.0000000   1.0000000

  Atom        41          42          43          44          45          46          47          48          49
 IAtWgt=           1           1           1           1           1           1           1           1          63
 AtmWgt=   1.0078250   1.0078250   1.0078250   1.0078250   1.0078250   1.0078250   1.0078250   1.0078250  62.9295992
 NucSpn=           1           1           1           1           1           1           1           1           3
 AtZEff=  -0.0000000  -0.0000000  -0.0000000  -0.0000000  -0.0000000  -0.0000000  -0.0000000  -0.0000000  -0.0000000
 NQMom=    0.0000000   0.0000000   0.0000000   0.0000000   0.0000000   0.0000000   0.0000000   0.0000000 -22.0000000
 NMagM=    2.7928460   2.7928460   2.7928460   2.7928460   2.7928460   2.7928460   2.7928460   2.7928460   2.2233000
 AtZNuc=   1.0000000   1.0000000   1.0000000   1.0000000   1.0000000   1.0000000   1.0000000   1.0000000  29.0000000
 Leave Link  101 at Fri Mar  8 02:50:05 2024, MaxMem= 13421772800 cpu:               3.4 elap:               0.1
 (Enter /public/software/apps/Gaussian/g16/l103.exe)

 GradGradGradGradGradGradGradGradGradGradGradGradGradGradGradGradGradGrad
 Berny optimization.
 Initialization pass.
                           ----------------------------
                           !    Initial Parameters    !
                           ! (Angstroms and Degrees)  !
 --------------------------                            --------------------------
 ! Name  Definition              Value          Derivative Info.                !
 --------------------------------------------------------------------------------
 ! R1    R(1,2)                  1.3923         estimate D2E/DX2                !
 ! R2    R(1,49)                 1.9625         estimate D2E/DX2                !
 ! R3    R(2,3)                  1.4076         estimate D2E/DX2                !
 ! R4    R(2,16)                 1.4076         estimate D2E/DX2                !
 ! R5    R(3,4)                  1.4402         estimate D2E/DX2                !
 ! R6    R(3,9)                  1.4016         estimate D2E/DX2                !
 ! R7    R(4,5)                  1.3451         estimate D2E/DX2                !
 ! R8    R(4,8)                  1.3492         estimate D2E/DX2                !
 ! R9    R(5,6)                  1.3762         estimate D2E/DX2                !
 ! R10   R(5,33)                 1.0822         estimate D2E/DX2                !
 ! R11   R(6,7)                  1.3483         estimate D2E/DX2                !
 ! R12   R(6,34)                 1.0817         estimate D2E/DX2                !
 ! R13   R(7,8)                  1.3493         estimate D2E/DX2                !
 ! R14   R(8,35)                 1.0825         estimate D2E/DX2                !
 ! R15   R(9,10)                 1.4001         estimate D2E/DX2                !
 ! R16   R(9,36)                 1.0838         estimate D2E/DX2                !
 ! R17   R(10,11)                1.4044         estimate D2E/DX2                !
 ! R18   R(10,15)                1.4177         estimate D2E/DX2                !
 ! R19   R(11,12)                1.3954         estimate D2E/DX2                !
 ! R20   R(11,37)                1.0837         estimate D2E/DX2                !
 ! R21   R(12,13)                1.3945         estimate D2E/DX2                !
 ! R22   R(12,38)                1.0824         estimate D2E/DX2                !
 ! R23   R(13,14)                1.3967         estimate D2E/DX2                !
 ! R24   R(13,39)                1.0824         estimate D2E/DX2                !
 ! R25   R(14,15)                1.4119         estimate D2E/DX2                !
 ! R26   R(14,40)                1.0819         estimate D2E/DX2                !
 ! R27   R(15,16)                1.4176         estimate D2E/DX2                !
 ! R28   R(16,17)                1.4886         estimate D2E/DX2                !
 ! R29   R(17,18)                1.4077         estimate D2E/DX2                !
 ! R30   R(17,32)                1.4177         estimate D2E/DX2                !
 ! R31   R(18,19)                1.3923         estimate D2E/DX2                !
 ! R32   R(18,20)                1.4075         estimate D2E/DX2                !
 ! R33   R(19,49)                1.9625         estimate D2E/DX2                !
 ! R34   R(20,21)                1.4403         estimate D2E/DX2                !
 ! R35   R(20,26)                1.4016         estimate D2E/DX2                !
 ! R36   R(21,22)                1.3451         estimate D2E/DX2                !
 ! R37   R(21,25)                1.3492         estimate D2E/DX2                !
 ! R38   R(22,23)                1.3762         estimate D2E/DX2                !
 ! R39   R(22,41)                1.0822         estimate D2E/DX2                !
 ! R40   R(23,24)                1.3483         estimate D2E/DX2                !
 ! R41   R(23,42)                1.0817         estimate D2E/DX2                !
 ! R42   R(24,25)                1.3493         estimate D2E/DX2                !
 ! R43   R(25,43)                1.0825         estimate D2E/DX2                !
 ! R44   R(26,27)                1.4001         estimate D2E/DX2                !
 ! R45   R(26,44)                1.0838         estimate D2E/DX2                !
 ! R46   R(27,28)                1.4044         estimate D2E/DX2                !
 ! R47   R(27,32)                1.4178         estimate D2E/DX2                !
 ! R48   R(28,29)                1.3954         estimate D2E/DX2                !
 ! R49   R(28,45)                1.0837         estimate D2E/DX2                !
 ! R50   R(29,30)                1.3945         estimate D2E/DX2                !
 ! R51   R(29,46)                1.0824         estimate D2E/DX2                !
 ! R52   R(30,31)                1.3967         estimate D2E/DX2                !
 ! R53   R(30,47)                1.0824         estimate D2E/DX2                !
 ! R54   R(31,32)                1.4119         estimate D2E/DX2                !
 ! R55   R(31,48)                1.0819         estimate D2E/DX2                !
 ! A1    A(2,1,49)             108.5998         estimate D2E/DX2                !
 ! A2    A(1,2,3)              120.0163         estimate D2E/DX2                !
 ! A3    A(1,2,16)             119.2804         estimate D2E/DX2                !
 ! A4    A(3,2,16)             120.6965         estimate D2E/DX2                !
 ! A5    A(2,3,4)              121.0163         estimate D2E/DX2                !
 ! A6    A(2,3,9)              119.3354         estimate D2E/DX2                !
 ! A7    A(4,3,9)              119.6476         estimate D2E/DX2                !
 ! A8    A(3,4,5)              127.556          estimate D2E/DX2                !
 ! A9    A(3,4,8)              126.9476         estimate D2E/DX2                !
 ! A10   A(5,4,8)              105.4502         estimate D2E/DX2                !
 ! A11   A(4,5,6)              108.0294         estimate D2E/DX2                !
 ! A12   A(4,5,33)             125.5793         estimate D2E/DX2                !
 ! A13   A(6,5,33)             126.3599         estimate D2E/DX2                !
 ! A14   A(5,6,7)              109.5992         estimate D2E/DX2                !
 ! A15   A(5,6,34)             126.1037         estimate D2E/DX2                !
 ! A16   A(7,6,34)             124.2932         estimate D2E/DX2                !
 ! A17   A(6,7,8)              104.3312         estimate D2E/DX2                !
 ! A18   A(4,8,7)              112.5875         estimate D2E/DX2                !
 ! A19   A(4,8,35)             124.1497         estimate D2E/DX2                !
 ! A20   A(7,8,35)             123.2607         estimate D2E/DX2                !
 ! A21   A(3,9,10)             120.8563         estimate D2E/DX2                !
 ! A22   A(3,9,36)             119.4299         estimate D2E/DX2                !
 ! A23   A(10,9,36)            119.6848         estimate D2E/DX2                !
 ! A24   A(9,10,11)            119.9704         estimate D2E/DX2                !
 ! A25   A(9,10,15)            120.0387         estimate D2E/DX2                !
 ! A26   A(11,10,15)           119.9884         estimate D2E/DX2                !
 ! A27   A(10,11,12)           120.3047         estimate D2E/DX2                !
 ! A28   A(10,11,37)           120.6867         estimate D2E/DX2                !
 ! A29   A(12,11,37)           119.008          estimate D2E/DX2                !
 ! A30   A(11,12,13)           120.1294         estimate D2E/DX2                !
 ! A31   A(11,12,38)           119.9481         estimate D2E/DX2                !
 ! A32   A(13,12,38)           119.9214         estimate D2E/DX2                !
 ! A33   A(12,13,14)           120.266          estimate D2E/DX2                !
 ! A34   A(12,13,39)           119.8428         estimate D2E/DX2                !
 ! A35   A(14,13,39)           119.8911         estimate D2E/DX2                !
 ! A36   A(13,14,15)           120.5537         estimate D2E/DX2                !
 ! A37   A(13,14,40)           118.0173         estimate D2E/DX2                !
 ! A38   A(15,14,40)           121.4285         estimate D2E/DX2                !
 ! A39   A(10,15,14)           118.7471         estimate D2E/DX2                !
 ! A40   A(10,15,16)           119.3142         estimate D2E/DX2                !
 ! A41   A(14,15,16)           121.9374         estimate D2E/DX2                !
 ! A42   A(2,16,15)            119.7019         estimate D2E/DX2                !
 ! A43   A(2,16,17)            118.5939         estimate D2E/DX2                !
 ! A44   A(15,16,17)           121.7031         estimate D2E/DX2                !
 ! A45   A(16,17,18)           118.5842         estimate D2E/DX2                !
 ! A46   A(16,17,32)           121.7181         estimate D2E/DX2                !
 ! A47   A(18,17,32)           119.6858         estimate D2E/DX2                !
 ! A48   A(17,18,19)           119.3037         estimate D2E/DX2                !
 ! A49   A(17,18,20)           120.6989         estimate D2E/DX2                !
 ! A50   A(19,18,20)           119.9823         estimate D2E/DX2                !
 ! A51   A(18,19,49)           109.5933         estimate D2E/DX2                !
 ! A52   A(18,20,21)           120.9995         estimate D2E/DX2                !
 ! A53   A(18,20,26)           119.3297         estimate D2E/DX2                !
 ! A54   A(21,20,26)           119.6695         estimate D2E/DX2                !
 ! A55   A(20,21,22)           127.5398         estimate D2E/DX2                !
 ! A56   A(20,21,25)           126.9727         estimate D2E/DX2                !
 ! A57   A(22,21,25)           105.4445         estimate D2E/DX2                !
 ! A58   A(21,22,23)           108.0342         estimate D2E/DX2                !
 ! A59   A(21,22,41)           125.5724         estimate D2E/DX2                !
 ! A60   A(23,22,41)           126.3634         estimate D2E/DX2                !
 ! A61   A(22,23,24)           109.598          estimate D2E/DX2                !
 ! A62   A(22,23,42)           126.1047         estimate D2E/DX2                !
 ! A63   A(24,23,42)           124.2938         estimate D2E/DX2                !
 ! A64   A(23,24,25)           104.332          estimate D2E/DX2                !
 ! A65   A(21,25,24)           112.589          estimate D2E/DX2                !
 ! A66   A(21,25,43)           124.1566         estimate D2E/DX2                !
 ! A67   A(24,25,43)           123.2522         estimate D2E/DX2                !
 ! A68   A(20,26,27)           120.8683         estimate D2E/DX2                !
 ! A69   A(20,26,44)           119.4412         estimate D2E/DX2                !
 ! A70   A(27,26,44)           119.6887         estimate D2E/DX2                !
 ! A71   A(26,27,28)           119.9616         estimate D2E/DX2                !
 ! A72   A(26,27,32)           120.0438         estimate D2E/DX2                !
 ! A73   A(28,27,32)           119.9943         estimate D2E/DX2                !
 ! A74   A(27,28,29)           120.306          estimate D2E/DX2                !
 ! A75   A(27,28,45)           120.6873         estimate D2E/DX2                !
 ! A76   A(29,28,45)           119.0062         estimate D2E/DX2                !
 ! A77   A(28,29,30)           120.1275         estimate D2E/DX2                !
 ! A78   A(28,29,46)           119.9491         estimate D2E/DX2                !
 ! A79   A(30,29,46)           119.9225         estimate D2E/DX2                !
 ! A80   A(29,30,31)           120.2676         estimate D2E/DX2                !
 ! A81   A(29,30,47)           119.8416         estimate D2E/DX2                !
 ! A82   A(31,30,47)           119.8907         estimate D2E/DX2                !
 ! A83   A(30,31,32)           120.5598         estimate D2E/DX2                !
 ! A84   A(30,31,48)           117.9944         estimate D2E/DX2                !
 ! A85   A(32,31,48)           121.4451         estimate D2E/DX2                !
 ! A86   A(17,32,27)           119.3136         estimate D2E/DX2                !
 ! A87   A(17,32,31)           121.9494         estimate D2E/DX2                !
 ! A88   A(27,32,31)           118.7329         estimate D2E/DX2                !
 ! A89   A(1,49,19)            100.0            estimate D2E/DX2                !
 ! D1    D(49,1,2,3)           104.0656         estimate D2E/DX2                !
 ! D2    D(49,1,2,16)          -76.8704         estimate D2E/DX2                !
 ! D3    D(2,1,49,19)           46.07           estimate D2E/DX2                !
 ! D4    D(1,2,3,4)             -1.2698         estimate D2E/DX2                !
 ! D5    D(1,2,3,9)            178.4138         estimate D2E/DX2                !
 ! D6    D(16,2,3,4)           179.6797         estimate D2E/DX2                !
 ! D7    D(16,2,3,9)            -0.6367         estimate D2E/DX2                !
 ! D8    D(1,2,16,15)          179.3825         estimate D2E/DX2                !
 ! D9    D(1,2,16,17)           -0.2368         estimate D2E/DX2                !
 ! D10   D(3,2,16,15)           -1.5601         estimate D2E/DX2                !
 ! D11   D(3,2,16,17)          178.8206         estimate D2E/DX2                !
 ! D12   D(2,3,4,5)            -40.8257         estimate D2E/DX2                !
 ! D13   D(2,3,4,8)            142.0136         estimate D2E/DX2                !
 ! D14   D(9,3,4,5)            139.4916         estimate D2E/DX2                !
 ! D15   D(9,3,4,8)            -37.669          estimate D2E/DX2                !
 ! D16   D(2,3,9,10)             1.8728         estimate D2E/DX2                !
 ! D17   D(2,3,9,36)           179.9096         estimate D2E/DX2                !
 ! D18   D(4,3,9,10)          -178.4391         estimate D2E/DX2                !
 ! D19   D(4,3,9,36)            -0.4023         estimate D2E/DX2                !
 ! D20   D(3,4,5,6)           -178.1059         estimate D2E/DX2                !
 ! D21   D(3,4,5,33)            -0.0411         estimate D2E/DX2                !
 ! D22   D(8,4,5,6)             -0.4598         estimate D2E/DX2                !
 ! D23   D(8,4,5,33)           177.6049         estimate D2E/DX2                !
 ! D24   D(3,4,8,7)            178.1788         estimate D2E/DX2                !
 ! D25   D(3,4,8,35)            -2.3296         estimate D2E/DX2                !
 ! D26   D(5,4,8,7)              0.5138         estimate D2E/DX2                !
 ! D27   D(5,4,8,35)          -179.9945         estimate D2E/DX2                !
 ! D28   D(4,5,6,7)              0.2678         estimate D2E/DX2                !
 ! D29   D(4,5,6,34)           179.5786         estimate D2E/DX2                !
 ! D30   D(33,5,6,7)          -177.7777         estimate D2E/DX2                !
 ! D31   D(33,5,6,34)            1.533          estimate D2E/DX2                !
 ! D32   D(5,6,7,8)              0.0429         estimate D2E/DX2                !
 ! D33   D(34,6,7,8)          -179.283          estimate D2E/DX2                !
 ! D34   D(6,7,8,4)             -0.348          estimate D2E/DX2                !
 ! D35   D(6,7,8,35)          -179.8448         estimate D2E/DX2                !
 ! D36   D(3,9,10,11)          178.5356         estimate D2E/DX2                !
 ! D37   D(3,9,10,15)           -0.892          estimate D2E/DX2                !
 ! D38   D(36,9,10,11)           0.5038         estimate D2E/DX2                !
 ! D39   D(36,9,10,15)        -178.9239         estimate D2E/DX2                !
 ! D40   D(9,10,11,12)        -178.9441         estimate D2E/DX2                !
 ! D41   D(9,10,11,37)           0.7867         estimate D2E/DX2                !
 ! D42   D(15,10,11,12)          0.4838         estimate D2E/DX2                !
 ! D43   D(15,10,11,37)       -179.7854         estimate D2E/DX2                !
 ! D44   D(9,10,15,14)         178.2675         estimate D2E/DX2                !
 ! D45   D(9,10,15,16)          -1.3177         estimate D2E/DX2                !
 ! D46   D(11,10,15,14)         -1.1601         estimate D2E/DX2                !
 ! D47   D(11,10,15,16)        179.2548         estimate D2E/DX2                !
 ! D48   D(10,11,12,13)          0.284          estimate D2E/DX2                !
 ! D49   D(10,11,12,38)        179.9084         estimate D2E/DX2                !
 ! D50   D(37,11,12,13)       -179.4513         estimate D2E/DX2                !
 ! D51   D(37,11,12,38)          0.1731         estimate D2E/DX2                !
 ! D52   D(11,12,13,14)         -0.356          estimate D2E/DX2                !
 ! D53   D(11,12,13,39)        179.5205         estimate D2E/DX2                !
 ! D54   D(38,12,13,14)       -179.9805         estimate D2E/DX2                !
 ! D55   D(38,12,13,39)         -0.104          estimate D2E/DX2                !
 ! D56   D(12,13,14,15)         -0.3453         estimate D2E/DX2                !
 ! D57   D(12,13,14,40)        179.3838         estimate D2E/DX2                !
 ! D58   D(39,13,14,15)        179.7782         estimate D2E/DX2                !
 ! D59   D(39,13,14,40)         -0.4927         estimate D2E/DX2                !
 ! D60   D(13,14,15,10)          1.095          estimate D2E/DX2                !
 ! D61   D(13,14,15,16)       -179.3313         estimate D2E/DX2                !
 ! D62   D(40,14,15,10)       -178.6247         estimate D2E/DX2                !
 ! D63   D(40,14,15,16)          0.949          estimate D2E/DX2                !
 ! D64   D(10,15,16,2)           2.5228         estimate D2E/DX2                !
 ! D65   D(10,15,16,17)       -177.8701         estimate D2E/DX2                !
 ! D66   D(14,15,16,2)        -177.0486         estimate D2E/DX2                !
 ! D67   D(14,15,16,17)          2.5586         estimate D2E/DX2                !
 ! D68   D(2,16,17,18)          69.211          estimate D2E/DX2                !
 ! D69   D(2,16,17,32)        -109.5299         estimate D2E/DX2                !
 ! D70   D(15,16,17,18)       -110.4003         estimate D2E/DX2                !
 ! D71   D(15,16,17,32)         70.8588         estimate D2E/DX2                !
 ! D72   D(16,17,18,19)         -3.2015         estimate D2E/DX2                !
 ! D73   D(16,17,18,20)        178.2168         estimate D2E/DX2                !
 ! D74   D(32,17,18,19)        175.5656         estimate D2E/DX2                !
 ! D75   D(32,17,18,20)         -3.0161         estimate D2E/DX2                !
 ! D76   D(16,17,32,27)       -178.8488         estimate D2E/DX2                !
 ! D77   D(16,17,32,31)          1.8938         estimate D2E/DX2                !
 ! D78   D(18,17,32,27)          2.4239         estimate D2E/DX2                !
 ! D79   D(18,17,32,31)       -176.8336         estimate D2E/DX2                !
 ! D80   D(17,18,19,49)        -74.7606         estimate D2E/DX2                !
 ! D81   D(20,18,19,49)        103.8315         estimate D2E/DX2                !
 ! D82   D(17,18,20,21)       -178.5624         estimate D2E/DX2                !
 ! D83   D(17,18,20,26)          1.8461         estimate D2E/DX2                !
 ! D84   D(19,18,20,21)          2.8654         estimate D2E/DX2                !
 ! D85   D(19,18,20,26)       -176.7261         estimate D2E/DX2                !
 ! D86   D(18,19,49,1)          46.2015         estimate D2E/DX2                !
 ! D87   D(18,20,21,22)         40.2774         estimate D2E/DX2                !
 ! D88   D(18,20,21,25)       -142.4592         estimate D2E/DX2                !
 ! D89   D(26,20,21,22)       -140.1325         estimate D2E/DX2                !
 ! D90   D(26,20,21,25)         37.131          estimate D2E/DX2                !
 ! D91   D(18,20,26,27)         -0.0951         estimate D2E/DX2                !
 ! D92   D(18,20,26,44)       -179.6028         estimate D2E/DX2                !
 ! D93   D(21,20,26,27)       -179.6921         estimate D2E/DX2                !
 ! D94   D(21,20,26,44)          0.8002         estimate D2E/DX2                !
 ! D95   D(20,21,22,23)        178.1748         estimate D2E/DX2                !
 ! D96   D(20,21,22,41)          0.0652         estimate D2E/DX2                !
 ! D97   D(25,21,22,23)          0.4428         estimate D2E/DX2                !
 ! D98   D(25,21,22,41)       -177.6668         estimate D2E/DX2                !
 ! D99   D(20,21,25,24)       -178.2469         estimate D2E/DX2                !
 ! D100  D(20,21,25,43)          2.2882         estimate D2E/DX2                !
 ! D101  D(22,21,25,24)         -0.4979         estimate D2E/DX2                !
 ! D102  D(22,21,25,43)       -179.9628         estimate D2E/DX2                !
 ! D103  D(21,22,23,24)         -0.2548         estimate D2E/DX2                !
 ! D104  D(21,22,23,42)       -179.5884         estimate D2E/DX2                !
 ! D105  D(41,22,23,24)        177.8357         estimate D2E/DX2                !
 ! D106  D(41,22,23,42)         -1.4978         estimate D2E/DX2                !
 ! D107  D(22,23,24,25)         -0.0461         estimate D2E/DX2                !
 ! D108  D(42,23,24,25)        179.3022         estimate D2E/DX2                !
 ! D109  D(23,24,25,21)          0.3399         estimate D2E/DX2                !
 ! D110  D(23,24,25,43)        179.8104         estimate D2E/DX2                !
 ! D111  D(20,26,27,28)        179.3676         estimate D2E/DX2                !
 ! D112  D(20,26,27,32)         -0.4597         estimate D2E/DX2                !
 ! D113  D(44,26,27,28)         -1.1259         estimate D2E/DX2                !
 ! D114  D(44,26,27,32)        179.0468         estimate D2E/DX2                !
 ! D115  D(26,27,28,29)       -179.2566         estimate D2E/DX2                !
 ! D116  D(26,27,28,45)          0.4851         estimate D2E/DX2                !
 ! D117  D(32,27,28,29)          0.5708         estimate D2E/DX2                !
 ! D118  D(32,27,28,45)       -179.6875         estimate D2E/DX2                !
 ! D119  D(26,27,32,17)         -0.7092         estimate D2E/DX2                !
 ! D120  D(26,27,32,31)        178.5723         estimate D2E/DX2                !
 ! D121  D(28,27,32,17)        179.4636         estimate D2E/DX2                !
 ! D122  D(28,27,32,31)         -1.255          estimate D2E/DX2                !
 ! D123  D(27,28,29,30)          0.2398         estimate D2E/DX2                !
 ! D124  D(27,28,29,46)        179.8873         estimate D2E/DX2                !
 ! D125  D(45,28,29,30)       -179.5062         estimate D2E/DX2                !
 ! D126  D(45,28,29,46)          0.1412         estimate D2E/DX2                !
 ! D127  D(28,29,30,31)         -0.3454         estimate D2E/DX2                !
 ! D128  D(28,29,30,47)        179.5144         estimate D2E/DX2                !
 ! D129  D(46,29,30,31)       -179.9929         estimate D2E/DX2                !
 ! D130  D(46,29,30,47)         -0.1331         estimate D2E/DX2                !
 ! D131  D(29,30,31,32)         -0.3657         estimate D2E/DX2                !
 ! D132  D(29,30,31,48)        179.33           estimate D2E/DX2                !
 ! D133  D(47,30,31,32)        179.7745         estimate D2E/DX2                !
 ! D134  D(47,30,31,48)         -0.5297         estimate D2E/DX2                !
 ! D135  D(30,31,32,17)       -179.5813         estimate D2E/DX2                !
 ! D136  D(30,31,32,27)          1.1571         estimate D2E/DX2                !
 ! D137  D(48,31,32,17)          0.7335         estimate D2E/DX2                !
 ! D138  D(48,31,32,27)       -178.5281         estimate D2E/DX2                !
 --------------------------------------------------------------------------------
 Trust Radius=3.00D-01 FncErr=1.00D-07 GrdErr=1.00D-06 EigMax=2.50D+02 EigMin=1.00D-04
 Number of steps in this run=    292 maximum allowed number of steps=    294.
 GradGradGradGradGradGradGradGradGradGradGradGradGradGradGradGradGradGrad

 Leave Link  103 at Fri Mar  8 02:50:05 2024, MaxMem= 13421772800 cpu:               1.0 elap:               0.0
 (Enter /public/software/apps/Gaussian/g16/l202.exe)
                          Input orientation:                          
 ---------------------------------------------------------------------
 Center     Atomic      Atomic             Coordinates (Angstroms)
 Number     Number       Type             X           Y           Z
 ---------------------------------------------------------------------
      1          8           0        0.477068   -0.149073    2.642511
      2          6           0        1.041681    0.802529    1.797482
      3          6           0        1.860521    1.817405    2.327347
      4          7           0        2.107084    1.908423    3.743369
      5          6           0        1.225461    1.724884    4.742590
      6          6           0        1.877951    1.950339    5.933084
      7          7           0        3.162413    2.280169    5.689451
      8          6           0        3.265810    2.249340    4.344504
      9          6           0        2.448692    2.748127    1.459921
     10          6           0        2.200314    2.703026    0.082767
     11          6           0        2.774891    3.663508   -0.765580
     12          6           0        2.514376    3.638286   -2.136249
     13          6           0        1.675824    2.661048   -2.671519
     14          6           0        1.097841    1.697861   -1.841525
     15          6           0        1.359468    1.695697   -0.454114
     16          6           0        0.799810    0.723882    0.413017
     17          6           0       -0.051866   -0.384205   -0.099622
     18          6           0       -1.426385   -0.372906    0.203799
     19          8           0       -1.934764    0.630014    1.024969
     20          6           0       -2.279352   -1.378141   -0.289150
     21          7           0       -3.691822   -1.356039   -0.008215
     22          6           0       -4.507513   -0.286559    0.008592
     23          6           0       -5.782116   -0.727151    0.282591
     24          7           0       -5.774952   -2.067056    0.432756
     25          6           0       -4.485625   -2.417358    0.244474
     26          6           0       -1.741004   -2.419429   -1.057594
     27          6           0       -0.370718   -2.469142   -1.340476
     28          6           0        0.150442   -3.528420   -2.101190
     29          6           0        1.517307   -3.593348   -2.374318
     30          6           0        2.375761   -2.607706   -1.888381
     31          6           0        1.872905   -1.546566   -1.132209
     32          6           0        0.491340   -1.452925   -0.856423
     33          1           0        0.179053    1.477090    4.621413
     34          1           0        1.441313    1.888972    6.920798
     35          1           0        4.184185    2.467222    3.814517
     36          1           0        3.078260    3.531071    1.866395
     37          1           0        3.422041    4.436354   -0.367805
     38          1           0        2.959078    4.382247   -2.784567
     39          1           0        1.470731    2.650516   -3.734283
     40          1           0        0.445124    0.962959   -2.293684
     41          1           0       -4.210990    0.734550   -0.192586
     42          1           0       -6.667316   -0.110139    0.358186
     43          1           0       -4.133968   -3.439563    0.300909
     44          1           0       -2.397099   -3.190891   -1.443508
     45          1           0       -0.498943   -4.308396   -2.481004
     46          1           0        1.913034   -4.413309   -2.959655
     47          1           0        3.436364   -2.666864   -2.096389
     48          1           0        2.573153   -0.808495   -0.764346
     49         29           0       -1.422549    0.278999    2.886638
 ---------------------------------------------------------------------
                    Distance matrix (angstroms):
                    1          2          3          4          5
     1  O    0.000000
     2  C    1.392267   0.000000
     3  C    2.424934   1.407561   0.000000
     4  N    2.846424   2.478823   1.440207   0.000000
     5  C    2.912411   3.091630   2.499052   1.345135   0.000000
     6  C    4.147032   4.372644   3.608229   2.202070   1.376172
     7  N    4.732456   4.672082   3.634944   2.244805   2.226358
     8  C    4.052931   3.677952   2.496062   1.349160   2.143957
     9  C    3.698593   2.424661   1.401648   2.456814   3.649553
    10  C    4.201944   2.809727   2.436785   3.747011   4.860149
    11  C    5.606322   4.214084   3.716230   4.884354   6.041435
    12  C    6.428939   5.067996   4.864856   6.142330   7.255400
    13  C    6.129658   4.881414   5.072919   6.473269   7.486537
    14  C    4.889080   3.747952   4.239748   5.679256   6.585407
    15  C    3.710915   2.443035   2.828850   4.268846   5.198513
    16  C    2.415959   1.407633   2.446540   3.768733   4.464122
    17  C    2.802562   2.490620   3.794007   4.968479   5.433860
    18  C    3.101701   3.164304   4.484492   5.497128   5.659826
    19  O    3.006718   3.079897   4.184528   5.035927   5.000647
    20  C    4.207505   4.487607   5.847745   6.804670   6.872473
    21  N    5.085544   5.506905   6.808385   7.639267   7.499460
    22  C    5.639369   5.931256   7.096136   7.906921   7.702184
    23  C    6.714222   7.155349   8.310577   9.009035   8.660843
    24  N    6.902857   7.520870   8.773765   9.428207   9.053135
    25  C    5.960203   6.582600   7.908549   8.626613   8.367062
    26  C    4.874950   5.125993   6.509959   7.522455   7.721229
    27  C    4.686752   4.748208   6.066782   7.151787   7.559189
    28  C    5.833470   5.895004   7.149416   8.218673   8.694262
    29  C    6.173629   6.078969   7.176329   8.248843   8.889271
    30  C    5.493532   5.195677   6.133469   7.223864   8.004018
    31  C    4.260265   3.846072   4.825451   5.980222   6.755356
    32  C    3.734002   3.526069   4.765092   5.921771   6.479688
    33  H    2.578618   3.028819   2.864592   2.162016   1.082153
    34  H    4.836025   5.252469   4.613095   3.246488   2.195019
    35  H    4.686290   4.088394   2.834317   2.152131   3.188484
    36  H    4.572966   3.405487   2.152212   2.664433   3.868808
    37  H    6.225834   4.853789   4.069531   5.002129   6.188148
    38  H    7.493091   6.122578   5.823822   7.032755   8.168543
    39  H    7.034811   5.848039   6.131017   7.541281   8.530787
    40  H    5.060006   4.137542   4.907887   6.332616   7.120295
    41  H    5.549455   5.617432   6.662273   7.535767   7.408895
    42  H    7.500792   7.895136   8.961977   9.618948   9.213373
    43  H    6.129607   6.857289   8.226546   8.910792   8.667383
    44  H    5.848850   6.186811   7.578239   8.555370   8.692272
    45  H    6.671055   6.841090   8.137122   9.175131   9.568404
    46  H    7.185400   7.112986   8.171716   9.215882   9.872930
    47  H    6.128122   5.738765   6.493180   7.536777   8.423015
    48  H    4.054021   3.391720   4.118466   5.283783   6.209720
    49  Cu   1.962495   2.744590   3.668521   3.980869   3.542188
                    6          7          8          9         10
     6  C    0.000000
     7  N    1.348328   0.000000
     8  C    2.130526   1.349268   0.000000
     9  C    4.579454   4.314778   3.039291   0.000000
    10  C    5.907340   5.704327   4.416278   1.400100   0.000000
    11  C    6.972198   6.612959   5.324832   2.428412   1.404406
    12  C    8.268515   7.969066   6.670381   3.705285   2.428452
    13  C    8.636270   8.500637   7.205702   4.204010   2.804094
    14  C    7.817727   7.830526   6.578083   3.718522   2.434893
    15  C    6.413265   6.429277   5.193014   2.440809   1.417736
    16  C    5.756538   5.987043   4.885158   2.812897   2.446934
    17  C    6.750395   7.137496   6.139445   4.300752   3.825778
    18  C    7.010051   7.628122   6.785153   5.131755   4.756990
    19  O    6.353711   7.103634   6.378675   4.887768   4.720592
    20  C    8.190125   8.873540   8.085678   6.514579   6.071380
    21  N    8.789399   9.626315   8.964015   7.530306   7.155526
    22  C    8.993190   9.883725   9.255024   7.726866   7.344254
    23  C    9.888056  10.875785  10.354883   9.011652   8.690525
    24  N   10.244999  11.243118  10.754926   9.584851   9.299518
    25  C    9.588126  10.497953   9.933431   8.731798   8.422960
    26  C    9.003404   9.573523   8.720565   7.113021   6.563075
    27  C    8.803011   9.190149   8.234525   6.558292   5.948710
    28  C    9.876773  10.173778   9.199728   7.573540   6.913940
    29  C    9.993771  10.110833   9.073965   7.468813   6.793239
    30  C    9.066361   9.051723   7.951851   6.316755   5.667458
    31  C    7.883320   7.927281   6.807604   5.049263   4.431974
    32  C    7.720253   7.994941   6.960897   5.181266   4.590708
    33  H    2.197885   3.268957   3.193919   4.094121   5.117394
    34  H    1.081664   2.152077   3.177412   5.619087   6.928018
    35  H    3.173990   2.143452   1.082484   2.938531   4.232884
    36  H    4.525198   4.023381   2.796253   1.083780   2.153550
    37  H    6.947351   6.434819   5.197432   2.671722   2.167962
    38  H    9.114848   8.733216   7.447619   4.576737   3.408388
    39  H    9.701240   9.581529   8.285533   5.286368   3.886505
    40  H    8.408783   8.535171   7.326431   4.614180   3.428709
    41  H    8.722223   9.557948   8.875940   7.150988   6.712342
    42  H   10.408969  11.435013  10.960149   9.616918   9.307235
    43  H    9.844573  10.723287  10.172069   9.108360   8.826217
    44  H    9.956024  10.569758   9.755293   8.196556   7.629153
    45  H   10.752593  11.116252  10.186502   8.603137   7.938447
    46  H   10.935175  11.007753   9.978559   8.432422   7.744746
    47  H    9.392532   9.228623   8.104521   6.553241   5.925560
    48  H    7.276678   7.179037   5.994204   4.196715   3.631444
    49  Cu   4.792443   5.734311   5.290400   4.808183   5.182927
                   11         12         13         14         15
    11  C    0.000000
    12  C    1.395435   0.000000
    13  C    2.417742   1.394517   0.000000
    14  C    2.798915   2.420472   1.396669   0.000000
    15  C    2.443914   2.817276   2.439030   1.411865   0.000000
    16  C    3.732484   4.234648   3.746248   2.473948   1.417589
    17  C    4.981770   5.187859   4.344322   2.948059   2.538409
    18  C    5.906188   6.090573   5.205385   3.852680   3.531706
    19  O    5.881242   6.232002   5.552069   4.307410   3.765014
    20  C    7.154759   7.180261   6.134668   4.824634   4.766204
    21  N    8.221182   8.245526   7.214000   5.968936   5.918399
    22  C    8.320804   8.325363   7.355613   6.227427   6.210065
    23  C    9.674653   9.681922   8.707900   7.597787   7.577278
    24  N   10.362200  10.385744   9.354440   8.159794   8.114481
    25  C    9.524297   9.557127   8.500393   7.243032   7.181251
    26  C    7.581603   7.481154   6.331723   5.062180   5.187618
    27  C    6.916268   6.801301   5.681449   4.446530   4.596201
    28  C    7.771449   7.546594   6.400123   5.317801   5.609456
    29  C    7.538668   7.303927   6.263460   5.334483   5.629040
    30  C    6.383425   6.252445   5.372428   4.491457   4.648575
    31  C    5.300270   5.319988   4.484677   3.410302   3.351970
    32  C    5.603637   5.625927   4.649984   3.356445   3.290793
    33  H    6.366985   7.469304   7.538497   6.531652   5.215567
    34  H    8.000488   9.286639   9.626196   8.771135   7.377898
    35  H    4.939079   6.290570   6.956875   6.489087   5.176436
    36  H    2.652709   4.043590   4.828709   4.585999   3.421638
    37  H    1.083660   2.142000   3.392357   3.882409   3.431160
    38  H    2.151004   1.082384   2.149895   3.399921   3.899656
    39  H    3.397085   2.149092   1.082424   2.151542   3.418123
    40  H    3.880191   3.385848   2.130936   1.081928   2.181043
    41  H    7.596687   7.578922   6.671663   5.641866   5.658816
    42  H   10.230275  10.226259   9.298740   8.270747   8.267414
    43  H    9.966110  10.011801   8.933446   7.639043   7.557698
    44  H    8.613469   8.440387   7.234770   6.022700   6.242551
    45  H    8.787031   8.505804   7.303359   6.247702   6.603871
    46  H    8.413782   8.115897   7.084195   6.265872   6.626019
    47  H    6.502477   6.372328   5.640649   4.958273   5.103186
    48  H    4.476551   4.653970   4.059586   3.101400   2.800045
    49  Cu   6.512457   7.212044   6.794644   5.542658   4.572447
                   16         17         18         19         20
    16  C    0.000000
    17  C    1.488626   0.000000
    18  C    2.490514   1.407656   0.000000
    19  O    2.803782   2.416330   1.392343   0.000000
    20  C    3.793781   2.446533   1.407497   2.424528   0.000000
    21  N    4.967722   3.768567   2.478650   2.845897   1.440307
    22  C    5.417770   4.458030   3.088513   2.914132   2.498980
    23  C    6.741236   5.753213   4.370823   4.146702   3.608328
    24  N    7.142634   5.989084   4.672537   4.729899   3.635240
    25  C    6.150741   4.889819   3.679727   4.050005   2.496471
    26  C    4.301027   2.813012   2.424532   3.697799   1.401644
    27  C    3.826261   2.447110   2.809524   4.200754   2.436894
    28  C    4.982468   3.732732   4.213861   5.604777   3.716327
    29  C    5.188691   4.234991   5.067865   6.427187   4.865150
    30  C    4.345058   3.746597   4.881379   6.127892   5.073406
    31  C    2.948591   2.474280   3.748027   4.887664   4.240325
    32  C    2.538724   1.417739   2.442986   3.710020   2.829156
    33  H    4.320099   5.079952   5.051260   4.256779   6.189485
    34  H    6.642302   7.528826   7.645774   6.909679   8.746469
    35  H    5.105236   6.433914   7.251352   6.971259   8.567626
    36  H    3.896659   5.384450   6.188464   5.852738   7.579627
    37  H    4.611749   5.947919   6.852952   6.717396   8.143735
    38  H    5.317012   6.244500   7.125595   7.248552   8.176205
    39  H    4.621921   4.973791   5.748291   6.191147   6.493238
    40  H    2.740290   2.622167   3.394776   4.097338   4.113596
    41  H    5.047275   4.307966   3.022847   2.583519   2.864265
    42  H    7.513759   6.636933   5.249785   4.836267   4.613144
    43  H    6.456703   5.114606   4.092044   4.682117   2.835001
    44  H    5.384455   3.896618   3.405429   4.572357   2.152317
    45  H    5.948608   4.611955   4.853493   6.224253   4.069456
    46  H    6.245392   5.317358   6.122419   7.491187   5.824083
    47  H    4.974504   4.622268   5.848028   7.032873   6.131585
    48  H    2.622805   2.740913   4.138037   5.058881   4.908881
    49  Cu   3.354937   3.352068   2.760909   1.962495   3.683185
                   21         22         23         24         25
    21  N    0.000000
    22  C    1.345147   0.000000
    23  C    2.202135   1.376158   0.000000
    24  N    2.244868   2.226317   1.348312   0.000000
    25  C    1.349212   2.143927   2.130526   1.349269   0.000000
    26  C    2.457170   3.652322   4.581538   4.314863   3.037817
    27  C    3.747486   4.867928   5.912031   5.701909   4.409899
    28  C    4.884954   6.054534   6.980313   6.608083   5.313164
    29  C    6.143209   7.274034   8.279845   7.961550   6.654038
    30  C    6.474354   7.507709   8.648732   8.492002   7.187762
    31  C    5.680304   6.602937   7.827672   7.823666   6.563874
    32  C    4.269390   5.205496   6.417192   6.426940   5.187705
    33  H    6.666614   6.808265   7.695427   8.096666   7.488895
    34  H    9.213598   9.375503  10.153217  10.479472   9.911931
    35  H    9.553119   9.879979  11.045618  11.453401  10.572130
    36  H    8.557571   8.693082   9.957266  10.572309   9.758422
    37  H    9.180859   9.237175  10.573614  11.292472  10.482339
    38  H    9.212520   9.238478  10.579314  11.323778  10.527741
    39  H    7.522501   7.640348   8.952525   9.597897   8.774510
    40  H    5.264546   5.602712   6.947819   7.436653   6.494696
    41  H    2.161964   1.082156   2.197908   3.268949   3.193896
    42  H    3.246549   2.195015   1.081664   2.152068   3.177415
    43  H    2.152237   3.188482   3.173942   2.143359   1.082474
    44  H    2.665156   3.872672   4.528551   4.024085   2.794562
    45  H    5.002557   6.200153   6.955192   6.430387   5.186317
    46  H    7.033655   8.189260   9.127719   8.724591   7.429206
    47  H    7.542531   8.555815   9.716090   9.571034   8.264369
    48  H    6.334150   7.141826   8.420998   8.526892   7.309754
    49  Cu   4.025310   4.256760   5.176797   5.519866   4.861461
                   26         27         28         29         30
    26  C    0.000000
    27  C    1.400063   0.000000
    28  C    2.428275   1.404409   0.000000
    29  C    3.705191   2.428437   1.395398   0.000000
    30  C    4.203975   2.804023   2.417653   1.394478   0.000000
    31  C    3.718574   2.434824   2.798848   2.420455   1.396667
    32  C    2.440893   1.417797   2.444041   2.817450   2.439159
    33  H    7.149867   7.170712   8.381488   8.743027   7.993028
    34  H    9.609589   9.514476  10.602394  10.791700   9.934533
    35  H    9.095311   8.466923   9.338865   9.063356   7.845275
    36  H    8.196552   7.627714   8.611055   8.436680   7.230244
    37  H    8.610145   7.938324   8.783257   8.492951   7.281870
    38  H    8.446064   7.753352   8.422238   8.115240   7.071269
    39  H    6.571472   5.944085   6.526056   6.390423   5.645824
    40  H    4.212793   3.654247   4.505150   4.681454   4.079372
    41  H    4.098372   5.131178   6.390444   7.503602   7.578370
    42  H    5.621904   6.935236   8.013426   9.305234   9.646872
    43  H    2.934703   4.218757   4.912651   6.254390   6.918204
    44  H    1.083764   2.153545   2.652628   4.043631   4.828893
    45  H    2.671518   2.167972   1.083661   2.141948   3.392266
    46  H    4.576613   3.408379   2.150981   1.082384   2.149871
    47  H    5.286346   3.886434   3.396996   2.149046   1.082426
    48  H    4.614440   3.428710   3.880035   3.385591   2.130629
    49  Cu   4.789561   5.150449   6.469093   7.163483   6.749891
                   31         32         33         34         35
    31  C    0.000000
    32  C    1.411931   0.000000
    33  H    6.716829   6.220064   0.000000
    34  H    8.765849   8.517975   2.655206   0.000000
    35  H    6.776622   7.128979   4.203870   4.184101   0.000000
    36  H    6.018879   6.240682   4.496039   5.560852   2.479924
    37  H    6.227316   6.596314   6.645789   7.970958   4.685100
    38  H    6.249871   6.622439   8.427159  10.134798   6.979693
    39  H    4.954597   5.106810   8.535984  10.682302   8.023765
    40  H    3.112121   2.811468   6.939286   9.314321   7.318026
    41  H    6.565071   5.228540   6.557319   9.158682   9.462452
    42  H    8.787490   7.384085   8.219925  10.621402  11.676647
    43  H    6.459086   5.165232   7.838519  10.163659  10.790145
    44  H    4.586245   3.421736   8.075263  10.511899  10.147629
    45  H    3.882347   3.431274   9.185633  11.426541  10.366980
    46  H    3.399910   3.899830   9.755823  11.728794   9.919135
    47  H    2.151538   3.418235   8.538811  10.297841   7.864915
    48  H    1.081859   2.181218   6.321552   8.223067   5.855914
    49  Cu   5.508524   4.546761   2.647640   5.202708   6.089725
                   36         37         38         39         40
    36  H    0.000000
    37  H    2.435030   0.000000
    38  H    4.729710   2.461301   0.000000
    39  H    5.892972   4.281355   2.473061   0.000000
    40  H    5.552915   4.963418   4.272290   2.444390   0.000000
    41  H    8.074224   8.485117   8.451860   6.963943   5.113334
    42  H   10.512343  11.090211  11.078172   9.518263   7.666209
    43  H   10.151685  10.934831  11.000553   9.207849   6.861647
    44  H    9.280075   9.653724   9.372272   7.370875   5.104459
    45  H    9.651606   9.813785   9.358276   7.340080   5.358501
    46  H    9.368121   9.344053   8.859270   7.119923   5.612712
    47  H    7.365208   7.310534   7.098687   5.900927   4.707659
    48  H    5.099781   5.327879   5.583371   4.690482   3.163136
    49  Cu   5.645720   7.165546   8.258200   7.604719   5.549031
                   41         42         43         44         45
    41  H    0.000000
    42  H    2.655256   0.000000
    43  H    4.203890   4.184041   0.000000
    44  H    4.501566   5.565239   2.474175   0.000000
    45  H    6.666892   7.983432   4.659111   2.434792   0.000000
    46  H    8.465270  10.156168   6.938710   4.729720   2.461249
    47  H    8.583479  10.707293   7.978347   5.893229   4.281261
    48  H    6.980866   9.334562   7.283046   5.553420   4.963265
    49  Cu   4.179061   5.835416   5.278777   5.633831   7.121013
                   46         47         48         49
    46  H    0.000000
    47  H    2.473021   0.000000
    48  H    4.271981   2.443974   0.000000
    49  Cu   8.205060   7.557625   5.520685   0.000000
 Symmetry turned off by external request.
 Stoichiometry    C26H16CuN4O2(2)
 Framework group  C1[X(C26H16CuN4O2)]
 Deg. of freedom   141
 Full point group                 C1      NOp   1
 Rotational constants (GHZ):           0.1535305           0.1012428           0.0772820
 Leave Link  202 at Fri Mar  8 02:50:05 2024, MaxMem= 13421772800 cpu:               0.1 elap:               0.0
 (Enter /public/software/apps/Gaussian/g16/l301.exe)
 Standard basis: def2SVPP (5D, 7F)
 Ernie: Thresh=  0.10000D-02 Tol=  0.10000D-05 Strict=F.
   504 basis functions,   935 primitive gaussians,   538 cartesian basis functions
   123 alpha electrons      122 beta electrons
       nuclear repulsion energy      3721.0662019939 Hartrees.
 IExCor=  402 DFT=T Ex+Corr=B3LYP ExCW=0 ScaHFX=  0.200000
 ScaDFX=  0.800000  0.720000  1.000000  0.810000 ScalE2=  1.000000  1.000000
 IRadAn=      5 IRanWt=     -1 IRanGd=            0 ICorTp=0 IEmpDi=141
 NAtoms=   49 NActive=   49 NUniq=   49 SFac= 1.00D+00 NAtFMM=   60 NAOKFM=F Big=F
 Integral buffers will be    131072 words long.
 Raffenetti 2 integral format.
 Two-electron integral symmetry is turned off.
 R6Disp:  Grimme-D3(BJ) Dispersion energy=       -0.1365031450 Hartrees.
 Nuclear repulsion after empirical dispersion term =     3720.9296988490 Hartrees.
 Leave Link  301 at Fri Mar  8 02:50:05 2024, MaxMem= 13421772800 cpu:               1.6 elap:               0.1
 (Enter /public/software/apps/Gaussian/g16/l302.exe)
 NPDir=0 NMtPBC=     1 NCelOv=     1 NCel=       1 NClECP=     1 NCelD=      1
         NCelK=      1 NCelE2=     1 NClLst=     1 CellRange=     0.0.
 One-electron integrals computed using PRISM.
   1 Symmetry operations used in ECPInt.
 ECPInt:  NShTT=   27495 NPrTT=  114030 LenC2=   23917 LenP2D=   62991.
 LDataN:  DoStor=T MaxTD1= 4 Len=   56
 NBasis=   504 RedAO= T EigKep=  1.47D-04  NBF=   504
 NBsUse=   504 1.00D-06 EigRej= -1.00D+00 NBFU=   504
 Precomputing XC quadrature grid using
 IXCGrd= 4 IRadAn=           5 IRanWt=          -1 IRanGd=           0 AccXCQ= 0.00D+00.
 Generated NRdTot=       0 NPtTot=           0 NUsed=           0 NTot=          32
 NSgBfM=   528   528   528   528   528 MxSgAt=    49 MxSgA2=    49.
 Leave Link  302 at Fri Mar  8 02:50:05 2024, MaxMem= 13421772800 cpu:              15.7 elap:               0.5
 (Enter /public/software/apps/Gaussian/g16/l303.exe)
 DipDrv:  MaxL=1.
 Leave Link  303 at Fri Mar  8 02:50:05 2024, MaxMem= 13421772800 cpu:               3.3 elap:               0.1
 (Enter /public/software/apps/Gaussian/g16/l401.exe)
 ExpMin= 3.30D-02 ExpMax= 7.64D+04 ExpMxC= 1.15D+04 IAcc=3 IRadAn=         5 AccDes= 0.00D+00
 Harris functional with IExCor=  402 and IRadAn=       5 diagonalized for initial guess.
 HarFok:  IExCor=  402 AccDes= 0.00D+00 IRadAn=         5 IDoV= 1 UseB2=F ITyADJ=14
 ICtDFT=  3500011 ScaDFX=  1.000000  1.000000  1.000000  1.000000
 FoFCou: FMM=F IPFlag=           0 FMFlag=      100000 FMFlg1=           0
         NFxFlg=           0 DoJE=T BraDBF=F KetDBF=T FulRan=T
         wScrn=  0.000000 ICntrl=       500 IOpCl=  0 I1Cent=   200000004 NGrid=           0
         NMat0=    1 NMatS0=      1 NMatT0=    0 NMatD0=    1 NMtDS0=    0 NMtDT0=    0
 Symmetry not used in FoFCou.
 Harris En= -3009.38913348123    
 JPrj=0 DoOrth=F DoCkMO=F.
 Initial guess <Sx>= 0.0000 <Sy>= 0.0000 <Sz>= 0.5000 <S**2>= 0.7500 S= 0.5000
 Leave Link  401 at Fri Mar  8 02:50:07 2024, MaxMem= 13421772800 cpu:              36.8 elap:               1.2
 (Enter /public/software/apps/Gaussian/g16/l502.exe)
 Two-electron integral symmetry not used.
 UHF open shell SCF:
 Using DIIS extrapolation, IDIIS=  1040.
 NGot= 13421772800 LenX= 13421171292 LenY= 13420881310
 Requested convergence on RMS density matrix=1.00D-08 within 128 cycles.
 Requested convergence on MAX density matrix=1.00D-06.
 Requested convergence on             energy=1.00D-06.
 No special actions if energy rises.
 Fock matrices will be formed incrementally for  20 cycles.

 Cycle   1  Pass 1  IDiag  1:
 FoFJK:  IHMeth= 1 ICntrl=       0 DoSepK=F KAlg= 0 I1Cent=           0 FoldK=F
 IRaf= 790000000 NMat=       1 IRICut=       1 DoRegI=T DoRafI=F ISym2E= 0 IDoP0=0 IntGTp=1.
 FoFCou: FMM=F IPFlag=           0 FMFlag=      100000 FMFlg1=           0
         NFxFlg=           0 DoJE=F BraDBF=F KetDBF=F FulRan=T
         wScrn=  0.000000 ICntrl=         0 IOpCl=  1 I1Cent=           0 NGrid=           0
         NMat0=    1 NMatS0=      1 NMatT0=    0 NMatD0=    1 NMtDS0=    0 NMtDT0=    0
 Symmetry not used in FoFCou.
 E= -2995.73500392082    
 DIIS: error= 4.48D-01 at cycle   1 NSaved=   1.
 NSaved= 1 IEnMin= 1 EnMin= -2995.73500392082     IErMin= 1 ErrMin= 4.48D-01
 ErrMax= 4.48D-01  0.00D+00 EMaxC= 1.00D-01 BMatC= 4.97D+01 BMatP= 4.97D+01
 IDIUse=3 WtCom= 0.00D+00 WtEn= 1.00D+00
 Coeff-Com:  0.100D+01
 Coeff-En:   0.100D+01
 Coeff:      0.100D+01
 Gap=     0.106 Goal=   None    Shift=    0.000
 Gap=     0.291 Goal=   None    Shift=    0.000
 GapD=    0.106 DampG=1.000 DampE=0.125 DampFc=0.1250 IDamp=-1.
 Damping current iteration by 1.25D-01
 RMSDP=7.88D-02 MaxDP=1.45D+01              OVMax= 9.82D-01

 Cycle   2  Pass 1  IDiag  1:
 RMSU=  9.84D-03    CP:  1.01D+00
 E= -2999.90566117969     Delta-E=       -4.170657258864 Rises=F Damp=T
 DIIS: error= 2.98D-01 at cycle   2 NSaved=   2.
 NSaved= 2 IEnMin= 2 EnMin= -2999.90566117969     IErMin= 2 ErrMin= 2.98D-01
 ErrMax= 2.98D-01  0.00D+00 EMaxC= 1.00D-01 BMatC= 1.89D+01 BMatP= 4.97D+01
 IDIUse=3 WtCom= 0.00D+00 WtEn= 1.00D+00
 Coeff-Com: -0.105D+01 0.205D+01
 Coeff-En:   0.000D+00 0.100D+01
 Coeff:      0.000D+00 0.100D+01
 Gap=    -0.108 Goal=   None    Shift=    0.000
 Gap=    -0.042 Goal=   None    Shift=    0.000
 RMSDP=1.88D-02 MaxDP=3.16D+00 DE=-4.17D+00 OVMax= 9.02D-01

 Cycle   3  Pass 1  IDiag  1:
 RMSU=  1.85D-02    CP:  9.71D-01  1.31D+00
 E= -2984.87863047641     Delta-E=       15.027030703279 Rises=F Damp=F
 DIIS: error= 2.46D-01 at cycle   3 NSaved=   3.
 NSaved= 3 IEnMin= 2 EnMin= -2999.90566117969     IErMin= 3 ErrMin= 2.46D-01
 ErrMax= 2.46D-01  0.00D+00 EMaxC= 1.00D-01 BMatC= 5.33D+01 BMatP= 1.89D+01
 IDIUse=2 WtCom= 0.00D+00 WtEn= 1.00D+00
 EnCoef did     6 forward-backward iterations
 Coeff-En:   0.601D+00 0.227D-02 0.396D+00
 Coeff:      0.601D+00 0.227D-02 0.396D+00
 Gap=     0.139 Goal=   None    Shift=    0.000
 Gap=    -0.447 Goal=   None    Shift=    0.000
 RMSDP=7.06D-02 MaxDP=1.16D+01 DE= 1.50D+01 OVMax= 9.05D-01

 Cycle   4  Pass 1  IDiag  1:
 RMSU=  6.81D-02    CP:  9.15D-01  1.00D+00  2.02D-02
 E= -2919.65351539942     Delta-E=       65.225115076985 Rises=F Damp=F
 DIIS: error= 1.90D-01 at cycle   4 NSaved=   4.
 NSaved= 4 IEnMin= 2 EnMin= -2999.90566117969     IErMin= 4 ErrMin= 1.90D-01
 ErrMax= 1.90D-01  0.00D+00 EMaxC= 1.00D-01 BMatC= 1.85D+02 BMatP= 1.89D+01
 IDIUse=2 WtCom= 0.00D+00 WtEn= 1.00D+00
 EnCoef did   100 forward-backward iterations
 Coeff-En:   0.561D+00 0.200D-02 0.362D+00 0.746D-01
 Coeff:      0.561D+00 0.200D-02 0.362D+00 0.746D-01
 Gap=     0.092 Goal=   None    Shift=    0.000
 Gap=    -0.236 Goal=   None    Shift=    0.000
 RMSDP=6.83D-02 MaxDP=1.17D+01 DE= 6.52D+01 OVMax= 9.38D-01

 Cycle   5  Pass 1  IDiag  1:
 RMSU=  6.41D-03    CP:  8.82D-01  7.46D-02  1.06D-01  1.11D-02
 E= -3006.45743845037     Delta-E=      -86.803923050949 Rises=F Damp=F
 DIIS: error= 1.73D-01 at cycle   5 NSaved=   5.
 NSaved= 5 IEnMin= 5 EnMin= -3006.45743845037     IErMin= 5 ErrMin= 1.73D-01
 ErrMax= 1.73D-01  0.00D+00 EMaxC= 1.00D-01 BMatC= 1.11D+01 BMatP= 1.89D+01
 IDIUse=3 WtCom= 0.00D+00 WtEn= 1.00D+00
 EnCoef did   100 forward-backward iterations
 Coeff-Com: -0.347D+00 0.870D+00 0.636D-01-0.385D-01 0.452D+00
 Coeff-En:   0.243D+00 0.465D-02 0.712D-04 0.000D+00 0.752D+00
 Coeff:      0.243D+00 0.465D-02 0.712D-04 0.000D+00 0.752D+00
 Gap=     0.160 Goal=   None    Shift=    0.000
 Gap=     0.079 Goal=   None    Shift=    0.000
 RMSDP=7.64D-03 MaxDP=6.53D-01 DE=-8.68D+01 OVMax= 9.29D-01

 Cycle   6  Pass 1  IDiag  1:
 RMSU=  6.63D-03    CP:  9.00D-01  8.06D-02  1.36D-01  6.45D-03  4.19D-01
 E= -2997.43880981889     Delta-E=        9.018628631486 Rises=F Damp=F
 DIIS: error= 6.13D-02 at cycle   6 NSaved=   6.
 NSaved= 6 IEnMin= 5 EnMin= -3006.45743845037     IErMin= 6 ErrMin= 6.13D-02
 ErrMax= 6.13D-02  0.00D+00 EMaxC= 1.00D-01 BMatC= 1.97D+01 BMatP= 1.11D+01
 IDIUse=2 WtCom= 0.00D+00 WtEn= 1.00D+00
 EnCoef did   100 forward-backward iterations
 Coeff-En:   0.200D+00 0.190D-02 0.291D-04 0.000D+00 0.656D+00 0.142D+00
 Coeff:      0.200D+00 0.190D-02 0.291D-04 0.000D+00 0.656D+00 0.142D+00
 Gap=     0.067 Goal=   None    Shift=    0.000
 Gap=     0.250 Goal=   None    Shift=    0.000
 RMSDP=5.82D-03 MaxDP=5.83D-01 DE= 9.02D+00 OVMax= 9.73D-01

 Cycle   7  Pass 1  IDiag  1:
 RMSU=  3.27D-03    CP:  8.98D-01  3.83D-02  8.13D-02  5.97D-03  5.84D-01
                    CP:  3.10D-01
 E= -3008.76989875515     Delta-E=      -11.331088936259 Rises=F Damp=F
 DIIS: error= 2.98D-02 at cycle   7 NSaved=   7.
 NSaved= 7 IEnMin= 7 EnMin= -3008.76989875515     IErMin= 7 ErrMin= 2.98D-02
 ErrMax= 2.98D-02  0.00D+00 EMaxC= 1.00D-01 BMatC= 1.40D+00 BMatP= 1.11D+01
 IDIUse=3 WtCom= 7.02D-01 WtEn= 2.98D-01
 EnCoef did     4 forward-backward iterations
 Coeff-Com: -0.641D-01 0.178D+00-0.311D-01-0.927D-02 0.251D+00 0.484D-01
 Coeff-Com:  0.627D+00
 Coeff-En:   0.104D-01 0.000D+00 0.000D+00 0.000D+00 0.950D-01 0.000D+00
 Coeff-En:   0.895D+00
 Coeff:     -0.418D-01 0.125D+00-0.218D-01-0.650D-02 0.204D+00 0.340D-01
 Coeff:      0.707D+00
 Gap=     0.325 Goal=   None    Shift=    0.000
 Gap=    -0.098 Goal=   None    Shift=    0.000
 RMSDP=3.48D-03 MaxDP=5.22D-01 DE=-1.13D+01 OVMax= 7.23D-01

 Cycle   8  Pass 1  IDiag  1:
 RMSU=  2.83D-03    CP:  8.96D-01  5.26D-03  5.74D-02  4.63D-03  6.66D-01
                    CP:  1.93D-01  4.78D-01
 E= -3008.78083695853     Delta-E=       -0.010938203387 Rises=F Damp=F
 DIIS: error= 3.38D-02 at cycle   8 NSaved=   8.
 NSaved= 8 IEnMin= 8 EnMin= -3008.78083695853     IErMin= 7 ErrMin= 2.98D-02
 ErrMax= 3.38D-02  0.00D+00 EMaxC= 1.00D-01 BMatC= 1.41D+00 BMatP= 1.40D+00
 IDIUse=3 WtCom= 7.02D-01 WtEn= 2.98D-01
 Coeff-Com: -0.277D-01 0.697D-01-0.132D-01 0.146D-02 0.564D-01-0.213D-01
 Coeff-Com:  0.516D+00 0.419D+00
 Coeff-En:   0.000D+00 0.000D+00 0.000D+00 0.000D+00 0.000D+00 0.000D+00
 Coeff-En:   0.495D+00 0.505D+00
 Coeff:     -0.194D-01 0.489D-01-0.928D-02 0.103D-02 0.396D-01-0.150D-01
 Coeff:      0.510D+00 0.444D+00
 Gap=     0.223 Goal=   None    Shift=    0.000
 Gap=    -0.057 Goal=   None    Shift=    0.000
 RMSDP=2.36D-03 MaxDP=2.95D-01 DE=-1.09D-02 OVMax= 8.40D-01

 Cycle   9  Pass 1  IDiag  1:
 RMSU=  1.75D-03    CP:  8.96D-01  9.49D-03  4.98D-02  6.11D-03  6.23D-01
                    CP:  1.69D-01  6.58D-01  5.02D-01
 E= -3009.11122962692     Delta-E=       -0.330392668388 Rises=F Damp=F
 DIIS: error= 3.71D-02 at cycle   9 NSaved=   9.
 NSaved= 9 IEnMin= 9 EnMin= -3009.11122962692     IErMin= 7 ErrMin= 2.98D-02
 ErrMax= 3.71D-02  0.00D+00 EMaxC= 1.00D-01 BMatC= 5.85D-01 BMatP= 1.40D+00
 IDIUse=3 WtCom= 7.02D-01 WtEn= 2.98D-01
 EnCoef did     4 forward-backward iterations
 Coeff-Com: -0.273D-01 0.402D-01-0.394D-02-0.727D-03 0.585D-01-0.906D-03
 Coeff-Com:  0.323D+00 0.304D+00 0.308D+00
 Coeff-En:   0.000D+00 0.000D+00 0.000D+00 0.000D+00 0.000D+00 0.000D+00
 Coeff-En:   0.113D+00 0.238D+00 0.649D+00
 Coeff:     -0.192D-01 0.282D-01-0.277D-02-0.510D-03 0.410D-01-0.636D-03
 Coeff:      0.260D+00 0.284D+00 0.410D+00
 Gap=     0.209 Goal=   None    Shift=    0.000
 Gap=     0.042 Goal=   None    Shift=    0.000
 RMSDP=1.34D-03 MaxDP=2.02D-01 DE=-3.30D-01 OVMax= 3.03D-01

 Cycle  10  Pass 1  IDiag  1:
 RMSU=  1.07D-03    CP:  8.91D-01  8.13D-03  5.68D-02  5.62D-03  6.60D-01
                    CP:  1.98D-01  6.11D-01  3.83D-01  6.41D-01
 E= -3009.23449956736     Delta-E=       -0.123269940442 Rises=F Damp=F
 DIIS: error= 1.98D-02 at cycle  10 NSaved=  10.
 NSaved=10 IEnMin=10 EnMin= -3009.23449956736     IErMin=10 ErrMin= 1.98D-02
 ErrMax= 1.98D-02  0.00D+00 EMaxC= 1.00D-01 BMatC= 1.18D-01 BMatP= 5.85D-01
 IDIUse=3 WtCom= 8.02D-01 WtEn= 1.98D-01
 Coeff-Com: -0.202D-01 0.349D-01 0.435D-03-0.854D-03-0.231D-01-0.289D-02
 Coeff-Com:  0.111D+00 0.158D+00 0.193D+00 0.549D+00
 Coeff-En:   0.000D+00 0.000D+00 0.000D+00 0.000D+00 0.000D+00 0.000D+00
 Coeff-En:   0.000D+00 0.000D+00 0.124D+00 0.876D+00
 Coeff:     -0.162D-01 0.279D-01 0.349D-03-0.685D-03-0.185D-01-0.232D-02
 Coeff:      0.890D-01 0.127D+00 0.179D+00 0.614D+00
 Gap=     0.131 Goal=   None    Shift=    0.000
 Gap=     0.031 Goal=   None    Shift=    0.000
 RMSDP=5.61D-04 MaxDP=8.26D-02 DE=-1.23D-01 OVMax= 1.78D-01

 Cycle  11  Pass 1  IDiag  1:
 RMSU=  3.90D-04    CP:  8.92D-01  8.12D-03  5.45D-02  5.03D-03  6.29D-01
                    CP:  2.01D-01  6.24D-01  4.57D-01  7.54D-01  8.28D-01
 E= -3009.25039187069     Delta-E=       -0.015892303328 Rises=F Damp=F
 DIIS: error= 8.89D-03 at cycle  11 NSaved=  11.
 NSaved=11 IEnMin=11 EnMin= -3009.25039187069     IErMin=11 ErrMin= 8.89D-03
 ErrMax= 8.89D-03  0.00D+00 EMaxC= 1.00D-01 BMatC= 3.04D-02 BMatP= 1.18D-01
 IDIUse=3 WtCom= 9.11D-01 WtEn= 8.89D-02
 Coeff-Com: -0.138D-01 0.220D-01 0.207D-03-0.161D-03-0.120D-01 0.194D-02
 Coeff-Com:  0.366D-01 0.540D-01 0.253D-01 0.365D+00 0.521D+00
 Coeff-En:   0.000D+00 0.000D+00 0.000D+00 0.000D+00 0.000D+00 0.000D+00
 Coeff-En:   0.000D+00 0.000D+00 0.000D+00 0.264D+00 0.736D+00
 Coeff:     -0.125D-01 0.201D-01 0.189D-03-0.147D-03-0.110D-01 0.177D-02
 Coeff:      0.334D-01 0.492D-01 0.231D-01 0.356D+00 0.540D+00
 Gap=     0.121 Goal=   None    Shift=    0.000
 Gap=     0.039 Goal=   None    Shift=    0.000
 RMSDP=3.19D-04 MaxDP=4.38D-02 DE=-1.59D-02 OVMax= 6.58D-02

 Cycle  12  Pass 1  IDiag  1:
 RMSU=  1.97D-04    CP:  8.91D-01  8.05D-03  5.58D-02  5.09D-03  6.38D-01
                    CP:  2.04D-01  6.17D-01  4.18D-01  6.94D-01  9.72D-01
                    CP:  7.42D-01
 E= -3009.25572251541     Delta-E=       -0.005330644718 Rises=F Damp=F
 DIIS: error= 4.67D-03 at cycle  12 NSaved=  12.
 NSaved=12 IEnMin=12 EnMin= -3009.25572251541     IErMin=12 ErrMin= 4.67D-03
 ErrMax= 4.67D-03  0.00D+00 EMaxC= 1.00D-01 BMatC= 9.24D-03 BMatP= 3.04D-02
 IDIUse=3 WtCom= 9.53D-01 WtEn= 4.67D-02
 Coeff-Com: -0.928D-02 0.159D-01-0.174D-03-0.439D-05-0.567D-02 0.125D-02
 Coeff-Com:  0.132D-01 0.150D-01-0.313D-01 0.695D-01 0.406D+00 0.526D+00
 Coeff-En:   0.000D+00 0.000D+00 0.000D+00 0.000D+00 0.000D+00 0.000D+00
 Coeff-En:   0.000D+00 0.000D+00 0.000D+00 0.000D+00 0.228D+00 0.772D+00
 Coeff:     -0.885D-02 0.151D-01-0.165D-03-0.418D-05-0.541D-02 0.120D-02
 Coeff:      0.126D-01 0.143D-01-0.298D-01 0.663D-01 0.398D+00 0.537D+00
 Gap=     0.121 Goal=   None    Shift=    0.000
 Gap=     0.039 Goal=   None    Shift=    0.000
 RMSDP=1.34D-04 MaxDP=7.11D-03 DE=-5.33D-03 OVMax= 2.08D-02

 Cycle  13  Pass 1  IDiag  1:
 RMSU=  9.08D-05    CP:  8.91D-01  8.49D-03  5.57D-02  4.99D-03  6.35D-01
                    CP:  2.08D-01  6.15D-01  4.30D-01  6.87D-01  9.89D-01
                    CP:  9.42D-01  8.18D-01
 E= -3009.25726699115     Delta-E=       -0.001544475738 Rises=F Damp=F
 DIIS: error= 3.08D-03 at cycle  13 NSaved=  13.
 NSaved=13 IEnMin=13 EnMin= -3009.25726699115     IErMin=13 ErrMin= 3.08D-03
 ErrMax= 3.08D-03  0.00D+00 EMaxC= 1.00D-01 BMatC= 3.21D-03 BMatP= 9.24D-03
 IDIUse=3 WtCom= 9.69D-01 WtEn= 3.08D-02
 Coeff-Com: -0.571D-02 0.102D-01-0.204D-03 0.986D-04 0.364D-03-0.179D-03
 Coeff-Com:  0.171D-02-0.867D-02-0.288D-01-0.118D+00 0.175D+00 0.378D+00
 Coeff-Com:  0.595D+00
 Coeff-En:   0.000D+00 0.000D+00 0.000D+00 0.000D+00 0.000D+00 0.000D+00
 Coeff-En:   0.000D+00 0.000D+00 0.000D+00 0.000D+00 0.000D+00 0.000D+00
 Coeff-En:   0.100D+01
 Coeff:     -0.554D-02 0.989D-02-0.197D-03 0.955D-04 0.353D-03-0.173D-03
 Coeff:      0.166D-02-0.840D-02-0.279D-01-0.114D+00 0.170D+00 0.367D+00
 Coeff:      0.608D+00
 Gap=     0.118 Goal=   None    Shift=    0.000
 Gap=     0.041 Goal=   None    Shift=    0.000
 RMSDP=8.59D-05 MaxDP=8.29D-03 DE=-1.54D-03 OVMax= 1.31D-02

 Cycle  14  Pass 1  IDiag  1:
 RMSU=  4.68D-05    CP:  8.91D-01  8.58D-03  5.56D-02  4.94D-03  6.33D-01
                    CP:  2.08D-01  6.15D-01  4.25D-01  6.86D-01  1.00D+00
                    CP:  1.01D+00  1.12D+00  8.21D-01
 E= -3009.25768239099     Delta-E=       -0.000415399841 Rises=F Damp=F
 DIIS: error= 2.21D-03 at cycle  14 NSaved=  14.
 NSaved=14 IEnMin=14 EnMin= -3009.25768239099     IErMin=14 ErrMin= 2.21D-03
 ErrMax= 2.21D-03  0.00D+00 EMaxC= 1.00D-01 BMatC= 1.53D-03 BMatP= 3.21D-03
 IDIUse=3 WtCom= 9.78D-01 WtEn= 2.21D-02
 Coeff-Com: -0.341D-02 0.572D-02-0.114D-03 0.741D-04 0.135D-02-0.742D-03
 Coeff-Com: -0.760D-03-0.100D-01 0.671D-02-0.833D-01 0.410D-01-0.942D-02
 Coeff-Com:  0.316D+00 0.737D+00
 Coeff-En:   0.000D+00 0.000D+00 0.000D+00 0.000D+00 0.000D+00 0.000D+00
 Coeff-En:   0.000D+00 0.000D+00 0.000D+00 0.000D+00 0.000D+00 0.000D+00
 Coeff-En:   0.000D+00 0.100D+01
 Coeff:     -0.333D-02 0.559D-02-0.112D-03 0.725D-04 0.132D-02-0.726D-03
 Coeff:     -0.743D-03-0.982D-02 0.657D-02-0.815D-01 0.401D-01-0.922D-02
 Coeff:      0.309D+00 0.743D+00
 Gap=     0.117 Goal=   None    Shift=    0.000
 Gap=     0.042 Goal=   None    Shift=    0.000
 RMSDP=4.08D-05 MaxDP=6.02D-03 DE=-4.15D-04 OVMax= 7.50D-03

 Cycle  15  Pass 1  IDiag  1:
 RMSU=  2.95D-05    CP:  8.91D-01  8.88D-03  5.56D-02  4.94D-03  6.33D-01
                    CP:  2.07D-01  6.16D-01  4.23D-01  6.88D-01  9.96D-01
                    CP:  1.05D+00  1.14D+00  1.06D+00  1.06D+00
 E= -3009.25787634897     Delta-E=       -0.000193957984 Rises=F Damp=F
 DIIS: error= 1.49D-03 at cycle  15 NSaved=  15.
 NSaved=15 IEnMin=15 EnMin= -3009.25787634897     IErMin=15 ErrMin= 1.49D-03
 ErrMax= 1.49D-03  0.00D+00 EMaxC= 1.00D-01 BMatC= 6.61D-04 BMatP= 1.53D-03
 IDIUse=3 WtCom= 9.85D-01 WtEn= 1.49D-02
 Coeff-Com: -0.188D-02 0.307D-02-0.113D-03 0.599D-04-0.660D-04-0.624D-03
 Coeff-Com: -0.354D-03-0.412D-02 0.209D-01-0.852D-02 0.112D-01-0.149D+00
 Coeff-Com: -0.166D-01 0.464D+00 0.682D+00
 Coeff-En:   0.000D+00 0.000D+00 0.000D+00 0.000D+00 0.000D+00 0.000D+00
 Coeff-En:   0.000D+00 0.000D+00 0.000D+00 0.000D+00 0.000D+00 0.000D+00
 Coeff-En:   0.000D+00 0.000D+00 0.100D+01
 Coeff:     -0.185D-02 0.302D-02-0.111D-03 0.590D-04-0.650D-04-0.614D-03
 Coeff:     -0.349D-03-0.406D-02 0.205D-01-0.839D-02 0.110D-01-0.146D+00
 Coeff:     -0.164D-01 0.457D+00 0.687D+00
 Gap=     0.117 Goal=   None    Shift=    0.000
 Gap=     0.042 Goal=   None    Shift=    0.000
 RMSDP=2.45D-05 MaxDP=1.96D-03 DE=-1.94D-04 OVMax= 4.27D-03

 Cycle  16  Pass 1  IDiag  1:
 RMSU=  1.81D-05    CP:  8.91D-01  8.82D-03  5.55D-02  4.95D-03  6.33D-01
                    CP:  2.07D-01  6.16D-01  4.22D-01  6.90D-01  9.91D-01
                    CP:  1.05D+00  1.15D+00  1.08D+00  1.36D+00  1.11D+00
 E= -3009.25795651218     Delta-E=       -0.000080163212 Rises=F Damp=F
 DIIS: error= 1.01D-03 at cycle  16 NSaved=  16.
 NSaved=16 IEnMin=16 EnMin= -3009.25795651218     IErMin=16 ErrMin= 1.01D-03
 ErrMax= 1.01D-03  0.00D+00 EMaxC= 1.00D-01 BMatC= 2.97D-04 BMatP= 6.61D-04
 IDIUse=3 WtCom= 9.90D-01 WtEn= 1.01D-02
 Coeff-Com: -0.332D-03 0.617D-03-0.118D-03 0.265D-04-0.392D-03-0.115D-03
 Coeff-Com: -0.124D-02-0.237D-02 0.123D-01 0.141D-01 0.167D-01-0.961D-01
 Coeff-Com: -0.124D+00-0.323D-01 0.366D+00 0.848D+00
 Coeff-En:   0.000D+00 0.000D+00 0.000D+00 0.000D+00 0.000D+00 0.000D+00
 Coeff-En:   0.000D+00 0.000D+00 0.000D+00 0.000D+00 0.000D+00 0.000D+00
 Coeff-En:   0.000D+00 0.000D+00 0.000D+00 0.100D+01
 Coeff:     -0.329D-03 0.610D-03-0.117D-03 0.263D-04-0.388D-03-0.114D-03
 Coeff:     -0.123D-02-0.234D-02 0.122D-01 0.140D-01 0.166D-01-0.951D-01
 Coeff:     -0.123D+00-0.320D-01 0.362D+00 0.850D+00
 Gap=     0.117 Goal=   None    Shift=    0.000
 Gap=     0.042 Goal=   None    Shift=    0.000
 RMSDP=2.17D-05 MaxDP=1.97D-03 DE=-8.02D-05 OVMax= 3.40D-03

 Cycle  17  Pass 1  IDiag  1:
 RMSU=  1.42D-05    CP:  8.91D-01  8.83D-03  5.53D-02  4.95D-03  6.32D-01
                    CP:  2.06D-01  6.16D-01  4.21D-01  6.93D-01  9.88D-01
                    CP:  1.05D+00  1.15D+00  1.16D+00  1.53D+00  1.40D+00
                    CP:  9.63D-01
 E= -3009.25800121699     Delta-E=       -0.000044704808 Rises=F Damp=F
 DIIS: error= 4.53D-04 at cycle  17 NSaved=  17.
 NSaved=17 IEnMin=17 EnMin= -3009.25800121699     IErMin=17 ErrMin= 4.53D-04
 ErrMax= 4.53D-04  0.00D+00 EMaxC= 1.00D-01 BMatC= 7.81D-05 BMatP= 2.97D-04
 IDIUse=3 WtCom= 9.95D-01 WtEn= 4.53D-03
 Coeff-Com: -0.608D-04 0.106D-03-0.238D-04 0.169D-05-0.273D-03 0.166D-04
 Coeff-Com: -0.302D-03-0.780D-03 0.477D-02 0.508D-02 0.225D-01-0.219D-01
 Coeff-Com: -0.556D-01-0.125D+00 0.372D-01 0.597D+00 0.537D+00
 Coeff-En:   0.000D+00 0.000D+00 0.000D+00 0.000D+00 0.000D+00 0.000D+00
 Coeff-En:   0.000D+00 0.000D+00 0.000D+00 0.000D+00 0.000D+00 0.000D+00
 Coeff-En:   0.000D+00 0.000D+00 0.000D+00 0.000D+00 0.100D+01
 Coeff:     -0.605D-04 0.105D-03-0.237D-04 0.169D-05-0.272D-03 0.165D-04
 Coeff:     -0.301D-03-0.776D-03 0.475D-02 0.506D-02 0.224D-01-0.218D-01
 Coeff:     -0.553D-01-0.124D+00 0.370D-01 0.594D+00 0.539D+00
 Gap=     0.117 Goal=   None    Shift=    0.000
 Gap=     0.042 Goal=   None    Shift=    0.000
 RMSDP=1.27D-05 MaxDP=7.72D-04 DE=-4.47D-05 OVMax= 2.80D-03

 Cycle  18  Pass 1  IDiag  1:
 RMSU=  7.46D-06    CP:  8.91D-01  8.85D-03  5.53D-02  4.96D-03  6.32D-01
                    CP:  2.06D-01  6.17D-01  4.22D-01  6.94D-01  9.83D-01
                    CP:  1.05D+00  1.14D+00  1.15D+00  1.56D+00  1.43D+00
                    CP:  1.22D+00  6.90D-01
 E= -3009.25801584280     Delta-E=       -0.000014625805 Rises=F Damp=F
 DIIS: error= 1.43D-04 at cycle  18 NSaved=  18.
 NSaved=18 IEnMin=18 EnMin= -3009.25801584280     IErMin=18 ErrMin= 1.43D-04
 ErrMax= 1.43D-04  0.00D+00 EMaxC= 1.00D-01 BMatC= 1.12D-05 BMatP= 7.81D-05
[...]
 549,0.00003990,-0.00006319,0.00030071,0.00010621,0.00000518,-0.0000141
 7,-0.00002722,0.00004196,0.00001625,0.00001824,0.00002669,-0.00000641,
 0.00006188,-0.00001619,0.00000645,-0.00005945,-0.00006136,-0.00000835,
 -0.00002153,-0.00008594,-0.00011799,-0.00072478,0.00353292,-0.00287521
 ,-0.00126539,0.00282752,-0.00095325,0.08415697,-0.21063806,-0.11900285
 ,0.01112355,-0.01128054,-0.01077729,-0.00372369,-0.00020990,-0.0033607
 6,-0.00046547,0.00016818,0.00055409,-0.00000032,0.00000376,0.00000437,
 0.00000027,0.00000202,-0.00000150,0.00000309,0.00000116,0.00000165,-0.
 00000279,-0.00000243,-0.00000138,-0.00000284,-0.00000305,-0.00000141,-
 0.00000142,-0.00000632,0.00000202,0.00000425,-0.00000818,0.00000879,-0
 .00000463,0.00001101,-0.00001664,-0.00000367,0.00000257,-0.00000484,0.
 00000294,-0.00000097,-0.00000556,-0.00000252,-0.00000223,-0.00000197,0
 .00000649,0.00005005,-0.00008322,0.00043265,-0.00081537,0.00248468,-0.
 09029757,0.21730014,0.00005089,0.00010619,-0.00017741,0.00003569,-0.00
 006012,0.00021803,0.00005388,0.00003433,0.00005835,-0.00001917,-0.0000
 0560,-0.00004023,-0.00001014,-0.00000174,0.00002202,-0.00000718,-0.000
 00016,-0.00000198,-0.00001160,-0.00000082,-0.00003341,0.00003146,0.000
 00975,0.00002324,-0.00002626,-0.00002262,0.00004305,-0.00002798,-0.000
 00812,-0.00004951,0.00000090,-0.00000959,0.00002650,-0.00001316,-0.000
 01505,-0.00002507,0.00002882,0.00002405,-0.00000779,-0.00001597,-0.000
 00868,0.00003696,0.00000636,0.00010453,-0.00009055,0.00010958,-0.00013
 860,-0.00008644,-0.00018911,0.00009191,-0.00051526,0.00014120,-0.00008
 451,0.00007434,-0.00003463,0.00008073,0.00003126,-0.00006839,0.0003762
 4,-0.00023858,0.00006140,0.00000661,-0.00005723,-0.00003920,0.00003317
 ,0.00000836,0.00001969,0.00001732,-0.00000973,0.00004457,-0.00000676,-
 0.00000512,-0.00004135,-0.00005159,0.00000852,0.00009080,-0.00023132,-
 0.00002691,0.00079333,-0.00291032,0.00612603,0.00018895,-0.00317746,0.
 00237769,0.06021672,-0.11900173,-0.12053648,0.00675155,-0.00842655,-0.
 00208267,-0.00186689,-0.00343747,0.00329607,-0.00046859,0.00061132,-0.
 00021993,-0.00000201,0.00000244,0.00000657,0.00000023,-0.00000063,-0.0
 0000230,0.00000330,-0.00000266,0.00000160,-0.00000191,-0.00000424,0.00
 000120,-0.00000157,-0.00000332,-0.00000171,-0.00000244,-0.00000113,0.0
 0000231,-0.00000152,0.00000398,0.00000147,-0.00001177,0.00000027,0.000
 00401,0.00000066,-0.00000092,0.00000404,0.00000096,0.00000003,-0.00000
 033,-0.00000202,-0.00000457,0.00000556,0.00001157,-0.00006364,0.000134
 25,-0.00023070,0.00252646,-0.00307454,-0.06554732,0.13208520,0.1167341
 2,-0.00011249,-0.00028522,0.00048166,-0.00008782,0.00014866,-0.0005500
 5,-0.00012283,-0.00020805,-0.00018523,0.00004591,0.00000704,0.00010937
 ,0.00002350,0.00001215,-0.00005053,0.00002097,0.00000668,0.00000367,0.
 00002129,0.00000512,0.00007812,-0.00008623,-0.00002759,-0.00005733,0.0
 0003083,0.00006967,-0.00020927,-0.00002571,-0.00005487,0.00017456,-0.0
 0000914,0.00004015,-0.00024939,0.00009487,0.00008591,0.00008820,0.0000
 0154,-0.00002846,0.00004120,0.00005220,0.00002081,0.00002348,0.0000271
 3,-0.00003966,-0.00005041,0.00009594,0.00014269,0.00049841,0.00010301,
 -0.00019158,-0.00016512,-0.00048848,0.00044216,0.00018094,0.00022876,-
 0.00029580,-0.00026675,-0.00009349,-0.00021250,-0.00004897,0.00001537,
 -0.00000220,-0.00000314,-0.00000434,0.00000016,0.00000668,0.00000270,0
 .00001048,-0.00000241,0.00000442,-0.00000723,0.00000380,-0.00000842,-0
 .00000740,-0.00000464,-0.00023037,0.00011627,0.00005382,0.00095345,-0.
 00022605,-0.00028155,-0.00040935,-0.00305814,-0.00151786,-0.01309490,0
 .00369677,0.00375348,-0.33350219,0.01433632,0.03336092,-0.00815110,-0.
 00111104,0.00031299,0.00118181,0.00144226,0.00151858,0.00000692,-0.000
 01285,-0.00001632,0.00000069,-0.00000248,0.00000457,-0.00000487,0.0000
 0776,-0.00000217,0.00000314,0.00001593,-0.00000125,0.00000337,0.000011
 18,0.00000477,-0.00000012,0.00000928,-0.00000475,-0.00001184,0.0000113
 0,-0.00002292,-0.00001311,-0.00000182,-0.00001390,-0.00000859,0.000001
 36,-0.00000380,-0.00000012,0.00000068,-0.00000119,0.00000206,0.0000040
 8,-0.00000217,0.00001758,-0.00000478,-0.00000879,-0.00068300,0.0001816
 4,0.00020182,0.00085354,0.00008394,-0.00027284,0.35245082,0.00007303,0
 .00003830,-0.00007298,-0.00002046,-0.00009416,0.00012713,0.00001807,0.
 00003615,0.00000704,-0.00000820,-0.00000700,-0.00000847,-0.00000454,-0
 .00000158,0.00000507,-0.00000416,-0.00000305,-0.00000156,-0.00000276,0
 .00000099,-0.00000295,0.00001663,0.00000122,-0.00000183,-0.00002562,-0
 .00001445,0.00000629,0.00003574,0.00005061,-0.00001172,-0.00000797,-0.
 00001600,0.00006019,-0.00003739,-0.00002295,-0.00000905,-0.00002742,0.
 00000874,0.00000760,-0.00001930,0.00001346,-0.00003853,-0.00001627,-0.
 00004348,0.00001509,0.00003969,0.00015714,-0.00017558,0.00083901,0.000
 55473,0.00014808,0.00003064,-0.00036949,0.00021257,0.00012953,-0.00001
 721,-0.00014059,0.00001529,-0.00007824,-0.00013655,-0.00000864,0.00002
 000,0.00001669,0.00000142,-0.00000177,-0.00000560,-0.00000434,-0.00000
 970,0.00000083,-0.00001001,0.00000770,-0.00000575,0.00001579,0.0000143
 5,0.00001341,-0.00010238,0.00000819,0.00047421,0.00021524,-0.00077810,
 -0.00015956,-0.00225528,-0.00133729,-0.00412749,-0.02262383,0.00525833
 ,0.00304495,0.01402218,-0.05364885,-0.01108530,0.02487719,0.00288746,-
 0.00295552,0.00056688,-0.00121953,-0.00620022,-0.00000200,0.00000137,0
 .00000053,-0.00000083,0.00000087,0.00000048,-0.00000005,-0.00000281,-0
 .00000179,0.00000091,-0.00000446,-0.00000264,0.00000101,-0.00000761,-0
 .00000049,0.00000350,-0.00000889,0.00000104,0.00001119,-0.00001255,0.0
 0001065,0.00000893,-0.00000427,-0.00001084,-0.00000039,-0.00000084,-0.
 00000094,-0.00000017,0.00000040,0.00000250,0.00000117,-0.00000120,-0.0
 0000338,0.00006035,0.00000988,-0.00002629,-0.00105962,0.00013221,0.000
 06439,0.00080782,-0.00008937,0.00186762,-0.01540617,0.04918575,0.00000
 845,0.00010232,-0.00014722,0.00003008,-0.00006268,0.00011594,0.0000490
 7,0.00007289,0.00006991,-0.00001968,0.00000563,-0.00004491,-0.00001119
 ,-0.00000682,0.00001858,-0.00000971,-0.00000130,-0.00000632,-0.0000096
 3,0.00000458,-0.00002761,0.00003873,0.00001341,0.00001731,-0.00000839,
 -0.00002296,0.00006647,-0.00002725,-0.00002787,-0.00004580,-0.00000789
 ,-0.00001173,0.00004086,-0.00000667,-0.00000617,-0.00001683,0.00001173
 ,-0.00001093,-0.00000650,0.00001007,0.00001545,0.00003472,-0.00006333,
 0.00005749,-0.00001104,0.00001129,-0.00009668,0.00012886,0.00047572,0.
 00015934,0.00022362,0.00026106,0.00017220,-0.00050324,0.00004817,0.000
 03014,-0.00002074,-0.00004934,-0.00021746,-0.00006455,-0.00000721,-0.0
 0001041,0.00002656,0.00000118,0.00000346,-0.00000151,0.00000565,0.0000
 0653,-0.00000462,0.00000972,-0.00000240,0.00000155,-0.00000804,-0.0000
 1552,-0.00000290,-0.00021517,0.00046883,-0.00040279,0.00000224,-0.0001
 3675,-0.00070041,-0.00092306,-0.00418127,0.00274689,-0.01328877,0.0008
 3658,0.00508193,0.03318804,-0.01096912,-0.04794807,0.01693153,-0.00085
 391,0.00239525,0.00117991,-0.00607586,0.00453519,-0.00000179,0.0000012
 0,0.00000513,-0.00000078,-0.00000033,-0.00000080,0.00000021,-0.0000110
 2,0.00000103,-0.00000032,-0.00000755,-0.00000030,-0.00000064,-0.000005
 66,-0.00000189,-0.00000147,0.00000212,0.00000104,-0.00000513,0.0000085
 4,-0.00000498,-0.00002042,0.00001225,-0.00000568,0.00000095,0.00000274
 ,0.00000568,-0.00000019,0.00000040,-0.00000247,0.00000023,0.00000077,0
 .00000178,0.00004676,-0.00002108,0.00003324,-0.00061477,-0.00006305,0.
 00023775,0.00018022,0.00193972,-0.00186926,-0.03660098,0.01616234,0.03
 930766,-0.00031844,-0.00056074,0.00104723,-0.00021869,0.00035311,-0.00
 099527,-0.00020558,-0.00058212,-0.00014451,-0.00000783,0.00000112,0.00
 006778,-0.00000236,-0.00000023,-0.00004951,0.00001251,0.00000597,-0.00
 000475,0.00001208,0.00000768,0.00004209,-0.00001577,-0.00001383,-0.000
 03483,-0.00012185,0.00019265,-0.00084182,0.00020971,0.00002740,0.00064
 046,-0.00006676,0.00014647,-0.00070994,0.00022825,0.00025389,0.0003260
 0,0.00000939,-0.00009799,0.00016231,0.00012092,0.00007408,-0.00018601,
 0.00034758,0.00049010,-0.00051258,0.00012832,0.00050917,0.00193650,0.0
 0251521,-0.00043296,-0.00100373,-0.00151151,0.00057174,0.00029101,0.00
 111886,-0.00100739,-0.00072389,-0.00037248,-0.00073091,-0.00023627,0.0
 0009724,0.00004985,0.00001026,-0.00006996,0.00001341,0.00001856,-0.000
 00845,0.00004300,0.00001199,0.00008270,0.00001079,-0.00001181,-0.00007
 065,-0.00006525,0.00001067,-0.00099729,-0.00106645,-0.00047600,-0.0040
 7116,0.00163879,0.00170063,-0.00113644,0.00093071,0.00061971,0.0001273
 7,0.00204000,0.00201191,0.01151722,0.01051854,0.00613388,-0.15947370,-
 0.11953621,-0.06559423,-0.01396786,-0.02203553,-0.01226876,0.00001325,
 -0.00002008,-0.00001508,0.00000079,-0.00000146,0.00000556,0.00000097,0
 .,-0.00000174,0.00000197,0.00000762,-0.00001927,0.00000027,-0.00001025
 ,0.00000587,-0.00000215,-0.00001552,0.00000098,-0.00001555,-0.00000933
 ,-0.00001395,-0.00008270,0.00001727,-0.00009415,-0.00005089,0.00001668
 ,-0.00004110,0.00000269,-0.00000106,-0.00000509,-0.00000007,0.00000906
 ,-0.00000622,-0.00042934,0.00005104,0.00007353,0.00002940,-0.00002799,
 -0.00010337,0.00036768,0.00051632,0.00031941,0.00086127,-0.00011647,-0
 .00060196,0.16531489,-0.00016358,-0.00011669,0.00011103,0.00033550,0.0
 0000142,-0.00002362,-0.00012503,0.00016290,0.00001329,0.00002219,-0.00
 000888,0.00004147,0.00002065,0.00000313,-0.00002581,0.00000855,-0.0000
 0428,0.00001272,0.00001565,-0.00000442,0.00003269,-0.00003584,-0.00001
 288,-0.00001142,0.00001761,0.00003575,-0.00002150,0.00025395,0.0002029
 9,0.00006281,-0.00006262,-0.00004484,0.00030649,-0.00008158,-0.0001031
 5,-0.00011055,-0.00003149,0.00008453,-0.00011943,0.00011148,-0.0003812
 5,-0.00027047,0.00134802,-0.00261537,0.00019841,0.00111783,-0.00083570
 ,-0.00115399,-0.00009167,-0.00112188,0.00096450,0.00010226,-0.00043331
 ,0.00002710,-0.00027304,0.00034025,0.00022231,0.00019135,0.00036250,0.
 00022863,-0.00007455,-0.00001691,-0.00000176,0.00003180,-0.00003060,-0
 .00000413,-0.00001387,-0.00001626,0.00000787,-0.00005356,0.00000730,0.
 00000870,0.00005824,0.00004901,-0.00001573,0.00042603,0.00006498,-0.00
 023371,0.00041050,0.00206141,-0.00168912,0.00113332,-0.00011893,0.0002
 0610,0.00225738,-0.00009044,-0.00521979,-0.01537988,-0.01077089,-0.009
 20610,-0.12068160,-0.19128852,-0.08734515,0.00177872,0.00514048,0.0007
 7460,-0.00000212,0.00000588,-0.00000253,0.00000030,0.00000290,0.000001
 16,-0.00000253,0.00001314,-0.00000184,0.00000083,0.00000581,0.00000740
 ,0.00000204,0.00000819,-0.00000122,-0.00000136,0.00001149,-0.00000720,
 0.00000967,-0.00000326,-0.00000475,-0.00005509,0.00003667,0.00003555,0
 .00001319,-0.00000388,0.00000132,-0.00000251,0.00000005,0.00000246,0.0
 0000045,-0.00000085,-0.00000444,0.00005824,0.00001651,-0.00003863,-0.0
 0003462,-0.00030573,0.00042220,-0.00067641,-0.00060145,-0.00028084,0.0
 0026119,-0.00060037,0.00275652,0.12782622,0.20088895,0.00022401,0.0005
 2989,-0.00058519,0.00042229,-0.00060966,0.00070618,-0.00000588,0.00015
 583,-0.00000456,0.00000795,0.00000481,-0.00003797,-0.00000514,0.000002
 73,0.00003625,-0.00001520,0.00000031,-0.00001268,-0.00001236,0.0000053
 9,-0.00001724,0.00001145,0.00001093,-0.00000624,-0.00004012,-0.0001234
 9,0.00027343,0.00009192,0.00002279,-0.00010903,-0.00006278,-0.00005378
 ,0.00010612,-0.00003022,-0.00002084,-0.00013236,0.00016505,0.00010043,
 -0.00015392,-0.00007642,0.00007853,-0.00000720,0.00021470,-0.00027688,
 0.00006506,0.00072686,-0.00104859,-0.00058925,-0.00068472,0.00040267,-
 0.00193053,0.00034293,0.00026392,-0.00023704,-0.00021788,0.00014607,0.
 00015999,0.00009242,0.00012645,-0.00012051,-0.00005644,-0.00002169,0.0
 0002858,0.00003115,-0.00002039,-0.00000918,-0.00000297,-0.00002133,-0.
 00000514,-0.00005176,0.00000474,0.00000292,0.00003920,0.00003972,0.000
 00231,0.00024669,0.00011825,0.00020292,0.00121215,-0.00223217,0.003276
 74,0.00021333,0.00053937,-0.00024772,0.00268949,-0.00502551,0.00463185
 ,-0.01024447,-0.01173144,-0.00157531,-0.06625051,-0.08662361,-0.086534
 62,0.00279880,0.00309545,0.00505064,-0.00000380,-0.00000148,0.00000454
 ,-0.00000131,-0.00000294,-0.00000186,-0.00000346,-0.00001281,0.0000019
 6,-0.00001153,0.00000429,-0.00000608,0.00000206,-0.00000932,-0.0000052
 0,-0.00001414,0.00000042,-0.00000082,-0.00001924,0.00001428,-0.0000008
 3,-0.00006080,-0.00006425,-0.00001980,0.00001326,-0.00000844,0.0000179
 2,-0.00000274,0.00000091,0.00000256,-0.00000136,0.00000289,0.00000143,
 0.00009590,-0.00007876,0.00011903,-0.00011645,0.00046956,-0.00074013,-
 0.00043022,-0.00044447,-0.00013943,-0.00032803,0.00288215,-0.00329362,
 0.06922514,0.09944863,0.08171532,-0.08216571,0.02521577,-0.01667720,-0
 .02815971,-0.02266315,0.02834821,0.00527742,0.00593391,0.00026829,-0.0
 0074856,-0.00007925,-0.00101348,-0.00077010,-0.00036087,-0.00011825,-0
 .00033963,0.00011612,-0.00048012,0.00064067,-0.00009563,-0.00019880,0.
 00019808,0.00031211,0.00028938,-0.00024852,-0.00135494,0.00502464,0.00
 111712,0.00204977,-0.00301395,-0.00043193,-0.00148857,0.00407745,-0.00
 112945,-0.00084296,-0.00229545,0.00015436,0.00065707,-0.00081238,-0.00
 004821,-0.00025107,-0.00108283,-0.00267241,-0.00297618,0.00207719,-0.0
 0004342,0.00415524,-0.01062923,-0.00283784,-0.00086260,0.00343956,0.00
 466510,-0.00192943,0.00303704,-0.01310691,0.00906799,-0.03004929,0.001
 59473,0.00094046,-0.00038613,-0.00066233,-0.00017859,0.00015883,0.0002
 8820,0.00015399,0.00013156,-0.00019319,-0.00027429,0.00011805,-0.00044
 135,0.00005416,0.00016604,0.00032783,0.00025155,0.00007362,0.00031382,
 -0.00045316,-0.00007134,-0.00052906,0.00001471,0.00017191,0.00044379,0
 .00000481,-0.00007022,-0.00006800,-0.00009734,-0.00003908,-0.00005845,
 -0.00025555,0.00010477,-0.00016871,0.00018270,-0.00022417,-0.00017483,
 0.00057144,-0.00017098,0.00031679,-0.00075367,-0.00097428,0.00001285,0
 .00003836,0.00003677,0.00002842,-0.00003155,0.00001031,0.00009436,0.00
 022512,-0.00014600,0.00000687,-0.00005427,0.00000019,0.00002594,-0.000
 03240,-0.00003302,0.00004354,0.00004835,0.00003967,0.00010398,-0.00009
 767,0.00009733,0.00006958,-0.00014118,-0.00002095,-0.00006131,-0.00000
 036,-0.00004073,0.00001724,0.00001933,-0.00003809,0.00002415,-0.000081
 91,-0.00002722,-0.00002556,-0.00001303,-0.00003859,0.00001580,0.000016
 35,-0.00004820,0.00004543,-0.00002694,0.00001280,0.00009694,0.00002975
 ,-0.00011680,0.11916223,0.01670743,-0.00166849,0.00021812,-0.00533864,
 -0.00143542,0.00148560,-0.00058484,-0.00054998,0.00149295,-0.00018673,
 -0.00008227,0.00007706,-0.00111110,-0.00036989,0.00003960,0.00008350,-
 0.00020417,-0.00046942,0.00053830,0.00005348,-0.00016948,0.00039445,0.
 00014261,0.00022951,-0.00021420,-0.00054298,0.00024374,0.00010240,0.00
 010237,-0.00036500,-0.00002623,-0.00021054,0.00056456,-0.00019957,-0.0
 0018656,-0.00030665,0.00010077,0.00008909,-0.00012296,-0.00001497,-0.0
 0012351,0.00001649,-0.00012169,-0.00005785,0.00034787,-0.00078289,0.00
 053234,-0.00028865,0.00046587,-0.00047577,-0.00098771,-0.00074840,0.00
 049711,-0.00506778,0.00497418,-0.00327097,0.01851433,0.00066217,-0.001
 22128,-0.00165367,0.00002227,0.00021677,0.00023190,-0.00007382,0.00023
 454,-0.00010664,0.00003011,0.00003126,-0.00008815,0.00002967,-0.000170
 92,0.00018756,-0.00011673,-0.00031568,0.00017837,-0.00003037,-0.000550
 82,-0.00003195,-0.00016883,-0.00004748,0.00004572,0.00032557,-0.000147
 15,-0.00009160,-0.00021781,-0.00016404,-0.00006863,-0.00005240,0.00005
 213,0.00012887,0.00007955,-0.00010589,-0.00006094,0.00030019,0.0001460
 9,0.00004667,-0.00008530,0.00010322,-0.00061307,-0.00000748,0.00006326
 ,0.00001613,0.00004153,0.00001305,0.00000700,-0.00013765,-0.00006930,0
 .00007621,-0.00001855,-0.00000936,-0.00000114,-0.00001242,0.00000564,-
 0.00000029,-0.00000967,0.00001276,0.00001748,-0.00001709,0.00001141,0.
 00001603,0.00002061,0.00000098,0.00017173,0.00004143,-0.00000224,-0.00
 000189,-0.00001090,-0.00009198,-0.00012435,0.00002244,-0.00007058,-0.0
 0010786,-0.00000884,-0.00000404,-0.00002223,-0.00000408,0.00001390,-0.
 00002141,0.00001224,0.00000734,-0.00001689,0.00000909,0.00002450,-0.00
 003956,-0.01466253,0.00979530,-0.01075909,0.00050632,0.00117643,0.0137
 5186,0.00515226,-0.00666442,-0.00113368,-0.00111763,0.00122336,-0.0003
 0198,0.00014316,0.00015370,-0.00118816,-0.00031423,-0.00032997,0.00024
 508,-0.00000854,-0.00022212,0.00029399,0.00005130,-0.00040285,0.000700
 28,0.00012084,0.00041497,0.00006219,0.00004009,-0.00146564,-0.00037755
 ,-0.00079129,0.00056983,0.00015783,0.00053860,-0.00115908,0.00038697,0
 .00028965,0.00075660,-0.00000458,-0.00045234,0.00025238,-0.00011458,0.
 00035027,0.00032806,0.00067406,0.00143759,-0.00110180,0.00275975,-0.00
 193989,0.00078940,-0.00785697,0.00612971,0.00131450,0.01535399,-0.0281
 2528,-0.03800258,-0.03605860,0.03072668,-0.07091111,0.00167357,0.00530
 195,0.00428818,-0.00095286,-0.00042436,0.00048619,-0.00041730,-0.00020
 106,-0.00021195,-0.00031332,-0.00016080,0.00022916,0.00013887,0.000711
 48,-0.00042109,0.00017257,-0.00004631,0.00022986,0.00412424,-0.0014414
 1,-0.00174142,-0.00185684,0.00234148,0.00161927,0.00319977,-0.00184721
 ,-0.00140541,-0.00240773,-0.00056770,-0.00017577,-0.00065430,0.0007219
 0,0.00022118,-0.00103109,-0.00001912,0.00045271,0.00099017,-0.00386965
 ,-0.00268087,0.00008929,-0.00026480,-0.00014762,-0.00004460,0.00001948
 ,-0.00005981,0.00006082,-0.00003367,0.00000975,-0.00007386,-0.00012640
 ,0.00007852,-0.00003375,0.00000999,-0.00000472,-0.00003876,0.00002474,
 0.00003100,0.00000660,-0.00003508,0.00000780,-0.00009984,0.00008254,0.
 00002201,-0.00021636,0.00035237,-0.00039761,0.00006031,0.00000270,0.00
 008272,-0.00000344,0.00001640,-0.00000389,-0.00012683,0.00034771,0.000
 08367,0.00001337,-0.00003800,0.00001662,-0.00003781,-0.00002341,0.0000
 4631,0.00002074,0.00005478,0.00003711,0.00003437,-0.00010022,0.0001177
 1,0.02113316,-0.01352557,0.11247071\\-0.00001252,-0.00003951,0.0000376
 3,-0.00000734,0.00001402,-0.00001580,0.00000150,0.00000578,0.00000420,
 0.00000661,-0.00000516,-0.00002962,-0.00001528,0.00000140,0.00002820,0
 .00001541,-0.00000318,-0.00001344,-0.00001295,-0.00000190,0.00000147,0
 .00000852,0.00001469,0.00000613,0.00000227,-0.00000784,-0.00000358,0.0
 0000691,0.00000684,0.00002749,-0.00000036,0.00000079,-0.00002191,0.000
 00951,0.00000932,0.00001351,-0.00000912,-0.00001393,-0.00000319,0.0000
 0532,0.00001331,-0.00001450,-0.00001479,-0.00001491,-0.00000207,0.0000
 1512,0.00001696,0.00000139,0.00001086,-0.00001217,-0.00001621,-0.00000
 295,0.00001566,0.00000148,-0.00001653,-0.00000940,0.00003091,-0.000000
 61,-0.00001038,-0.00001553,0.00000940,-0.00000965,0.00000718,-0.000013
 20,0.00001857,0.00000771,0.00000555,-0.00001650,-0.00000658,0.00000503
 ,0.00001682,-0.00000043,-0.00001415,-0.00001581,-0.00000199,0.00000509
 ,0.00000282,0.00000163,-0.00001755,-0.00000840,-0.00000276,0.00002187,
 0.00000009,-0.00000119,-0.00001615,-0.00001088,-0.00000667,0.00000781,
 0.00001599,0.00000961,0.00001553,-0.00001705,-0.00000924,-0.00001421,0
 .00001209,0.00001234,-0.00000279,0.00000646,0.00000480,-0.00000540,-0.
 00000231,-0.00000180,-0.00000008,-0.00000135,-0.00000170,-0.00000200,0
 .00000606,-0.00000585,0.00000123,-0.00000156,0.00000392,-0.00000038,-0
 .00000183,-0.00000002,0.00000065,0.00000142,0.00000180,-0.00000055,0.0
 0000228,0.00000438,0.00000270,0.00000047,-0.00000480,0.00000268,0.0000
 0204,0.00000166,0.00000676,0.00000092,0.00000020,0.00000050,-0.0000009
 5,-0.00000179,-0.00000519,0.00000132,0.00000164,0.00000057,0.00000136,
 0.00000204,-0.00000189,-0.00000078,-0.00000070,-0.00000427,-0.00000072
 ,0.00000165,0.00002287,0.00001871,-0.00003161\\\@
 The archive entry for this job was punched.


 WHEN HAVING A MEETING OF THE MINDS,
 MAKE SURE YOU HAVE THE EQUIPMENT FOR IT.
 Job cpu time:       0 days  9 hours 35 minutes 15.6 seconds.
 Elapsed time:       0 days  0 hours 18 minutes  4.8 seconds.
 File lengths (MBytes):  RWF=   3081 Int=      0 D2E=      0 Chk=     31 Scr=      2
 Normal termination of Gaussian 16 at Fri Mar  8 03:27:40 2024.
