 Entering Gaussian System, Link 0=g16
 Initial command:
 /public/software/apps/Gaussian/g16/l1.exe "/public/home/LJQ_HG/tmp/Gau-117511.inp" -scrdir="/public/home/LJQ_HG/tmp/"
 Entering Link 1 = /public/software/apps/Gaussian/g16/l1.exe PID=    117512.
  
 Copyright (c) 1988-2019, Gaussian, Inc.  All Rights Reserved.
  
 This is part of the Gaussian(R) 16 program.  It is based on
 the Gaussian(R) 09 system (copyright 2009, Gaussian, Inc.),
 the Gaussian(R) 03 system (copyright 2003, Gaussian, Inc.),
 the Gaussian(R) 98 system (copyright 1998, Gaussian, Inc.),
 the Gaussian(R) 94 system (copyright 1995, Gaussian, Inc.),
 the Gaussian 92(TM) system (copyright 1992, Gaussian, Inc.),
 the Gaussian 90(TM) system (copyright 1990, Gaussian, Inc.),
 the Gaussian 88(TM) system (copyright 1988, Gaussian, Inc.),
 the Gaussian 86(TM) system (copyright 1986, Carnegie Mellon
 University), and the Gaussian 82(TM) system (copyright 1983,
 Carnegie Mellon University). Gaussian is a federally registered
 trademark of Gaussian, Inc.
  
 This software contains proprietary and confidential information,
 including trade secrets, belonging to Gaussian, Inc.
  
 This software is provided under written license and may be
 used, copied, transmitted, or stored only in accord with that
 written license.
  
 The following legend is applicable only to US Government
 contracts under FAR:
  
                    RESTRICTED RIGHTS LEGEND
  
 Use, reproduction and disclosure by the US Government is
 subject to restrictions as set forth in subparagraphs (a)
 and (c) of the Commercial Computer Software - Restricted
 Rights clause in FAR 52.227-19.
  
 Gaussian, Inc.
 340 Quinnipiac St., Bldg. 40, Wallingford CT 06492
  
  
 ---------------------------------------------------------------
 Warning -- This program may not be used in any manner that
 competes with the business of Gaussian, Inc. or will provide
 assistance to any competitor of Gaussian, Inc.  The licensee
 of this program is prohibited from giving any competitor of
 Gaussian, Inc. access to this program.  By using this program,
 the user acknowledges that Gaussian, Inc. is engaged in the
 business of creating and licensing software in the field of
 computational chemistry and represents and warrants to the
 licensee that it is not a competitor of Gaussian, Inc. and that
 it will not use this program in any manner prohibited above.
 ---------------------------------------------------------------
  

 Cite this work as:
 Gaussian 16, Revision C.01,
 M. J. Frisch, G. W. Trucks, H. B. Schlegel, G. E. Scuseria, 
 M. A. Robb, J. R. Cheeseman, G. Scalmani, V. Barone, 
 G. A. Petersson, H. Nakatsuji, X. Li, M. Caricato, A. V. Marenich, 
 J. Bloino, B. G. Janesko, R. Gomperts, B. Mennucci, H. P. Hratchian, 
 J. V. Ortiz, A. F. Izmaylov, J. L. Sonnenberg, D. Williams-Young, 
 F. Ding, F. Lipparini, F. Egidi, J. Goings, B. Peng, A. Petrone, 
 T. Henderson, D. Ranasinghe, V. G. Zakrzewski, J. Gao, N. Rega, 
 G. Zheng, W. Liang, M. Hada, M. Ehara, K. Toyota, R. Fukuda, 
 J. Hasegawa, M. Ishida, T. Nakajima, Y. Honda, O. Kitao, H. Nakai, 
 T. Vreven, K. Throssell, J. A. Montgomery, Jr., J. E. Peralta, 
 F. Ogliaro, M. J. Bearpark, J. J. Heyd, E. N. Brothers, K. N. Kudin, 
 V. N. Staroverov, T. A. Keith, R. Kobayashi, J. Normand, 
 K. Raghavachari, A. P. Rendell, J. C. Burant, S. S. Iyengar, 
 J. Tomasi, M. Cossi, J. M. Millam, M. Klene, C. Adamo, R. Cammi, 
 J. W. Ochterski, R. L. Martin, K. Morokuma, O. Farkas, 
 J. B. Foresman, and D. J. Fox, Gaussian, Inc., Wallingford CT, 2019.
 
 ******************************************
 Gaussian 16:  ES64L-G16RevC.01  3-Jul-2019
                 8-Mar-2024 
 ******************************************
 %nprocshared=32
 Will use up to   32 processors via shared memory.
 %mem=100GB
 ------------------------------------------
 #p opt freq b3lyp/def2svpp em=gd3bj nosymm
 ------------------------------------------
 1/18=20,19=15,26=3,38=1/1,3;
 2/9=110,12=2,15=1,17=6,18=5,40=1/2;
 3/5=43,7=202,11=2,25=1,30=1,71=1,74=-5,124=41/1,2,3;
 4//1;
 5/5=2,38=5/2;
 6/7=2,8=2,9=2,10=2,28=1/1;
 7/30=1/1,2,3,16;
 1/18=20,19=15,26=3/3(2);
 2/9=110,15=1/2;
 99//99;
 2/9=110,15=1/2;
 3/5=43,7=202,11=2,25=1,30=1,71=1,74=-5,124=41/1,2,3;
 4/5=5,16=3,69=1/1;
 5/5=2,38=5/2;
 7/30=1/1,2,3,16;
 1/18=20,19=15,26=3/3(-5);
 2/9=110,15=1/2;
 6/7=2,8=2,9=2,10=2,19=2,28=1/1;
 99/9=1/99;
 Leave Link    1 at Fri Mar  8 02:52:43 2024, MaxMem= 13421772800 cpu:               2.1 elap:               0.1
 (Enter /public/software/apps/Gaussian/g16/l101.exe)
 ------------------
 $$$$Title####0????
 ------------------
 Symbolic Z-matrix:
 Charge =  0 Multiplicity = 2
 C                    -3.71017   2.94703   0.02801 
 O                    -4.56085   2.09233   0.75904 
 C                    -3.96635   1.73352   1.99455 
 C                    -3.73753   0.22105   2.04689 
 C                    -2.73813  -0.21627   1.0036 
 C                    -3.19254  -0.6907   -0.23368 
 C                    -2.2866   -1.0318   -1.24518 
 C                    -2.76018  -1.48651  -2.48651 
 C                    -1.86449  -1.80616  -3.50762 
 C                    -0.49188  -1.6693   -3.30309 
 C                    -0.00461  -1.21863  -2.07423 
 C                    -0.89178  -0.90427  -1.02187 
 C                    -0.42888  -0.44912   0.23887 
 C                     1.02234  -0.30803   0.53561 
 C                     1.55996   0.98644   0.66028 
 O                     0.71975   2.0912    0.54021 
 C                     2.93219   1.17147   0.90632 
 C                     3.52821   2.55677   0.98761 
 C                     4.06103   3.0163   -0.37502 
 O                     3.03445   3.01297  -1.3508 
 C                     2.45      4.2924   -1.45607 
 C                     3.76964   0.05473   1.02373 
 C                     3.24916  -1.24223   0.93565 
 C                     4.09852  -2.35072   1.0834 
 C                     3.58419  -3.64606   1.01327 
 C                     2.22078  -3.84746   0.80012 
 C                     1.3631   -2.75566   0.64809 
 C                     1.86399  -1.43689   0.70141 
 C                    -1.35733  -0.08447   1.23126 
 O                    -0.90036   0.42242   2.44569 
 H                    -3.55501   3.90717   0.5681 
 H                    -4.19025   3.17816  -0.9448 
 H                    -2.73353   2.45768  -0.18467 
 H                    -4.67506   2.00348   2.80593 
 H                    -3.00983   2.263     2.22609 
 H                    -3.37447  -0.06047   3.05906 
 H                    -4.70776  -0.30253   1.89997 
 H                    -4.25851  -0.77395  -0.41458 
 H                    -3.82339  -1.59041  -2.6684 
 H                    -2.23591  -2.15488  -4.4626 
 H                     0.19828  -1.91055  -4.10128 
 H                     1.06613  -1.11428  -1.96 
 H                     4.36627   2.55931   1.71847 
 H                     2.78233   3.28546   1.3695 
 H                     4.8499    2.30653  -0.7043 
 H                     4.56675   4.00535  -0.26677 
 H                     2.05891   4.64648  -0.47693 
 H                     1.59271   4.2326   -2.15743 
 H                     3.17653   5.02483  -1.87166 
 H                     4.83082   0.20022   1.19372 
 H                     5.15946  -2.21512   1.25753 
 H                     4.24374  -4.49631   1.12997 
 H                     1.82581  -4.85418   0.75382 
 H                     0.31065  -2.95332   0.49345 
 Cu                   -0.25538   2.26385   2.23453 
 
 ITRead=  0  0  0  0  0  0  0  0  0  0  0  0  0  0  0  0  0  0  0  0
 ITRead=  0  0  0  0  0  0  0  0  0  0  0  0  0  0  0  0  0  0  0  0
 ITRead=  0  0  0  0  0  0  0  0  0  0  0  0  0  0  0
 MicOpt= -1 -1 -1 -1 -1 -1 -1 -1 -1 -1 -1 -1 -1 -1 -1 -1 -1 -1 -1 -1
 MicOpt= -1 -1 -1 -1 -1 -1 -1 -1 -1 -1 -1 -1 -1 -1 -1 -1 -1 -1 -1 -1
 MicOpt= -1 -1 -1 -1 -1 -1 -1 -1 -1 -1 -1 -1 -1 -1 -1
 NAtoms=     55 NQM=       55 NQMF=       0 NMMI=      0 NMMIF=      0
                NMic=       0 NMicF=      0.
                    Isotopes and Nuclear Properties:
 (Nuclear quadrupole moments (NQMom) in fm**2, nuclear magnetic moments (NMagM)
  in nuclear magnetons)

  Atom         1           2           3           4           5           6           7           8           9          10
 IAtWgt=          12          16          12          12          12          12          12          12          12          12
 AtmWgt=  12.0000000  15.9949146  12.0000000  12.0000000  12.0000000  12.0000000  12.0000000  12.0000000  12.0000000  12.0000000
 NucSpn=           0           0           0           0           0           0           0           0           0           0
 AtZEff=  -0.0000000  -0.0000000  -0.0000000  -0.0000000  -0.0000000  -0.0000000  -0.0000000  -0.0000000  -0.0000000  -0.0000000
 NQMom=    0.0000000   0.0000000   0.0000000   0.0000000   0.0000000   0.0000000   0.0000000   0.0000000   0.0000000   0.0000000
 NMagM=    0.0000000   0.0000000   0.0000000   0.0000000   0.0000000   0.0000000   0.0000000   0.0000000   0.0000000   0.0000000
 AtZNuc=   6.0000000   8.0000000   6.0000000   6.0000000   6.0000000   6.0000000   6.0000000   6.0000000   6.0000000   6.0000000

  Atom        11          12          13          14          15          16          17          18          19          20
 IAtWgt=          12          12          12          12          12          16          12          12          12          16
 AtmWgt=  12.0000000  12.0000000  12.0000000  12.0000000  12.0000000  15.9949146  12.0000000  12.0000000  12.0000000  15.9949146
 NucSpn=           0           0           0           0           0           0           0           0           0           0
 AtZEff=  -0.0000000  -0.0000000  -0.0000000  -0.0000000  -0.0000000  -0.0000000  -0.0000000  -0.0000000  -0.0000000  -0.0000000
 NQMom=    0.0000000   0.0000000   0.0000000   0.0000000   0.0000000   0.0000000   0.0000000   0.0000000   0.0000000   0.0000000
 NMagM=    0.0000000   0.0000000   0.0000000   0.0000000   0.0000000   0.0000000   0.0000000   0.0000000   0.0000000   0.0000000
 AtZNuc=   6.0000000   6.0000000   6.0000000   6.0000000   6.0000000   8.0000000   6.0000000   6.0000000   6.0000000   8.0000000

  Atom        21          22          23          24          25          26          27          28          29          30
 IAtWgt=          12          12          12          12          12          12          12          12          12          16
 AtmWgt=  12.0000000  12.0000000  12.0000000  12.0000000  12.0000000  12.0000000  12.0000000  12.0000000  12.0000000  15.9949146
 NucSpn=           0           0           0           0           0           0           0           0           0           0
 AtZEff=  -0.0000000  -0.0000000  -0.0000000  -0.0000000  -0.0000000  -0.0000000  -0.0000000  -0.0000000  -0.0000000  -0.0000000
 NQMom=    0.0000000   0.0000000   0.0000000   0.0000000   0.0000000   0.0000000   0.0000000   0.0000000   0.0000000   0.0000000
 NMagM=    0.0000000   0.0000000   0.0000000   0.0000000   0.0000000   0.0000000   0.0000000   0.0000000   0.0000000   0.0000000
 AtZNuc=   6.0000000   6.0000000   6.0000000   6.0000000   6.0000000   6.0000000   6.0000000   6.0000000   6.0000000   8.0000000

  Atom        31          32          33          34          35          36          37          38          39          40
 IAtWgt=           1           1           1           1           1           1           1           1           1           1
 AtmWgt=   1.0078250   1.0078250   1.0078250   1.0078250   1.0078250   1.0078250   1.0078250   1.0078250   1.0078250   1.0078250
 NucSpn=           1           1           1           1           1           1           1           1           1           1
 AtZEff=  -0.0000000  -0.0000000  -0.0000000  -0.0000000  -0.0000000  -0.0000000  -0.0000000  -0.0000000  -0.0000000  -0.0000000
 NQMom=    0.0000000   0.0000000   0.0000000   0.0000000   0.0000000   0.0000000   0.0000000   0.0000000   0.0000000   0.0000000
 NMagM=    2.7928460   2.7928460   2.7928460   2.7928460   2.7928460   2.7928460   2.7928460   2.7928460   2.7928460   2.7928460
 AtZNuc=   1.0000000   1.0000000   1.0000000   1.0000000   1.0000000   1.0000000   1.0000000   1.0000000   1.0000000   1.0000000

  Atom        41          42          43          44          45          46          47          48          49          50
 IAtWgt=           1           1           1           1           1           1           1           1           1           1
 AtmWgt=   1.0078250   1.0078250   1.0078250   1.0078250   1.0078250   1.0078250   1.0078250   1.0078250   1.0078250   1.0078250
 NucSpn=           1           1           1           1           1           1           1           1           1           1
 AtZEff=  -0.0000000  -0.0000000  -0.0000000  -0.0000000  -0.0000000  -0.0000000  -0.0000000  -0.0000000  -0.0000000  -0.0000000
 NQMom=    0.0000000   0.0000000   0.0000000   0.0000000   0.0000000   0.0000000   0.0000000   0.0000000   0.0000000   0.0000000
 NMagM=    2.7928460   2.7928460   2.7928460   2.7928460   2.7928460   2.7928460   2.7928460   2.7928460   2.7928460   2.7928460
 AtZNuc=   1.0000000   1.0000000   1.0000000   1.0000000   1.0000000   1.0000000   1.0000000   1.0000000   1.0000000   1.0000000

  Atom        51          52          53          54          55
 IAtWgt=           1           1           1           1          63
 AtmWgt=   1.0078250   1.0078250   1.0078250   1.0078250  62.9295992
 NucSpn=           1           1           1           1           3
 AtZEff=  -0.0000000  -0.0000000  -0.0000000  -0.0000000  -0.0000000
 NQMom=    0.0000000   0.0000000   0.0000000   0.0000000 -22.0000000
 NMagM=    2.7928460   2.7928460   2.7928460   2.7928460   2.2233000
 AtZNuc=   1.0000000   1.0000000   1.0000000   1.0000000  29.0000000
 Leave Link  101 at Fri Mar  8 02:52:43 2024, MaxMem= 13421772800 cpu:               3.0 elap:               0.1
 (Enter /public/software/apps/Gaussian/g16/l103.exe)

 GradGradGradGradGradGradGradGradGradGradGradGradGradGradGradGradGradGrad
 Berny optimization.
 Initialization pass.
                           ----------------------------
                           !    Initial Parameters    !
                           ! (Angstroms and Degrees)  !
 --------------------------                            --------------------------
 ! Name  Definition              Value          Derivative Info.                !
 --------------------------------------------------------------------------------
 ! R1    R(1,2)                  1.4102         estimate D2E/DX2                !
 ! R2    R(1,31)                 1.1125         estimate D2E/DX2                !
 ! R3    R(1,32)                 1.1092         estimate D2E/DX2                !
 ! R4    R(1,33)                 1.1129         estimate D2E/DX2                !
 ! R5    R(2,3)                  1.4173         estimate D2E/DX2                !
 ! R6    R(3,4)                  1.5306         estimate D2E/DX2                !
 ! R7    R(3,34)                 1.1106         estimate D2E/DX2                !
 ! R8    R(3,35)                 1.1175         estimate D2E/DX2                !
 ! R9    R(4,5)                  1.5095         estimate D2E/DX2                !
 ! R10   R(4,36)                 1.1116         estimate D2E/DX2                !
 ! R11   R(4,37)                 1.1122         estimate D2E/DX2                !
 ! R12   R(5,6)                  1.4009         estimate D2E/DX2                !
 ! R13   R(5,29)                 1.4056         estimate D2E/DX2                !
 ! R14   R(6,7)                  1.4001         estimate D2E/DX2                !
 ! R15   R(6,38)                 1.0844         estimate D2E/DX2                !
 ! R16   R(7,8)                  1.4043         estimate D2E/DX2                !
 ! R17   R(7,12)                 1.4183         estimate D2E/DX2                !
 ! R18   R(8,9)                  1.3954         estimate D2E/DX2                !
 ! R19   R(8,39)                 1.0837         estimate D2E/DX2                !
 ! R20   R(9,10)                 1.3945         estimate D2E/DX2                !
 ! R21   R(9,40)                 1.0824         estimate D2E/DX2                !
 ! R22   R(10,11)                1.3967         estimate D2E/DX2                !
 ! R23   R(10,41)                1.0824         estimate D2E/DX2                !
 ! R24   R(11,12)                1.4119         estimate D2E/DX2                !
 ! R25   R(11,42)                1.0819         estimate D2E/DX2                !
 ! R26   R(12,13)                1.4181         estimate D2E/DX2                !
 ! R27   R(13,14)                1.4879         estimate D2E/DX2                !
 ! R28   R(13,29)                1.4071         estimate D2E/DX2                !
 ! R29   R(14,15)                1.4072         estimate D2E/DX2                !
 ! R30   R(14,28)                1.4178         estimate D2E/DX2                !
 ! R31   R(15,16)                1.3932         estimate D2E/DX2                !
 ! R32   R(15,17)                1.4063         estimate D2E/DX2                !
 ! R33   R(16,55)                1.9625         estimate D2E/DX2                !
 ! R34   R(17,18)                1.5103         estimate D2E/DX2                !
 ! R35   R(17,22)                1.4008         estimate D2E/DX2                !
 ! R36   R(18,19)                1.5336         estimate D2E/DX2                !
 ! R37   R(18,43)                1.112          estimate D2E/DX2                !
 ! R38   R(18,44)                1.1105         estimate D2E/DX2                !
 ! R39   R(19,20)                1.4163         estimate D2E/DX2                !
 ! R40   R(19,45)                1.1111         estimate D2E/DX2                !
 ! R41   R(19,46)                1.1161         estimate D2E/DX2                !
 ! R42   R(20,21)                1.4105         estimate D2E/DX2                !
 ! R43   R(21,47)                1.1122         estimate D2E/DX2                !
 ! R44   R(21,48)                1.1092         estimate D2E/DX2                !
 ! R45   R(21,49)                1.1122         estimate D2E/DX2                !
 ! R46   R(22,23)                1.4003         estimate D2E/DX2                !
 ! R47   R(22,50)                1.0845         estimate D2E/DX2                !
 ! R48   R(23,24)                1.4043         estimate D2E/DX2                !
 ! R49   R(23,28)                1.4183         estimate D2E/DX2                !
 ! R50   R(24,25)                1.3955         estimate D2E/DX2                !
 ! R51   R(24,51)                1.0837         estimate D2E/DX2                !
 ! R52   R(25,26)                1.3946         estimate D2E/DX2                !
 ! R53   R(25,52)                1.0824         estimate D2E/DX2                !
 ! R54   R(26,27)                1.3967         estimate D2E/DX2                !
 ! R55   R(26,53)                1.0824         estimate D2E/DX2                !
 ! R56   R(27,28)                1.4117         estimate D2E/DX2                !
 ! R57   R(27,54)                1.082          estimate D2E/DX2                !
 ! R58   R(29,30)                1.3931         estimate D2E/DX2                !
 ! R59   R(30,55)                1.9625         estimate D2E/DX2                !
 ! A1    A(2,1,31)             110.8273         estimate D2E/DX2                !
 ! A2    A(2,1,32)             108.6551         estimate D2E/DX2                !
 ! A3    A(2,1,33)             111.2206         estimate D2E/DX2                !
 ! A4    A(31,1,32)            107.8373         estimate D2E/DX2                !
 ! A5    A(31,1,33)            110.4794         estimate D2E/DX2                !
 ! A6    A(32,1,33)            107.6894         estimate D2E/DX2                !
 ! A7    A(1,2,3)              110.6294         estimate D2E/DX2                !
 ! A8    A(2,3,4)              110.0412         estimate D2E/DX2                !
 ! A9    A(2,3,34)             107.9181         estimate D2E/DX2                !
 ! A10   A(2,3,35)             114.8153         estimate D2E/DX2                !
 ! A11   A(4,3,34)             108.0964         estimate D2E/DX2                !
 ! A12   A(4,3,35)             109.4596         estimate D2E/DX2                !
 ! A13   A(34,3,35)            106.2393         estimate D2E/DX2                !
 ! A14   A(3,4,5)              111.2008         estimate D2E/DX2                !
 ! A15   A(3,4,36)             109.283          estimate D2E/DX2                !
 ! A16   A(3,4,37)             109.2839         estimate D2E/DX2                !
 ! A17   A(5,4,36)             109.8608         estimate D2E/DX2                !
 ! A18   A(5,4,37)             110.4797         estimate D2E/DX2                !
 ! A19   A(36,4,37)            106.6173         estimate D2E/DX2                !
 ! A20   A(4,5,6)              119.5904         estimate D2E/DX2                !
 ! A21   A(4,5,29)             120.7494         estimate D2E/DX2                !
 ! A22   A(6,5,29)             119.5679         estimate D2E/DX2                !
 ! A23   A(5,6,7)              120.7107         estimate D2E/DX2                !
 ! A24   A(5,6,38)             119.4858         estimate D2E/DX2                !
 ! A25   A(7,6,38)             119.791          estimate D2E/DX2                !
 ! A26   A(6,7,8)              119.9541         estimate D2E/DX2                !
 ! A27   A(6,7,12)             120.0456         estimate D2E/DX2                !
 ! A28   A(8,7,12)             119.9967         estimate D2E/DX2                !
 ! A29   A(7,8,9)              120.3031         estimate D2E/DX2                !
 ! A30   A(7,8,39)             120.6842         estimate D2E/DX2                !
 ! A31   A(9,8,39)             119.0121         estimate D2E/DX2                !
 ! A32   A(8,9,10)             120.1329         estimate D2E/DX2                !
 ! A33   A(8,9,40)             119.946          estimate D2E/DX2                !
 ! A34   A(10,9,40)            119.9199         estimate D2E/DX2                !
 ! A35   A(9,10,11)            120.2735         estimate D2E/DX2                !
 ! A36   A(9,10,41)            119.8392         estimate D2E/DX2                !
 ! A37   A(11,10,41)           119.8871         estimate D2E/DX2                !
 ! A38   A(10,11,12)           120.5595         estimate D2E/DX2                !
 ! A39   A(10,11,42)           117.9906         estimate D2E/DX2                !
 ! A40   A(12,11,42)           121.4489         estimate D2E/DX2                !
 ! A41   A(7,12,11)            118.7237         estimate D2E/DX2                !
 ! A42   A(7,12,13)            119.3315         estimate D2E/DX2                !
 ! A43   A(11,12,13)           121.9388         estimate D2E/DX2                !
 ! A44   A(12,13,14)           121.7432         estimate D2E/DX2                !
 ! A45   A(12,13,29)           119.6585         estimate D2E/DX2                !
 ! A46   A(14,13,29)           118.5764         estimate D2E/DX2                !
 ! A47   A(13,14,15)           118.5231         estimate D2E/DX2                !
 ! A48   A(13,14,28)           121.7894         estimate D2E/DX2                !
 ! A49   A(15,14,28)           119.6864         estimate D2E/DX2                !
 ! A50   A(14,15,16)           119.4335         estimate D2E/DX2                !
 ! A51   A(14,15,17)           120.6182         estimate D2E/DX2                !
 ! A52   A(16,15,17)           119.9482         estimate D2E/DX2                !
 ! A53   A(15,16,55)           107.1586         estimate D2E/DX2                !
 ! A54   A(15,17,18)           121.0091         estimate D2E/DX2                !
 ! A55   A(15,17,22)           119.5452         estimate D2E/DX2                !
 ! A56   A(18,17,22)           119.3941         estimate D2E/DX2                !
 ! A57   A(17,18,19)           111.3552         estimate D2E/DX2                !
 ! A58   A(17,18,43)           109.5667         estimate D2E/DX2                !
 ! A59   A(17,18,44)           110.8142         estimate D2E/DX2                !
 ! A60   A(19,18,43)           108.7514         estimate D2E/DX2                !
 ! A61   A(19,18,44)           110.0171         estimate D2E/DX2                !
 ! A62   A(43,18,44)           106.1812         estimate D2E/DX2                !
 ! A63   A(18,19,20)           111.0768         estimate D2E/DX2                !
 ! A64   A(18,19,45)           108.5774         estimate D2E/DX2                !
 ! A65   A(18,19,46)           109.6817         estimate D2E/DX2                !
 ! A66   A(20,19,45)           107.995          estimate D2E/DX2                !
 ! A67   A(20,19,46)           113.4112         estimate D2E/DX2                !
 ! A68   A(45,19,46)           105.8498         estimate D2E/DX2                !
 ! A69   A(19,20,21)           110.463          estimate D2E/DX2                !
 ! A70   A(20,21,47)           111.6388         estimate D2E/DX2                !
 ! A71   A(20,21,48)           108.5731         estimate D2E/DX2                !
 ! A72   A(20,21,49)           110.7655         estimate D2E/DX2                !
 ! A73   A(47,21,48)           107.5802         estimate D2E/DX2                !
 ! A74   A(47,21,49)           110.4265         estimate D2E/DX2                !
 ! A75   A(48,21,49)           107.7037         estimate D2E/DX2                !
 ! A76   A(17,22,23)           120.7249         estimate D2E/DX2                !
 ! A77   A(17,22,50)           119.4168         estimate D2E/DX2                !
 ! A78   A(23,22,50)           119.856          estimate D2E/DX2                !
 ! A79   A(22,23,24)           119.9796         estimate D2E/DX2                !
 ! A80   A(22,23,28)           120.0357         estimate D2E/DX2                !
 ! A81   A(24,23,28)           119.9845         estimate D2E/DX2                !
 ! A82   A(23,24,25)           120.2989         estimate D2E/DX2                !
 ! A83   A(23,24,51)           120.6831         estimate D2E/DX2                !
 ! A84   A(25,24,51)           119.0174         estimate D2E/DX2                !
 ! A85   A(24,25,26)           120.1364         estimate D2E/DX2                !
 ! A86   A(24,25,52)           119.9445         estimate D2E/DX2                !
 ! A87   A(26,25,52)           119.9183         estimate D2E/DX2                !
 ! A88   A(25,26,27)           120.2713         estimate D2E/DX2                !
 ! A89   A(25,26,53)           119.8406         estimate D2E/DX2                !
 ! A90   A(27,26,53)           119.888          estimate D2E/DX2                !
 ! A91   A(26,27,28)           120.5474         estimate D2E/DX2                !
 ! A92   A(26,27,54)           118.0396         estimate D2E/DX2                !
 ! A93   A(28,27,54)           121.4126         estimate D2E/DX2                !
 ! A94   A(14,28,23)           119.3285         estimate D2E/DX2                !
 ! A95   A(14,28,27)           121.9203         estimate D2E/DX2                !
 ! A96   A(23,28,27)           118.7502         estimate D2E/DX2                !
 ! A97   A(5,29,13)            120.6412         estimate D2E/DX2                !
 ! A98   A(5,29,30)            119.8377         estimate D2E/DX2                !
 ! A99   A(13,29,30)           119.5188         estimate D2E/DX2                !
 ! A100  A(29,30,55)           110.8199         estimate D2E/DX2                !
 ! A101  A(16,55,30)           100.0            estimate D2E/DX2                !
 ! D1    D(31,1,2,3)           -63.6325         estimate D2E/DX2                !
 ! D2    D(32,1,2,3)           178.0516         estimate D2E/DX2                !
 ! D3    D(33,1,2,3)            59.6842         estimate D2E/DX2                !
 ! D4    D(1,2,3,4)           -117.4819         estimate D2E/DX2                !
 ! D5    D(1,2,3,34)           124.7792         estimate D2E/DX2                !
 ! D6    D(1,2,3,35)             6.5297         estimate D2E/DX2                !
 ! D7    D(2,3,4,5)             64.6224         estimate D2E/DX2                !
 ! D8    D(2,3,4,36)          -173.9267         estimate D2E/DX2                !
 ! D9    D(2,3,4,37)           -57.6061         estimate D2E/DX2                !
 ! D10   D(34,3,4,5)          -177.7492         estimate D2E/DX2                !
 ! D11   D(34,3,4,36)          -56.2984         estimate D2E/DX2                !
 ! D12   D(34,3,4,37)           60.0223         estimate D2E/DX2                !
 ! D13   D(35,3,4,5)           -62.4411         estimate D2E/DX2                !
 ! D14   D(35,3,4,36)           59.0098         estimate D2E/DX2                !
 ! D15   D(35,3,4,37)          175.3304         estimate D2E/DX2                !
 ! D16   D(3,4,5,6)            -95.4777         estimate D2E/DX2                !
 ! D17   D(3,4,5,29)            81.0134         estimate D2E/DX2                !
 ! D18   D(36,4,5,6)           143.4096         estimate D2E/DX2                !
 ! D19   D(36,4,5,29)          -40.0993         estimate D2E/DX2                !
 ! D20   D(37,4,5,6)            26.0555         estimate D2E/DX2                !
 ! D21   D(37,4,5,29)         -157.4534         estimate D2E/DX2                !
 ! D22   D(4,5,6,7)            176.402          estimate D2E/DX2                !
 ! D23   D(4,5,6,38)            -2.3065         estimate D2E/DX2                !
 ! D24   D(29,5,6,7)            -0.1309         estimate D2E/DX2                !
 ! D25   D(29,5,6,38)         -178.8395         estimate D2E/DX2                !
 ! D26   D(4,5,29,13)         -177.7549         estimate D2E/DX2                !
 ! D27   D(4,5,29,30)            1.6926         estimate D2E/DX2                !
 ! D28   D(6,5,29,13)           -1.263          estimate D2E/DX2                !
 ! D29   D(6,5,29,30)          178.1845         estimate D2E/DX2                !
 ! D30   D(5,6,7,8)           -179.0327         estimate D2E/DX2                !
 ! D31   D(5,6,7,12)             0.2692         estimate D2E/DX2                !
 ! D32   D(38,6,7,8)            -0.3281         estimate D2E/DX2                !
 ! D33   D(38,6,7,12)          178.9738         estimate D2E/DX2                !
 ! D34   D(6,7,8,9)            178.8756         estimate D2E/DX2                !
 ! D35   D(6,7,8,39)            -0.847          estimate D2E/DX2                !
 ! D36   D(12,7,8,9)            -0.4266         estimate D2E/DX2                !
 ! D37   D(12,7,8,39)          179.8508         estimate D2E/DX2                !
 ! D38   D(6,7,12,11)         -178.1615         estimate D2E/DX2                !
 ! D39   D(6,7,12,13)            0.9625         estimate D2E/DX2                !
 ! D40   D(8,7,12,11)            1.1401         estimate D2E/DX2                !
 ! D41   D(8,7,12,13)         -179.7359         estimate D2E/DX2                !
 ! D42   D(7,8,9,10)            -0.3206         estimate D2E/DX2                !
 ! D43   D(7,8,9,40)          -179.9194         estimate D2E/DX2                !
 ! D44   D(39,8,9,10)          179.4067         estimate D2E/DX2                !
 ! D45   D(39,8,9,40)           -0.1922         estimate D2E/DX2                !
 ! D46   D(8,9,10,11)            0.3342         estimate D2E/DX2                !
 ! D47   D(8,9,10,41)         -179.478          estimate D2E/DX2                !
 ! D48   D(40,9,10,11)         179.9332         estimate D2E/DX2                !
 ! D49   D(40,9,10,41)           0.121          estimate D2E/DX2                !
 ! D50   D(9,10,11,12)           0.405          estimate D2E/DX2                !
 ! D51   D(9,10,11,42)        -179.2448         estimate D2E/DX2                !
 ! D52   D(41,10,11,12)       -179.7829         estimate D2E/DX2                !
 ! D53   D(41,10,11,42)          0.5673         estimate D2E/DX2                !
 ! D54   D(10,11,12,7)          -1.133          estimate D2E/DX2                !
 ! D55   D(10,11,12,13)        179.767          estimate D2E/DX2                !
 ! D56   D(42,11,12,7)         178.5045         estimate D2E/DX2                !
 ! D57   D(42,11,12,13)         -0.5955         estimate D2E/DX2                !
 ! D58   D(7,12,13,14)         179.4017         estimate D2E/DX2                !
 ! D59   D(7,12,13,29)          -2.326          estimate D2E/DX2                !
 ! D60   D(11,12,13,14)         -1.5036         estimate D2E/DX2                !
 ! D61   D(11,12,13,29)        176.7687         estimate D2E/DX2                !
 ! D62   D(12,13,14,15)        109.3446         estimate D2E/DX2                !
 ! D63   D(12,13,14,28)        -71.0318         estimate D2E/DX2                !
 ! D64   D(29,13,14,15)        -68.9458         estimate D2E/DX2                !
 ! D65   D(29,13,14,28)        110.6778         estimate D2E/DX2                !
 ! D66   D(12,13,29,5)           2.4951         estimate D2E/DX2                !
 ! D67   D(12,13,29,30)       -176.9542         estimate D2E/DX2                !
 ! D68   D(14,13,29,5)        -179.178          estimate D2E/DX2                !
 ! D69   D(14,13,29,30)          1.3728         estimate D2E/DX2                !
 ! D70   D(13,14,15,16)          1.7421         estimate D2E/DX2                !
 ! D71   D(13,14,15,17)       -178.3683         estimate D2E/DX2                !
 ! D72   D(28,14,15,16)       -177.8896         estimate D2E/DX2                !
 ! D73   D(28,14,15,17)          1.9999         estimate D2E/DX2                !
 ! D74   D(13,14,28,23)        177.7609         estimate D2E/DX2                !
 ! D75   D(13,14,28,27)         -2.6103         estimate D2E/DX2                !
 ! D76   D(15,14,28,23)         -2.6198         estimate D2E/DX2                !
 ! D77   D(15,14,28,27)        177.009          estimate D2E/DX2                !
 ! D78   D(14,15,16,55)         77.6917         estimate D2E/DX2                !
 ! D79   D(17,15,16,55)       -102.1986         estimate D2E/DX2                !
 ! D80   D(14,15,17,18)        177.5685         estimate D2E/DX2                !
 ! D81   D(14,15,17,22)          0.1979         estimate D2E/DX2                !
 ! D82   D(16,15,17,18)         -2.5425         estimate D2E/DX2                !
 ! D83   D(16,15,17,22)       -179.9131         estimate D2E/DX2                !
 ! D84   D(15,16,55,30)        -49.8794         estimate D2E/DX2                !
 ! D85   D(15,17,18,19)        -92.5412         estimate D2E/DX2                !
 ! D86   D(15,17,18,43)        147.1085         estimate D2E/DX2                !
 ! D87   D(15,17,18,44)         30.2672         estimate D2E/DX2                !
 ! D88   D(22,17,18,19)         84.8334         estimate D2E/DX2                !
 ! D89   D(22,17,18,43)        -35.5169         estimate D2E/DX2                !
 ! D90   D(22,17,18,44)       -152.3582         estimate D2E/DX2                !
 ! D91   D(15,17,22,23)         -1.7766         estimate D2E/DX2                !
 ! D92   D(15,17,22,50)        178.7853         estimate D2E/DX2                !
 ! D93   D(18,17,22,23)       -179.1901         estimate D2E/DX2                !
 ! D94   D(18,17,22,50)          1.3718         estimate D2E/DX2                !
 ! D95   D(17,18,19,20)         58.3319         estimate D2E/DX2                !
 ! D96   D(17,18,19,45)        -60.2763         estimate D2E/DX2                !
 ! D97   D(17,18,19,46)       -175.5046         estimate D2E/DX2                !
 ! D98   D(43,18,19,20)        179.1614         estimate D2E/DX2                !
 ! D99   D(43,18,19,45)         60.5532         estimate D2E/DX2                !
 ! D100  D(43,18,19,46)        -54.6752         estimate D2E/DX2                !
 ! D101  D(44,18,19,20)        -64.9327         estimate D2E/DX2                !
 ! D102  D(44,18,19,45)        176.4591         estimate D2E/DX2                !
 ! D103  D(44,18,19,46)         61.2307         estimate D2E/DX2                !
 ! D104  D(18,19,20,21)         94.4895         estimate D2E/DX2                !
 ! D105  D(45,19,20,21)       -146.5519         estimate D2E/DX2                !
 ! D106  D(46,19,20,21)        -29.5794         estimate D2E/DX2                !
 ! D107  D(19,20,21,47)        -56.4487         estimate D2E/DX2                !
 ! D108  D(19,20,21,48)       -174.8794         estimate D2E/DX2                !
 ! D109  D(19,20,21,49)         67.0539         estimate D2E/DX2                !
 ! D110  D(17,22,23,24)       -178.6733         estimate D2E/DX2                !
 ! D111  D(17,22,23,28)          1.1329         estimate D2E/DX2                !
 ! D112  D(50,22,23,24)          0.7623         estimate D2E/DX2                !
 ! D113  D(50,22,23,28)       -179.4315         estimate D2E/DX2                !
 ! D114  D(22,23,24,25)        179.2088         estimate D2E/DX2                !
 ! D115  D(22,23,24,51)         -0.5165         estimate D2E/DX2                !
 ! D116  D(28,23,24,25)         -0.5975         estimate D2E/DX2                !
 ! D117  D(28,23,24,51)        179.6771         estimate D2E/DX2                !
 ! D118  D(22,23,28,14)          1.0757         estimate D2E/DX2                !
 ! D119  D(22,23,28,27)       -178.5649         estimate D2E/DX2                !
 ! D120  D(24,23,28,14)       -179.118          estimate D2E/DX2                !
 ! D121  D(24,23,28,27)          1.2413         estimate D2E/DX2                !
 ! D122  D(23,24,25,26)         -0.2129         estimate D2E/DX2                !
 ! D123  D(23,24,25,52)       -179.8745         estimate D2E/DX2                !
 ! D124  D(51,24,25,26)        179.5169         estimate D2E/DX2                !
 ! D125  D(51,24,25,52)         -0.1447         estimate D2E/DX2                !
 ! D126  D(24,25,26,27)          0.36           estimate D2E/DX2                !
 ! D127  D(24,25,26,53)       -179.5505         estimate D2E/DX2                !
 ! D128  D(52,25,26,27)       -179.9783         estimate D2E/DX2                !
 ! D129  D(52,25,26,53)          0.1112         estimate D2E/DX2                !
 ! D130  D(25,26,27,28)          0.3097         estimate D2E/DX2                !
 ! D131  D(25,26,27,54)       -179.4503         estimate D2E/DX2                !
 ! D132  D(53,26,27,28)       -179.7798         estimate D2E/DX2                !
 ! D133  D(53,26,27,54)          0.4602         estimate D2E/DX2                !
 ! D134  D(26,27,28,14)        179.2671         estimate D2E/DX2                !
 ! D135  D(26,27,28,23)         -1.102          estimate D2E/DX2                !
 ! D136  D(54,27,28,14)         -0.9811         estimate D2E/DX2                !
 ! D137  D(54,27,28,23)        178.6498         estimate D2E/DX2                !
 ! D138  D(5,29,30,55)        -105.491          estimate D2E/DX2                !
 ! D139  D(13,29,30,55)         73.9627         estimate D2E/DX2                !
 ! D140  D(29,30,55,16)        -42.0632         estimate D2E/DX2                !
 --------------------------------------------------------------------------------
 Trust Radius=3.00D-01 FncErr=1.00D-07 GrdErr=1.00D-06 EigMax=2.50D+02 EigMin=1.00D-04
 Number of steps in this run=    310 maximum allowed number of steps=    330.
 GradGradGradGradGradGradGradGradGradGradGradGradGradGradGradGradGradGrad

 Leave Link  103 at Fri Mar  8 02:52:43 2024, MaxMem= 13421772800 cpu:               0.7 elap:               0.0
 (Enter /public/software/apps/Gaussian/g16/l202.exe)
 Symmetry turned off by external request.
 Stoichiometry    C26H24CuO4(2)
 Framework group  C1[X(C26H24CuO4)]
 Deg. of freedom   159
 Full point group                 C1      NOp   1
                          Input orientation:                          
 ---------------------------------------------------------------------
 Center     Atomic      Atomic             Coordinates (Angstroms)
 Number     Number       Type             X           Y           Z
 ---------------------------------------------------------------------
      1          6           0       -3.710172    2.947030    0.028005
      2          8           0       -4.560852    2.092334    0.759043
      3          6           0       -3.966350    1.733520    1.994553
      4          6           0       -3.737532    0.221052    2.046889
      5          6           0       -2.738126   -0.216269    1.003597
      6          6           0       -3.192544   -0.690698   -0.233681
      7          6           0       -2.286597   -1.031795   -1.245184
      8          6           0       -2.760175   -1.486509   -2.486510
      9          6           0       -1.864490   -1.806161   -3.507615
     10          6           0       -0.491878   -1.669297   -3.303086
     11          6           0       -0.004605   -1.218625   -2.074226
     12          6           0       -0.891784   -0.904268   -1.021874
     13          6           0       -0.428880   -0.449120    0.238866
     14          6           0        1.022337   -0.308030    0.535606
     15          6           0        1.559961    0.986437    0.660282
     16          8           0        0.719751    2.091202    0.540205
     17          6           0        2.932194    1.171470    0.906315
     18          6           0        3.528210    2.556765    0.987605
     19          6           0        4.061027    3.016303   -0.375017
     20          8           0        3.034448    3.012967   -1.350799
     21          6           0        2.449995    4.292402   -1.456069
     22          6           0        3.769637    0.054728    1.023728
     23          6           0        3.249156   -1.242233    0.935654
     24          6           0        4.098517   -2.350721    1.083401
     25          6           0        3.584190   -3.646059    1.013268
     26          6           0        2.220777   -3.847458    0.800115
     27          6           0        1.363098   -2.755657    0.648087
     28          6           0        1.863990   -1.436888    0.701413
     29          6           0       -1.357326   -0.084473    1.231256
     30          8           0       -0.900364    0.422424    2.445690
     31          1           0       -3.555011    3.907170    0.568098
     32          1           0       -4.190250    3.178164   -0.944801
     33          1           0       -2.733526    2.457684   -0.184673
     34          1           0       -4.675057    2.003485    2.805929
     35          1           0       -3.009834    2.262995    2.226088
     36          1           0       -3.374474   -0.060465    3.059057
     37          1           0       -4.707761   -0.302528    1.899973
     38          1           0       -4.258507   -0.773952   -0.414583
     39          1           0       -3.823390   -1.590413   -2.668400
     40          1           0       -2.235907   -2.154884   -4.462596
     41          1           0        0.198281   -1.910553   -4.101282
     42          1           0        1.066126   -1.114276   -1.959995
     43          1           0        4.366266    2.559309    1.718466
     44          1           0        2.782334    3.285456    1.369502
     45          1           0        4.849904    2.306530   -0.704301
     46          1           0        4.566751    4.005354   -0.266770
     47          1           0        2.058908    4.646477   -0.476928
     48          1           0        1.592711    4.232597   -2.157430
     49          1           0        3.176528    5.024828   -1.871664
     50          1           0        4.830816    0.200224    1.193715
     51          1           0        5.159457   -2.215116    1.257532
     52          1           0        4.243740   -4.496309    1.129974
     53          1           0        1.825807   -4.854181    0.753815
     54          1           0        0.310648   -2.953315    0.493448
     55         29           0       -0.255382    2.263849    2.234532
 ---------------------------------------------------------------------
 Rotational constants (GHZ):           0.1595913           0.1210346           0.0963177
 Leave Link  202 at Fri Mar  8 02:52:43 2024, MaxMem= 13421772800 cpu:               0.1 elap:               0.0
 (Enter /public/software/apps/Gaussian/g16/l301.exe)
 Standard basis: def2SVPP (5D, 7F)
 Ernie: Thresh=  0.10000D-02 Tol=  0.10000D-05 Strict=F.
   492 basis functions,   917 primitive gaussians,   524 cartesian basis functions
   121 alpha electrons      120 beta electrons
       nuclear repulsion energy      3656.9743304199 Hartrees.
 IExCor=  402 DFT=T Ex+Corr=B3LYP ExCW=0 ScaHFX=  0.200000
 ScaDFX=  0.800000  0.720000  1.000000  0.810000 ScalE2=  1.000000  1.000000
 IRadAn=      5 IRanWt=     -1 IRanGd=            0 ICorTp=0 IEmpDi=141
 NAtoms=   55 NActive=   55 NUniq=   55 SFac= 1.00D+00 NAtFMM=   60 NAOKFM=F Big=F
 Integral buffers will be    131072 words long.
 Raffenetti 2 integral format.
 Two-electron integral symmetry is turned off.
 R6Disp:  Grimme-D3(BJ) Dispersion energy=       -0.1406951320 Hartrees.
 Nuclear repulsion after empirical dispersion term =     3656.8336352879 Hartrees.
 Leave Link  301 at Fri Mar  8 02:52:43 2024, MaxMem= 13421772800 cpu:               1.4 elap:               0.1
 (Enter /public/software/apps/Gaussian/g16/l302.exe)
 NPDir=0 NMtPBC=     1 NCelOv=     1 NCel=       1 NClECP=     1 NCelD=      1
         NCelK=      1 NCelE2=     1 NClLst=     1 CellRange=     0.0.
 One-electron integrals computed using PRISM.
   1 Symmetry operations used in ECPInt.
 ECPInt:  NShTT=   28441 NPrTT=  117872 LenC2=   25608 LenP2D=   67770.
 LDataN:  DoStor=T MaxTD1= 4 Len=   56
 NBasis=   492 RedAO= T EigKep=  1.63D-04  NBF=   492
 NBsUse=   492 1.00D-06 EigRej= -1.00D+00 NBFU=   492
 Precomputing XC quadrature grid using
 IXCGrd= 4 IRadAn=           5 IRanWt=          -1 IRanGd=           0 AccXCQ= 0.00D+00.
 Generated NRdTot=       0 NPtTot=           0 NUsed=           0 NTot=          32
 NSgBfM=   518   518   518   518   518 MxSgAt=    55 MxSgA2=    55.
 Leave Link  302 at Fri Mar  8 02:52:44 2024, MaxMem= 13421772800 cpu:              24.4 elap:               0.8
 (Enter /public/software/apps/Gaussian/g16/l303.exe)
 DipDrv:  MaxL=1.
 Leave Link  303 at Fri Mar  8 02:52:44 2024, MaxMem= 13421772800 cpu:               1.4 elap:               0.1
 (Enter /public/software/apps/Gaussian/g16/l401.exe)
 ExpMin= 3.30D-02 ExpMax= 7.64D+04 ExpMxC= 1.15D+04 IAcc=3 IRadAn=         5 AccDes= 0.00D+00
 Harris functional with IExCor=  402 and IRadAn=       5 diagonalized for initial guess.
 HarFok:  IExCor=  402 AccDes= 0.00D+00 IRadAn=         5 IDoV= 1 UseB2=F ITyADJ=14
 ICtDFT=  3500011 ScaDFX=  1.000000  1.000000  1.000000  1.000000
 FoFCou: FMM=F IPFlag=           0 FMFlag=      100000 FMFlg1=           0
         NFxFlg=           0 DoJE=T BraDBF=F KetDBF=T FulRan=T
         wScrn=  0.000000 ICntrl=       500 IOpCl=  0 I1Cent=   200000004 NGrid=           0
         NMat0=    1 NMatS0=      1 NMatT0=    0 NMatD0=    1 NMtDS0=    0 NMtDT0=    0
 Symmetry not used in FoFCou.
 Harris En= -2945.76358954477    
 JPrj=0 DoOrth=F DoCkMO=F.
 Initial guess <Sx>= 0.0000 <Sy>= 0.0000 <Sz>= 0.5000 <S**2>= 0.7500 S= 0.5000
 Leave Link  401 at Fri Mar  8 02:52:45 2024, MaxMem= 13421772800 cpu:              33.1 elap:               1.1
 (Enter /public/software/apps/Gaussian/g16/l502.exe)
 Two-electron integral symmetry not used.
 UHF open shell SCF:
 Using DIIS extrapolation, IDIIS=  1040.
 NGot= 13421772800 LenX= 13421201124 LenY= 13420926024
 Requested convergence on RMS density matrix=1.00D-08 within 128 cycles.
 Requested convergence on MAX density matrix=1.00D-06.
 Requested convergence on             energy=1.00D-06.
 No special actions if energy rises.
 Fock matrices will be formed incrementally for  20 cycles.

 Cycle   1  Pass 1  IDiag  1:
 FoFJK:  IHMeth= 1 ICntrl=       0 DoSepK=F KAlg= 0 I1Cent=           0 FoldK=F
 IRaf= 830000000 NMat=       1 IRICut=       1 DoRegI=T DoRafI=F ISym2E= 0 IDoP0=0 IntGTp=1.
 FoFCou: FMM=F IPFlag=           0 FMFlag=      100000 FMFlg1=           0
         NFxFlg=           0 DoJE=F BraDBF=F KetDBF=F FulRan=T
         wScrn=  0.000000 ICntrl=         0 IOpCl=  1 I1Cent=           0 NGrid=           0
         NMat0=    1 NMatS0=      1 NMatT0=    0 NMatD0=    1 NMtDS0=    0 NMtDT0=    0
 Symmetry not used in FoFCou.
 E= -2931.64399903327    
 DIIS: error= 4.85D-01 at cycle   1 NSaved=   1.
 NSaved= 1 IEnMin= 1 EnMin= -2931.64399903327     IErMin= 1 ErrMin= 4.85D-01
 ErrMax= 4.85D-01  0.00D+00 EMaxC= 1.00D-01 BMatC= 5.15D+01 BMatP= 5.15D+01
 IDIUse=3 WtCom= 0.00D+00 WtEn= 1.00D+00
 Coeff-Com:  0.100D+01
 Coeff-En:   0.100D+01
 Coeff:      0.100D+01
 Gap=     0.190 Goal=   None    Shift=    0.000
 Gap=     0.144 Goal=   None    Shift=    0.000
 GapD=    0.144 DampG=1.000 DampE=0.125 DampFc=0.1250 IDamp=-1.
 Damping current iteration by 1.25D-01
 RMSDP=1.03D-01 MaxDP=1.21D+01              OVMax= 9.84D-01

 Cycle   2  Pass 1  IDiag  1:
 RMSU=  1.28D-02    CP:  1.01D+00
 E= -2935.74923284574     Delta-E=       -4.105233812464 Rises=F Damp=T
 DIIS: error= 3.23D-01 at cycle   2 NSaved=   2.
 NSaved= 2 IEnMin= 2 EnMin= -2935.74923284574     IErMin= 2 ErrMin= 3.23D-01
 ErrMax= 3.23D-01  0.00D+00 EMaxC= 1.00D-01 BMatC= 1.94D+01 BMatP= 5.15D+01
 IDIUse=3 WtCom= 0.00D+00 WtEn= 1.00D+00
 Coeff-Com: -0.102D+01 0.202D+01
 Coeff-En:   0.000D+00 0.100D+01
 Coeff:      0.000D+00 0.100D+01
 Gap=    -0.046 Goal=   None    Shift=    0.000
 Gap=     0.210 Goal=   None    Shift=    0.000
 RMSDP=1.98D-02 MaxDP=3.21D+00 DE=-4.11D+00 OVMax= 9.41D-01

 Cycle   3  Pass 1  IDiag  1:
 RMSU=  1.94D-02    CP:  9.41D-01  7.42D-01
 E= -2925.71566788489     Delta-E=       10.033564960842 Rises=F Damp=F
 DIIS: error= 2.65D-01 at cycle   3 NSaved=   3.
 NSaved= 3 IEnMin= 2 EnMin= -2935.74923284574     IErMin= 3 ErrMin= 2.65D-01
 ErrMax= 2.65D-01  0.00D+00 EMaxC= 1.00D-01 BMatC= 5.46D+01 BMatP= 1.94D+01
 IDIUse=2 WtCom= 0.00D+00 WtEn= 1.00D+00
 EnCoef did     4 forward-backward iterations
 Coeff-En:   0.563D+00 0.651D-03 0.437D+00
 Coeff:      0.563D+00 0.651D-03 0.437D+00
 Gap=     0.143 Goal=   None    Shift=    0.000
 Gap=     0.106 Goal=   None    Shift=    0.000
 RMSDP=2.88D-02 MaxDP=2.83D+00 DE= 1.00D+01 OVMax= 9.79D-01

 Cycle   4  Pass 1  IDiag  1:
 RMSU=  2.32D-02    CP:  9.14D-01  6.65D-01  1.21D-01
 E= -2895.98245407516     Delta-E=       29.733213809736 Rises=F Damp=F
 DIIS: error= 1.96D-01 at cycle   4 NSaved=   4.
 NSaved= 4 IEnMin= 2 EnMin= -2935.74923284574     IErMin= 4 ErrMin= 1.96D-01
 ErrMax= 1.96D-01  0.00D+00 EMaxC= 1.00D-01 BMatC= 1.00D+02 BMatP= 1.94D+01
 IDIUse=2 WtCom= 0.00D+00 WtEn= 1.00D+00
 EnCoef did   100 forward-backward iterations
 Coeff-En:   0.526D+00 0.596D-03 0.369D+00 0.104D+00
 Coeff:      0.526D+00 0.596D-03 0.369D+00 0.104D+00
 Gap=    -0.092 Goal=   None    Shift=    0.000
 Gap=     0.050 Goal=   None    Shift=    0.000
 RMSDP=2.40D-02 MaxDP=2.83D+00 DE= 2.97D+01 OVMax= 8.63D-01

 Cycle   5  Pass 1  IDiag  1:
 RMSU=  5.82D-03    CP:  8.82D-01  2.44D-02  8.82D-02  6.23D-02
 E= -2943.55547968573     Delta-E=      -47.573025610572 Rises=F Damp=F
 DIIS: error= 1.72D-01 at cycle   5 NSaved=   5.
 NSaved= 5 IEnMin= 5 EnMin= -2943.55547968573     IErMin= 5 ErrMin= 1.72D-01
 ErrMax= 1.72D-01  0.00D+00 EMaxC= 1.00D-01 BMatC= 9.23D+00 BMatP= 1.94D+01
 IDIUse=3 WtCom= 0.00D+00 WtEn= 1.00D+00
 EnCoef did   100 forward-backward iterations
 Coeff-Com: -0.368D+00 0.871D+00 0.663D-01-0.877D-01 0.519D+00
 Coeff-En:   0.199D+00 0.296D-02 0.000D+00 0.000D+00 0.798D+00
 Coeff:      0.199D+00 0.296D-02 0.000D+00 0.000D+00 0.798D+00
 Gap=     0.160 Goal=   None    Shift=    0.000
 Gap=    -0.047 Goal=   None    Shift=    0.000
 RMSDP=7.63D-03 MaxDP=6.28D-01 DE=-4.76D+01 OVMax= 9.25D-01

 Cycle   6  Pass 1  IDiag  1:
 RMSU=  6.73D-03    CP:  9.08D-01  7.14D-02  1.14D-01  2.46D-02  4.25D-01
 E= -2938.54549264427     Delta-E=        5.009987041460 Rises=F Damp=F
 DIIS: error= 7.40D-02 at cycle   6 NSaved=   6.
 NSaved= 6 IEnMin= 5 EnMin= -2943.55547968573     IErMin= 6 ErrMin= 7.40D-02
 ErrMax= 7.40D-02  0.00D+00 EMaxC= 1.00D-01 BMatC= 1.83D+01 BMatP= 9.23D+00
 IDIUse=2 WtCom= 0.00D+00 WtEn= 1.00D+00
 EnCoef did   100 forward-backward iterations
 Coeff-En:   0.150D+00 0.155D-02 0.000D+00 0.000D+00 0.687D+00 0.162D+00
 Coeff:      0.150D+00 0.155D-02 0.000D+00 0.000D+00 0.687D+00 0.162D+00
 Gap=     0.194 Goal=   None    Shift=    0.000
 Gap=    -0.193 Goal=   None    Shift=    0.000
 RMSDP=5.61D-03 MaxDP=4.79D-01 DE= 5.01D+00 OVMax= 8.75D-01

 Cycle   7  Pass 1  IDiag  1:
 RMSU=  3.19D-03    CP:  9.04D-01  3.38D-02  7.02D-02  2.73D-02  6.14D-01
                    CP:  3.51D-01
 E= -2944.96682934041     Delta-E=       -6.421336696144 Rises=F Damp=F
 DIIS: error= 1.05D-01 at cycle   7 NSaved=   7.
 NSaved= 7 IEnMin= 7 EnMin= -2944.96682934041     IErMin= 6 ErrMin= 7.40D-02
 ErrMax= 1.05D-01  0.00D+00 EMaxC= 1.00D-01 BMatC= 3.35D+00 BMatP= 9.23D+00
 IDIUse=3 WtCom= 0.00D+00 WtEn= 1.00D+00
 Coeff-Com: -0.204D-01 0.629D-01-0.197D-01-0.137D-01 0.398D+00 0.948D-01
 Coeff-Com:  0.498D+00
 Coeff-En:   0.000D+00 0.000D+00 0.000D+00 0.000D+00 0.250D+00 0.000D+00
 Coeff-En:   0.750D+00
 Coeff:      0.000D+00 0.000D+00 0.000D+00 0.000D+00 0.250D+00 0.000D+00
 Coeff:      0.750D+00
 Gap=     0.344 Goal=   None    Shift=    0.000
 Gap=     0.113 Goal=   None    Shift=    0.000
 RMSDP=4.24D-03 MaxDP=2.38D-01 DE=-6.42D+00 OVMax= 4.51D-01

 Cycle   8  Pass 1  IDiag  1:
 RMSU=  3.32D-03    CP:  8.95D-01  1.37D-02  7.39D-02  3.65D-02  7.14D-01
                    CP:  2.51D-01  2.31D-01
 E= -2944.31378986505     Delta-E=        0.653039475364 Rises=F Damp=F
 DIIS: error= 6.68D-02 at cycle   8 NSaved=   8.
 NSaved= 8 IEnMin= 7 EnMin= -2944.96682934041     IErMin= 8 ErrMin= 6.68D-02
 ErrMax= 6.68D-02  0.00D+00 EMaxC= 1.00D-01 BMatC= 5.01D+00 BMatP= 3.35D+00
 IDIUse=2 WtCom= 0.00D+00 WtEn= 1.00D+00
 EnCoef did     6 forward-backward iterations
 Coeff-En:   0.000D+00 0.000D+00 0.000D+00 0.000D+00 0.126D+00 0.000D+00
 Coeff-En:   0.613D+00 0.261D+00
 Coeff:      0.000D+00 0.000D+00 0.000D+00 0.000D+00 0.126D+00 0.000D+00
 Coeff:      0.613D+00 0.261D+00
 Gap=     0.254 Goal=   None    Shift=    0.000
 Gap=    -0.046 Goal=   None    Shift=    0.000
 RMSDP=3.30D-03 MaxDP=2.96D-01 DE= 6.53D-01 OVMax= 5.94D-01

 Cycle   9  Pass 1  IDiag  1:
 RMSU=  1.26D-03    CP:  8.90D-01  2.34D-03  5.28D-02  3.93D-02  8.19D-01
                    CP:  1.45D-01  4.18D-01  1.57D-01
 E= -2945.25714806548     Delta-E=       -0.943358200434 Rises=F Damp=F
 DIIS: error= 4.67D-02 at cycle   9 NSaved=   9.
 NSaved= 9 IEnMin= 9 EnMin= -2945.25714806548     IErMin= 9 ErrMin= 4.67D-02
 ErrMax= 4.67D-02  0.00D+00 EMaxC= 1.00D-01 BMatC= 1.35D+00 BMatP= 3.35D+00
 IDIUse=3 WtCom= 5.33D-01 WtEn= 4.67D-01
 EnCoef did     2 forward-backward iterations
 Coeff-Com:  0.187D-01-0.381D-01-0.388D-03-0.296D-02-0.689D-02 0.290D-02
 Coeff-Com:  0.361D+00 0.183D+00 0.483D+00
 Coeff-En:   0.000D+00 0.000D+00 0.000D+00 0.000D+00 0.000D+00 0.000D+00
 Coeff-En:   0.327D+00 0.131D+00 0.542D+00
 Coeff:      0.995D-02-0.203D-01-0.207D-03-0.158D-02-0.368D-02 0.155D-02
 Coeff:      0.345D+00 0.159D+00 0.510D+00
 Gap=     0.138 Goal=   None    Shift=    0.000
 Gap=     0.013 Goal=   None    Shift=    0.000
 RMSDP=2.26D-03 MaxDP=2.04D-01 DE=-9.43D-01 OVMax= 5.51D-01

 Cycle  10  Pass 1  IDiag  1:
 RMSU=  1.49D-03    CP:  8.98D-01  1.10D-02  5.52D-02  2.82D-02  6.85D-01
                    CP:  2.55D-01  6.63D-01  3.45D-01  3.94D-01
 E= -2945.44134353939     Delta-E=       -0.184195473906 Rises=F Damp=F
 DIIS: error= 3.91D-02 at cycle  10 NSaved=  10.
 NSaved=10 IEnMin=10 EnMin= -2945.44134353939     IErMin=10 ErrMin= 3.91D-02
 ErrMax= 3.91D-02  0.00D+00 EMaxC= 1.00D-01 BMatC= 4.92D-01 BMatP= 1.35D+00
 IDIUse=3 WtCom= 6.09D-01 WtEn= 3.91D-01
 Coeff-Com: -0.472D-02-0.120D-01 0.648D-02-0.274D-02 0.122D-03 0.121D-01
 Coeff-Com:  0.138D+00 0.676D-01 0.387D+00 0.408D+00
 Coeff-En:   0.000D+00 0.000D+00 0.000D+00 0.000D+00 0.000D+00 0.000D+00
 Coeff-En:   0.000D+00 0.000D+00 0.318D+00 0.682D+00
 Coeff:     -0.287D-02-0.734D-02 0.395D-02-0.167D-02 0.746D-04 0.737D-02
 Coeff:      0.841D-01 0.412D-01 0.360D+00 0.515D+00
 Gap=     0.171 Goal=   None    Shift=    0.000
 Gap=     0.030 Goal=   None    Shift=    0.000
 RMSDP=1.43D-03 MaxDP=1.36D-01 DE=-1.84D-01 OVMax= 3.87D-01

 Cycle  11  Pass 1  IDiag  1:
 RMSU=  7.75D-04    CP:  8.94D-01  1.06D-02  6.20D-02  3.28D-02  7.47D-01
                    CP:  2.39D-01  6.08D-01  2.29D-01  6.22D-01  3.29D-01
 E= -2945.51828903882     Delta-E=       -0.076945499433 Rises=F Damp=F
 DIIS: error= 1.67D-02 at cycle  11 NSaved=  11.
 NSaved=11 IEnMin=11 EnMin= -2945.51828903882     IErMin=11 ErrMin= 1.67D-02
 ErrMax= 1.67D-02  0.00D+00 EMaxC= 1.00D-01 BMatC= 1.09D-01 BMatP= 4.92D-01
 IDIUse=3 WtCom= 8.33D-01 WtEn= 1.67D-01
 Coeff-Com: -0.685D-02 0.658D-02 0.169D-02-0.118D-02-0.330D-01-0.922D-03
 Coeff-Com: -0.461D-02 0.167D-01 0.179D+00 0.348D+00 0.495D+00
 Coeff-En:   0.000D+00 0.000D+00 0.000D+00 0.000D+00 0.000D+00 0.000D+00
 Coeff-En:   0.000D+00 0.000D+00 0.000D+00 0.265D+00 0.735D+00
 Coeff:     -0.570D-02 0.548D-02 0.141D-02-0.986D-03-0.275D-01-0.768D-03
 Coeff:     -0.384D-02 0.139D-01 0.149D+00 0.334D+00 0.535D+00
 Gap=     0.106 Goal=   None    Shift=    0.000
 Gap=     0.022 Goal=   None    Shift=    0.000
 RMSDP=7.20D-04 MaxDP=4.62D-02 DE=-7.69D-02 OVMax= 2.37D-01

 Cycle  12  Pass 1  IDiag  1:
 RMSU=  4.22D-04    CP:  8.94D-01  8.80D-03  5.91D-02  3.11D-02  7.30D-01
                    CP:  2.33D-01  6.01D-01  2.76D-01  5.67D-01  6.35D-01
                    CP:  6.25D-01
 E= -2945.53917583412     Delta-E=       -0.020886795293 Rises=F Damp=F
 DIIS: error= 2.07D-03 at cycle  12 NSaved=  12.
 NSaved=12 IEnMin=12 EnMin= -2945.53917583412     IErMin=12 ErrMin= 2.07D-03
 ErrMax= 2.07D-03  0.00D+00 EMaxC= 1.00D-01 BMatC= 1.70D-02 BMatP= 1.09D-01
 IDIUse=3 WtCom= 9.79D-01 WtEn= 2.07D-02
 Coeff-Com: -0.132D-02 0.227D-02-0.313D-03 0.267D-03-0.239D-01-0.198D-02
 Coeff-Com: -0.647D-03 0.103D-01 0.705D-01 0.121D+00 0.357D+00 0.467D+00
 Coeff-En:   0.000D+00 0.000D+00 0.000D+00 0.000D+00 0.000D+00 0.000D+00
 Coeff-En:   0.000D+00 0.000D+00 0.000D+00 0.000D+00 0.188D+00 0.812D+00
 Coeff:     -0.130D-02 0.222D-02-0.307D-03 0.261D-03-0.234D-01-0.194D-02
 Coeff:     -0.633D-03 0.100D-01 0.690D-01 0.118D+00 0.354D+00 0.474D+00
 Gap=     0.105 Goal=   None    Shift=    0.000
 Gap=     0.033 Goal=   None    Shift=    0.000
 RMSDP=2.69D-04 MaxDP=1.66D-02 DE=-2.09D-02 OVMax= 4.98D-02

 Cycle  13  Pass 1  IDiag  1:
 RMSU=  1.80D-04    CP:  8.94D-01  8.92D-03  5.98D-02  3.15D-02  7.32D-01
                    CP:  2.35D-01  6.01D-01  2.74D-01  5.59D-01  5.83D-01
                    CP:  7.89D-01  6.92D-01
 E= -2945.54351467757     Delta-E=       -0.004338843458 Rises=F Damp=F
 DIIS: error= 1.77D-03 at cycle  13 NSaved=  13.
 NSaved=13 IEnMin=13 EnMin= -2945.54351467757     IErMin=13 ErrMin= 1.77D-03
 ErrMax= 1.77D-03  0.00D+00 EMaxC= 1.00D-01 BMatC= 3.28D-03 BMatP= 1.70D-02
 IDIUse=3 WtCom= 9.82D-01 WtEn= 1.77D-02
 Coeff-Com: -0.161D-02 0.345D-02-0.481D-03 0.248D-03-0.957D-02-0.159D-02
 Coeff-Com:  0.101D-01 0.249D-02 0.253D-01 0.151D-01 0.116D+00 0.308D+00
 Coeff-Com:  0.533D+00
 Coeff-En:   0.000D+00 0.000D+00 0.000D+00 0.000D+00 0.000D+00 0.000D+00
 Coeff-En:   0.000D+00 0.000D+00 0.000D+00 0.000D+00 0.000D+00 0.116D+00
 Coeff-En:   0.884D+00
 Coeff:     -0.159D-02 0.339D-02-0.472D-03 0.243D-03-0.940D-02-0.156D-02
 Coeff:      0.989D-02 0.244D-02 0.248D-01 0.149D-01 0.114D+00 0.305D+00
 Coeff:      0.539D+00
 Gap=     0.108 Goal=   None    Shift=    0.000
 Gap=     0.036 Goal=   None    Shift=    0.000
 RMSDP=1.12D-04 MaxDP=8.57D-03 DE=-4.34D-03 OVMax= 3.82D-02

 Cycle  14  Pass 1  IDiag  1:
 RMSU=  8.56D-05    CP:  8.94D-01  8.72D-03  5.94D-02  3.14D-02  7.31D-01
                    CP:  2.34D-01  6.01D-01  2.70D-01  5.45D-01  5.95D-01
                    CP:  7.71D-01  8.43D-01  1.06D+00
 E= -2945.54439645162     Delta-E=       -0.000881774044 Rises=F Damp=F
 DIIS: error= 1.25D-03 at cycle  14 NSaved=  14.
 NSaved=14 IEnMin=14 EnMin= -2945.54439645162     IErMin=14 ErrMin= 1.25D-03
 ErrMax= 1.25D-03  0.00D+00 EMaxC= 1.00D-01 BMatC= 1.17D-03 BMatP= 3.28D-03
 IDIUse=3 WtCom= 9.88D-01 WtEn= 1.25D-02
 Coeff-Com: -0.141D-02 0.245D-02-0.148D-03 0.916D-04-0.254D-02-0.798D-03
 Coeff-Com:  0.139D-01-0.274D-02 0.190D-01-0.105D-01-0.189D-01 0.545D-01
 Coeff-Com:  0.273D+00 0.675D+00
 Coeff-En:   0.000D+00 0.000D+00 0.000D+00 0.000D+00 0.000D+00 0.000D+00
 Coeff-En:   0.000D+00 0.000D+00 0.000D+00 0.000D+00 0.000D+00 0.000D+00
 Coeff-En:   0.000D+00 0.100D+01
 Coeff:     -0.139D-02 0.242D-02-0.146D-03 0.905D-04-0.251D-02-0.788D-03
 Coeff:      0.137D-01-0.271D-02 0.187D-01-0.104D-01-0.187D-01 0.538D-01
 Coeff:      0.269D+00 0.679D+00
 Gap=     0.108 Goal=   None    Shift=    0.000
 Gap=     0.038 Goal=   None    Shift=    0.000
 RMSDP=9.10D-05 MaxDP=4.87D-03 DE=-8.82D-04 OVMax= 4.10D-02

 Cycle  15  Pass 1  IDiag  1:
 RMSU=  5.05D-05    CP:  8.94D-01  8.77D-03  5.93D-02  3.15D-02  7.30D-01
                    CP:  2.34D-01  6.00D-01  2.64D-01  5.27D-01  6.01D-01
                    CP:  7.45D-01  9.06D-01  1.37D+00  1.23D+00
 E= -2945.54476352165     Delta-E=       -0.000367070035 Rises=F Damp=F
 DIIS: error= 3.25D-04 at cycle  15 NSaved=  15.
 NSaved=15 IEnMin=15 EnMin= -2945.54476352165     IErMin=15 ErrMin= 3.25D-04
 ErrMax= 3.25D-04  0.00D+00 EMaxC= 1.00D-01 BMatC= 4.78D-04 BMatP= 1.17D-03
 IDIUse=3 WtCom= 9.97D-01 WtEn= 3.25D-03
 Coeff-Com: -0.805D-03 0.129D-02-0.322D-04-0.424D-04-0.749D-03-0.512D-03
 Coeff-Com:  0.807D-02-0.213D-02 0.151D-01-0.124D-01-0.219D-01-0.769D-01
 Coeff-Com: -0.126D+00 0.282D+00 0.935D+00
 Coeff-En:   0.000D+00 0.000D+00 0.000D+00 0.000D+00 0.000D+00 0.000D+00
 Coeff-En:   0.000D+00 0.000D+00 0.000D+00 0.000D+00 0.000D+00 0.000D+00
 Coeff-En:   0.000D+00 0.000D+00 0.100D+01
 Coeff:     -0.803D-03 0.129D-02-0.321D-04-0.423D-04-0.746D-03-0.510D-03
 Coeff:      0.804D-02-0.212D-02 0.151D-01-0.124D-01-0.219D-01-0.767D-01
 Coeff:     -0.126D+00 0.282D+00 0.935D+00
 Gap=     0.109 Goal=   None    Shift=    0.000
 Gap=     0.039 Goal=   None    Shift=    0.000
 RMSDP=9.21D-05 MaxDP=5.14D-03 DE=-3.67D-04 OVMax= 3.73D-02

 Cycle  16  Pass 1  IDiag  1:
 RMSU=  2.84D-05    CP:  8.94D-01  8.71D-03  5.92D-02  3.16D-02  7.30D-01
                    CP:  2.34D-01  5.99D-01  2.57D-01  5.12D-01  5.98D-01
                    CP:  7.36D-01  9.71D-01  1.66D+00  1.85D+00  1.37D+00
 E= -2945.54501666287     Delta-E=       -0.000253141221 Rises=F Damp=F
 DIIS: error= 2.04D-04 at cycle  16 NSaved=  16.
 NSaved=16 IEnMin=16 EnMin= -2945.54501666287     IErMin=16 ErrMin= 2.04D-04
 ErrMax= 2.04D-04  0.00D+00 EMaxC= 1.00D-01 BMatC= 2.10D-04 BMatP= 4.78D-04
 IDIUse=3 WtCom= 9.98D-01 WtEn= 2.04D-03
 Coeff-Com:  0.288D-03-0.390D-03 0.129D-04-0.555D-04-0.128D-02-0.293D-03
 Coeff-Com:  0.199D-02-0.168D-03 0.106D-01-0.628D-02 0.693D-02-0.850D-01
 Coeff-Com: -0.251D+00-0.132D+00 0.701D+00 0.755D+00
 Coeff-En:   0.000D+00 0.000D+00 0.000D+00 0.000D+00 0.000D+00 0.000D+00
 Coeff-En:   0.000D+00 0.000D+00 0.000D+00 0.000D+00 0.000D+00 0.000D+00
 Coeff-En:   0.000D+00 0.000D+00 0.000D+00 0.100D+01
 Coeff:      0.287D-03-0.389D-03 0.129D-04-0.554D-04-0.127D-02-0.292D-03
 Coeff:      0.198D-02-0.168D-03 0.105D-01-0.627D-02 0.691D-02-0.848D-01
 Coeff:     -0.251D+00-0.131D+00 0.700D+00 0.756D+00
 Gap=     0.110 Goal=   None    Shift=    0.000
 Gap=     0.040 Goal=   None    Shift=    0.000
 RMSDP=7.54D-05 MaxDP=4.29D-03 DE=-2.53D-04 OVMax= 3.22D-02

 Cycle  17  Pass 1  IDiag  1:
 RMSU=  1.98D-05    CP:  8.94D-01  8.67D-03  5.92D-02  3.17D-02  7.30D-01
                    CP:  2.34D-01  5.98D-01  2.51D-01  5.00D-01  5.95D-01
                    CP:  7.22D-01  1.02D+00  1.89D+00  2.28D+00  1.97D+00
                    CP:  1.25D+00
 E= -2945.54514771301     Delta-E=       -0.000131050137 Rises=F Damp=F
 DIIS: error= 1.09D-04 at cycle  17 NSaved=  17.
 NSaved=17 IEnMin=17 EnMin= -2945.54514771301     IErMin=17 ErrMin= 1.09D-04
 ErrMax= 1.09D-04  0.00D+00 EMaxC= 1.00D-01 BMatC= 5.00D-05 BMatP= 2.10D-04
 IDIUse=3 WtCom= 9.99D-01 WtEn= 1.09D-03
 Coeff-Com:  0.934D-03-0.150D-02-0.377D-06-0.694D-05-0.741D-03-0.190D-03
 Coeff-Com:  0.784D-03-0.311D-04 0.514D-02-0.240D-03 0.139D-01-0.263D-01
 Coeff-Com: -0.907D-01-0.109D+00 0.134D+00 0.380D+00 0.694D+00
 Coeff-En:   0.000D+00 0.000D+00 0.000D+00 0.000D+00 0.000D+00 0.000D+00
 Coeff-En:   0.000D+00 0.000D+00 0.000D+00 0.000D+00 0.000D+00 0.000D+00
 Coeff-En:   0.000D+00 0.000D+00 0.000D+00 0.000D+00 0.100D+01
 Coeff:      0.933D-03-0.150D-02-0.377D-06-0.694D-05-0.740D-03-0.190D-03
 Coeff:      0.783D-03-0.311D-04 0.513D-02-0.240D-03 0.139D-01-0.263D-01
 Coeff:     -0.906D-01-0.109D+00 0.134D+00 0.380D+00 0.694D+00
 Gap=     0.110 Goal=   None    Shift=    0.000
 Gap=     0.040 Goal=   None    Shift=    0.000
 RMSDP=3.02D-05 MaxDP=1.75D-03 DE=-1.31D-04 OVMax= 1.25D-02

 Cycle  18  Pass 1  IDiag  1:
 RMSU=  9.62D-06    CP:  8.94D-01  8.67D-03  5.91D-02  3.17D-02  7.30D-01
                    CP:  2.34D-01  5.98D-01  2.49D-01  4.94D-01  5.97D-01
                    CP:  7.13D-01  1.02D+00  1.98D+00  2.45D+00  2.14D+00
                    CP:  1.61D+00  1.14D+00
 E= -2945.54517692107     Delta-E=       -0.000029208063 Rises=F Damp=F
 DIIS: error= 3.90D-04 at cycle  18 NSaved=  18.
 NSaved=18 IEnMin=18 EnMin= -2945.54517692107     IErMin=17 ErrMin= 1.09D-04
 ErrMax= 3.90D-04  0.00D+00 EMaxC= 1.00D-01 BMatC= 5.21D-05 BMatP= 5.00D-05
 IDIUse=3 WtCom= 9.99D-01 WtEn= 1.09D-03
 Coeff-Com:  0.903D-03-0.150D-02-0.234D-04-0.284D-04 0.678D-03-0.215D-04
 Coeff-Com:  0.452D-04-0.270D-03-0.834D-03-0.441D-03 0.125D-01 0.240D-01
 Coeff-Com:  0.649D-01 0.114D-01-0.214D+00-0.133D+00 0.329D+00 0.907D+00
 Coeff-En:   0.000D+00 0.000D+00 0.000D+00 0.000D+00 0.000D+00 0.000D+00
 Coeff-En:   0.000D+00 0.000D+00 0.000D+00 0.000D+00 0.000D+00 0.000D+00
 Coeff-En:   0.000D+00 0.000D+00 0.000D+00 0.000D+00 0.000D+00 0.100D+01
 Coeff:      0.902D-03-0.150D-02-0.234D-04-0.283D-04 0.677D-03-0.215D-04
 Coeff:      0.451D-04-0.270D-03-0.833D-03-0.441D-03 0.125D-01 0.240D-01
 Coeff:      0.649D-01 0.114D-01-0.214D+00-0.132D+00 0.328D+00 0.907D+00
 Gap=     0.110 Goal=   None    Shift=    0.000
 Gap=     0.040 Goal=   None    Shift=    0.000
 RMSDP=2.41D-05 MaxDP=1.64D-03 DE=-2.92D-05 OVMax= 1.05D-02

 Cycle  19  Pass 1  IDiag  1:
 RMSU=  6.63D-06    CP:  8.94D-01  8.64D-03  5.91D-02  3.16D-02  7.30D-01
                    CP:  2.34D-01  5.98D-01  2.47D-01  4.90D-01  5.98D-01
                    CP:  7.05D-01  1.03D+00  2.03D+00  2.57D+00  2.31D+00
                    CP:  1.87D+00  1.58D+00  1.36D+00
 E= -2945.54519261961     Delta-E=       -0.000015698538 Rises=F Damp=F
 DIIS: error= 4.75D-04 at cycle  19 NSaved=  19.
 NSaved=19 IEnMin=19 EnMin= -2945.54519261961     IErMin=17 ErrMin= 1.09D-04
 ErrMax= 4.75D-04  0.00D+00 EMaxC= 1.00D-01 BMatC= 5.85D-05 BMatP= 5.00D-05
 IDIUse=3 WtCom= 9.99D-01 WtEn= 1.09D-03
 Coeff-Com:  0.582D-03-0.992D-03-0.897D-06-0.302D-04 0.992D-03-0.139D-04
 Coeff-Com: -0.421D-03-0.475D-04-0.247D-02-0.483D-02 0.856D-02 0.244D-01
 Coeff-Com:  0.682D-01 0.504D-01-0.153D+00-0.212D+00-0.121D+00 0.491D+00
 Coeff-Com:  0.851D+00
 Coeff-En:   0.000D+00 0.000D+00 0.000D+00 0.000D+00 0.000D+00 0.000D+00
 Coeff-En:   0.000D+00 0.000D+00 0.000D+00 0.000D+00 0.000D+00 0.000D+00
 Coeff-En:   0.000D+00 0.000D+00 0.000D+00 0.000D+00 0.000D+00 0.000D+00
 Coeff-En:   0.100D+01
 Coeff:      0.582D-03-0.991D-03-0.896D-06-0.302D-04 0.991D-03-0.139D-04
 Coeff:     -0.421D-03-0.474D-04-0.247D-02-0.483D-02 0.855D-02 0.244D-01
 Coeff:      0.681D-01 0.504D-01-0.153D+00-0.212D+00-0.121D+00 0.491D+00
 Coeff:      0.851D+00
 Gap=     0.111 Goal=   None    Shift=    0.000
 Gap=     0.040 Goal=   None    Shift=    0.000
 RMSDP=1.84D-05 MaxDP=1.21D-03 DE=-1.57D-05 OVMax= 7.50D-03

 Cycle  20  Pass 1  IDiag  1:
 RMSU=  4.59D-06    CP:  8.94D-01  8.63D-03  5.92D-02  3.17D-02  7.30D-01
                    CP:  2.34D-01  5.98D-01  2.46D-01  4.87D-01  5.99D-01
                    CP:  7.00D-01  1.03D+00  2.08D+00  2.66D+00  2.42D+00
                    CP:  2.10D+00  1.88D+00  1.91D+00  1.31D+00
 E= -2945.54520616108     Delta-E=       -0.000013541470 Rises=F Damp=F
 DIIS: error= 3.55D-04 at cycle  20 NSaved=  20.
 NSaved=20 IEnMin=20 EnMin= -2945.54520616108     IErMin=17 ErrMin= 1.09D-04
 ErrMax= 3.55D-04  0.00D+00 EMaxC= 1.00D-01 BMatC= 3.31D-05 BMatP= 5.00D-05
 IDIUse=3 WtCom= 9.99D-01 WtEn= 1.09D-03
 Coeff-Com:  0.285D-03-0.483D-03 0.267D-05-0.137D-04 0.627D-03-0.302D-04
 Coeff-Com: -0.451D-03 0.233D-03-0.142D-02-0.629D-02 0.389D-02 0.318D-02
 Coeff-Com:  0.116D-01 0.348D-01-0.496D-02-0.797D-01-0.235D+00-0.928D-01
 Coeff-Com:  0.482D+00 0.885D+00
 Coeff-En:   0.000D+00 0.000D+00 0.000D+00 0.000D+00 0.000D+00 0.000D+00
 Coeff-En:   0.000D+00 0.000D+00 0.000D+00 0.000D+00 0.000D+00 0.000D+00
 Coeff-En:   0.000D+00 0.000D+00 0.000D+00 0.000D+00 0.000D+00 0.000D+00
 Coeff-En:   0.000D+00 0.100D+01
 Coeff:      0.285D-03-0.482D-03 0.267D-05-0.137D-04 0.626D-03-0.302D-04
 Coeff:     -0.450D-03 0.233D-03-0.142D-02-0.629D-02 0.388D-02 0.317D-02
 Coeff:      0.116D-01 0.348D-01-0.496D-02-0.796D-01-0.235D+00-0.927D-01
 Coeff:      0.481D+00 0.885D+00
 Gap=     0.110 Goal=   None    Shift=    0.000
 Gap=     0.040 Goal=   None    Shift=    0.000
 RMSDP=1.86D-05 MaxDP=1.30D-03 DE=-1.35D-05 OVMax= 8.09D-03

 Cycle  21  Pass 1  IDiag  1:
 Restarting incremental Fock formation.
 E= -2945.54521666375     Delta-E=       -0.000010502669 Rises=F Damp=F
 DIIS: error= 1.33D-04 at cycle  21 NSaved=  20.
 NSaved=20 IEnMin=20 EnMin= -2945.54521666375     IErMin=16 ErrMin= 1.09D-04
 ErrMax= 1.33D-04  0.00D+00 EMaxC= 1.00D-01 BMatC= 6.87D-06 BMatP= 3.31D-05
 IDIUse=3 WtCom= 9.99D-01 WtEn= 1.09D-03
 Coeff-Com:  0.835D-04-0.131D-03 0.159D-05 0.124D-04-0.469D-04-0.962D-04
 Coeff-Com:  0.147D-03 0.405D-03-0.187D-02-0.616D-03-0.125D-01-0.259D-01
 Coeff-Com:  0.379D-02 0.472D-01 0.407D-01-0.743D-01-0.301D+00-0.281D+00
 Coeff-Com:  0.596D+00 0.101D+01
 Coeff-En:   0.000D+00 0.000D+00 0.000D+00 0.000D+00 0.000D+00 0.000D+00
 Coeff-En:   0.000D+00 0.000D+00 0.000D+00 0.000D+00 0.000D+00 0.000D+00
 Coeff-En:   0.000D+00 0.000D+00 0.000D+00 0.000D+00 0.000D+00 0.000D+00
 Coeff-En:   0.000D+00 0.100D+01
 Coeff:      0.834D-04-0.130D-03 0.159D-05 0.124D-04-0.468D-04-0.961D-04
 Coeff:      0.147D-03 0.405D-03-0.186D-02-0.615D-03-0.125D-01-0.259D-01
 Coeff:      0.379D-02 0.472D-01 0.407D-01-0.743D-01-0.301D+00-0.281D+00
 Coeff:      0.595D+00 0.101D+01
 Gap=     0.111 Goal=   None    Shift=    0.000
 Gap=     0.040 Goal=   None    Shift=    0.000
 RMSDP=2.31D-05 MaxDP=1.45D-03 DE=-1.05D-05 OVMax= 9.98D-03

 Cycle  22  Pass 1  IDiag  1:
 RMSU=  2.31D-05    CP:  1.00D+00
 E= -2945.54522150498     Delta-E=       -0.000004841231 Rises=F Damp=F
 DIIS: error= 2.46D-05 at cycle  22 NSaved=  20.
 NSaved=20 IEnMin=20 EnMin= -2945.54522150498     IErMin=20 ErrMin= 2.46D-05
 ErrMax= 2.46D-05  0.00D+00 EMaxC= 1.00D-01 BMatC= 7.86D-07 BMatP= 6.87D-06
 IDIUse=1 WtCom= 1.00D+00 WtEn= 0.00D+00
 Coeff-Com:  0.489D-04-0.747D-04-0.968D-04-0.188D-04 0.641D-04-0.859D-05
 Coeff-Com:  0.701D-03 0.143D-03-0.107D-02-0.854D-02-0.155D-01-0.531D-03
 Coeff-Com:  0.225D-01 0.268D-01-0.164D-01-0.146D+00-0.225D+00 0.213D+00
 Coeff-Com:  0.580D+00 0.570D+00
 Coeff:      0.489D-04-0.747D-04-0.968D-04-0.188D-04 0.641D-04-0.859D-05
 Coeff:      0.701D-03 0.143D-03-0.107D-02-0.854D-02-0.155D-01-0.531D-03
 Coeff:      0.225D-01 0.268D-01-0.164D-01-0.146D+00-0.225D+00 0.213D+00
 Coeff:      0.580D+00 0.570D+00
 Gap=     0.111 Goal=   None    Shift=    0.000
 Gap=     0.040 Goal=   None    Shift=    0.000
 RMSDP=5.53D-06 MaxDP=3.38D-04 DE=-4.84D-06 OVMax= 2.46D-03

 Cycle  23  Pass 1  IDiag  1:
 RMSU=  1.78D-06    CP:  1.00D+00  1.23D+00
 E= -2945.54522193418     Delta-E=       -0.000000429192 Rises=F Damp=F
 DIIS: error= 1.29D-05 at cycle  23 NSaved=  20.
 NSaved=20 IEnMin=20 EnMin= -2945.54522193418     IErMin=20 ErrMin= 1.29D-05
 ErrMax= 1.29D-05  0.00D+00 EMaxC= 1.00D-01 BMatC= 1.85D-07 BMatP= 7.86D-07
 IDIUse=1 WtCom= 1.00D+00 WtEn= 0.00D+00
 Coeff-Com: -0.445D-05-0.675D-04-0.813D-05 0.109D-03-0.389D-04 0.397D-03
 Coeff-Com:  0.270D-03-0.311D-03-0.125D-02-0.158D-02 0.101D-04 0.914D-02
 Coeff-Com:  0.163D-02-0.213D-01-0.218D-01 0.135D-01 0.980D-02-0.491D-01
 Coeff-Com:  0.125D+00 0.936D+00
 Coeff:     -0.445D-05-0.675D-04-0.813D-05 0.109D-03-0.389D-04 0.397D-03
 Coeff:      0.270D-03-0.311D-03-0.125D-02-0.158D-02 0.101D-04 0.914D-02
 Coeff:      0.163D-02-0.213D-01-0.218D-01 0.135D-01 0.980D-02-0.491D-01
 Coeff:      0.125D+00 0.936D+00
 Gap=     0.111 Goal=   None    Shift=    0.000
 Gap=     0.040 Goal=   None    Shift=    0.000
 RMSDP=2.73D-06 MaxDP=1.22D-04 DE=-4.29D-07 OVMax= 8.96D-04

 Cycle  24  Pass 1  IDiag  1:
 RMSU=  1.42D-06    CP:  1.00D+00  1.32D+00  1.42D+00
 E= -2945.54522206694     Delta-E=       -0.000000132763 Rises=F Damp=F
 DIIS: error= 4.84D-06 at cycle  24 NSaved=  20.
 NSaved=20 IEnMin=20 EnMin= -2945.54522206694     IErMin=20 ErrMin= 4.84D-06
 ErrMax= 4.84D-06  0.00D+00 EMaxC= 1.00D-01 BMatC= 9.39D-08 BMatP= 1.85D-07
 IDIUse=1 WtCom= 1.00D+00 WtEn= 0.00D+00
 Coeff-Com:  0.108D-04-0.554D-05 0.486D-04-0.141D-04-0.733D-04-0.144D-03
 Coeff-Com:  0.848D-03 0.388D-02 0.740D-02-0.678D-03-0.912D-02-0.125D-01
 Coeff-Com:  0.221D-02 0.713D-01 0.136D+00-0.831D-01-0.329D+00-0.222D+00
 Coeff-Com:  0.717D+00 0.718D+00
 Coeff:      0.108D-04-0.554D-05 0.486D-04-0.141D-04-0.733D-04-0.144D-03
 Coeff:      0.848D-03 0.388D-02 0.740D-02-0.678D-03-0.912D-02-0.125D-01
 Coeff:      0.221D-02 0.713D-01 0.136D+00-0.831D-01-0.329D+00-0.222D+00
 Coeff:      0.717D+00 0.718D+00
 Gap=     0.111 Goal=   None    Shift=    0.000
 Gap=     0.040 Goal=   None    Shift=    0.000
 RMSDP=1.57D-06 MaxDP=1.06D-04 DE=-1.33D-07 OVMax= 4.71D-04

 Cycle  25  Pass 1  IDiag  1:
 RMSU=  9.62D-07    CP:  1.00D+00  1.27D+00  1.61D+00  1.24D+00
 E= -2945.54522211355     Delta-E=       -0.000000046611 Rises=F Damp=F
 DIIS: error= 1.53D-05 at cycle  25 NSaved=  20.
 NSaved=20 IEnMin=20 EnMin= -2945.54522211355     IErMin=19 ErrMin= 4.84D-06
 ErrMax= 1.53D-05  0.00D+00 EMaxC= 1.00D-01 BMatC= 8.42D-08 BMatP= 9.39D-08
 IDIUse=1 WtCom= 1.00D+00 WtEn= 0.00D+00
 Coeff-Com:  0.133D-04 0.176D-04-0.205D-05-0.853D-04-0.168D-03 0.598D-03
 Coeff-Com:  0.245D-02 0.397D-02-0.782D-03-0.772D-02-0.550D-02 0.861D-02
 Coeff-Com:  0.359D-01 0.519D-01-0.538D-01-0.147D+00-0.116D+00 0.146D+00
 Coeff-Com:  0.313D+00 0.769D+00
 Coeff:      0.133D-04 0.176D-04-0.205D-05-0.853D-04-0.168D-03 0.598D-03
 Coeff:      0.245D-02 0.397D-02-0.782D-03-0.772D-02-0.550D-02 0.861D-02
 Coeff:      0.359D-01 0.519D-01-0.538D-01-0.147D+00-0.116D+00 0.146D+00
 Coeff:      0.313D+00 0.769D+00
 Gap=     0.111 Goal=   None    Shift=    0.000
 Gap=     0.040 Goal=   None    Shift=    0.000
 RMSDP=1.04D-06 MaxDP=5.62D-05 DE=-4.66D-08 OVMax= 3.47D-04

 Cycle  26  Pass 1  IDiag  1:
 RMSU=  3.77D-07    CP:  1.00D+00  1.31D+00  1.66D+00  1.43D+00  1.33D+00
 E= -2945.54522215188     Delta-E=       -0.000000038329 Rises=F Damp=F
 DIIS: error= 8.07D-06 at cycle  26 NSaved=  20.
 NSaved=20 IEnMin=20 EnMin= -2945.54522215188     IErMin=18 ErrMin= 4.84D-06
 ErrMax= 8.07D-06  0.00D+00 EMaxC= 1.00D-01 BMatC= 2.34D-08 BMatP= 8.42D-08
 IDIUse=1 WtCom= 1.00D+00 WtEn= 0.00D+00
 Coeff-Com:  0.117D-04 0.752D-05-0.155D-04-0.114D-03 0.527D-04 0.187D-03
 Coeff-Com: -0.113D-03 0.310D-03-0.114D-02 0.137D-02 0.402D-02-0.570D-02
 Coeff-Com: -0.214D-01-0.815D-02 0.265D-01 0.236D-01-0.192D+00-0.120D+00
 Coeff-Com:  0.403D+00 0.890D+00
 Coeff:      0.117D-04 0.752D-05-0.155D-04-0.114D-03 0.527D-04 0.187D-03
 Coeff:     -0.113D-03 0.310D-03-0.114D-02 0.137D-02 0.402D-02-0.570D-02
 Coeff:     -0.214D-01-0.815D-02 0.265D-01 0.236D-01-0.192D+00-0.120D+00
 Coeff:      0.403D+00 0.890D+00
 Gap=     0.111 Goal=   None    Shift=    0.000
 Gap=     0.040 Goal=   None    Shift=    0.000
 RMSDP=9.85D-07 MaxDP=5.28D-05 DE=-3.83D-08 OVMax= 3.74D-04

 Cycle  27  Pass 1  IDiag  1:
 RMSU=  2.68D-07    CP:  1.00D+00  1.35D+00  1.74D+00  1.63D+00  1.64D+00
                    CP:  1.40D+00
 E= -2945.54522216805     Delta-E=       -0.000000016172 Rises=F Damp=F
 DIIS: error= 3.97D-06 at cycle  27 NSaved=  20.
 NSaved=20 IEnMin=20 EnMin= -2945.54522216805     IErMin=20 ErrMin= 3.97D-06
 ErrMax= 3.97D-06  0.00D+00 EMaxC= 1.00D-01 BMatC= 4.94D-09 BMatP= 2.34D-08
 IDIUse=1 WtCom= 1.00D+00 WtEn= 0.00D+00
 Coeff-Com: -0.523D-05 0.674D-05-0.363D-05-0.603D-04-0.510D-03-0.119D-02
 Coeff-Com:  0.265D-03 0.164D-02 0.271D-02 0.330D-03-0.117D-01-0.269D-01
 Coeff-Com:  0.737D-02 0.509D-01 0.480D-01-0.143D+00-0.148D+00 0.417D-02
 Coeff-Com:  0.526D+00 0.690D+00
 Coeff:     -0.523D-05 0.674D-05-0.363D-05-0.603D-04-0.510D-03-0.119D-02
 Coeff:      0.265D-03 0.164D-02 0.271D-02 0.330D-03-0.117D-01-0.269D-01
 Coeff:      0.737D-02 0.509D-01 0.480D-01-0.143D+00-0.148D+00 0.417D-02
 Coeff:      0.526D+00 0.690D+00
 Gap=     0.111 Goal=   None    Shift=    0.000
 Gap=     0.040 Goal=   None    Shift=    0.000
 RMSDP=3.34D-07 MaxDP=2.30D-05 DE=-1.62D-08 OVMax= 1.14D-04

 Cycle  28  Pass 1  IDiag  1:
 RMSU=  1.25D-07    CP:  1.00D+00  1.36D+00  1.77D+00  1.71D+00  1.75D+00
                    CP:  1.65D+00  1.15D+00
 E= -2945.54522217070     Delta-E=       -0.000000002656 Rises=F Damp=F
 DIIS: error= 9.58D-07 at cycle  28 NSaved=  20.
 NSaved=20 IEnMin=20 EnMin= -2945.54522217070     IErMin=20 ErrMin= 9.58D-07
 ErrMax= 9.58D-07  0.00D+00 EMaxC= 1.00D-01 BMatC= 7.56D-10 BMatP= 4.94D-09
 IDIUse=1 WtCom= 1.00D+00 WtEn= 0.00D+00
 Coeff-Com:  0.140D-04 0.182D-04-0.504D-04-0.302D-03-0.510D-03 0.174D-03
 Coeff-Com:  0.101D-02 0.107D-02-0.541D-03-0.414D-02-0.896D-02 0.518D-02
 Coeff-Com:  0.193D-01 0.193D-01-0.258D-01-0.438D-01-0.105D+00 0.575D-01
 Coeff-Com:  0.344D+00 0.742D+00
 Coeff:      0.140D-04 0.182D-04-0.504D-04-0.302D-03-0.510D-03 0.174D-03
 Coeff:      0.101D-02 0.107D-02-0.541D-03-0.414D-02-0.896D-02 0.518D-02
 Coeff:      0.193D-01 0.193D-01-0.258D-01-0.438D-01-0.105D+00 0.575D-01
 Coeff:      0.344D+00 0.742D+00
 Gap=     0.111 Goal=   None    Shift=    0.000
 Gap=     0.040 Goal=   None    Shift=    0.000
 RMSDP=1.08D-07 MaxDP=7.69D-06 DE=-2.66D-09 OVMax= 2.38D-05

 Cycle  29  Pass 1  IDiag  1:
 RMSU=  6.64D-08    CP:  1.00D+00  1.36D+00  1.78D+00  1.74D+00  1.79D+00
                    CP:  1.72D+00  1.32D+00  1.20D+00
 E= -2945.54522217130     Delta-E=       -0.000000000596 Rises=F Damp=F
 DIIS: error= 1.09D-06 at cycle  29 NSaved=  20.
 NSaved=20 IEnMin=20 EnMin= -2945.54522217130     IErMin=19 ErrMin= 9.58D-07
 ErrMax= 1.09D-06  0.00D+00 EMaxC= 1.00D-01 BMatC= 4.70D-10 BMatP= 7.56D-10
 IDIUse=1 WtCom= 1.00D+00 WtEn= 0.00D+00
 Coeff-Com: -0.525D-06 0.107D-04 0.686D-04 0.265D-03 0.590D-04-0.595D-03
 Coeff-Com: -0.571D-03 0.411D-03 0.282D-02 0.343D-02-0.117D-02-0.513D-02
 Coeff-Com: -0.420D-02 0.299D-01 0.222D-01-0.503D-01-0.120D+00-0.741D-01
 Coeff-Com:  0.348D+00 0.849D+00
 Coeff:     -0.525D-06 0.107D-04 0.686D-04 0.265D-03 0.590D-04-0.595D-03
 Coeff:     -0.571D-03 0.411D-03 0.282D-02 0.343D-02-0.117D-02-0.513D-02
 Coeff:     -0.420D-02 0.299D-01 0.222D-01-0.503D-01-0.120D+00-0.741D-01
 Coeff:      0.348D+00 0.849D+00
 Gap=     0.111 Goal=   None    Shift=    0.000
 Gap=     0.040 Goal=   None    Shift=    0.000
 RMSDP=7.14D-08 MaxDP=5.39D-06 DE=-5.96D-10 OVMax= 1.26D-05

 Cycle  30  Pass 1  IDiag  1:
 RMSU=  4.05D-08    CP:  1.00D+00  1.36D+00  1.78D+00  1.73D+00  1.81D+00
                    CP:  1.77D+00  1.38D+00  1.44D+00  1.40D+00
 E= -2945.54522217157     Delta-E=       -0.000000000271 Rises=F Damp=F
 DIIS: error= 7.19D-07 at cycle  30 NSaved=  20.
 NSaved=20 IEnMin=20 EnMin= -2945.54522217157     IErMin=20 ErrMin= 7.19D-07
[...]
 ,-0.00000272,0.00000131,0.00000445,-0.00000616,-0.00000301,0.00000689,
 0.00000614,0.00000265,0.00000257,0.00000334,0.00000877,-0.00000368,0.0
 0000085,0.00000511,-0.00000477,0.00000101,0.00000296,0.00000172,-0.000
 00881,0.00000342,-0.00000365,-0.00000135,-0.00000133,-0.00000041,-0.00
 000033,0.00000221,0.00000145,-0.00000150,-0.00000922,0.00004262,0.0001
 1522,0.00098589,-0.00088257,-0.00424015,0.04714958,-0.06377498,0.04530
 280,-0.00001034,-0.00000413,-0.00000285,0.00001303,-0.00001561,0.00001
 038,-0.00001293,0.00002049,-0.00000767,-0.00000795,-0.00000538,-0.0000
 0567,-0.00004540,-0.00000873,0.00001122,-0.00002568,-0.00000068,0.0000
 4254,0.00003641,-0.00000079,-0.00004207,-0.00004046,-0.00000316,0.0000
 3812,0.00003755,0.00000379,0.00000639,-0.00000729,0.00000011,-0.000019
 70,0.00001763,0.00000898,0.00001829,-0.00005178,-0.00001048,-0.0000396
 0,0.00025886,0.00000851,-0.00007247,0.00072493,0.00045488,0.00004306,-
 0.00000502,-0.00001954,0.00006091,-0.00014260,0.00027189,0.00004774,-0
 .00024490,0.00007855,-0.00003140,0.00000931,-0.00001992,-0.00000987,-0
 .00000148,0.00000608,-0.00000292,-0.00000072,0.00000068,-0.00000364,0.
 00000598,0.00000369,0.00000652,0.00008985,-0.00033241,0.00023146,-0.00
 044093,0.00096069,-0.00014515,-0.00511204,0.00043915,-0.00226235,-0.00
 747982,-0.02899213,0.00259856,-0.10622437,-0.10616235,0.00320426,0.011
 21710,0.01758787,-0.00140679,-0.00154983,0.00254692,-0.00254742,-0.000
 09708,0.00001127,0.00007330,0.00000327,-0.00001999,-0.00010558,-0.0000
 0151,0.00000491,0.00000619,0.00000591,-0.00000161,0.00000316,0.0000005
 6,0.00000215,-0.00000428,0.00000627,-0.00000261,-0.00000107,-0.0000017
 7,0.00000447,0.00000520,-0.00000453,0.00000172,0.00000331,0.00000270,0
 .00000069,0.00000202,0.00000176,0.00000250,0.00000282,0.00000233,0.000
 00089,-0.00000157,0.00000011,-0.00000012,0.00000340,-0.00000421,-0.000
 00164,0.00000594,-0.00000807,-0.00000554,0.00001083,0.00000377,0.00000
 495,-0.00000024,-0.00000717,-0.00000629,0.00000298,0.00000086,0.000000
 58,-0.00000326,0.00000035,-0.00000214,-0.00000091,0.00000056,-0.000002
 46,0.00000209,0.00000015,0.00000103,-0.00000464,-0.00000214,-0.0000011
 8,-0.00000214,0.00003458,0.00005898,-0.00002369,-0.00050128,-0.0013188
 6,0.00011121,0.00117887,0.00063754,0.00080768,0.10768170,-0.00006619,-
 0.00002753,0.00000710,0.00005585,0.00001815,-0.00000492,-0.00002199,0.
 00000517,-0.00002021,-0.00002097,-0.00002816,0.00001718,-0.00020454,0.
 00000118,-0.00003293,-0.00006101,0.00003330,0.00021296,0.00010537,-0.0
 0000716,-0.00014137,-0.00011596,0.00000528,0.00018264,0.00014964,0.000
 02589,0.00001077,-0.00002916,-0.00000575,-0.00007078,0.00003886,0.0000
 1212,0.00005874,-0.00004422,0.00004739,-0.00009316,0.00038643,0.000064
 07,-0.00010334,-0.00061637,-0.00011557,-0.00006067,0.00015337,-0.00073
 235,0.00004732,-0.00026443,0.00016614,-0.00006778,-0.00001641,-0.00006
 006,0.00003120,-0.00000668,0.00000945,-0.00000050,0.00001366,0.0000022
 4,0.00000941,-0.00001806,-0.00001176,-0.00000876,0.00000743,0.00001860
 ,0.00001222,-0.00004534,-0.00003121,-0.00013085,0.00052920,0.00053766,
 -0.00011553,-0.00067390,0.00137383,0.00054453,0.00151663,0.00058994,0.
 00075274,-0.10599511,-0.28624880,0.01972708,-0.01239261,-0.01820276,0.
 00106151,0.00353363,-0.00136108,0.00244233,-0.00027031,0.00002568,0.00
 045047,-0.00000416,-0.00006665,-0.00048882,0.00000630,0.00001499,0.000
 02162,0.00001770,-0.00000115,0.00000534,0.00000659,0.00000315,-0.00001
 268,0.00002059,-0.00000784,-0.00000558,-0.00000520,0.00002137,0.000018
 33,-0.00000075,-0.00000722,-0.00002515,0.00001929,-0.00000050,0.000004
 17,0.00001779,-0.00000065,0.00001454,0.00001482,-0.00000385,0.00000503
 ,0.00000184,-0.00000261,0.00001008,-0.00001033,-0.00000444,0.00001429,
 -0.00001334,0.00000410,0.00000887,-0.00000312,-0.00000055,0.00000041,0
 .00000416,-0.00000233,0.00000197,-0.00000122,0.00000181,-0.00000230,-0
 .00000232,-0.00000477,0.00000027,0.00000363,-0.00000699,0.00000076,-0.
 00000058,0.00000353,-0.00001155,-0.00000451,-0.00000477,-0.00000638,-0
 .00001959,-0.00001417,0.00000734,0.00010673,-0.00008388,0.00007740,-0.
 00024688,0.00056257,-0.00067004,0.11413036,0.30252382,-0.00001217,-0.0
 0000523,0.00000464,0.00000586,0.00001390,-0.00001343,0.00000507,-0.000
 00899,0.00000810,-0.00000635,-0.00000814,0.00000072,-0.00002432,0.0000
 1258,0.00001093,-0.00001243,-0.00000774,0.00000281,0.00000228,-0.00001
 134,0.00001027,0.00000747,-0.00000183,-0.00000877,-0.00000824,-0.00000
 902,-0.00001038,0.00000278,-0.00001617,-0.00000443,0.00000212,-0.00001
 323,0.00000307,0.00001116,0.00001615,0.00002655,-0.00009824,0.00006595
 ,0.00027880,0.00043174,0.00048640,0.00016748,-0.00034689,-0.00034592,-
 0.00060058,0.00005506,0.00005083,0.00004153,0.00025420,-0.00005427,0.0
 0014989,-0.00000156,0.00002092,0.00001867,0.00001002,-0.00000060,0.000
 01497,-0.00000435,-0.00001245,-0.00000701,-0.00000549,0.00000202,0.000
 00306,0.00015881,-0.00003673,-0.00069720,-0.00023187,0.00006340,-0.000
 69115,-0.00206834,0.00064019,0.00498888,-0.00210679,-0.00552674,0.0037
 2024,0.00252070,0.01979863,-0.04039316,0.00398693,0.00701591,0.0036688
 9,-0.00277350,0.00228384,0.00737504,0.00001403,-0.00002450,-0.00004768
 ,-0.00001104,0.00005897,-0.00002875,-0.00000112,0.00000153,0.00000157,
 0.00000132,0.00000132,-0.00000007,0.00000102,-0.00000190,-0.00000210,0
 .00000234,-0.00000085,-0.00000141,-0.00000192,-0.00000202,0.00000040,0
 .00000482,0.00000170,-0.00000412,-0.00000324,0.00000104,-0.00000026,-0
 .00000210,0.00000123,-0.00000037,-0.00000247,0.00000330,-0.00000125,-0
 .00000190,0.00000415,-0.00000355,0.00000142,0.00000834,-0.00000721,-0.
 00000619,0.00001652,-0.00000236,-0.00000054,-0.00000206,0.00000074,0.0
 0001140,0.00000021,-0.00000586,0.00000109,-0.00000134,0.00000133,-0.00
 000106,-0.00000028,0.00000134,0.00000128,0.00000211,-0.00000326,-0.000
 00068,0.00000007,0.00000011,0.00000072,-0.00000035,0.00000070,0.000024
 52,0.00002831,0.00003261,-0.00017010,-0.00024491,0.00026837,0.00096212
 ,-0.00049117,-0.00293319,-0.00186767,-0.02267276,0.02918443,-0.0000133
 3,-0.00001366,-0.00001908,0.00000999,-0.00002819,0.00003486,-0.0000220
 5,0.00004496,-0.00004164,-0.00002725,-0.00003596,0.00000976,-0.0001176
 4,-0.00004061,0.00010067,-0.00012843,-0.00008370,0.00013043,0.00029621
 ,0.00001259,-0.00011970,-0.00016189,0.00000037,0.00020038,0.00019861,0
 .00002578,0.00004671,-0.00006082,-0.00000959,-0.00010991,-0.00003504,-
 0.00006585,0.00029804,-0.00008902,0.00061121,-0.00014236,0.00047040,0.
 00142007,-0.00047070,-0.00015855,0.00170062,0.00020505,-0.00020053,-0.
 00104381,0.00030549,-0.00035579,0.00072543,-0.00014204,-0.00025555,-0.
 00002954,-0.00002992,0.00000941,-0.00000644,-0.00000348,-0.00002141,-0
 .00001933,-0.00001500,0.00002468,0.00000907,-0.00001399,-0.00000788,0.
 00003007,0.00003241,-0.00050845,0.00002156,-0.00001638,0.00101253,-0.0
 0200396,-0.00084680,0.00068817,-0.00036130,0.00039670,0.00094333,0.002
 99706,-0.00222740,-0.01212991,-0.00419136,-0.00230503,-0.32167002,-0.0
 3482893,-0.05957625,-0.00871432,-0.00067037,-0.00245970,-0.00062600,0.
 00097772,0.00035154,0.00000693,-0.00034436,-0.00059549,0.00000522,0.00
 000656,0.00001140,0.00000956,-0.00000082,0.00000873,0.00000117,0.00001
 114,0.00000094,0.00001497,-0.00001034,-0.00000155,-0.00000137,0.000013
 72,0.00001398,-0.00000543,0.00000079,-0.00000985,0.00001125,-0.0000001
 6,0.00000470,0.00000817,0.00000252,0.00001739,0.00000601,-0.00000231,-
 0.00000096,-0.00000424,-0.00000304,0.00000448,-0.00001372,-0.00000144,
 0.00001053,-0.00004866,-0.00003165,0.00003053,0.00000689,0.00000247,0.
 00000241,-0.00001013,-0.00002310,0.00000432,0.00000045,-0.00000001,-0.
 00000490,-0.00000048,0.00000305,0.00000284,0.00000554,-0.00002959,0.00
 000285,-0.00000007,-0.00000004,-0.00001118,0.00000447,0.00000079,-0.00
 001848,-0.00004378,-0.00016930,-0.00005110,-0.00013382,0.00002825,0.00
 024961,-0.00053268,-0.00027795,-0.00026988,0.00063700,0.00029016,0.001
 28293,0.34161717,0.00002127,-0.00001130,-0.00002547,-0.00002384,-0.000
 05993,0.00006978,-0.00004115,0.00007098,-0.00007017,-0.00001718,-0.000
 03734,-0.00002988,-0.00029581,0.00007701,-0.00005974,-0.00027342,-0.00
 001124,0.00045443,0.00020244,-0.00002909,-0.00032989,-0.00025723,-0.00
 000391,0.00043364,0.00033602,0.00002385,-0.00001610,-0.00002357,-0.000
 02012,-0.00018272,0.00008861,0.00008600,0.00005777,0.00004448,-0.00010
 919,0.00048094,0.00160076,-0.00072514,-0.00029228,0.00116338,0.0021198
 7,-0.00031366,-0.00029260,-0.00186302,0.00016582,-0.00083505,0.0015549
 5,-0.00017495,-0.00068344,0.00008486,-0.00010769,-0.00000368,-0.000041
 51,0.00001866,-0.00004950,-0.00002308,0.00004539,0.00004459,0.00002592
 ,-0.00009082,-0.00001033,0.00004477,0.00010282,-0.00139853,-0.00046752
 ,-0.00031362,-0.00066430,-0.00414640,0.00125031,-0.00002360,-0.0015654
 8,0.00022536,0.00218249,-0.00315221,0.00230789,0.02527010,0.00701082,0
 .00502361,-0.03405515,-0.06119270,-0.00370321,-0.02821321,0.00097298,-
 0.00607600,-0.00003939,-0.00064084,0.00072608,-0.00014442,-0.00003324,
 -0.00077323,0.00000348,-0.00000233,0.00000216,0.00000985,0.00000049,0.
 00001326,-0.00000639,0.00002681,0.00001464,0.00001219,-0.00000503,0.00
 000440,0.00000783,0.00001594,0.00001045,-0.00000406,-0.00000495,0.0000
 0242,-0.00000474,0.00000483,0.00000554,-0.00000714,0.00001484,0.000004
 17,0.00000028,0.00000161,-0.00000911,-0.00000635,0.00000623,-0.0000053
 2,-0.00001425,0.00000209,0.00000856,-0.00004889,-0.00000055,0.00006437
 ,0.00004124,0.00001624,-0.00000052,-0.00002314,-0.00003251,0.00000075,
 0.00000538,-0.00000655,-0.00001101,0.00000306,0.00001786,-0.00001749,0
 .00001189,-0.00006885,0.00000643,-0.00000536,-0.00000120,-0.00002832,0
 .00001509,0.00001108,-0.00004527,-0.00019080,-0.00037622,0.00014939,0.
 00002125,0.00005903,-0.00018241,0.00111584,0.00015916,0.00026423,-0.00
 031297,0.00098394,-0.00106487,0.03548468,0.06144222,0.00001607,0.00005
 180,0.00003531,-0.00002955,-0.00000698,-0.00001908,0.00002392,0.000017
 45,0.00000484,0.00000487,-0.00001912,0.00000663,-0.00014064,-0.0001667
 0,-0.00001338,-0.00001733,0.00007498,0.00024494,0.00012372,-0.00003200
 ,-0.00012480,0.00003375,-0.00001242,0.00000074,0.00005216,0.00000154,-
 0.00004726,-0.00009957,-0.00007274,-0.00010370,-0.00004358,-0.00005314
 ,0.00014000,-0.00012114,0.00050332,-0.00069195,-0.00002950,-0.00049289
 ,0.00054690,0.00106044,-0.00075316,-0.00214253,-0.00030651,0.00016992,
 -0.00028015,0.00028656,-0.00014229,-0.00004339,0.00017765,-0.00010663,
 -0.00007027,-0.00000437,0.00002052,0.00002965,-0.00000782,-0.00000818,
 0.00000940,0.00000704,-0.00002055,-0.00000726,-0.00001765,0.00003109,0
 .00001281,-0.00003923,0.00016539,0.00014480,-0.00026360,0.00056298,0.0
 0480068,0.00030822,0.00086437,-0.00058417,-0.00247933,0.00216215,0.006
 82503,-0.00747040,-0.00190993,0.00394785,-0.05964388,-0.00339642,-0.05
 088995,0.00188684,0.00147723,0.00393569,0.00014431,0.00034507,0.001114
 89,-0.00031772,-0.00033786,-0.00089454,0.00000152,-0.00002059,-0.00003
 461,-0.00001368,-0.00000339,-0.00000704,0.00000879,0.00001375,0.000011
 98,0.00000280,-0.00001017,-0.00000450,-0.00000275,-0.00000824,-0.00000
 188,0.00003858,-0.00000515,-0.00003314,-0.00000292,0.00000572,-0.00001
 175,0.00000438,0.00001081,-0.00000557,0.00000266,0.00000254,0.00000494
 ,0.00000228,0.00000746,0.00000444,-0.00000107,0.00001717,-0.00000068,0
 .00001368,0.00007044,-0.00002108,0.00000067,0.00000523,-0.00000308,-0.
 00000126,-0.00001026,0.00000263,0.00000459,-0.00000112,-0.00000249,-0.
 00000136,-0.00000301,0.00000142,0.00000564,-0.00001130,-0.00000390,-0.
 00000092,0.00000173,-0.00000418,0.00000177,-0.00000526,-0.00000701,-0.
 00000882,-0.00000353,0.00005493,0.00015556,-0.00019562,-0.00094208,-0.
 00039467,-0.00009223,-0.00000189,0.00128351,-0.00098064,-0.00452847,0.
 06587671,0.00223203,0.03960833,-0.00994640,-0.00476084,-0.00637804,0.0
 0347583,0.00341733,-0.00144765,-0.00175143,-0.00426309,0.00173174,0.00
 026201,0.00032052,-0.00004942,0.00079319,-0.00180691,-0.00054802,0.000
 55116,0.00062353,-0.00174813,-0.00058726,0.00000681,0.00141905,0.00113
 205,-0.00003935,-0.00197755,-0.00157521,-0.00014748,-0.00000095,0.0002
 2579,0.00028275,0.00081694,-0.00064192,-0.00028353,-0.00043801,0.00029
 539,-0.00016224,0.00025881,-0.00338203,0.00318802,0.00200026,-0.006010
 07,-0.00923195,0.00179127,-0.02404282,0.03050133,0.00438552,-0.0596153
 3,-0.02490074,0.03096573,0.00723610,-0.00170328,0.00021329,-0.00001135
 ,-0.00003903,-0.00006063,-0.00010980,-0.00001223,0.00005294,0.00007692
 ,-0.00009248,0.00009320,-0.00018801,0.00011603,-0.00007169,-0.00040930
 ,0.00521479,-0.00069191,-0.00000691,-0.00385056,0.00077550,0.00004774,
 0.00372130,-0.00073007,-0.00195678,-0.00155507,-0.00010777,0.00086793,
 -0.00088392,0.00036873,-0.00053522,0.00014869,-0.00019080,-0.00117040,
 0.00123799,0.00086129,0.00633393,-0.00284393,-0.00691789,-0.00251023,-
 0.00912368,0.01032276,-0.00099378,0.00992449,0.00804523,0.00206261,-0.
 00002574,0.00097723,-0.00204765,-0.00084282,-0.00474774,0.00022363,0.0
 0063530,-0.00010410,-0.00004601,0.00033172,0.00052216,0.00002921,0.000
 29791,0.00013828,-0.00012981,0.00013570,0.00011156,-0.00016560,-0.0000
 5116,-0.00014886,-0.00010720,-0.00004658,-0.00005132,0.00000690,-0.000
 06088,-0.00003563,0.00007691,-0.00000325,-0.00009082,0.00019144,-0.000
 09858,-0.00018903,0.00008660,-0.00011669,-0.00001939,-0.00018161,-0.00
 040248,0.00004216,0.00005931,-0.00001587,-0.00005945,0.00001831,0.0000
 1959,0.00002024,-0.00008224,-0.00026708,0.00023025,0.00004813,-0.00007
 182,-0.00000515,0.00011488,0.00001603,-0.00004223,0.00004745,-0.000056
 62,0.00007256,-0.00002426,-0.00000259,-0.00003269,-0.00000337,-0.00000
 249,-0.00000876,0.00005994,0.00004526,0.00000736,0.00011015,0.00028333
 ,-0.00006940,0.09379850,0.00674263,0.00843123,0.01022304,-0.00533197,-
 0.00491228,0.00022981,-0.00008256,0.00344349,-0.00205708,0.00022449,-0
 .00021586,0.00034019,-0.00078554,0.00015803,0.00147967,0.00203813,-0.0
 0029661,-0.00006265,0.00031232,0.00011623,0.00147602,0.00011466,-0.000
 06847,-0.00151334,-0.00070298,-0.00004643,0.00074562,-0.00010821,-0.00
 020667,0.00029694,0.00002199,0.00008459,0.00069890,-0.00186699,-0.0009
 1375,-0.00242597,0.00202072,-0.00257297,0.00105029,0.00593417,-0.00155
 397,0.00041790,0.00669747,-0.00328838,-0.00418784,-0.00564835,0.001363
 15,0.00474825,-0.00009771,-0.00013986,-0.00115521,-0.00012098,0.000173
 34,-0.00000029,0.00006682,-0.00003011,0.00001859,0.00007796,-0.0002588
 1,-0.00005699,-0.00011235,0.00013258,0.00007824,-0.00003076,-0.0007344
 3,0.00032038,0.00043606,0.00086620,-0.00025175,-0.00012189,-0.00090492
 ,0.00022682,0.00072076,0.00043539,0.00008426,-0.00065621,0.00031680,-0
 .00018124,0.00034007,-0.00048416,0.00024608,-0.00066185,-0.00031359,-0
 .00102086,-0.01101055,-0.01252190,-0.02454716,-0.00172139,-0.03016574,
 0.03794553,-0.00332050,-0.00547170,-0.00874921,-0.00097861,-0.00051026
 ,-0.00177049,0.00071764,0.00015134,-0.00097877,0.00018601,-0.00043625,
 0.00029285,-0.00069196,0.00024147,0.00091711,-0.00011415,-0.00030852,-
 0.00008912,0.00029772,-0.00005117,-0.00009651,0.00021272,0.00000277,0.
 00033742,0.00007145,0.00004790,0.00002486,-0.00002308,0.00004769,0.000
 05474,-0.00001253,0.00003123,0.00009947,-0.00011130,0.00016736,0.00003
 813,-0.00002076,-0.00001510,0.00000994,0.00006555,0.00000671,-0.000000
 31,0.00001289,-0.00000405,-0.00002446,-0.00002396,-0.00002915,0.000030
 55,-0.00000366,0.00009355,-0.00000581,-0.00000164,0.00002850,-0.000067
 76,-0.00003923,-0.00003192,0.00001134,-0.00005296,0.00003733,0.0001778
 1,-0.00003788,0.00001732,0.00002474,-0.00001874,0.00001059,-0.00000862
 ,-0.00000357,-0.00001080,-0.00003411,-0.00009394,-0.00020298,0.0000668
 8,0.00729654,0.05029601,0.00128455,0.00273113,0.00704982,0.00016577,-0
 .00039844,-0.00263428,0.00213542,-0.00008003,0.00274681,-0.00035789,-0
 .00008803,-0.00028111,-0.00439052,-0.00178697,-0.00239998,-0.00080222,
 0.00068476,0.00225636,0.00072622,-0.00034323,-0.00150651,-0.00050367,0
 .00008627,0.00099217,0.00075323,0.00010186,-0.00009336,-0.00028096,-0.
 00002596,-0.00042570,0.00027514,0.00015944,0.00030040,-0.00000341,-0.0
 0054717,-0.00173438,0.00342180,0.00036846,-0.00455976,0.00366279,0.003
 70177,0.00220075,0.00699871,-0.01266876,0.00010158,0.03030421,0.011041
 05,-0.01829496,-0.00342268,0.00130179,-0.00032508,-0.00013236,0.000176
 52,-0.00010358,0.00026566,0.00003061,0.00028837,-0.00045689,0.00011463
 ,-0.00028934,0.00027628,-0.00013258,0.00010109,-0.00020528,-0.00211546
 ,0.00038049,-0.00017787,0.00167324,-0.00045503,-0.00008815,-0.00183072
 ,0.00034769,0.00093488,0.00079636,0.00003081,-0.00044414,0.00038045,-0
 .00013254,0.00050652,0.00023088,-0.00002552,0.00068068,-0.00095848,-0.
 00087042,-0.00028006,0.00542354,0.01775393,-0.00085839,0.00916297,-0.0
 1812022,-0.00050247,-0.00032294,-0.00067574,0.00085581,-0.00095413,-0.
 00081247,-0.00061961,-0.00202626,-0.00493885,-0.00013821,0.00000432,-0
 .00030094,-0.00028060,-0.00078860,-0.00064974,0.00016978,0.00016892,-0
 .00007108,0.00007258,-0.00015649,-0.00017140,0.00001113,0.00012232,-0.
 00003347,0.00004654,0.00000951,0.00002571,0.00000229,-0.00000931,0.000
 03659,-0.00003562,-0.00003949,0.00005642,-0.00009436,-0.00000560,0.000
 12700,-0.00009335,0.00006277,0.00001764,0.00022560,0.00018586,0.000012
 73,-0.00005107,0.00000676,-0.00003287,-0.00002038,-0.00001879,-0.00004
 546,0.00012033,0.00013964,-0.00008709,-0.00002222,0.00000534,-0.000131
 64,-0.00012127,-0.00000437,0.00001600,-0.00008605,0.00011021,0.0000032
 0,0.00000207,0.00000538,0.00002756,-0.00000525,-0.00000470,0.00000071,
 -0.00002844,-0.00003191,0.00000989,-0.00013361,-0.00022152,0.00003696,
 -0.03926097,-0.01342681,0.02528184\\-0.00000147,0.00000048,0.00000110,
 0.00000228,-0.00000219,0.00000085,-0.00000081,0.00000253,0.00000108,0.
 00000142,-0.00000070,0.00000008,-0.00000377,-0.00000053,-0.00000053,0.
 00000016,-0.00000036,0.00000319,0.00000225,-0.00000021,-0.00000221,-0.
 00000122,-0.00000027,0.00000194,0.00000155,-0.00000004,0.00000029,-0.0
 0000131,0.00000009,-0.00000091,0.00000089,0.00000006,0.00000039,-0.000
 00117,-0.00000018,-0.00000105,-0.00000056,-0.00000041,0.00000039,0.000
 00122,0.00000201,0.00000120,0.00000079,-0.00000109,-0.00000054,-0.0000
 0259,-0.00000096,0.,-0.00000170,0.00000004,-0.00000013,0.00000079,0.00
 000120,-0.00000046,-0.00000153,0.00000057,0.00000286,0.00000037,0.0000
 0056,-0.00000442,0.00000030,0.00000004,0.00000202,0.00000010,0.0000007
 3,-0.00000060,-0.00000043,0.00000083,-0.00000050,0.00000065,-0.0000003
 7,-0.00000006,0.00000079,0.00000078,-0.00000025,0.00000051,0.00000022,
 -0.00000023,0.00000053,0.00000077,-0.00000006,0.00000063,-0.00000119,-
 0.00000007,0.00000368,0.00000019,0.00000101,-0.00000070,0.00000003,-0.
 00000124,-0.00000047,-0.00000094,-0.00000021,-0.00000019,-0.00000017,0
 .00000009,0.00000014,-0.00000055,-0.00000023,0.00000021,-0.00000157,0.
 00000019,0.00000014,-0.00000059,0.00000014,0.00000037,-0.00000123,-0.0
 0000006,0.00000006,-0.00000010,0.00000022,-0.00000002,-0.00000053,-0.0
 0000007,0.,-0.00000033,0.00000002,-0.00000028,-0.00000016,0.00000012,-
 0.00000032,-0.00000011,-0.00000017,-0.00000022,0.00000024,0.00000003,-
 0.00000048,0.00000076,-0.00000036,-0.00000025,0.00000004,0.,-0.0000007
 5,0.00000040,-0.00000038,-0.00000008,0.00000051,-0.00000059,-0.0000006
 8,0.00000026,-0.00000073,-0.00000140,-0.00000020,0.00000130,-0.0000004
 0,-0.00000008,-0.00000110,0.00000028,0.00000035,-0.00000035,0.00000047
 ,0.00000066,-0.00000036,0.00000063,0.00000032,-0.00000038,0.00000067,0
 .00000003,-0.00000008,0.00000022,0.00000003,-0.00000016,0.00000072,0.0
 0000033,-0.00000002\\\@
 The archive entry for this job was punched.


 LENDING MONEY TO FRIENDS CAUSES THEM TO LOSE THEIR MEMORIES.

    --  PETER'S THEORY OF RECIPROCAL INHIBITION OF FISCAL RECALL
 Job cpu time:       0 days 10 hours 57 minutes 59.2 seconds.
 Elapsed time:       0 days  0 hours 20 minutes 37.0 seconds.
 File lengths (MBytes):  RWF=   3278 Int=      0 D2E=      0 Chk=     30 Scr=      2
 Normal termination of Gaussian 16 at Fri Mar  8 04:16:52 2024.
