 Entering Gaussian System, Link 0=g16
 Initial command:
 /public/software/apps/Gaussian/g16/l1.exe "/public/home/LJQ_HG/tmp/Gau-125090.inp" -scrdir="/public/home/LJQ_HG/tmp/"
 Entering Link 1 = /public/software/apps/Gaussian/g16/l1.exe PID=    125091.
  
 Copyright (c) 1988-2019, Gaussian, Inc.  All Rights Reserved.
  
 This is part of the Gaussian(R) 16 program.  It is based on
 the Gaussian(R) 09 system (copyright 2009, Gaussian, Inc.),
 the Gaussian(R) 03 system (copyright 2003, Gaussian, Inc.),
 the Gaussian(R) 98 system (copyright 1998, Gaussian, Inc.),
 the Gaussian(R) 94 system (copyright 1995, Gaussian, Inc.),
 the Gaussian 92(TM) system (copyright 1992, Gaussian, Inc.),
 the Gaussian 90(TM) system (copyright 1990, Gaussian, Inc.),
 the Gaussian 88(TM) system (copyright 1988, Gaussian, Inc.),
 the Gaussian 86(TM) system (copyright 1986, Carnegie Mellon
 University), and the Gaussian 82(TM) system (copyright 1983,
 Carnegie Mellon University). Gaussian is a federally registered
 trademark of Gaussian, Inc.
  
 This software contains proprietary and confidential information,
 including trade secrets, belonging to Gaussian, Inc.
  
 This software is provided under written license and may be
 used, copied, transmitted, or stored only in accord with that
 written license.
  
 The following legend is applicable only to US Government
 contracts under FAR:
  
                    RESTRICTED RIGHTS LEGEND
  
 Use, reproduction and disclosure by the US Government is
 subject to restrictions as set forth in subparagraphs (a)
 and (c) of the Commercial Computer Software - Restricted
 Rights clause in FAR 52.227-19.
  
 Gaussian, Inc.
 340 Quinnipiac St., Bldg. 40, Wallingford CT 06492
  
  
 ---------------------------------------------------------------
 Warning -- This program may not be used in any manner that
 competes with the business of Gaussian, Inc. or will provide
 assistance to any competitor of Gaussian, Inc.  The licensee
 of this program is prohibited from giving any competitor of
 Gaussian, Inc. access to this program.  By using this program,
 the user acknowledges that Gaussian, Inc. is engaged in the
 business of creating and licensing software in the field of
 computational chemistry and represents and warrants to the
 licensee that it is not a competitor of Gaussian, Inc. and that
 it will not use this program in any manner prohibited above.
 ---------------------------------------------------------------
  

 Cite this work as:
 Gaussian 16, Revision C.01,
 M. J. Frisch, G. W. Trucks, H. B. Schlegel, G. E. Scuseria, 
 M. A. Robb, J. R. Cheeseman, G. Scalmani, V. Barone, 
 G. A. Petersson, H. Nakatsuji, X. Li, M. Caricato, A. V. Marenich, 
 J. Bloino, B. G. Janesko, R. Gomperts, B. Mennucci, H. P. Hratchian, 
 J. V. Ortiz, A. F. Izmaylov, J. L. Sonnenberg, D. Williams-Young, 
 F. Ding, F. Lipparini, F. Egidi, J. Goings, B. Peng, A. Petrone, 
 T. Henderson, D. Ranasinghe, V. G. Zakrzewski, J. Gao, N. Rega, 
 G. Zheng, W. Liang, M. Hada, M. Ehara, K. Toyota, R. Fukuda, 
 J. Hasegawa, M. Ishida, T. Nakajima, Y. Honda, O. Kitao, H. Nakai, 
 T. Vreven, K. Throssell, J. A. Montgomery, Jr., J. E. Peralta, 
 F. Ogliaro, M. J. Bearpark, J. J. Heyd, E. N. Brothers, K. N. Kudin, 
 V. N. Staroverov, T. A. Keith, R. Kobayashi, J. Normand, 
 K. Raghavachari, A. P. Rendell, J. C. Burant, S. S. Iyengar, 
 J. Tomasi, M. Cossi, J. M. Millam, M. Klene, C. Adamo, R. Cammi, 
 J. W. Ochterski, R. L. Martin, K. Morokuma, O. Farkas, 
 J. B. Foresman, and D. J. Fox, Gaussian, Inc., Wallingford CT, 2019.
 
 ******************************************
 Gaussian 16:  ES64L-G16RevC.01  3-Jul-2019
                 8-Mar-2024 
 ******************************************
 %nprocshared=32
 Will use up to   32 processors via shared memory.
 %mem=100GB
 ------------------------------------------
 #p opt freq b3lyp/def2svpp em=gd3bj nosymm
 ------------------------------------------
 1/18=20,19=15,26=3,38=1/1,3;
 2/9=110,12=2,15=1,17=6,18=5,40=1/2;
 3/5=43,7=202,11=2,25=1,30=1,71=1,74=-5,124=41/1,2,3;
 4//1;
 5/5=2,38=5/2;
 6/7=2,8=2,9=2,10=2,28=1/1;
 7/30=1/1,2,3,16;
 1/18=20,19=15,26=3/3(2);
 2/9=110,15=1/2;
 99//99;
 2/9=110,15=1/2;
 3/5=43,7=202,11=2,25=1,30=1,71=1,74=-5,124=41/1,2,3;
 4/5=5,16=3,69=1/1;
 5/5=2,38=5/2;
 7/30=1/1,2,3,16;
 1/18=20,19=15,26=3/3(-5);
 2/9=110,15=1/2;
 6/7=2,8=2,9=2,10=2,19=2,28=1/1;
 99/9=1/99;
 Leave Link    1 at Fri Mar  8 03:01:34 2024, MaxMem= 13421772800 cpu:               2.3 elap:               0.1
 (Enter /public/software/apps/Gaussian/g16/l101.exe)
 ------------------
 $$$$Title####0????
 ------------------
 Symbolic Z-matrix:
 Charge =  0 Multiplicity = 2
 C                     6.41357   2.68513   1.16078 
 O                     5.47228   1.74743   0.65243 
 C                     4.1029    1.82165   0.93288 
 O                     3.66603   2.75128   1.66572 
 C                     3.17809   0.80441   0.36637 
 C                     3.70296  -0.22995  -0.42435 
 C                     2.86775  -1.19958  -0.9924 
 C                     3.4154   -2.21261  -1.79692 
 C                     2.58841  -3.17271  -2.38117 
 C                     1.21033  -3.12884  -2.17353 
 C                     0.65059  -2.12922  -1.37486 
 C                     1.47049  -1.15621  -0.76242 
 C                     0.93488  -0.13634   0.06227 
 C                    -0.52091  -0.06393   0.36776 
 C                    -1.27828   0.97727  -0.20266 
 O                    -0.63157   1.92093  -0.99748 
 C                    -2.668     1.0698    0.02999 
 C                    -3.49567   2.1493   -0.57054 
 O                    -2.97585   3.01035  -1.33244 
 O                    -4.86563   2.21111  -0.28988 
 C                    -5.71697   3.21484  -0.82974 
 C                    -3.28505   0.11454   0.853 
 C                    -2.5422   -0.90924   1.4534 
 C                    -3.17994  -1.84074   2.28948 
 C                    -2.44437  -2.85374   2.90575 
 C                    -1.06844  -2.94419   2.69886 
 C                    -0.4199   -2.02698   1.86908 
 C                    -1.14726  -1.00269   1.22424 
 C                     1.78611   0.84832   0.59981 
 O                     1.23059   1.87296   1.36269 
 H                     7.42748   2.41534   0.80069 
 H                     6.16426   3.70638   0.80253 
 H                     6.40871   2.66478   2.2712 
 H                     4.76966  -0.27919  -0.61072 
 H                     4.48293  -2.25952  -1.97721 
 H                     3.01661  -3.94967  -3.00129 
 H                     0.57207  -3.87137  -2.63497 
 H                    -0.42369  -2.12378  -1.24682 
 H                    -5.37378   4.21974  -0.50438 
 H                    -5.71569   3.15819  -1.9389 
 H                    -6.75093   3.05175  -0.46261 
 H                    -4.35146   0.17018   1.03927 
 H                    -4.24696  -1.7829    2.46959 
 H                    -2.94162  -3.56731   3.55005 
 H                    -0.50086  -3.72721   3.18506 
 H                     0.6501   -2.12502   1.74255 
 Cu                    0.36638   3.15634   0.15544 
 
 ITRead=  0  0  0  0  0  0  0  0  0  0  0  0  0  0  0  0  0  0  0  0
 ITRead=  0  0  0  0  0  0  0  0  0  0  0  0  0  0  0  0  0  0  0  0
 ITRead=  0  0  0  0  0  0  0
 MicOpt= -1 -1 -1 -1 -1 -1 -1 -1 -1 -1 -1 -1 -1 -1 -1 -1 -1 -1 -1 -1
 MicOpt= -1 -1 -1 -1 -1 -1 -1 -1 -1 -1 -1 -1 -1 -1 -1 -1 -1 -1 -1 -1
 MicOpt= -1 -1 -1 -1 -1 -1 -1
 NAtoms=     47 NQM=       47 NQMF=       0 NMMI=      0 NMMIF=      0
                NMic=       0 NMicF=      0.
                    Isotopes and Nuclear Properties:
 (Nuclear quadrupole moments (NQMom) in fm**2, nuclear magnetic moments (NMagM)
  in nuclear magnetons)

  Atom         1           2           3           4           5           6           7           8           9          10
 IAtWgt=          12          16          12          16          12          12          12          12          12          12
 AtmWgt=  12.0000000  15.9949146  12.0000000  15.9949146  12.0000000  12.0000000  12.0000000  12.0000000  12.0000000  12.0000000
 NucSpn=           0           0           0           0           0           0           0           0           0           0
 AtZEff=  -0.0000000  -0.0000000  -0.0000000  -0.0000000  -0.0000000  -0.0000000  -0.0000000  -0.0000000  -0.0000000  -0.0000000
 NQMom=    0.0000000   0.0000000   0.0000000   0.0000000   0.0000000   0.0000000   0.0000000   0.0000000   0.0000000   0.0000000
 NMagM=    0.0000000   0.0000000   0.0000000   0.0000000   0.0000000   0.0000000   0.0000000   0.0000000   0.0000000   0.0000000
 AtZNuc=   6.0000000   8.0000000   6.0000000   8.0000000   6.0000000   6.0000000   6.0000000   6.0000000   6.0000000   6.0000000

  Atom        11          12          13          14          15          16          17          18          19          20
 IAtWgt=          12          12          12          12          12          16          12          12          16          16
 AtmWgt=  12.0000000  12.0000000  12.0000000  12.0000000  12.0000000  15.9949146  12.0000000  12.0000000  15.9949146  15.9949146
 NucSpn=           0           0           0           0           0           0           0           0           0           0
 AtZEff=  -0.0000000  -0.0000000  -0.0000000  -0.0000000  -0.0000000  -0.0000000  -0.0000000  -0.0000000  -0.0000000  -0.0000000
 NQMom=    0.0000000   0.0000000   0.0000000   0.0000000   0.0000000   0.0000000   0.0000000   0.0000000   0.0000000   0.0000000
 NMagM=    0.0000000   0.0000000   0.0000000   0.0000000   0.0000000   0.0000000   0.0000000   0.0000000   0.0000000   0.0000000
 AtZNuc=   6.0000000   6.0000000   6.0000000   6.0000000   6.0000000   8.0000000   6.0000000   6.0000000   8.0000000   8.0000000

  Atom        21          22          23          24          25          26          27          28          29          30
 IAtWgt=          12          12          12          12          12          12          12          12          12          16
 AtmWgt=  12.0000000  12.0000000  12.0000000  12.0000000  12.0000000  12.0000000  12.0000000  12.0000000  12.0000000  15.9949146
 NucSpn=           0           0           0           0           0           0           0           0           0           0
 AtZEff=  -0.0000000  -0.0000000  -0.0000000  -0.0000000  -0.0000000  -0.0000000  -0.0000000  -0.0000000  -0.0000000  -0.0000000
 NQMom=    0.0000000   0.0000000   0.0000000   0.0000000   0.0000000   0.0000000   0.0000000   0.0000000   0.0000000   0.0000000
 NMagM=    0.0000000   0.0000000   0.0000000   0.0000000   0.0000000   0.0000000   0.0000000   0.0000000   0.0000000   0.0000000
 AtZNuc=   6.0000000   6.0000000   6.0000000   6.0000000   6.0000000   6.0000000   6.0000000   6.0000000   6.0000000   8.0000000

  Atom        31          32          33          34          35          36          37          38          39          40
 IAtWgt=           1           1           1           1           1           1           1           1           1           1
 AtmWgt=   1.0078250   1.0078250   1.0078250   1.0078250   1.0078250   1.0078250   1.0078250   1.0078250   1.0078250   1.0078250
 NucSpn=           1           1           1           1           1           1           1           1           1           1
 AtZEff=  -0.0000000  -0.0000000  -0.0000000  -0.0000000  -0.0000000  -0.0000000  -0.0000000  -0.0000000  -0.0000000  -0.0000000
 NQMom=    0.0000000   0.0000000   0.0000000   0.0000000   0.0000000   0.0000000   0.0000000   0.0000000   0.0000000   0.0000000
 NMagM=    2.7928460   2.7928460   2.7928460   2.7928460   2.7928460   2.7928460   2.7928460   2.7928460   2.7928460   2.7928460
 AtZNuc=   1.0000000   1.0000000   1.0000000   1.0000000   1.0000000   1.0000000   1.0000000   1.0000000   1.0000000   1.0000000

  Atom        41          42          43          44          45          46          47
 IAtWgt=           1           1           1           1           1           1          63
 AtmWgt=   1.0078250   1.0078250   1.0078250   1.0078250   1.0078250   1.0078250  62.9295992
 NucSpn=           1           1           1           1           1           1           3
 AtZEff=  -0.0000000  -0.0000000  -0.0000000  -0.0000000  -0.0000000  -0.0000000  -0.0000000
 NQMom=    0.0000000   0.0000000   0.0000000   0.0000000   0.0000000   0.0000000 -22.0000000
 NMagM=    2.7928460   2.7928460   2.7928460   2.7928460   2.7928460   2.7928460   2.2233000
 AtZNuc=   1.0000000   1.0000000   1.0000000   1.0000000   1.0000000   1.0000000  29.0000000
 Leave Link  101 at Fri Mar  8 03:01:34 2024, MaxMem= 13421772800 cpu:               3.3 elap:               0.1
 (Enter /public/software/apps/Gaussian/g16/l103.exe)

 GradGradGradGradGradGradGradGradGradGradGradGradGradGradGradGradGradGrad
 Berny optimization.
 Initialization pass.
                           ----------------------------
                           !    Initial Parameters    !
                           ! (Angstroms and Degrees)  !
 --------------------------                            --------------------------
 ! Name  Definition              Value          Derivative Info.                !
 --------------------------------------------------------------------------------
 ! R1    R(1,2)                  1.4226         estimate D2E/DX2                !
 ! R2    R(1,31)                 1.1093         estimate D2E/DX2                !
 ! R3    R(1,32)                 1.1106         estimate D2E/DX2                !
 ! R4    R(1,33)                 1.1106         estimate D2E/DX2                !
 ! R5    R(2,3)                  1.3998         estimate D2E/DX2                !
 ! R6    R(3,4)                  1.2618         estimate D2E/DX2                !
 ! R7    R(3,5)                  1.4869         estimate D2E/DX2                !
 ! R8    R(5,6)                  1.4038         estimate D2E/DX2                !
 ! R9    R(5,29)                 1.4121         estimate D2E/DX2                !
 ! R10   R(6,7)                  1.4002         estimate D2E/DX2                !
 ! R11   R(6,34)                 1.084          estimate D2E/DX2                !
 ! R12   R(7,8)                  1.4048         estimate D2E/DX2                !
 ! R13   R(7,12)                 1.4167         estimate D2E/DX2                !
 ! R14   R(8,9)                  1.3954         estimate D2E/DX2                !
 ! R15   R(8,35)                 1.0837         estimate D2E/DX2                !
 ! R16   R(9,10)                 1.3943         estimate D2E/DX2                !
 ! R17   R(9,36)                 1.0824         estimate D2E/DX2                !
 ! R18   R(10,11)                1.3966         estimate D2E/DX2                !
 ! R19   R(10,37)                1.0824         estimate D2E/DX2                !
 ! R20   R(11,12)                1.4121         estimate D2E/DX2                !
 ! R21   R(11,38)                1.0819         estimate D2E/DX2                !
 ! R22   R(12,13)                1.4167         estimate D2E/DX2                !
 ! R23   R(13,14)                1.4893         estimate D2E/DX2                !
 ! R24   R(13,29)                1.4082         estimate D2E/DX2                !
 ! R25   R(14,15)                1.4082         estimate D2E/DX2                !
 ! R26   R(14,28)                1.4167         estimate D2E/DX2                !
 ! R27   R(15,16)                1.393          estimate D2E/DX2                !
 ! R28   R(15,17)                1.4121         estimate D2E/DX2                !
 ! R29   R(16,47)                1.9625         estimate D2E/DX2                !
 ! R30   R(17,18)                1.4869         estimate D2E/DX2                !
 ! R31   R(17,22)                1.4038         estimate D2E/DX2                !
 ! R32   R(18,19)                1.2618         estimate D2E/DX2                !
 ! R33   R(18,20)                1.3998         estimate D2E/DX2                !
 ! R34   R(20,21)                1.4226         estimate D2E/DX2                !
 ! R35   R(21,39)                1.1106         estimate D2E/DX2                !
 ! R36   R(21,40)                1.1106         estimate D2E/DX2                !
 ! R37   R(21,41)                1.1093         estimate D2E/DX2                !
 ! R38   R(22,23)                1.4002         estimate D2E/DX2                !
 ! R39   R(22,42)                1.084          estimate D2E/DX2                !
 ! R40   R(23,24)                1.4048         estimate D2E/DX2                !
 ! R41   R(23,28)                1.4167         estimate D2E/DX2                !
 ! R42   R(24,25)                1.3954         estimate D2E/DX2                !
 ! R43   R(24,43)                1.0837         estimate D2E/DX2                !
 ! R44   R(25,26)                1.3943         estimate D2E/DX2                !
 ! R45   R(25,44)                1.0824         estimate D2E/DX2                !
 ! R46   R(26,27)                1.3966         estimate D2E/DX2                !
 ! R47   R(26,45)                1.0824         estimate D2E/DX2                !
 ! R48   R(27,28)                1.4121         estimate D2E/DX2                !
 ! R49   R(27,46)                1.0819         estimate D2E/DX2                !
 ! R50   R(29,30)                1.393          estimate D2E/DX2                !
 ! R51   R(30,47)                1.9625         estimate D2E/DX2                !
 ! A1    A(2,1,31)             109.1768         estimate D2E/DX2                !
 ! A2    A(2,1,32)             110.0181         estimate D2E/DX2                !
 ! A3    A(2,1,33)             110.0181         estimate D2E/DX2                !
 ! A4    A(31,1,32)            108.9118         estimate D2E/DX2                !
 ! A5    A(31,1,33)            108.9113         estimate D2E/DX2                !
 ! A6    A(32,1,33)            109.778          estimate D2E/DX2                !
 ! A7    A(1,2,3)              122.7358         estimate D2E/DX2                !
 ! A8    A(2,3,4)              119.613          estimate D2E/DX2                !
 ! A9    A(2,3,5)              119.7255         estimate D2E/DX2                !
 ! A10   A(4,3,5)              120.6615         estimate D2E/DX2                !
 ! A11   A(3,5,6)              119.0869         estimate D2E/DX2                !
 ! A12   A(3,5,29)             121.9268         estimate D2E/DX2                !
 ! A13   A(6,5,29)             118.9863         estimate D2E/DX2                !
 ! A14   A(5,6,7)              121.0479         estimate D2E/DX2                !
 ! A15   A(5,6,34)             119.8846         estimate D2E/DX2                !
 ! A16   A(7,6,34)             119.0645         estimate D2E/DX2                !
 ! A17   A(6,7,8)              119.9467         estimate D2E/DX2                !
 ! A18   A(6,7,12)             120.0837         estimate D2E/DX2                !
 ! A19   A(8,7,12)             119.9688         estimate D2E/DX2                !
 ! A20   A(7,8,9)              120.3268         estimate D2E/DX2                !
 ! A21   A(7,8,35)             120.6995         estimate D2E/DX2                !
 ! A22   A(9,8,35)             118.9732         estimate D2E/DX2                !
 ! A23   A(8,9,10)             120.1165         estimate D2E/DX2                !
 ! A24   A(8,9,36)             119.9554         estimate D2E/DX2                !
 ! A25   A(10,9,36)            119.9272         estimate D2E/DX2                !
 ! A26   A(9,10,11)            120.2521         estimate D2E/DX2                !
 ! A27   A(9,10,37)            119.8488         estimate D2E/DX2                !
 ! A28   A(11,10,37)           119.899          estimate D2E/DX2                !
 ! A29   A(10,11,12)           120.5648         estimate D2E/DX2                !
 ! A30   A(10,11,38)           117.9852         estimate D2E/DX2                !
 ! A31   A(12,11,38)           121.4494         estimate D2E/DX2                !
 ! A32   A(7,12,11)            118.7606         estimate D2E/DX2                !
 ! A33   A(7,12,13)            119.3006         estimate D2E/DX2                !
 ! A34   A(11,12,13)           121.9366         estimate D2E/DX2                !
 ! A35   A(12,13,14)           121.5987         estimate D2E/DX2                !
 ! A36   A(12,13,29)           119.8034         estimate D2E/DX2                !
 ! A37   A(14,13,29)           118.5936         estimate D2E/DX2                !
 ! A38   A(13,14,15)           118.5937         estimate D2E/DX2                !
 ! A39   A(13,14,28)           121.5986         estimate D2E/DX2                !
 ! A40   A(15,14,28)           119.8034         estimate D2E/DX2                !
 ! A41   A(14,15,16)           118.8359         estimate D2E/DX2                !
 ! A42   A(14,15,17)           120.7312         estimate D2E/DX2                !
 ! A43   A(16,15,17)           120.4322         estimate D2E/DX2                !
 ! A44   A(15,16,47)           109.1067         estimate D2E/DX2                !
 ! A45   A(15,17,18)           121.9268         estimate D2E/DX2                !
 ! A46   A(15,17,22)           118.9863         estimate D2E/DX2                !
 ! A47   A(18,17,22)           119.0869         estimate D2E/DX2                !
 ! A48   A(17,18,19)           120.6614         estimate D2E/DX2                !
 ! A49   A(17,18,20)           119.7255         estimate D2E/DX2                !
 ! A50   A(19,18,20)           119.6131         estimate D2E/DX2                !
 ! A51   A(18,20,21)           122.7358         estimate D2E/DX2                !
 ! A52   A(20,21,39)           110.0181         estimate D2E/DX2                !
 ! A53   A(20,21,40)           110.0181         estimate D2E/DX2                !
 ! A54   A(20,21,41)           109.1769         estimate D2E/DX2                !
 ! A55   A(39,21,40)           109.778          estimate D2E/DX2                !
 ! A56   A(39,21,41)           108.9118         estimate D2E/DX2                !
 ! A57   A(40,21,41)           108.9113         estimate D2E/DX2                !
 ! A58   A(17,22,23)           121.048          estimate D2E/DX2                !
 ! A59   A(17,22,42)           119.8846         estimate D2E/DX2                !
 ! A60   A(23,22,42)           119.0644         estimate D2E/DX2                !
 ! A61   A(22,23,24)           119.9467         estimate D2E/DX2                !
 ! A62   A(22,23,28)           120.0837         estimate D2E/DX2                !
 ! A63   A(24,23,28)           119.9688         estimate D2E/DX2                !
 ! A64   A(23,24,25)           120.3268         estimate D2E/DX2                !
 ! A65   A(23,24,43)           120.6995         estimate D2E/DX2                !
 ! A66   A(25,24,43)           118.9733         estimate D2E/DX2                !
 ! A67   A(24,25,26)           120.1165         estimate D2E/DX2                !
 ! A68   A(24,25,44)           119.9554         estimate D2E/DX2                !
 ! A69   A(26,25,44)           119.9272         estimate D2E/DX2                !
 ! A70   A(25,26,27)           120.2521         estimate D2E/DX2                !
 ! A71   A(25,26,45)           119.8488         estimate D2E/DX2                !
 ! A72   A(27,26,45)           119.899          estimate D2E/DX2                !
 ! A73   A(26,27,28)           120.5649         estimate D2E/DX2                !
 ! A74   A(26,27,46)           117.9852         estimate D2E/DX2                !
 ! A75   A(28,27,46)           121.4494         estimate D2E/DX2                !
 ! A76   A(14,28,23)           119.3006         estimate D2E/DX2                !
 ! A77   A(14,28,27)           121.9367         estimate D2E/DX2                !
 ! A78   A(23,28,27)           118.7605         estimate D2E/DX2                !
 ! A79   A(5,29,13)            120.7312         estimate D2E/DX2                !
 ! A80   A(5,29,30)            120.4322         estimate D2E/DX2                !
 ! A81   A(13,29,30)           118.836          estimate D2E/DX2                !
 ! A82   A(29,30,47)           108.6477         estimate D2E/DX2                !
 ! A83   A(16,47,30)           100.0001         estimate D2E/DX2                !
 ! D1    D(31,1,2,3)          -179.9956         estimate D2E/DX2                !
 ! D2    D(32,1,2,3)           -60.5284         estimate D2E/DX2                !
 ! D3    D(33,1,2,3)            60.5377         estimate D2E/DX2                !
 ! D4    D(1,2,3,4)             -0.0391         estimate D2E/DX2                !
 ! D5    D(1,2,3,5)           -179.964          estimate D2E/DX2                !
 ! D6    D(2,3,5,6)              1.101          estimate D2E/DX2                !
 ! D7    D(2,3,5,29)          -178.8669         estimate D2E/DX2                !
 ! D8    D(4,3,5,6)           -178.8232         estimate D2E/DX2                !
 ! D9    D(4,3,5,29)             1.2089         estimate D2E/DX2                !
 ! D10   D(3,5,6,7)           -179.1696         estimate D2E/DX2                !
 ! D11   D(3,5,6,34)             0.1945         estimate D2E/DX2                !
 ! D12   D(29,5,6,7)             0.7992         estimate D2E/DX2                !
 ! D13   D(29,5,6,34)         -179.8367         estimate D2E/DX2                !
 ! D14   D(3,5,29,13)         -179.3334         estimate D2E/DX2                !
 ! D15   D(3,5,29,30)            0.9663         estimate D2E/DX2                !
 ! D16   D(6,5,29,13)            0.6988         estimate D2E/DX2                !
 ! D17   D(6,5,29,30)         -179.0016         estimate D2E/DX2                !
 ! D18   D(5,6,7,8)            179.0132         estimate D2E/DX2                !
 ! D19   D(5,6,7,12)            -0.6615         estimate D2E/DX2                !
 ! D20   D(34,6,7,8)            -0.356          estimate D2E/DX2                !
 ! D21   D(34,6,7,12)          179.9693         estimate D2E/DX2                !
 ! D22   D(6,7,8,9)           -179.1625         estimate D2E/DX2                !
 ! D23   D(6,7,8,35)             0.5881         estimate D2E/DX2                !
 ! D24   D(12,7,8,9)             0.5126         estimate D2E/DX2                !
 ! D25   D(12,7,8,35)         -179.7368         estimate D2E/DX2                !
 ! D26   D(6,7,12,11)          178.5065         estimate D2E/DX2                !
 ! D27   D(6,7,12,13)           -0.9611         estimate D2E/DX2                !
 ! D28   D(8,7,12,11)           -1.1681         estimate D2E/DX2                !
 ! D29   D(8,7,12,13)          179.3643         estimate D2E/DX2                !
 ! D30   D(7,8,9,10)             0.2502         estimate D2E/DX2                !
 ! D31   D(7,8,9,36)           179.9019         estimate D2E/DX2                !
 ! D32   D(35,8,9,10)         -179.5047         estimate D2E/DX2                !
 ! D33   D(35,8,9,36)            0.147          estimate D2E/DX2                !
 ! D34   D(8,9,10,11)           -0.3375         estimate D2E/DX2                !
 ! D35   D(8,9,10,37)          179.5359         estimate D2E/DX2                !
 ! D36   D(36,9,10,11)        -179.9893         estimate D2E/DX2                !
 ! D37   D(36,9,10,37)          -0.1159         estimate D2E/DX2                !
 ! D38   D(9,10,11,12)          -0.3429         estimate D2E/DX2                !
 ! D39   D(9,10,11,38)         179.3776         estimate D2E/DX2                !
 ! D40   D(37,10,11,12)        179.7837         estimate D2E/DX2                !
 ! D41   D(37,10,11,38)         -0.4958         estimate D2E/DX2                !
 ! D42   D(10,11,12,7)           1.0881         estimate D2E/DX2                !
 ! D43   D(10,11,12,13)       -179.459          estimate D2E/DX2                !
 ! D44   D(38,11,12,7)        -178.6226         estimate D2E/DX2                !
 ! D45   D(38,11,12,13)          0.8303         estimate D2E/DX2                !
 ! D46   D(7,12,13,14)        -178.3396         estimate D2E/DX2                !
 ! D47   D(7,12,13,29)           2.4282         estimate D2E/DX2                !
 ! D48   D(11,12,13,14)          2.2103         estimate D2E/DX2                !
 ! D49   D(11,12,13,29)       -177.0218         estimate D2E/DX2                !
 ! D50   D(12,13,14,15)       -109.4503         estimate D2E/DX2                !
 ! D51   D(12,13,14,28)         71.3086         estimate D2E/DX2                !
 ! D52   D(29,13,14,15)         69.7909         estimate D2E/DX2                !
 ! D53   D(29,13,14,28)       -109.4503         estimate D2E/DX2                !
 ! D54   D(12,13,29,5)          -2.3163         estimate D2E/DX2                !
 ! D55   D(12,13,29,30)        177.3888         estimate D2E/DX2                !
 ! D56   D(14,13,29,5)         178.4285         estimate D2E/DX2                !
 ! D57   D(14,13,29,30)         -1.8664         estimate D2E/DX2                !
 ! D58   D(13,14,15,16)         -1.8664         estimate D2E/DX2                !
 ! D59   D(13,14,15,17)        178.4286         estimate D2E/DX2                !
 ! D60   D(28,14,15,16)        177.3887         estimate D2E/DX2                !
 ! D61   D(28,14,15,17)         -2.3163         estimate D2E/DX2                !
 ! D62   D(13,14,28,23)       -178.3397         estimate D2E/DX2                !
 ! D63   D(13,14,28,27)          2.2103         estimate D2E/DX2                !
 ! D64   D(15,14,28,23)          2.4282         estimate D2E/DX2                !
 ! D65   D(15,14,28,27)       -177.0218         estimate D2E/DX2                !
 ! D66   D(14,15,16,47)        -75.7409         estimate D2E/DX2                !
 ! D67   D(17,15,16,47)        103.965          estimate D2E/DX2                !
 ! D68   D(14,15,17,18)       -179.3333         estimate D2E/DX2                !
 ! D69   D(14,15,17,22)          0.6987         estimate D2E/DX2                !
 ! D70   D(16,15,17,18)          0.9663         estimate D2E/DX2                !
 ! D71   D(16,15,17,22)       -179.0016         estimate D2E/DX2                !
 ! D72   D(15,16,47,30)         46.0013         estimate D2E/DX2                !
 ! D73   D(15,17,18,19)          1.2094         estimate D2E/DX2                !
 ! D74   D(15,17,18,20)       -178.8665         estimate D2E/DX2                !
 ! D75   D(22,17,18,19)       -178.8227         estimate D2E/DX2                !
 ! D76   D(22,17,18,20)          1.1014         estimate D2E/DX2                !
 ! D77   D(15,17,22,23)          0.7992         estimate D2E/DX2                !
 ! D78   D(15,17,22,42)       -179.8367         estimate D2E/DX2                !
 ! D79   D(18,17,22,23)       -179.1697         estimate D2E/DX2                !
 ! D80   D(18,17,22,42)          0.1945         estimate D2E/DX2                !
 ! D81   D(17,18,20,21)       -179.964          estimate D2E/DX2                !
 ! D82   D(19,18,20,21)         -0.039          estimate D2E/DX2                !
 ! D83   D(18,20,21,39)        -60.5282         estimate D2E/DX2                !
 ! D84   D(18,20,21,40)         60.5378         estimate D2E/DX2                !
 ! D85   D(18,20,21,41)       -179.9955         estimate D2E/DX2                !
 ! D86   D(17,22,23,24)        179.0132         estimate D2E/DX2                !
 ! D87   D(17,22,23,28)         -0.6614         estimate D2E/DX2                !
 ! D88   D(42,22,23,24)         -0.3561         estimate D2E/DX2                !
 ! D89   D(42,22,23,28)        179.9693         estimate D2E/DX2                !
 ! D90   D(22,23,24,25)       -179.1625         estimate D2E/DX2                !
 ! D91   D(22,23,24,43)          0.5881         estimate D2E/DX2                !
 ! D92   D(28,23,24,25)          0.5125         estimate D2E/DX2                !
 ! D93   D(28,23,24,43)       -179.7369         estimate D2E/DX2                !
 ! D94   D(22,23,28,14)         -0.9611         estimate D2E/DX2                !
 ! D95   D(22,23,28,27)        178.5065         estimate D2E/DX2                !
 ! D96   D(24,23,28,14)        179.3643         estimate D2E/DX2                !
 ! D97   D(24,23,28,27)         -1.1681         estimate D2E/DX2                !
 ! D98   D(23,24,25,26)          0.2501         estimate D2E/DX2                !
 ! D99   D(23,24,25,44)        179.9019         estimate D2E/DX2                !
 ! D100  D(43,24,25,26)       -179.5047         estimate D2E/DX2                !
 ! D101  D(43,24,25,44)          0.147          estimate D2E/DX2                !
 ! D102  D(24,25,26,27)         -0.3374         estimate D2E/DX2                !
 ! D103  D(24,25,26,45)        179.5359         estimate D2E/DX2                !
 ! D104  D(44,25,26,27)       -179.9893         estimate D2E/DX2                !
 ! D105  D(44,25,26,45)         -0.116          estimate D2E/DX2                !
 ! D106  D(25,26,27,28)         -0.343          estimate D2E/DX2                !
 ! D107  D(25,26,27,46)        179.3776         estimate D2E/DX2                !
 ! D108  D(45,26,27,28)        179.7837         estimate D2E/DX2                !
 ! D109  D(45,26,27,46)         -0.4956         estimate D2E/DX2                !
 ! D110  D(26,27,28,14)       -179.459          estimate D2E/DX2                !
 ! D111  D(26,27,28,23)          1.0881         estimate D2E/DX2                !
 ! D112  D(46,27,28,14)          0.8302         estimate D2E/DX2                !
 ! D113  D(46,27,28,23)       -178.6227         estimate D2E/DX2                !
 ! D114  D(5,29,30,47)         103.504          estimate D2E/DX2                !
 ! D115  D(13,29,30,47)        -76.202          estimate D2E/DX2                !
 ! D116  D(29,30,47,16)         46.9052         estimate D2E/DX2                !
 --------------------------------------------------------------------------------
 Trust Radius=3.00D-01 FncErr=1.00D-07 GrdErr=1.00D-06 EigMax=2.50D+02 EigMin=1.00D-04
 Number of steps in this run=    260 maximum allowed number of steps=    282.
 GradGradGradGradGradGradGradGradGradGradGradGradGradGradGradGradGradGrad

 Leave Link  103 at Fri Mar  8 03:01:34 2024, MaxMem= 13421772800 cpu:               0.9 elap:               0.0
 (Enter /public/software/apps/Gaussian/g16/l202.exe)
                          Input orientation:                          
 ---------------------------------------------------------------------
 Center     Atomic      Atomic             Coordinates (Angstroms)
 Number     Number       Type             X           Y           Z
 ---------------------------------------------------------------------
      1          6           0        6.413567    2.685126    1.160782
      2          8           0        5.472280    1.747433    0.652429
      3          6           0        4.102899    1.821654    0.932879
      4          8           0        3.666033    2.751282    1.665715
      5          6           0        3.178086    0.804406    0.366373
      6          6           0        3.702957   -0.229948   -0.424350
      7          6           0        2.867746   -1.199575   -0.992396
      8          6           0        3.415395   -2.212614   -1.796922
      9          6           0        2.588410   -3.172709   -2.381173
     10          6           0        1.210325   -3.128838   -2.173532
     11          6           0        0.650590   -2.129217   -1.374860
     12          6           0        1.470489   -1.156210   -0.762424
     13          6           0        0.934881   -0.136337    0.062272
     14          6           0       -0.520908   -0.063932    0.367755
     15          6           0       -1.278281    0.977272   -0.202659
     16          8           0       -0.631568    1.920934   -0.997476
     17          6           0       -2.668002    1.069800    0.029993
     18          6           0       -3.495672    2.149303   -0.570538
     19          8           0       -2.975845    3.010345   -1.332441
     20          8           0       -4.865626    2.211108   -0.289877
     21          6           0       -5.716967    3.214844   -0.829735
     22          6           0       -3.285052    0.114540    0.853004
     23          6           0       -2.542196   -0.909240    1.453398
     24          6           0       -3.179936   -1.840735    2.289481
     25          6           0       -2.444365   -2.853742    2.905750
     26          6           0       -1.068439   -2.944194    2.698862
     27          6           0       -0.419897   -2.026979    1.869084
     28          6           0       -1.147260   -1.002690    1.224237
     29          6           0        1.786112    0.848320    0.599812
     30          8           0        1.230591    1.872960    1.362687
     31          1           0        7.427479    2.415341    0.800689
     32          1           0        6.164258    3.706382    0.802533
     33          1           0        6.408714    2.664779    2.271197
     34          1           0        4.769657   -0.279188   -0.610723
     35          1           0        4.482927   -2.259524   -1.977205
     36          1           0        3.016608   -3.949668   -3.001286
     37          1           0        0.572071   -3.871370   -2.634973
     38          1           0       -0.423693   -2.123782   -1.246824
     39          1           0       -5.373778    4.219744   -0.504376
     40          1           0       -5.715690    3.158186   -1.938901
     41          1           0       -6.750932    3.051746   -0.462608
     42          1           0       -4.351456    0.170175    1.039275
     43          1           0       -4.246961   -1.782900    2.469588
     44          1           0       -2.941619   -3.567305    3.550052
     45          1           0       -0.500864   -3.727214    3.185059
     46          1           0        0.650096   -2.125022    1.742549
     47         29           0        0.366383    3.156344    0.155444
 ---------------------------------------------------------------------
                    Distance matrix (angstroms):
                    1          2          3          4          5
     1  C    0.000000
     2  O    1.422572   0.000000
     3  C    2.477238   1.399773   0.000000
     4  O    2.794329   2.301519   1.261788   0.000000
     5  C    3.825772   2.496889   1.486944   2.390964   0.000000
     6  C    4.284589   2.863563   2.492207   3.641081   1.403788
     7  C    5.683302   4.263086   3.789474   4.828259   2.441005
     8  C    6.459482   5.090390   4.919329   6.057470   3.720023
     9  C    7.841652   6.459663   6.182255   7.254808   4.869720
    10  C    8.484902   7.065999   6.521054   7.439498   5.078741
    11  C    7.925862   6.510531   5.731795   6.492862   4.245736
    12  C    6.548939   5.142692   4.321031   5.097525   2.834446
    13  C    6.259663   4.948218   3.824660   4.285856   2.451417
    14  C    7.501544   6.267407   5.025375   5.209665   3.799549
    15  C    7.996266   6.847948   5.564128   5.575318   4.495874
    16  O    7.407833   6.325287   5.113835   5.123616   4.197640
    17  C    9.293162   8.192118   6.872088   6.754478   5.861769
    18  C   10.073609   9.059874   7.752799   7.526834   6.872088
    19  O    9.720236   8.769576   7.526837   7.291817   6.754480
    20  O   11.381973  10.391113   9.059870   8.769569   8.192117
    21  C   12.304171  11.381975  10.073607   9.720229   9.293162
    22  C   10.038219   8.910524   7.583036   7.478669   6.518042
    23  C    9.654573   8.481232   7.203194   7.210174   6.069583
    24  C   10.667365   9.508719   8.263967   8.266982   7.149794
    25  C   10.591833   9.429822   8.283611   8.383969   7.172338
    26  C    9.488696   8.305435   7.250844   7.478039   6.125805
    27  C    8.330778   7.102407   6.012000   6.290307   4.818751
    28  C    8.412498   7.190859   5.968750   6.120049   4.765516
    29  C    5.010178   3.794602   2.534919   2.879499   1.412096
    30  O    5.250107   4.302575   2.904741   2.606656   2.434581
    31  H    1.109265   2.071445   3.379759   3.874223   4.565203
    32  H    1.110613   2.082990   2.796139   2.810414   4.186756
    33  H    1.110612   2.082989   2.796201   2.810052   4.186442
    34  H    3.824634   2.489262   2.690875   3.947645   2.159164
    35  H    6.166352   4.893823   5.026830   6.248709   4.072178
    36  H    8.537133   7.199786   7.068652   8.191787   5.828243
    37  H    9.566529   8.148006   7.589917   8.481040   6.136960
    38  H    8.698867   7.304517   6.388083   6.998213   4.914214
    39  H   12.002887  11.184252   9.880483   9.411900   9.249709
    40  H   12.527996  11.570475  10.316886  10.058606   9.484399
    41  H   13.269282  12.343073  11.012091  10.636409  10.213870
    42  H   11.055563   9.957067   8.614802   8.445985   7.586109
    43  H   11.632845  10.498998   9.223581   9.155353   8.139348
    44  H   11.503087  10.365151   9.247470   9.334684   8.166912
    45  H    9.644955   8.489077   7.553601   7.851264   6.481917
    46  H    7.529514   6.279946   5.306003   5.734119   4.106841
    47  Cu   6.148267   5.319982   4.043186   3.651395   3.671754
                    6          7          8          9         10
     6  C    0.000000
     7  C    1.400154   0.000000
     8  C    2.428500   1.404788   0.000000
     9  C    3.705565   2.428989   1.395362   0.000000
    10  C    4.204333   2.804315   2.417361   1.394331   0.000000
    11  C    3.718553   2.434398   2.798078   2.420059   1.396575
    12  C    2.440526   1.416720   2.443120   2.817155   2.439298
    13  C    2.812083   2.445152   3.731016   4.233691   3.745631
    14  C    4.300701   3.823960   4.979673   5.185456   4.341538
    15  C    5.130230   4.748883   5.894713   6.076147   5.190148
    16  O    4.872666   4.688582   5.839798   6.182886   5.502352
    17  C    6.518043   6.069584   7.149796   7.172341   6.125806
    18  C    7.583038   7.203196   8.263969   8.283614   7.250846
    19  O    7.478671   7.210174   8.266982   8.383969   7.478036
    20  O    8.910525   8.481234   9.508723   9.429828   8.305442
    21  C   10.038222   9.654577  10.667370  10.591840   9.488702
    22  C    7.112143   6.556624   7.571905   7.467494   6.315682
    23  C    6.556623   5.944214   6.910590   6.793404   5.671212
    24  C    7.571904   6.910590   7.767585   7.540755   6.391564
    25  C    7.467491   6.793404   7.540753   7.306307   6.263509
    26  C    6.315679   5.671211   6.391561   6.263507   5.382108
    27  C    5.048474   4.436357   5.308816   5.331725   4.496050
    28  C    5.180692   4.590479   5.604386   5.627006   4.650113
    29  C    2.426080   2.810504   4.215236   5.069381   4.882699
    30  O    3.705174   4.203233   5.607888   6.427981   6.125621
    31  H    4.729729   6.088837   6.652997   8.047803   8.845163
    32  H    4.801868   6.177149   7.024808   8.381203   8.950902
    33  H    4.792342   6.174360   7.021290   8.385436   8.963530
    34  H    1.083978   2.147103   2.641823   4.032964   4.819930
    35  H    2.671870   2.168444   1.083664   2.141563   3.391781
    36  H    4.576898   3.408931   2.151018   1.082386   2.149790
    37  H    5.286706   3.886730   3.396806   2.148992   1.082428
    38  H    4.614359   3.428187   3.879316   3.385227   2.130479
    39  H   10.109069   9.875723  10.967929  11.025750  10.006905
    40  H   10.123449   9.672710  10.594450  10.451503   9.356891
    41  H   10.956951  10.529643  11.525974  11.386309  10.222940
    42  H    8.196088   7.623699   8.604979   8.428290   7.220736
    43  H    8.601612   7.933767   8.780630   8.496102   7.290548
    44  H    8.431145   7.745237   8.416469   8.118889   7.084512
    45  H    6.552161   5.931916   6.515461   6.390151   5.656918
    46  H    4.196036   3.640652   4.492483   4.675446   4.081323
    47  Cu   4.789140   5.152512   6.475640   7.171384   6.755729
                   11         12         13         14         15
    11  C    0.000000
    12  C    1.412110   0.000000
    13  C    2.473407   1.416736   0.000000
    14  C    2.945253   2.536935   1.489256   0.000000
    15  C    3.839905   3.524318   2.491666   1.408223   0.000000
    16  O    4.264982   3.733994   2.794493   2.411596   1.393007
    17  C    4.818752   4.765517   3.799549   2.451417   1.412095
    18  C    6.012001   5.968751   5.025375   3.824660   2.534919
    19  O    6.290304   6.120048   5.209665   4.285856   2.879499
    20  O    7.102411   7.190861   6.267407   4.948218   3.794602
    21  C    8.330782   8.412501   7.501545   6.259663   5.010178
    22  C    5.048475   5.180693   4.300701   2.812083   2.426079
    23  C    4.436358   4.590480   3.823961   2.445153   2.810504
    24  C    5.308818   5.604387   4.979674   3.731017   4.215236
    25  C    5.331726   5.627006   5.185457   4.233692   5.069381
    26  C    4.496049   4.650112   4.341539   3.745632   4.882699
    27  C    3.417538   3.355090   2.945254   2.473408   3.748929
    28  C    3.355091   3.289833   2.536935   1.416737   2.444064
    29  C    3.748929   2.444063   1.408223   2.491665   3.170346
    30  O    4.883440   3.708034   2.411597   2.794493   3.089823
    31  H    8.444658   7.119342   7.014995   8.337331   8.880597
    32  H    8.318401   6.937244   6.531528   7.687376   7.990609
    33  H    8.332594   6.941821   6.533640   7.686912   8.249699
    34  H    4.579653   3.417117   3.896003   5.384592   6.190538
    35  H    3.881573   3.430419   4.610425   5.946245   6.842323
    36  H    3.399609   3.899538   5.316058   6.242067   7.110072
    37  H    2.151545   3.418434   4.621389   4.970670   5.731429
    38  H    1.081900   2.181459   2.740327   2.619026   3.381884
    39  H    8.795457   8.706978   7.687373   6.531527   5.232376
    40  H    8.294835   8.463999   7.686915   6.533641   5.240374
    41  H    9.080590   9.240592   8.337331   7.014995   5.858406
    42  H    6.011299   6.237023   5.384593   3.896003   3.411482
    43  H    6.235842   6.597566   5.946245   4.610426   4.855153
    44  H    6.263132   6.624011   6.242067   5.316059   6.123946
    45  H    4.967122   5.106752   4.970670   4.621389   5.849205
    46  H    3.117412   2.808297   2.619027   2.740329   4.138442
    47  Cu   5.509969   4.545289   3.342696   3.347019   2.753455
                   16         17         18         19         20
    16  O    0.000000
    17  C    2.434581   0.000000
    18  C    2.904741   1.486944   0.000000
    19  O    2.606655   2.390964   1.261788   0.000000
    20  O    4.302574   2.496888   1.399773   2.301519   0.000000
    21  C    5.250107   3.825772   2.477239   2.794331   1.422573
    22  C    3.705174   1.403788   2.492206   3.641080   2.863562
    23  C    4.203233   2.441006   3.789475   4.828260   4.263086
    24  C    5.607889   3.720024   4.919329   6.057471   5.090390
    25  C    6.427981   4.869720   6.182256   7.254809   6.459663
    26  C    6.125622   5.078741   6.521054   7.439498   7.065998
    27  C    4.883440   4.245736   5.731795   6.492863   6.510530
    28  C    3.708035   2.834447   4.321032   5.097526   5.142692
    29  C    3.089823   4.495874   5.564128   5.575320   6.847945
    30  O    3.006710   4.197638   5.113833   5.123618   6.325281
    31  H    8.272005  10.213872  11.012096  10.636420  12.343074
    32  H    7.253352   9.249713   9.880489   9.411911  11.184254
    33  H    7.797634   9.484394  10.316881  10.058607  11.570465
    34  H    5.844942   7.586109   8.614804   8.445988   9.957068
    35  H    6.677886   8.139351   9.223584   9.155355  10.499003
    36  H    7.196417   8.166915   9.247474   9.334684  10.365159
    37  H    6.138479   6.481919   7.553604   7.851261   8.489085
    38  H    4.057723   4.106842   5.306004   5.734115   6.279951
    39  H    5.293036   4.186755   2.796138   2.810413   2.082990
    40  H    5.316519   4.186443   2.796201   2.810054   2.082990
    41  H    6.245913   4.565204   3.379759   3.874223   2.071446
    42  H    4.588145   2.159165   2.690876   3.947646   2.489262
    43  H    6.229766   4.072178   5.026830   6.248709   4.893822
    44  H    7.492470   5.828244   7.068652   8.191788   7.199786
    45  H    7.029385   6.136959   7.589917   8.481040   8.148006
    46  H    5.051748   4.914215   6.388084   6.998214   7.304517
    47  Cu   1.962490   3.684684   4.056680   3.661367   5.335326
                   21         22         23         24         25
    21  C    0.000000
    22  C    4.284589   0.000000
    23  C    5.683303   1.400155   0.000000
    24  C    6.459482   2.428501   1.404788   0.000000
    25  C    7.841652   3.705566   2.428989   1.395362   0.000000
    26  C    8.484902   4.204333   2.804314   2.417361   1.394330
    27  C    7.925862   3.718553   2.434397   2.798077   2.420059
    28  C    6.548940   2.440527   1.416719   2.443120   2.817155
    29  C    7.996264   5.130228   4.748882   5.894712   6.076146
    30  O    7.407829   4.872663   4.688580   5.839797   6.182884
    31  H   13.269286  10.956950  10.529639  11.525968  11.386300
    32  H   12.002892  10.109072   9.875724  10.967930  11.025749
    33  H   12.527988  10.123443   9.672704  10.594442  10.451495
    34  H   11.055565   8.196088   7.623697   8.604978   8.428287
    35  H   11.632851   8.601614   7.933767   8.780630   8.496100
    36  H   11.503095   8.431148   7.745238   8.416470   8.118889
    37  H    9.644963   6.552165   5.931918   6.515465   6.390154
    38  H    7.529518   4.196038   3.640655   4.492488   4.675449
    39  H    1.110613   4.801870   6.177152   7.024812   8.381207
    40  H    1.110613   4.792339   6.174359   7.021287   8.385433
    41  H    1.109264   4.729729   6.088838   6.652998   8.047804
    42  H    3.824634   1.083979   2.147104   2.641824   4.032964
    43  H    6.166352   2.671870   2.168444   1.083663   2.141563
    44  H    8.537133   4.576898   3.408930   2.151018   1.082386
    45  H    9.566529   5.286706   3.886729   3.396806   2.148991
    46  H    8.698868   4.614360   3.428186   3.879317   3.385226
    47  Cu   6.162885   4.803347   5.164638   6.488551   7.182313
                   26         27         28         29         30
    26  C    0.000000
    27  C    1.396575   0.000000
    28  C    2.439297   1.412109   0.000000
    29  C    5.190148   3.839905   3.524318   0.000000
    30  O    5.502352   4.264982   3.733993   1.393007   0.000000
    31  H   10.222930   9.080583   9.240589   5.858407   6.245914
    32  H   10.006904   8.795457   8.706979   5.232378   5.293041
    33  H    9.356885   8.294831   8.463994   5.240372   5.316514
    34  H    7.220732   6.011297   6.237022   3.411482   4.588145
    35  H    7.290545   6.235840   6.597565   4.855154   6.229767
    36  H    7.084509   6.263130   6.624011   6.123946   7.492470
    37  H    5.656918   4.967123   5.106753   5.849205   7.029386
    38  H    4.081325   3.117414   2.808298   4.138441   5.051747
    39  H    8.950904   8.318401   6.937245   7.990604   7.253345
    40  H    8.963528   8.332593   6.941821   8.249702   7.797635
    41  H    8.845163   8.444657   7.119342   8.880594   8.271998
    42  H    4.819930   4.579653   3.417118   6.190537   5.844940
    43  H    3.391780   3.881572   3.430419   6.842321   6.677883
    44  H    2.149790   3.399609   3.899537   7.110070   7.196415
    45  H    1.082427   2.151545   3.418433   5.731429   6.138479
    46  H    2.130479   1.081900   2.181459   3.381885   4.057725
    47  Cu   6.763450   5.515581   4.553131   2.745918   1.962490
                   31         32         33         34         35
    31  H    0.000000
    32  H    1.806244   0.000000
    33  H    1.806238   1.817050   0.000000
    34  H    4.039380   4.452749   4.433837   0.000000
    35  H    6.183967   6.793074   6.782797   2.423060   0.000000
    36  H    8.626942   9.109986   9.113527   4.718092   2.460776
    37  H    9.915802  10.025534  10.042816   5.883969   4.280829
    38  H    9.297142   9.032817   9.054754   5.547796   4.962540
    39  H   12.993508  11.623159  12.204460  11.096890  11.887168
    40  H   13.446191  12.204472  12.844047  11.114050  11.548369
    41  H   14.248799  12.993508  13.446178  11.993374  12.518114
    42  H   11.993373  11.096894  11.114042   9.280039   9.646186
    43  H   12.518107  11.887168  11.548360   9.646184   9.808776
    44  H   12.282884  11.973821  11.309424   9.358821   9.347981
    45  H   10.308968  10.264435   9.457007   7.353587   7.324019
    46  H    8.211877   8.080525   7.508884   5.090754   5.342776
    47  Cu   7.129131   5.859746   6.420889   5.637261   7.129218
                   36         37         38         39         40
    36  H    0.000000
    37  H    2.473070   0.000000
    38  H    4.271729   2.443884   0.000000
    39  H   11.973823  10.264438   8.080526   0.000000
    40  H   11.309433   9.457014   7.508887   1.817050   0.000000
    41  H   12.282895  10.308980   8.211884   1.806244   1.806238
    42  H    9.358825   7.353591   5.090757   4.452753   4.433833
    43  H    9.347983   7.324023   5.342780   6.793078   6.782792
    44  H    8.863786   7.119902   5.606579   9.109990   9.113523
    45  H    7.119899   5.919860   4.713654  10.025536  10.042814
    46  H    5.606575   4.713652   3.176378   9.032817   9.054755
    47  Cu   8.214867   7.564225   5.519992   5.875000   6.432565
                   41         42         43         44         45
    41  H    0.000000
    42  H    4.039380   0.000000
    43  H    6.183967   2.423059   0.000000
    44  H    8.626943   4.718093   2.460777   0.000000
    45  H    9.915802   5.883969   4.280829   2.473070   0.000000
    46  H    9.297143   5.547796   4.962540   4.271728   2.443883
    47  Cu   7.144865   5.652996   7.143832   8.226402   7.570605
                   46         47
    46  H    0.000000
    47  Cu   5.521976   0.000000
 Symmetry turned off by external request.
 Stoichiometry    C24H16CuO6(2)
 Framework group  C1[X(C24H16CuO6)]
 Deg. of freedom   135
 Full point group                 C1      NOp   1
 Rotational constants (GHZ):           0.1726221           0.1047596           0.0814272
 Leave Link  202 at Fri Mar  8 03:01:34 2024, MaxMem= 13421772800 cpu:               1.5 elap:               0.1
 (Enter /public/software/apps/Gaussian/g16/l301.exe)
 Standard basis: def2SVPP (5D, 7F)
 Ernie: Thresh=  0.10000D-02 Tol=  0.10000D-05 Strict=F.
   476 basis functions,   885 primitive gaussians,   508 cartesian basis functions
   119 alpha electrons      118 beta electrons
       nuclear repulsion energy      3488.6406573321 Hartrees.
 IExCor=  402 DFT=T Ex+Corr=B3LYP ExCW=0 ScaHFX=  0.200000
 ScaDFX=  0.800000  0.720000  1.000000  0.810000 ScalE2=  1.000000  1.000000
 IRadAn=      5 IRanWt=     -1 IRanGd=            0 ICorTp=0 IEmpDi=141
 NAtoms=   47 NActive=   47 NUniq=   47 SFac= 1.00D+00 NAtFMM=   60 NAOKFM=F Big=F
 Integral buffers will be    131072 words long.
 Raffenetti 2 integral format.
 Two-electron integral symmetry is turned off.
 R6Disp:  Grimme-D3(BJ) Dispersion energy=       -0.1226452980 Hartrees.
 Nuclear repulsion after empirical dispersion term =     3488.5180120341 Hartrees.
 Leave Link  301 at Fri Mar  8 03:01:34 2024, MaxMem= 13421772800 cpu:               0.9 elap:               0.0
 (Enter /public/software/apps/Gaussian/g16/l302.exe)
 NPDir=0 NMtPBC=     1 NCelOv=     1 NCel=       1 NClECP=     1 NCelD=      1
         NCelK=      1 NCelE2=     1 NClLst=     1 CellRange=     0.0.
 One-electron integrals computed using PRISM.
   1 Symmetry operations used in ECPInt.
 ECPInt:  NShTT=   24753 NPrTT=  102856 LenC2=   21413 LenP2D=   56342.
 LDataN:  DoStor=T MaxTD1= 4 Len=   56
 NBasis=   476 RedAO= T EigKep=  1.70D-04  NBF=   476
 NBsUse=   476 1.00D-06 EigRej= -1.00D+00 NBFU=   476
 Precomputing XC quadrature grid using
 IXCGrd= 4 IRadAn=           5 IRanWt=          -1 IRanGd=           0 AccXCQ= 0.00D+00.
 Generated NRdTot=       0 NPtTot=           0 NUsed=           0 NTot=          32
 NSgBfM=   499   499   499   499   499 MxSgAt=    47 MxSgA2=    47.
 Leave Link  302 at Fri Mar  8 03:01:34 2024, MaxMem= 13421772800 cpu:              14.7 elap:               0.5
 (Enter /public/software/apps/Gaussian/g16/l303.exe)
 DipDrv:  MaxL=1.
 Leave Link  303 at Fri Mar  8 03:01:35 2024, MaxMem= 13421772800 cpu:               2.3 elap:               0.1
 (Enter /public/software/apps/Gaussian/g16/l401.exe)
 ExpMin= 3.30D-02 ExpMax= 7.64D+04 ExpMxC= 1.15D+04 IAcc=3 IRadAn=         5 AccDes= 0.00D+00
 Harris functional with IExCor=  402 and IRadAn=       5 diagonalized for initial guess.
 HarFok:  IExCor=  402 AccDes= 0.00D+00 IRadAn=         5 IDoV= 1 UseB2=F ITyADJ=14
 ICtDFT=  3500011 ScaDFX=  1.000000  1.000000  1.000000  1.000000
 FoFCou: FMM=F IPFlag=           0 FMFlag=      100000 FMFlg1=           0
         NFxFlg=           0 DoJE=T BraDBF=F KetDBF=T FulRan=T
         wScrn=  0.000000 ICntrl=       500 IOpCl=  0 I1Cent=   200000004 NGrid=           0
         NMat0=    1 NMatS0=      1 NMatT0=    0 NMatD0=    1 NMtDS0=    0 NMtDT0=    0
 Symmetry not used in FoFCou.
 Harris En= -3015.20375646819    
 JPrj=0 DoOrth=F DoCkMO=F.
 Initial guess <Sx>= 0.0000 <Sy>= 0.0000 <Sz>= 0.5000 <S**2>= 0.7500 S= 0.5000
 Leave Link  401 at Fri Mar  8 03:01:36 2024, MaxMem= 13421772800 cpu:              34.7 elap:               1.1
 (Enter /public/software/apps/Gaussian/g16/l502.exe)
 Two-electron integral symmetry not used.
 UHF open shell SCF:
 Using DIIS extrapolation, IDIIS=  1040.
 NGot= 13421772800 LenX= 13421235172 LenY= 13420976600
 Requested convergence on RMS density matrix=1.00D-08 within 128 cycles.
 Requested convergence on MAX density matrix=1.00D-06.
 Requested convergence on             energy=1.00D-06.
 No special actions if energy rises.
 Fock matrices will be formed incrementally for  20 cycles.

 Cycle   1  Pass 1  IDiag  1:
 FoFJK:  IHMeth= 1 ICntrl=       0 DoSepK=F KAlg= 0 I1Cent=           0 FoldK=F
 IRaf= 780000000 NMat=       1 IRICut=       1 DoRegI=T DoRafI=F ISym2E= 0 IDoP0=0 IntGTp=1.
 FoFCou: FMM=F IPFlag=           0 FMFlag=      100000 FMFlg1=           0
         NFxFlg=           0 DoJE=F BraDBF=F KetDBF=F FulRan=T
         wScrn=  0.000000 ICntrl=         0 IOpCl=  1 I1Cent=           0 NGrid=           0
         NMat0=    1 NMatS0=      1 NMatT0=    0 NMatD0=    1 NMtDS0=    0 NMtDT0=    0
 Symmetry not used in FoFCou.
 E= -2998.17360371139    
 DIIS: error= 4.81D-01 at cycle   1 NSaved=   1.
 NSaved= 1 IEnMin= 1 EnMin= -2998.17360371139     IErMin= 1 ErrMin= 4.81D-01
 ErrMax= 4.81D-01  0.00D+00 EMaxC= 1.00D-01 BMatC= 7.88D+01 BMatP= 7.88D+01
 IDIUse=3 WtCom= 0.00D+00 WtEn= 1.00D+00
 Coeff-Com:  0.100D+01
 Coeff-En:   0.100D+01
 Coeff:      0.100D+01
 Gap=    -0.105 Goal=   None    Shift=    0.000
 Gap=    -0.601 Goal=   None    Shift=    0.000
 GapD=   -0.601 DampG=0.250 DampE=0.125 DampFc=0.1250 IDamp=-1.
 Damping current iteration by 1.25D-01
 RMSDP=6.32D-02 MaxDP=8.45D+00              OVMax= 9.91D-01

 Cycle   2  Pass 1  IDiag  1:
 RMSU=  7.89D-03    CP:  1.02D+00
 E= -3003.95796478951     Delta-E=       -5.784361078120 Rises=F Damp=T
 DIIS: error= 3.25D-01 at cycle   2 NSaved=   2.
 NSaved= 2 IEnMin= 2 EnMin= -3003.95796478951     IErMin= 2 ErrMin= 3.25D-01
 ErrMax= 3.25D-01  0.00D+00 EMaxC= 1.00D-01 BMatC= 2.96D+01 BMatP= 7.88D+01
 IDIUse=3 WtCom= 0.00D+00 WtEn= 1.00D+00
 Coeff-Com: -0.126D+01 0.226D+01
 Coeff-En:   0.000D+00 0.100D+01
 Coeff:      0.000D+00 0.100D+01
 Gap=     0.182 Goal=   None    Shift=    0.000
 Gap=    -0.021 Goal=   None    Shift=    0.000
 RMSDP=2.03D-02 MaxDP=3.51D+00 DE=-5.78D+00 OVMax= 9.57D-01

 Cycle   3  Pass 1  IDiag  1:
 RMSU=  1.66D-02    CP:  9.59D-01  2.48D+00
 E= -2974.52982070311     Delta-E=       29.428144086404 Rises=F Damp=F
 DIIS: error= 2.04D-01 at cycle   3 NSaved=   3.
 NSaved= 3 IEnMin= 2 EnMin= -3003.95796478951     IErMin= 3 ErrMin= 2.04D-01
 ErrMax= 2.04D-01  0.00D+00 EMaxC= 1.00D-01 BMatC= 9.38D+01 BMatP= 2.96D+01
 IDIUse=2 WtCom= 0.00D+00 WtEn= 1.00D+00
 EnCoef did   100 forward-backward iterations
 Coeff-En:   0.631D+00 0.191D-01 0.350D+00
 Coeff:      0.631D+00 0.191D-01 0.350D+00
 Gap=    -0.001 Goal=   None    Shift=    0.000
 Gap=    -0.481 Goal=   None    Shift=    0.000
 RMSDP=2.27D-02 MaxDP=2.10D+00 DE= 2.94D+01 OVMax= 8.12D-01

 Cycle   4  Pass 1  IDiag  1:
 RMSU=  9.21D-03    CP:  8.97D-01  4.24D-01  2.26D-01
 E= -3001.64632789028     Delta-E=      -27.116507187176 Rises=F Damp=F
 DIIS: error= 2.26D-01 at cycle   4 NSaved=   4.
 NSaved= 4 IEnMin= 2 EnMin= -3003.95796478951     IErMin= 3 ErrMin= 2.04D-01
 ErrMax= 2.26D-01  0.00D+00 EMaxC= 1.00D-01 BMatC= 3.32D+01 BMatP= 2.96D+01
 IDIUse=2 WtCom= 0.00D+00 WtEn= 1.00D+00
 EnCoef did   100 forward-backward iterations
 Coeff-En:   0.460D+00 0.150D-01 0.134D+00 0.391D+00
 Coeff:      0.460D+00 0.150D-01 0.134D+00 0.391D+00
 Gap=     0.011 Goal=   None    Shift=    0.000
 Gap=     0.286 Goal=   None    Shift=    0.000
 RMSDP=1.91D-02 MaxDP=1.64D+00 DE=-2.71D+01 OVMax= 9.65D-01

 Cycle   5  Pass 1  IDiag  1:
 RMSU=  1.77D-02    CP:  9.19D-01  2.77D-01  2.46D-01  2.17D-01
 E= -2984.58810421494     Delta-E=       17.058223675342 Rises=F Damp=F
 DIIS: error= 2.01D-01 at cycle   5 NSaved=   5.
 NSaved= 5 IEnMin= 2 EnMin= -3003.95796478951     IErMin= 5 ErrMin= 2.01D-01
 ErrMax= 2.01D-01  0.00D+00 EMaxC= 1.00D-01 BMatC= 6.30D+01 BMatP= 2.96D+01
 IDIUse=2 WtCom= 0.00D+00 WtEn= 1.00D+00
 EnCoef did   100 forward-backward iterations
 Coeff-En:   0.299D+00 0.507D-02 0.000D+00 0.482D+00 0.214D+00
 Coeff:      0.299D+00 0.507D-02 0.000D+00 0.482D+00 0.214D+00
 Gap=    -0.288 Goal=   None    Shift=    0.000
 Gap=     0.342 Goal=   None    Shift=    0.000
 RMSDP=1.72D-02 MaxDP=1.72D+00 DE= 1.71D+01 OVMax= 9.49D-01

 Cycle   6  Pass 1  IDiag  1:
 RMSU=  5.16D-03    CP:  9.04D-01  1.20D-01  1.78D-01  3.72D-01  7.79D-02
 E= -3012.81522548941     Delta-E=      -28.227121274468 Rises=F Damp=F
 DIIS: error= 9.09D-02 at cycle   6 NSaved=   6.
 NSaved= 6 IEnMin= 6 EnMin= -3012.81522548941     IErMin= 6 ErrMin= 9.09D-02
 ErrMax= 9.09D-02  0.00D+00 EMaxC= 1.00D-01 BMatC= 5.49D+00 BMatP= 2.96D+01
 IDIUse=3 WtCom= 9.06D-02 WtEn= 9.09D-01
 EnCoef did   100 forward-backward iterations
 Coeff-Com: -0.549D+00 0.103D+01-0.154D-01 0.301D-01 0.954D-01 0.407D+00
 Coeff-En:   0.186D+00 0.283D-02 0.000D+00 0.194D-01 0.000D+00 0.792D+00
 Coeff:      0.120D+00 0.960D-01-0.139D-02 0.204D-01 0.864D-02 0.757D+00
 Gap=     0.009 Goal=   None    Shift=    0.000
 Gap=    -0.012 Goal=   None    Shift=    0.000
 RMSDP=1.10D-02 MaxDP=1.27D+00 DE=-2.82D+01 OVMax= 6.70D-01

 Cycle   7  Pass 1  IDiag  1:
 RMSU=  9.71D-03    CP:  9.26D-01  1.74D-01  4.64D-02  3.84D-01  5.08D-02
                    CP:  1.28D-01
 E= -3007.64322492498     Delta-E=        5.172000564428 Rises=F Damp=F
 DIIS: error= 1.03D-01 at cycle   7 NSaved=   7.
 NSaved= 7 IEnMin= 6 EnMin= -3012.81522548941     IErMin= 6 ErrMin= 9.09D-02
 ErrMax= 1.03D-01  0.00D+00 EMaxC= 1.00D-01 BMatC= 2.62D+01 BMatP= 5.49D+00
 IDIUse=2 WtCom= 0.00D+00 WtEn= 1.00D+00
 EnCoef did   100 forward-backward iterations
 Coeff-En:   0.139D+00 0.261D-02 0.000D+00 0.000D+00 0.000D+00 0.674D+00
 Coeff-En:   0.184D+00
 Coeff:      0.139D+00 0.261D-02 0.000D+00 0.000D+00 0.000D+00 0.674D+00
 Coeff:      0.184D+00
 Gap=    -0.092 Goal=   None    Shift=    0.000
 Gap=     0.056 Goal=   None    Shift=    0.000
 RMSDP=7.46D-03 MaxDP=6.84D-01 DE= 5.17D+00 OVMax= 7.15D-01

 Cycle   8  Pass 1  IDiag  1:
 RMSU=  3.54D-03    CP:  9.05D-01  2.18D-02  6.34D-02  3.33D-01  2.31D-02
                    CP:  3.61D-01  3.52D-01
 E= -3014.41631867594     Delta-E=       -6.773093750954 Rises=F Damp=F
 DIIS: error= 3.22D-02 at cycle   8 NSaved=   8.
 NSaved= 8 IEnMin= 8 EnMin= -3014.41631867594     IErMin= 8 ErrMin= 3.22D-02
 ErrMax= 3.22D-02  0.00D+00 EMaxC= 1.00D-01 BMatC= 1.70D+00 BMatP= 5.49D+00
 IDIUse=3 WtCom= 6.78D-01 WtEn= 3.22D-01
 Coeff-Com: -0.705D-01 0.138D+00-0.346D-02-0.649D-01 0.189D-01 0.321D+00
 Coeff-Com:  0.139D-01 0.646D+00
 Coeff-En:   0.000D+00 0.000D+00 0.000D+00 0.000D+00 0.000D+00 0.219D+00
 Coeff-En:   0.000D+00 0.781D+00
 Coeff:     -0.478D-01 0.939D-01-0.235D-02-0.441D-01 0.128D-01 0.288D+00
 Coeff:      0.944D-02 0.690D+00
 Gap=     0.188 Goal=   None    Shift=    0.000
 Gap=     0.058 Goal=   None    Shift=    0.000
 RMSDP=3.95D-03 MaxDP=2.23D-01 DE=-6.77D+00 OVMax= 8.11D-01

 Cycle   9  Pass 1  IDiag  1:
 RMSU=  3.11D-03    CP:  9.06D-01  2.79D-03  8.92D-02  2.36D-01  5.96D-02
                    CP:  5.38D-01  2.50D-01  5.33D-01
 E= -3013.84446808087     Delta-E=        0.571850595070 Rises=F Damp=F
 DIIS: error= 4.08D-02 at cycle   9 NSaved=   9.
 NSaved= 9 IEnMin= 8 EnMin= -3014.41631867594     IErMin= 8 ErrMin= 3.22D-02
 ErrMax= 4.08D-02  0.00D+00 EMaxC= 1.00D-01 BMatC= 3.56D+00 BMatP= 1.70D+00
 IDIUse=2 WtCom= 0.00D+00 WtEn= 1.00D+00
 EnCoef did     5 forward-backward iterations
 Coeff-En:   0.000D+00 0.000D+00 0.000D+00 0.000D+00 0.000D+00 0.132D+00
 Coeff-En:   0.000D+00 0.610D+00 0.258D+00
 Coeff:      0.000D+00 0.000D+00 0.000D+00 0.000D+00 0.000D+00 0.132D+00
 Coeff:      0.000D+00 0.610D+00 0.258D+00
 Gap=    -0.085 Goal=   None    Shift=    0.000
 Gap=     0.170 Goal=   None    Shift=    0.000
 RMSDP=3.15D-03 MaxDP=2.57D-01 DE= 5.72D-01 OVMax= 5.09D-01

 Cycle  10  Pass 1  IDiag  1:
 RMSU=  1.69D-03    CP:  9.04D-01  1.29D-03  8.59D-02  2.19D-01  4.83D-02
                    CP:  6.41D-01  1.59D-01  7.39D-01  2.55D-01
 E= -3014.66487132315     Delta-E=       -0.820403242287 Rises=F Damp=F
 DIIS: error= 3.50D-02 at cycle  10 NSaved=  10.
 NSaved=10 IEnMin=10 EnMin= -3014.66487132315     IErMin= 8 ErrMin= 3.22D-02
 ErrMax= 3.50D-02  0.00D+00 EMaxC= 1.00D-01 BMatC= 1.05D+00 BMatP= 1.70D+00
 IDIUse=3 WtCom= 6.78D-01 WtEn= 3.22D-01
 EnCoef did     2 forward-backward iterations
 Coeff-Com: -0.352D-01 0.526D-01 0.174D-02-0.634D-02 0.290D-02 0.105D+00
 Coeff-Com:  0.977D-02 0.379D+00 0.170D+00 0.320D+00
 Coeff-En:   0.000D+00 0.000D+00 0.000D+00 0.000D+00 0.000D+00 0.000D+00
 Coeff-En:   0.000D+00 0.316D+00 0.123D+00 0.561D+00
 Coeff:     -0.239D-01 0.357D-01 0.118D-02-0.430D-02 0.197D-02 0.715D-01
 Coeff:      0.663D-02 0.359D+00 0.155D+00 0.398D+00
 Gap=     0.115 Goal=   None    Shift=    0.000
 Gap=     0.022 Goal=   None    Shift=    0.000
 RMSDP=1.93D-03 MaxDP=1.56D-01 DE=-8.20D-01 OVMax= 2.83D-01

 Cycle  11  Pass 1  IDiag  1:
 RMSU=  1.19D-03    CP:  9.01D-01  1.76D-02  9.11D-02  2.95D-01  4.15D-02
                    CP:  5.63D-01  2.25D-01  7.73D-01  2.47D-01  3.54D-01
 E= -3014.87183617632     Delta-E=       -0.206964853171 Rises=F Damp=F
 DIIS: error= 3.49D-02 at cycle  11 NSaved=  11.
 NSaved=11 IEnMin=11 EnMin= -3014.87183617632     IErMin= 8 ErrMin= 3.22D-02
 ErrMax= 3.49D-02  0.00D+00 EMaxC= 1.00D-01 BMatC= 2.95D-01 BMatP= 1.05D+00
 IDIUse=3 WtCom= 6.78D-01 WtEn= 3.22D-01
 Coeff-Com: -0.159D-01 0.284D-01 0.165D-02-0.127D-01-0.267D-02-0.371D-01
 Coeff-Com:  0.400D-03 0.121D+00 0.481D-01 0.301D+00 0.568D+00
 Coeff-En:   0.000D+00 0.000D+00 0.000D+00 0.000D+00 0.000D+00 0.000D+00
 Coeff-En:   0.000D+00 0.000D+00 0.000D+00 0.197D+00 0.803D+00
 Coeff:     -0.108D-01 0.192D-01 0.112D-02-0.859D-02-0.181D-02-0.252D-01
 Coeff:      0.272D-03 0.819D-01 0.326D-01 0.268D+00 0.644D+00
 Gap=     0.124 Goal=   None    Shift=    0.000
 Gap=     0.044 Goal=   None    Shift=    0.000
 RMSDP=8.40D-04 MaxDP=1.17D-01 DE=-2.07D-01 OVMax= 2.41D-01

 Cycle  12  Pass 1  IDiag  1:
 RMSU=  5.16D-04    CP:  9.03D-01  1.06D-02  8.51D-02  2.68D-01  4.04D-02
                    CP:  5.48D-01  2.33D-01  8.13D-01  2.59D-01  4.76D-01
                    CP:  5.52D-01
 E= -3014.91351830084     Delta-E=       -0.041682124514 Rises=F Damp=F
 DIIS: error= 1.92D-02 at cycle  12 NSaved=  12.
 NSaved=12 IEnMin=12 EnMin= -3014.91351830084     IErMin=12 ErrMin= 1.92D-02
 ErrMax= 1.92D-02  0.00D+00 EMaxC= 1.00D-01 BMatC= 8.58D-02 BMatP= 2.95D-01
 IDIUse=3 WtCom= 8.08D-01 WtEn= 1.92D-01
 Coeff-Com: -0.893D-03 0.997D-03-0.713D-03 0.643D-03-0.366D-03-0.906D-02
 Coeff-Com: -0.232D-03 0.122D-01-0.885D-03 0.115D+00 0.399D+00 0.484D+00
 Coeff-En:   0.000D+00 0.000D+00 0.000D+00 0.000D+00 0.000D+00 0.000D+00
 Coeff-En:   0.000D+00 0.000D+00 0.000D+00 0.000D+00 0.267D+00 0.733D+00
 Coeff:     -0.721D-03 0.805D-03-0.576D-03 0.520D-03-0.296D-03-0.732D-02
 Coeff:     -0.187D-03 0.987D-02-0.715D-03 0.933D-01 0.374D+00 0.532D+00
 Gap=     0.122 Goal=   None    Shift=    0.000
 Gap=     0.040 Goal=   None    Shift=    0.000
 RMSDP=3.79D-04 MaxDP=5.33D-02 DE=-4.17D-02 OVMax= 7.85D-02

 Cycle  13  Pass 1  IDiag  1:
 RMSU=  1.78D-04    CP:  9.01D-01  8.43D-03  8.76D-02  2.75D-01  4.12D-02
                    CP:  5.62D-01  2.22D-01  7.94D-01  2.60D-01  4.80D-01
                    CP:  7.19D-01  5.99D-01
 E= -3014.92654704298     Delta-E=       -0.013028742143 Rises=F Damp=F
 DIIS: error= 4.78D-03 at cycle  13 NSaved=  13.
 NSaved=13 IEnMin=13 EnMin= -3014.92654704298     IErMin=13 ErrMin= 4.78D-03
 ErrMax= 4.78D-03  0.00D+00 EMaxC= 1.00D-01 BMatC= 6.74D-03 BMatP= 8.58D-02
 IDIUse=3 WtCom= 9.52D-01 WtEn= 4.78D-02
 Coeff-Com: -0.517D-03 0.848D-03-0.210D-03-0.358D-03-0.148D-03-0.231D-02
 Coeff-Com: -0.120D-02 0.610D-02-0.367D-02 0.158D-01 0.110D+00 0.286D+00
 Coeff-Com:  0.589D+00
 Coeff-En:   0.000D+00 0.000D+00 0.000D+00 0.000D+00 0.000D+00 0.000D+00
 Coeff-En:   0.000D+00 0.000D+00 0.000D+00 0.000D+00 0.000D+00 0.118D+00
 Coeff-En:   0.882D+00
 Coeff:     -0.493D-03 0.807D-03-0.200D-03-0.341D-03-0.141D-03-0.220D-02
 Coeff:     -0.115D-02 0.581D-02-0.350D-02 0.150D-01 0.105D+00 0.278D+00
 Coeff:      0.603D+00
 Gap=     0.126 Goal=   None    Shift=    0.000
 Gap=     0.046 Goal=   None    Shift=    0.000
 RMSDP=1.46D-04 MaxDP=1.25D-02 DE=-1.30D-02 OVMax= 3.45D-02

 Cycle  14  Pass 1  IDiag  1:
 RMSU=  9.63D-05    CP:  9.02D-01  9.47D-03  8.64D-02  2.74D-01  4.08D-02
                    CP:  5.56D-01  2.26D-01  8.03D-01  2.55D-01  4.67D-01
                    CP:  6.84D-01  7.29D-01  8.44D-01
 E= -3014.92774807258     Delta-E=       -0.001201029598 Rises=F Damp=F
 DIIS: error= 5.47D-04 at cycle  14 NSaved=  14.
 NSaved=14 IEnMin=14 EnMin= -3014.92774807258     IErMin=14 ErrMin= 5.47D-04
 ErrMax= 5.47D-04  0.00D+00 EMaxC= 1.00D-01 BMatC= 1.11D-03 BMatP= 6.74D-03
 IDIUse=3 WtCom= 9.95D-01 WtEn= 5.47D-03
 Coeff-Com: -0.775D-03 0.114D-02 0.476D-04 0.474D-04-0.178D-03 0.331D-03
 Coeff-Com: -0.911D-03 0.518D-02-0.264D-02-0.248D-02 0.144D-02 0.976D-01
 Coeff-Com:  0.427D+00 0.475D+00
 Coeff-En:   0.000D+00 0.000D+00 0.000D+00 0.000D+00 0.000D+00 0.000D+00
 Coeff-En:   0.000D+00 0.000D+00 0.000D+00 0.000D+00 0.000D+00 0.000D+00
 Coeff-En:   0.104D+00 0.896D+00
 Coeff:     -0.771D-03 0.113D-02 0.473D-04 0.471D-04-0.177D-03 0.329D-03
 Coeff:     -0.906D-03 0.515D-02-0.262D-02-0.247D-02 0.143D-02 0.970D-01
 Coeff:      0.425D+00 0.477D+00
 Gap=     0.125 Goal=   None    Shift=    0.000
 Gap=     0.046 Goal=   None    Shift=    0.000
 RMSDP=6.67D-05 MaxDP=3.74D-03 DE=-1.20D-03 OVMax= 1.30D-02

 Cycle  15  Pass 1  IDiag  1:
 RMSU=  5.35D-05    CP:  9.01D-01  9.05D-03  8.65D-02  2.74D-01  4.05D-02
                    CP:  5.56D-01  2.24D-01  8.04D-01  2.56D-01  4.73D-01
                    CP:  6.80D-01  7.28D-01  1.01D+00  8.48D-01
 E= -3014.92802127309     Delta-E=       -0.000273200510 Rises=F Damp=F
 DIIS: error= 3.53D-04 at cycle  15 NSaved=  15.
 NSaved=15 IEnMin=15 EnMin= -3014.92802127309     IErMin=15 ErrMin= 3.53D-04
 ErrMax= 3.53D-04  0.00D+00 EMaxC= 1.00D-01 BMatC= 2.73D-04 BMatP= 1.11D-03
 IDIUse=3 WtCom= 9.96D-01 WtEn= 3.53D-03
 Coeff-Com: -0.144D-02 0.230D-02 0.322D-04 0.389D-03-0.113D-03 0.804D-03
 Coeff-Com: -0.508D-03 0.360D-02-0.150D-02-0.146D-02-0.272D-01-0.185D-01
 Coeff-Com:  0.133D+00 0.314D+00 0.597D+00
 Coeff-En:   0.000D+00 0.000D+00 0.000D+00 0.000D+00 0.000D+00 0.000D+00
 Coeff-En:   0.000D+00 0.000D+00 0.000D+00 0.000D+00 0.000D+00 0.000D+00
 Coeff-En:   0.000D+00 0.000D+00 0.100D+01
 Coeff:     -0.143D-02 0.229D-02 0.321D-04 0.387D-03-0.113D-03 0.802D-03
 Coeff:     -0.507D-03 0.359D-02-0.150D-02-0.146D-02-0.271D-01-0.184D-01
 Coeff:      0.132D+00 0.312D+00 0.599D+00
 Gap=     0.125 Goal=   None    Shift=    0.000
 Gap=     0.046 Goal=   None    Shift=    0.000
 RMSDP=4.19D-05 MaxDP=2.71D-03 DE=-2.73D-04 OVMax= 1.16D-02

 Cycle  16  Pass 1  IDiag  1:
 RMSU=  2.88D-05    CP:  9.01D-01  8.88D-03  8.66D-02  2.75D-01  4.06D-02
                    CP:  5.56D-01  2.24D-01  8.03D-01  2.55D-01  4.74D-01
                    CP:  6.80D-01  7.30D-01  1.12D+00  1.07D+00  1.02D+00
 E= -3014.92811181629     Delta-E=       -0.000090543203 Rises=F Damp=F
 DIIS: error= 6.31D-04 at cycle  16 NSaved=  16.
 NSaved=16 IEnMin=16 EnMin= -3014.92811181629     IErMin=15 ErrMin= 3.53D-04
 ErrMax= 6.31D-04  0.00D+00 EMaxC= 1.00D-01 BMatC= 1.55D-04 BMatP= 2.73D-04
 IDIUse=3 WtCom= 9.96D-01 WtEn= 3.53D-03
 Coeff-Com: -0.152D-02 0.259D-02 0.162D-04 0.107D-03-0.153D-03-0.493D-04
 Coeff-Com: -0.416D-03 0.207D-02-0.790D-03 0.271D-02-0.178D-01-0.441D-01
 Coeff-Com: -0.804D-01 0.233D-01 0.389D+00 0.725D+00
 Coeff-En:   0.000D+00 0.000D+00 0.000D+00 0.000D+00 0.000D+00 0.000D+00
 Coeff-En:   0.000D+00 0.000D+00 0.000D+00 0.000D+00 0.000D+00 0.000D+00
 Coeff-En:   0.000D+00 0.000D+00 0.000D+00 0.100D+01
 Coeff:     -0.152D-02 0.258D-02 0.161D-04 0.107D-03-0.153D-03-0.491D-04
 Coeff:     -0.414D-03 0.206D-02-0.787D-03 0.270D-02-0.177D-01-0.439D-01
 Coeff:     -0.801D-01 0.232D-01 0.388D+00 0.726D+00
 Gap=     0.125 Goal=   None    Shift=    0.000
 Gap=     0.046 Goal=   None    Shift=    0.000
 RMSDP=3.74D-05 MaxDP=3.37D-03 DE=-9.05D-05 OVMax= 1.11D-02

 Cycle  17  Pass 1  IDiag  1:
 RMSU=  1.50D-05    CP:  9.01D-01  8.92D-03  8.66D-02  2.75D-01  4.04D-02
                    CP:  5.56D-01  2.23D-01  8.03D-01  2.54D-01  4.74D-01
                    CP:  6.84D-01  7.25D-01  1.23D+00  1.22D+00  1.40D+00
                    CP:  1.28D+00
 E= -3014.92813036427     Delta-E=       -0.000018547979 Rises=F Damp=F
 DIIS: error= 1.11D-03 at cycle  17 NSaved=  17.
 NSaved=17 IEnMin=17 EnMin= -3014.92813036427     IErMin=15 ErrMin= 3.53D-04
 ErrMax= 1.11D-03  0.00D+00 EMaxC= 1.00D-01 BMatC= 2.68D-04 BMatP= 1.55D-04
 IDIUse=3 WtCom= 9.96D-01 WtEn= 3.53D-03
 Coeff-Com: -0.969D-03 0.175D-02-0.165D-04-0.598D-04-0.850D-04 0.105D-04
 Coeff-Com: -0.584D-03 0.225D-02-0.268D-03 0.229D-02-0.130D-01-0.881D-02
 Coeff-Com: -0.876D-01-0.163D-01 0.876D-01 0.317D+00 0.717D+00
 Coeff-En:   0.000D+00 0.000D+00 0.000D+00 0.000D+00 0.000D+00 0.000D+00
 Coeff-En:   0.000D+00 0.000D+00 0.000D+00 0.000D+00 0.000D+00 0.000D+00
 Coeff-En:   0.000D+00 0.000D+00 0.000D+00 0.000D+00 0.100D+01
 Coeff:     -0.966D-03 0.174D-02-0.164D-04-0.596D-04-0.847D-04 0.105D-04
 Coeff:     -0.582D-03 0.224D-02-0.267D-03 0.228D-02-0.129D-01-0.878D-02
 Coeff:     -0.873D-01-0.162D-01 0.873D-01 0.315D+00 0.718D+00
 Gap=     0.125 Goal=   None    Shift=    0.000
 Gap=     0.047 Goal=   None    Shift=    0.000
 RMSDP=2.14D-05 MaxDP=1.46D-03 DE=-1.85D-05 OVMax= 7.62D-03

 Cycle  18  Pass 1  IDiag  1:
 RMSU=  9.55D-06    CP:  9.01D-01  8.89D-03  8.65D-02  2.75D-01  4.04D-02
                    CP:  5.56D-01  2.22D-01  8.03D-01  2.54D-01  4.73D-01
                    CP:  6.81D-01  7.34D-01  1.27D+00  1.33D+00  1.57D+00
                    CP:  1.53D+00  1.11D+00
 E= -3014.92816308288     Delta-E=       -0.000032718605 Rises=F Damp=F
 DIIS: error= 7.25D-04 at cycle  18 NSaved=  18.
 NSaved=18 IEnMin=18 EnMin= -3014.92816308288     IErMin=15 ErrMin= 3.53D-04
 ErrMax= 7.25D-04  0.00D+00 EMaxC= 1.00D-01 BMatC= 1.31D-04 BMatP= 1.55D-04
 IDIUse=3 WtCom= 9.96D-01 WtEn= 3.53D-03
 Coeff-Com: -0.754D-04 0.155D-03-0.169D-04 0.580D-04-0.804D-05 0.757D-04
 Coeff-Com: -0.271D-03 0.152D-02-0.208D-03 0.357D-02-0.478D-02 0.189D-01
 Coeff-Com: -0.587D-01-0.113D-02-0.628D-01-0.160D+00 0.384D+00 0.879D+00
 Coeff-En:   0.000D+00 0.000D+00 0.000D+00 0.000D+00 0.000D+00 0.000D+00
 Coeff-En:   0.000D+00 0.000D+00 0.000D+00 0.000D+00 0.000D+00 0.000D+00
 Coeff-En:   0.000D+00 0.000D+00 0.000D+00 0.000D+00 0.000D+00 0.100D+01
 Coeff:     -0.752D-04 0.154D-03-0.168D-04 0.578D-04-0.801D-05 0.755D-04
 Coeff:     -0.270D-03 0.151D-02-0.208D-03 0.356D-02-0.476D-02 0.189D-01
 Coeff:     -0.585D-01-0.113D-02-0.626D-01-0.159D+00 0.383D+00 0.879D+00
 Gap=     0.126 Goal=   None    Shift=    0.000
 Gap=     0.047 Goal=   None    Shift=    0.000
 RMSDP=2.42D-05 MaxDP=1.77D-03 DE=-3.27D-05 OVMax= 6.05D-03

 Cycle  19  Pass 1  IDiag  1:
 RMSU=  6.98D-06    CP:  9.01D-01  8.88D-03  8.64D-02  2.75D-01  4.03D-02
                    CP:  5.55D-01  2.22D-01  8.04D-01  2.53D-01  4.74D-01
                    CP:  6.72D-01  7.45D-01  1.30D+00  1.44D+00  1.75D+00
                    CP:  1.73D+00  1.63D+00  1.38D+00
 E= -3014.92819416076     Delta-E=       -0.000031077881 Rises=F Damp=F
 DIIS: error= 3.60D-05 at cycle  19 NSaved=  19.
 NSaved=19 IEnMin=19 EnMin= -3014.92819416076     IErMin=19 ErrMin= 3.60D-05
 ErrMax= 3.60D-05  0.00D+00 EMaxC= 1.00D-01 BMatC= 4.38D-06 BMatP= 1.31D-04
 IDIUse=1 WtCom= 1.00D+00 WtEn= 0.00D+00
 Coeff-Com:  0.117D-03-0.209D-03-0.348D-05 0.450D-04 0.540D-05 0.612D-04
 Coeff-Com: -0.277D-04 0.712D-03-0.265D-03 0.240D-02 0.944D-04 0.966D-02
 Coeff-Com: -0.255D-01-0.159D-02-0.264D-01-0.104D+00 0.822D-01 0.456D+00
 Coeff-Com:  0.607D+00
 Coeff:      0.117D-03-0.209D-03-0.348D-05 0.450D-04 0.540D-05 0.612D-04
 Coeff:     -0.277D-04 0.712D-03-0.265D-03 0.240D-02 0.944D-04 0.966D-02
 Coeff:     -0.255D-01-0.159D-02-0.264D-01-0.104D+00 0.822D-01 0.456D+00
 Coeff:      0.607D+00
 Gap=     0.126 Goal=   None    Shift=    0.000
 Gap=     0.047 Goal=   None    Shift=    0.000
 RMSDP=7.43D-06 MaxDP=4.19D-04 DE=-3.11D-05 OVMax= 2.10D-03

 Cycle  20  Pass 1  IDiag  1:
 RMSU=  3.83D-06    CP:  9.01D-01  8.88D-03  8.64D-02  2.75D-01  4.03D-02
                    CP:  5.55D-01  2.22D-01  8.04D-01  2.53D-01  4.74D-01
                    CP:  6.71D-01  7.47D-01  1.30D+00  1.46D+00  1.80D+00
                    CP:  1.84D+00  1.75D+00  1.76D+00  1.03D+00
 E= -3014.92819657693     Delta-E=       -0.000002416170 Rises=F Damp=F
 DIIS: error= 9.97D-05 at cycle  20 NSaved=  20.
 NSaved=20 IEnMin=20 EnMin= -3014.92819657693     IErMin=19 ErrMin= 3.60D-05
 ErrMax= 9.97D-05  0.00D+00 EMaxC= 1.00D-01 BMatC= 3.47D-06 BMatP= 4.38D-06
 IDIUse=1 WtCom= 1.00D+00 WtEn= 0.00D+00
 Coeff-Com:  0.669D-04-0.128D-03 0.393D-05-0.448D-05 0.975D-05-0.396D-04
 Coeff-Com:  0.547D-04 0.659D-04-0.762D-04 0.783D-03 0.217D-02-0.185D-02
 Coeff-Com: -0.359D-02-0.115D-01-0.926D-03 0.192D-01 0.710D-02-0.588D-01
 Coeff-Com:  0.372D+00 0.676D+00
 Coeff:      0.669D-04-0.128D-03 0.393D-05-0.448D-05 0.975D-05-0.396D-04
 Coeff:      0.547D-04 0.659D-04-0.762D-04 0.783D-03 0.217D-02-0.185D-02
 Coeff:     -0.359D-02-0.115D-01-0.926D-03 0.192D-01 0.710D-02-0.588D-01
 Coeff:      0.372D+00 0.676D+00
 Gap=     0.126 Goal=   None    Shift=    0.000
 Gap=     0.047 Goal=   None    Shift=    0.000
 RMSDP=5.48D-06 MaxDP=3.14D-04 DE=-2.42D-06 OVMax= 1.53D-03

 Cycle  21  Pass 1  IDiag  1:
 Restarting incremental Fock formation.
 E= -3014.92819845954     Delta-E=       -0.000001882614 Rises=F Damp=F
 DIIS: error= 3.24D-05 at cycle  21 NSaved=  20.
 NSaved=20 IEnMin=20 EnMin= -3014.92819845954     IErMin=20 ErrMin= 3.24D-05
 ErrMax= 3.24D-05  0.00D+00 EMaxC= 1.00D-01 BMatC= 7.82D-07 BMatP= 3.47D-06
 IDIUse=1 WtCom= 1.00D+00 WtEn= 0.00D+00
 Coeff-Com:  0.519D-04-0.866D-04-0.300D-04 0.114D-04-0.369D-04 0.365D-04
 Coeff-Com: -0.108D-03 0.217D-04-0.147D-03 0.147D-02-0.356D-02 0.630D-02
 Coeff-Com: -0.504D-02 0.579D-02 0.346D-01-0.218D-02-0.165D+00 0.470D-01
 Coeff-Com:  0.340D+00 0.741D+00
 Coeff:      0.519D-04-0.866D-04-0.300D-04 0.114D-04-0.369D-04 0.365D-04
 Coeff:     -0.108D-03 0.217D-04-0.147D-03 0.147D-02-0.356D-02 0.630D-02
 Coeff:     -0.504D-02 0.579D-02 0.346D-01-0.218D-02-0.165D+00 0.470D-01
 Coeff:      0.340D+00 0.741D+00
 Gap=     0.126 Goal=   None    Shift=    0.000
 Gap=     0.047 Goal=   None    Shift=    0.000
 RMSDP=4.73D-06 MaxDP=3.22D-04 DE=-1.88D-06 OVMax= 1.47D-03

 Cycle  22  Pass 1  IDiag  1:
 RMSU=  4.73D-06    CP:  1.00D+00
[...]
 00117,0.00008325,0.00005588,0.00000948,-0.00005122,-0.00002707,0.00000
 339,0.00003568,-0.00003206,-0.00001929,-0.00001590,0.00007480,0.000037
 50,-0.00004889,-0.00004743,-0.00000833,0.00000871,0.00002837,0.0000123
 9,-0.00002554,-0.00000654,0.00000143,0.00000966,-0.00000725,-0.0000093
 7,0.00000586,0.00003540,0.00001293,0.00003495,-0.00005672,-0.00005016,
 -0.00005443,-0.00002151,0.00003864,-0.00020731,0.00007415,-0.00034972,
 0.00026084,-0.00008708,0.00000662,-0.00002441,-0.00005383,0.00000337,-
 0.00000896,-0.00055394,-0.00011525,-0.00022569,0.00025108,-0.00000632,
 -0.00005801,-0.00018557,0.00000988,0.00011079,-0.00011226,0.00000090,-
 0.00003251,0.00006836,0.00000386,-0.00089924,-0.00000017,0.00058938,0.
 00409051,-0.00129254,0.00423819,-0.01891623,-0.01200692,0.01310436,-0.
 10421932,-0.15878123,0.09202882,0.00642147,0.00788381,-0.00425368,0.00
 204278,0.00150421,0.00153009,0.00052347,-0.00030013,-0.00030886,0.0000
 1931,0.00003885,0.00002621,0.00001863,-0.00001764,-0.00007396,-0.00000
 381,-0.00000124,0.00000056,0.00000014,-0.00000443,0.00000020,0.0000010
 8,-0.00000472,0.00000021,-0.00000456,0.00000327,0.00000045,-0.00000476
 ,-0.00000108,0.00000083,-0.00000219,0.00000256,0.00000247,0.00000249,0
 .00000286,0.00000067,-0.00000149,-0.00000349,0.00000252,-0.00000226,-0
 .00001351,-0.00000153,0.00000036,-0.00001135,-0.00000231,0.00000825,-0
 .00000571,0.00000164,0.00008294,0.00004912,0.00009425,-0.00039009,-0.0
 0009762,-0.00257115,0.11193955,0.16352738,-0.00001521,-0.00002783,0.00
 000226,0.00005998,0.00003492,-0.00000471,-0.00006966,-0.00006800,-0.00
 000139,0.00003988,0.00003439,-0.00000876,-0.00002474,0.00003573,0.0000
 2343,-0.00000106,-0.00008499,-0.00004138,0.00000659,0.00006899,0.00000
 770,-0.00001446,-0.00008175,-0.00003573,0.00007410,0.00002585,-0.00000
 028,-0.00004762,0.00004096,0.00002717,0.00004946,-0.00001919,-0.000047
 82,-0.00002032,0.00001588,0.00000568,0.00010122,-0.00003396,0.00004937
 ,-0.00009003,-0.00030755,-0.00038804,0.00001026,-0.00000393,0.00018206
 ,0.00001583,-0.00001655,0.00003354,-0.00038722,0.00020456,-0.00043263,
 0.00001909,-0.00020888,-0.00015499,0.00007728,0.00007189,0.00002420,-0
 .00009181,0.00006984,0.00001129,0.00001844,-0.00003523,0.00001008,0.00
 078825,0.00036445,-0.00007137,-0.00028110,0.00446854,0.00597275,0.0089
 2365,0.00686453,-0.00210315,0.08767148,0.09214426,-0.10743969,-0.00010
 145,0.00172428,0.00188997,0.00092185,0.00144835,0.00394734,-0.00039746
 ,-0.00038064,-0.00031877,-0.00003048,0.00001935,-0.00000096,-0.0000050
 3,-0.00004923,0.00004003,0.00000339,0.00000114,-0.00000006,0.00000004,
 0.00000437,-0.00000081,-0.00000051,0.00000370,-0.00000016,0.00000506,-
 0.00000326,0.00000103,0.00000480,-0.00000128,0.00000105,0.00000359,-0.
 00000294,-0.00000162,0.00000013,-0.00001017,-0.00000590,-0.00000836,0.
 00000071,0.00001888,-0.00000195,0.00000670,-0.00000037,0.00000142,0.00
 000585,-0.00000093,-0.00000459,0.00000390,0.00000150,0.00004710,0.0000
 5549,0.00016257,-0.00120847,-0.00247201,-0.00338198,-0.09556059,-0.102
 57534,0.10383623,-0.00001271,-0.00002467,0.00000140,0.00004905,0.00002
 828,-0.00000273,-0.00005814,-0.00005641,0.00000072,0.00003804,0.000031
 49,-0.00001014,-0.00001286,0.00002260,0.00000860,-0.00001192,-0.000069
 38,-0.00003283,0.00001854,0.00004459,0.00001268,-0.00001460,-0.0000399
 1,-0.00001696,0.00002594,0.00001523,-0.00000212,-0.00001863,0.00003380
 ,0.00000750,0.00003025,-0.00000761,-0.00003644,-0.00006809,0.00002999,
 -0.00003489,0.00018411,0.00004759,0.00008485,0.00080749,-0.00048580,0.
 00008304,-0.00014166,-0.00022377,-0.00009953,-0.00004041,-0.00009929,0
 .00011059,-0.00018915,-0.00007488,0.00013751,-0.00000731,0.00009920,0.
 00001896,-0.00001457,-0.00004215,-0.00001275,0.00001875,-0.00001239,-0
 .00001244,0.00000155,-0.00000215,-0.00000115,0.00010435,0.00034896,-0.
 00034992,-0.00051527,-0.00088667,0.00043585,-0.00528773,0.00077729,0.0
 0182019,-0.00499869,0.02641230,-0.01337179,-0.09104422,0.08215636,-0.0
 3629885,0.01087834,-0.01782973,0.00899194,-0.00218460,-0.00152650,0.00
 341415,-0.00007822,-0.00002049,0.00001428,-0.00002817,-0.00003039,0.00
 005590,0.00000263,0.00000078,-0.00000008,0.00000006,0.00000369,-0.0000
 0080,-0.00000038,0.00000303,0.00000002,0.00000403,-0.00000318,0.000001
 67,0.00000217,0.00000061,0.00000251,0.00000080,-0.00000228,0.00000116,
 0.00000161,-0.00000427,0.00000518,0.00001372,-0.00002004,-0.00000376,0
 .00000096,-0.00000158,0.00000002,0.00000119,0.00000031,-0.00000022,0.0
 0000028,-0.00000199,0.00000048,0.00003727,-0.00006312,0.00003156,-0.00
 038051,0.00129782,-0.00049593,0.00120262,-0.00088379,-0.00039347,0.090
 94626,0.00003385,0.00006310,0.00000063,-0.00015366,-0.00007500,0.00000
 034,0.00019349,0.00013137,0.00001811,-0.00014326,-0.00007091,0.0000232
 5,0.00009889,-0.00006676,-0.00007220,-0.00001045,0.00025701,0.00012682
 ,-0.00010622,-0.00018704,-0.00001366,0.00003792,0.00016195,0.00006611,
 -0.00014812,-0.00003244,0.00000387,0.00006405,-0.00004644,-0.00005407,
 -0.00004336,0.00009976,0.00004960,0.00012354,-0.00013950,-0.00011566,-
 0.00028345,0.00011951,0.00003557,0.00030744,-0.00066500,0.00005198,-0.
 00025776,-0.00028023,-0.00017429,0.00016917,-0.00016601,-0.00002343,0.
 00005630,0.00000267,0.00003552,-0.00002705,0.00004126,0.00005178,-0.00
 005777,0.00001533,0.00001608,0.00003981,-0.00004318,-0.00000986,-0.000
 01091,0.00002638,0.00000086,-0.00004500,-0.00022508,-0.00026673,-0.000
 60665,0.00039842,-0.00038612,0.00175629,0.00210886,0.00136855,-0.00019
 928,-0.00226148,0.00337693,0.08156038,-0.25122964,0.10510208,0.0086695
 8,-0.01167276,0.00754217,-0.00191010,0.00194189,0.00461834,0.00013223,
 0.00004029,0.00009552,0.00009094,0.00007840,-0.00024959,-0.00000797,-0
 .00000326,0.00000150,-0.00000083,-0.00000983,-0.00000003,0.00000214,-0
 .00001019,0.00000067,-0.00001334,0.00000912,-0.00000145,-0.00001206,-0
 .00000025,0.00000164,-0.00000434,0.00000378,0.00000982,0.00000561,0.00
 001435,0.00001653,0.00002643,-0.00000799,-0.00000174,-0.00000116,-0.00
 000429,-0.00000042,-0.00000158,-0.00000395,-0.00000019,0.00000301,-0.0
 0000089,0.00000013,0.00003373,-0.00000307,0.00000846,-0.00002666,-0.00
 017839,0.00018189,-0.00007456,-0.00016992,-0.00156123,-0.08881032,0.26
 252100,-0.00001299,-0.00002308,0.00000326,0.00005518,0.00002637,-0.000
 00306,-0.00006926,-0.00003071,-0.00000389,0.00006538,0.00001892,-0.000
 01470,-0.00005918,0.00000988,0.00000895,0.00002538,-0.00009530,-0.0000
 5165,0.00002746,0.00008016,0.00002048,-0.00003197,-0.00006990,-0.00002
 678,0.00008389,-0.00000354,-0.00000811,-0.00003594,0.00003559,0.000051
 21,0.00005326,-0.00006957,-0.00005481,-0.00011011,0.00009220,0.0000617
 0,0.00008776,0.00010231,0.00018040,-0.00058477,-0.00003528,0.00024181,
 -0.00026130,-0.00005950,-0.00077922,0.00005700,0.00019730,0.00008940,0
 .00014872,0.00008245,0.00002515,0.00004679,-0.00001369,0.00008857,0.00
 002311,0.00000936,-0.00004054,-0.00002313,0.00001198,-0.00002585,0.000
 00600,-0.00001057,-0.00000208,-0.00023749,-0.00029101,-0.00050330,0.00
 000993,-0.00048813,-0.00030227,0.00118038,0.00150207,0.00392774,0.0023
 4316,-0.00249469,0.00451294,-0.03650748,0.10489533,-0.09118801,-0.0058
 8999,0.01374084,-0.00200262,0.00421634,0.00455460,0.00535286,-0.000016
 88,-0.00005051,-0.00002094,-0.00004599,-0.00000719,0.00006042,0.000003
 00,0.00000116,0.00000003,-0.00000026,0.00000348,-0.00000049,-0.0000005
 1,0.00000318,-0.00000037,0.00000475,-0.00000551,0.00000140,0.00000218,
 -0.00000159,-0.00000132,0.00000268,-0.00000119,-0.00000618,0.00000340,
 -0.00001841,-0.00003439,0.00000440,0.00004071,-0.00001225,0.00000196,-
 0.00000003,0.00000056,-0.00000004,0.00000210,0.00000057,-0.00000154,0.
 00000032,0.00000069,0.00004135,0.00002785,0.00003487,0.00015565,-0.000
 06916,0.00011742,-0.00082849,-0.00135640,-0.00191195,0.03718436,-0.117
 44416,0.08567644,-0.00001181,-0.00002245,0.00000088,0.00005839,0.00002
 278,-0.00000642,-0.00007882,-0.00002172,0.00000742,0.00009088,0.000015
 55,-0.00001830,-0.00013411,0.00002070,0.00002011,-0.00001621,-0.000196
 17,-0.00004740,0.00024100,0.00013715,-0.00007624,-0.00013702,-0.000074
 60,0.00001849,0.00002612,0.00002472,-0.00006751,-0.00011240,-0.0001306
 3,-0.00000811,0.00026880,-0.00005138,0.00110416,-0.00058751,-0.0003447
 9,0.00087670,0.00018624,-0.00042239,0.00032022,-0.00012949,-0.00119674
 ,0.00024324,-0.00011215,0.00018621,-0.00006604,-0.00000403,0.00004142,
 0.00012995,-0.00002985,0.00004316,-0.00010098,0.00000497,-0.00017170,0
 .00000435,0.00011514,0.00007486,-0.00002657,-0.00002444,0.00005240,-0.
 00000694,0.00001171,-0.00002927,0.00000264,-0.00044219,-0.00012443,0.0
 0012706,0.00109019,0.00136931,-0.00043691,0.00082360,0.00006203,-0.000
 22917,0.00045193,-0.00244252,0.00306580,-0.01415391,0.00652806,0.00041
 401,-0.32213501,0.06861960,0.02185229,-0.00596442,0.00137332,0.0015956
 2,0.00001115,0.00006432,0.00003306,-0.00004627,-0.00005994,0.00008987,
 0.00000298,0.00000125,-0.00000016,-0.00000002,0.00000377,0.00000023,-0
 .00000100,0.00000337,-0.00000058,0.00000568,-0.00000818,0.00000217,0.0
 0000076,-0.00000197,-0.00001032,-0.00002367,0.00000308,-0.00000819,0.0
 0001265,-0.00002803,0.00000173,-0.00050328,-0.00003510,0.00008316,-0.0
 0000007,0.00000493,0.00000119,0.00000013,0.00000477,-0.00000027,-0.000
 00261,0.00000145,0.00000081,0.00001061,0.00014241,0.00003505,-0.000126
 15,-0.00005786,-0.00017881,-0.00063211,0.00034406,0.00002988,0.0007565
 9,-0.00063906,-0.00102879,0.34141009,0.00000498,0.00001598,0.00000035,
 -0.00004587,-0.00001277,0.00000219,0.00007124,0.00008418,0.00000364,-0
 .00015629,-0.00008485,0.00007209,0.00017932,-0.00013933,-0.00005519,0.
 00017771,0.00046524,0.00026606,-0.00034232,-0.00022043,-0.00005000,0.0
 0003546,0.00021909,0.00009643,-0.00011625,-0.00008032,0.00001190,0.000
 07643,-0.00017308,-0.00012545,-0.00007933,0.00019825,0.00006085,-0.000
 11688,0.00011830,0.00048220,-0.00093981,-0.00032234,-0.00042464,-0.000
 52836,0.00012347,-0.00133785,0.00007661,0.00000593,-0.00006297,0.00028
 073,-0.00010571,-0.00031583,0.00032768,0.00003306,-0.00020150,0.000228
 81,-0.00003487,0.00003241,-0.00027926,0.00003267,0.00004413,-0.0001493
 4,0.00003258,0.00001956,0.00001404,-0.00004074,-0.00000026,0.00121373,
 -0.00044882,-0.00013100,0.00013569,-0.00235022,0.00430762,-0.00015044,
 -0.00088773,0.00021210,-0.00124311,-0.00008542,0.00505229,-0.01998634,
 0.00851022,0.00207225,0.06811156,-0.06862720,0.00458794,0.02640126,-0.
 00248850,-0.00255660,0.00027555,-0.00009678,0.00000465,0.00014163,0.00
 024613,-0.00036674,-0.00000120,-0.00000129,0.00000052,-0.00000194,-0.0
 0000269,-0.00000031,-0.00000012,-0.00000207,-0.00000011,-0.00001864,0.
 00001970,-0.00002684,-0.00000047,-0.00000378,-0.00001202,0.00000428,-0
 .00000405,0.00000062,0.00001766,-0.00000884,-0.00003987,0.00010532,0.0
 0021384,-0.00008421,0.00000031,0.00000537,-0.00000105,0.00000279,0.000
 00357,0.00000060,-0.00000571,0.00000345,-0.00000012,0.00011114,-0.0003
 0112,0.00013132,-0.00009520,-0.00019767,-0.00053172,-0.00086601,0.0002
 8209,0.00021306,-0.00017038,-0.00046795,-0.00278082,-0.07310145,0.0665
 8178,-0.00000722,-0.00001514,0.00000745,0.00002827,-0.00000053,-0.0000
 2128,-0.00005561,-0.00001045,0.00001148,0.00014852,0.00003493,-0.00006
 010,-0.00014707,-0.00002612,0.00001490,-0.00009714,-0.00033624,-0.0001
 5914,0.00014172,0.00020645,0.00002828,-0.00019016,-0.00023546,-0.00010
 684,0.00021960,-0.00000144,-0.00007405,0.00002497,-0.00010555,0.000013
 92,0.00060570,-0.00009101,-0.00099406,0.00015702,0.00070096,-0.0004028
 7,0.00079809,0.00007017,0.00027350,-0.00038811,-0.00134685,-0.00140991
 ,-0.00024069,-0.00022968,-0.00026780,-0.00005218,0.00015623,0.00039750
 ,-0.00036852,-0.00017658,0.00010107,-0.00015343,0.00013423,0.00002717,
 0.00017615,-0.00008966,-0.00005979,0.00012015,-0.00004818,-0.00002862,
 -0.00001269,0.00004309,0.00000100,-0.00078802,0.00067062,0.00000512,0.
 00030385,0.00343660,0.00239861,0.00009193,0.00090761,-0.00110395,0.003
 15533,0.00476350,0.00453669,0.01508884,-0.00399427,0.00360347,0.023545
 39,0.00474119,-0.04472779,-0.01313538,0.00263794,0.00495035,-0.0003233
 4,0.00013784,0.00014991,-0.00006273,-0.00032944,0.00005201,0.00000094,
 0.00000039,0.00000125,0.00000070,0.00000237,-0.00000114,0.00000042,-0.
 00000009,0.00000028,0.00000554,-0.00002816,0.00001609,-0.00000200,-0.0
 0001848,0.00002056,-0.00003946,0.00000183,0.00001885,-0.00000412,0.000
 00182,-0.00001122,0.00008374,0.00005577,-0.00128683,0.00000038,-0.0000
 0811,-0.00000040,-0.00000127,-0.00000335,-0.00000059,0.00000487,-0.000
 00357,0.00000016,0.00002866,0.00031997,0.00011578,-0.00019379,-0.00045
 410,-0.00074755,0.00072061,-0.00010101,0.00014206,-0.00122169,-0.00258
 471,-0.00340230,-0.02765322,-0.00885986,0.03819564,-0.00192369,-0.0034
 8212,0.00036205,0.01282556,-0.00117597,0.00041271,-0.02607716,0.024722
 73,-0.00248064,-0.00260313,-0.01875896,-0.00091811,0.00060568,-0.00546
 422,-0.00099881,-0.00272133,0.00174802,0.00119844,0.00021039,-0.001060
 90,-0.00078524,-0.00122645,-0.00010407,0.00048894,0.00017581,-0.000699
 42,-0.00041657,0.00011116,-0.00003873,0.00007682,0.00114643,-0.0004265
 5,-0.00040190,-0.00170434,0.00029163,-0.00024206,0.00416682,-0.0022595
 7,-0.00096002,0.00448741,0.00243401,-0.00165594,-0.01086524,-0.0177166
 8,0.00584878,-0.00396916,-0.01219597,-0.01967968,0.00155935,0.00522127
 ,-0.00142303,-0.02859868,-0.02168337,-0.00184676,-0.00060734,0.0181790
 5,-0.00148153,0.01282156,-0.00013843,0.00038528,-0.00159152,0.00367828
 ,0.00024543,-0.00291022,-0.00177784,0.00138863,0.00049815,0.00120754,-
 0.00094160,-0.00126928,-0.00003060,0.00066082,0.00014118,0.00081645,-0
 .00049178,0.00012320,0.00006600,0.00003510,0.00113836,0.00041382,-0.00
 045438,-0.00207372,-0.00039172,0.00001450,-0.00693988,0.01516670,0.004
 12429,-0.00258095,0.01031786,-0.01668428,0.00037897,-0.00000551,0.0000
 1179,-0.00023815,0.00037229,0.00008695,-0.00023844,0.00040731,-0.00012
 611,0.00012021,0.00006307,0.00009189,0.00005106,0.00010957,0.00001897,
 -0.00002274,-0.00008823,-0.00011503,-0.00004004,-0.00019029,-0.0000795
 8,-0.00020897,-0.00039196,-0.00030722,-0.00026330,-0.00034886,0.000092
 71,-0.00027118,-0.00038908,-0.00010789,0.00037745,-0.00003520,0.000012
 79,0.00012730,-0.00006111,0.00006678,0.00004066,-0.00011556,0.00002121
 ,-0.00001553,0.00008927,-0.00011717,-0.00001875,0.00019015,-0.00008737
 ,-0.00017109,0.00040075,-0.00031355,0.05804358,0.00011465,0.00039498,0
 .00003163,-0.00009620,-0.00135056,0.00028888,0.00545639,0.00455893,0.0
 0055029,-0.00267326,-0.00648528,0.00031261,-0.00511890,-0.00063427,0.0
 0282528,0.00022395,-0.00371319,-0.00151550,-0.00183563,0.00240783,0.00
 131588,0.00040406,-0.00295945,-0.00186623,0.00123320,0.00155841,0.0005
 5840,-0.00007722,0.00041578,0.00043900,0.00051627,0.00112787,0.0004201
 1,0.00352396,-0.00310930,-0.00257046,-0.00090514,0.00681082,0.00660365
 ,0.00125607,0.00645664,-0.00677777,-0.02720631,-0.03608023,0.01368916,
 -0.00370185,-0.01775299,-0.03619811,0.00498744,-0.00171484,-0.00273328
 ,-0.00240823,0.00721422,-0.00050253,0.00199574,-0.00846285,-0.00017409
 ,-0.00120299,-0.00139458,-0.00025551,0.00006447,0.00008008,-0.00006180
 ,-0.00029787,-0.00343877,0.00147972,0.00205262,0.00204751,-0.00130555,
 -0.00057713,-0.00283199,0.00189032,-0.00106268,0.00157783,-0.00057272,
 0.00008044,0.00037630,-0.00044261,-0.00048922,0.00115976,-0.00044274,-
 0.00371708,-0.00270348,0.00269966,0.02409918,-0.04001985,-0.01258850,0
 .00219463,-0.01724692,0.03741833,-0.00001947,-0.00006009,-0.00000252,-
 0.00008191,-0.00003935,0.00004834,-0.00003597,-0.00003870,-0.00006115,
 -0.00013474,0.00012408,0.00028638,-0.00000224,-0.00002981,0.00001282,0
 .00001469,0.00003328,-0.00000335,-0.00003770,0.00000480,0.00002456,-0.
 00000017,0.00002160,-0.00005164,0.00010326,-0.00002012,-0.00005839,0.0
 0005842,-0.00000551,0.00007211,-0.00001995,-0.00006025,0.00000209,0.00
 014429,0.00011470,-0.00029660,-0.00000180,-0.00002025,-0.00001318,-0.0
 0001011,0.00002759,0.00001227,0.00003922,-0.00001300,-0.00001822,0.000
 01567,-0.00000635,0.00007453,0.00313515,0.11367897,-0.00026066,-0.0006
 1066,0.00018823,0.00084402,0.00141982,0.00086990,-0.00200369,-0.005331
 18,0.00104717,-0.00483390,0.00261649,-0.00712212,0.00295469,0.00098987
 ,-0.00175932,-0.00012956,-0.00172310,-0.00096376,0.00159431,0.00132125
 ,-0.00009198,-0.00071726,-0.00110727,-0.00038679,0.00145664,-0.0000408
 1,-0.00029747,-0.00081375,0.00057675,0.00048229,0.00089782,-0.00139222
 ,-0.00097781,-0.00342066,0.00179118,0.00118485,0.00481837,-0.00605271,
 -0.00295908,0.00531721,0.00529262,-0.00293161,-0.01312648,-0.01156197,
 0.01353447,-0.00788964,-0.02137754,-0.03492693,0.00271041,-0.00126097,
 -0.00163721,-0.00140978,0.00531435,0.00089600,-0.00512677,-0.00213396,
 -0.00704620,0.00073661,-0.00142132,0.00092327,-0.00020319,0.00063241,0
 .00017074,0.00003948,0.00179928,-0.00105924,0.00140302,-0.00152533,-0.
 00001106,-0.00059378,0.00123950,-0.00047696,0.00148409,-0.00014978,-0.
 00027830,-0.00086419,-0.00049494,0.00051039,0.00103451,0.00123680,-0.0
 0100330,-0.00345799,-0.00134961,0.00115169,-0.01270029,0.01432982,0.01
 352845,-0.00606713,0.02157038,-0.03685709,0.00005790,0.00005544,-0.000
 04021,0.00004186,0.00014521,-0.00009369,0.00003863,0.00005827,-0.00001
 910,0.00033759,-0.00026145,0.00002981,0.00009502,0.00001421,0.00002549
 ,-0.00000342,-0.00004452,-0.00003505,-0.00003984,-0.00015333,-0.000055
 82,-0.00011588,-0.00028733,-0.00020615,0.00002528,-0.00015056,-0.00008
 747,0.00003172,-0.00006192,-0.00001941,0.00005287,-0.00005993,-0.00003
 844,0.00035598,0.00022624,0.00003137,0.00009327,-0.00002150,0.00002645
 ,0.00000095,0.00004259,-0.00003674,-0.00002663,0.00015476,-0.00005984,
 -0.00008914,0.00029019,-0.00021686,0.03747137,-0.00254353,0.06709444\\
 0.00001796,0.00002342,-0.00000276,-0.00002303,-0.00000453,-0.00000457,
 0.00004890,-0.00006884,0.00000912,-0.00000970,0.00007118,-0.00001438,0
 .00001038,0.00000524,0.00000523,0.00000037,0.00000235,0.00000398,-0.00
 000312,0.00000612,0.00000211,0.00000013,-0.00000156,0.00000169,-0.0000
 0424,-0.00000242,-0.00000073,0.00000196,-0.00000274,-0.00000330,-0.000
 00147,-0.00000188,0.00000179,0.00001071,0.00000728,-0.00001002,-0.0000
 0563,-0.00001610,0.00001328,-0.00001983,-0.00000945,-0.00000918,0.0000
 0695,0.00000573,-0.00001522,-0.00000118,0.00000857,-0.00000744,-0.0000
 2023,-0.00004274,0.00001649,0.00002946,0.00002254,-0.00001308,0.000007
 06,-0.00001155,0.00000993,-0.00002517,0.00000051,0.00000308,-0.0000081
 3,0.00000056,0.00000212,0.00000649,0.00001378,-0.00000923,-0.00000497,
 0.00000234,0.00000292,0.00000550,-0.00000724,0.00000120,-0.00000879,0.
 00000060,0.00000015,0.00000760,-0.00000059,-0.00000145,-0.00000747,-0.
 00000725,0.00000510,0.00000961,0.00001148,0.00000131,-0.00000247,-0.00
 001432,0.00000167,-0.00001925,0.00001412,-0.00000376,-0.00000027,-0.00
 000287,0.00000085,-0.00000222,-0.00000231,0.00000112,-0.00000282,-0.00
 000360,0.00000046,0.00000077,-0.00000216,-0.00000293,-0.00000040,0.000
 00049,0.00000050,0.00000037,0.00000286,0.00000016,0.00000010,0.0000015
 0,0.00000124,0.00000046,0.00000276,0.00000076,0.00000246,0.00000094,0.
 00000007,0.00000196,-0.00000010,-0.00000057,-0.00000090,0.00000044,-0.
 00000011,-0.00000056,-0.00000127,0.00000186,-0.00000023,0.00000353,-0.
 00000209,0.00000138,0.00000154,-0.00000059,-0.00000137,0.00000108,-0.0
 0000143,0.00000012,0.00000165,-0.00000096,0.00000275,-0.00000908,0.000
 01562\\\@
 The archive entry for this job was punched.


 IT IS THE GODS' CUSTOM TO BRING LOW ALL THINGS OF SURPASSING GREATNESS.
     -- HERODOTUS
 IT IS THE LOFTY PINE THAT BY THE STORM IS OFTENER TOSSED;
 TOWERS FALL WITH HEAVIER CRASH WHICH HIGHER SOAR.
     -- HORACE
 THE BIGGER THEY COME, THE HARDER THEY FALL.
     -- BOB FITZSIMONS HEAVYWEIGHT CHAMPION, 1897-1899
 Job cpu time:       0 days  8 hours  6 minutes 59.8 seconds.
 Elapsed time:       0 days  0 hours 15 minutes 19.0 seconds.
 File lengths (MBytes):  RWF=   2689 Int=      0 D2E=      0 Chk=     28 Scr=      2
 Normal termination of Gaussian 16 at Fri Mar  8 04:00:24 2024.
