 Entering Gaussian System, Link 0=g16
 Initial command:
 /public/software/apps/Gaussian/g16/l1.exe "/public/home/LJQ_HG/tmp/Gau-74490.inp" -scrdir="/public/home/LJQ_HG/tmp/"
 Entering Link 1 = /public/software/apps/Gaussian/g16/l1.exe PID=     74491.
  
 Copyright (c) 1988-2019, Gaussian, Inc.  All Rights Reserved.
  
 This is part of the Gaussian(R) 16 program.  It is based on
 the Gaussian(R) 09 system (copyright 2009, Gaussian, Inc.),
 the Gaussian(R) 03 system (copyright 2003, Gaussian, Inc.),
 the Gaussian(R) 98 system (copyright 1998, Gaussian, Inc.),
 the Gaussian(R) 94 system (copyright 1995, Gaussian, Inc.),
 the Gaussian 92(TM) system (copyright 1992, Gaussian, Inc.),
 the Gaussian 90(TM) system (copyright 1990, Gaussian, Inc.),
 the Gaussian 88(TM) system (copyright 1988, Gaussian, Inc.),
 the Gaussian 86(TM) system (copyright 1986, Carnegie Mellon
 University), and the Gaussian 82(TM) system (copyright 1983,
 Carnegie Mellon University). Gaussian is a federally registered
 trademark of Gaussian, Inc.
  
 This software contains proprietary and confidential information,
 including trade secrets, belonging to Gaussian, Inc.
  
 This software is provided under written license and may be
 used, copied, transmitted, or stored only in accord with that
 written license.
  
 The following legend is applicable only to US Government
 contracts under FAR:
  
                    RESTRICTED RIGHTS LEGEND
  
 Use, reproduction and disclosure by the US Government is
 subject to restrictions as set forth in subparagraphs (a)
 and (c) of the Commercial Computer Software - Restricted
 Rights clause in FAR 52.227-19.
  
 Gaussian, Inc.
 340 Quinnipiac St., Bldg. 40, Wallingford CT 06492
  
  
 ---------------------------------------------------------------
 Warning -- This program may not be used in any manner that
 competes with the business of Gaussian, Inc. or will provide
 assistance to any competitor of Gaussian, Inc.  The licensee
 of this program is prohibited from giving any competitor of
 Gaussian, Inc. access to this program.  By using this program,
 the user acknowledges that Gaussian, Inc. is engaged in the
 business of creating and licensing software in the field of
 computational chemistry and represents and warrants to the
 licensee that it is not a competitor of Gaussian, Inc. and that
 it will not use this program in any manner prohibited above.
 ---------------------------------------------------------------
  

 Cite this work as:
 Gaussian 16, Revision C.01,
 M. J. Frisch, G. W. Trucks, H. B. Schlegel, G. E. Scuseria, 
 M. A. Robb, J. R. Cheeseman, G. Scalmani, V. Barone, 
 G. A. Petersson, H. Nakatsuji, X. Li, M. Caricato, A. V. Marenich, 
 J. Bloino, B. G. Janesko, R. Gomperts, B. Mennucci, H. P. Hratchian, 
 J. V. Ortiz, A. F. Izmaylov, J. L. Sonnenberg, D. Williams-Young, 
 F. Ding, F. Lipparini, F. Egidi, J. Goings, B. Peng, A. Petrone, 
 T. Henderson, D. Ranasinghe, V. G. Zakrzewski, J. Gao, N. Rega, 
 G. Zheng, W. Liang, M. Hada, M. Ehara, K. Toyota, R. Fukuda, 
 J. Hasegawa, M. Ishida, T. Nakajima, Y. Honda, O. Kitao, H. Nakai, 
 T. Vreven, K. Throssell, J. A. Montgomery, Jr., J. E. Peralta, 
 F. Ogliaro, M. J. Bearpark, J. J. Heyd, E. N. Brothers, K. N. Kudin, 
 V. N. Staroverov, T. A. Keith, R. Kobayashi, J. Normand, 
 K. Raghavachari, A. P. Rendell, J. C. Burant, S. S. Iyengar, 
 J. Tomasi, M. Cossi, J. M. Millam, M. Klene, C. Adamo, R. Cammi, 
 J. W. Ochterski, R. L. Martin, K. Morokuma, O. Farkas, 
 J. B. Foresman, and D. J. Fox, Gaussian, Inc., Wallingford CT, 2019.
 
 ******************************************
 Gaussian 16:  ES64L-G16RevC.01  3-Jul-2019
                 8-Mar-2024 
 ******************************************
 %nprocshared=32
 Will use up to   32 processors via shared memory.
 %mem=100GB
 ------------------------------------------
 #p opt freq b3lyp/def2svpp em=gd3bj nosymm
 ------------------------------------------
 1/18=20,19=15,26=3,38=1/1,3;
 2/9=110,12=2,15=1,17=6,18=5,40=1/2;
 3/5=43,7=202,11=2,25=1,30=1,71=1,74=-5,124=41/1,2,3;
 4//1;
 5/5=2,38=5/2;
 6/7=2,8=2,9=2,10=2,28=1/1;
 7/30=1/1,2,3,16;
 1/18=20,19=15,26=3/3(2);
 2/9=110,15=1/2;
 99//99;
 2/9=110,15=1/2;
 3/5=43,7=202,11=2,25=1,30=1,71=1,74=-5,124=41/1,2,3;
 4/5=5,16=3,69=1/1;
 5/5=2,38=5/2;
 7/30=1/1,2,3,16;
 1/18=20,19=15,26=3/3(-5);
 2/9=110,15=1/2;
 6/7=2,8=2,9=2,10=2,19=2,28=1/1;
 99/9=1/99;
 Leave Link    1 at Fri Mar  8 01:26:03 2024, MaxMem= 13421772800 cpu:               1.1 elap:               0.0
 (Enter /public/software/apps/Gaussian/g16/l101.exe)
 ------------------
 $$$$Title####0????
 ------------------
 Symbolic Z-matrix:
 Charge =  0 Multiplicity = 2
 O                     1.82449   0.61896   2.70921 
 C                     2.20547   0.50942   1.37554 
 C                     3.54326   0.27009   1.06903 
 C                     3.96683   0.1718   -0.25695 
 Br                    5.83403  -0.16849  -0.55939 
 C                     3.03742   0.33528  -1.3076 
 C                     3.44015   0.26292  -2.65623 
 C                     2.51559   0.44645  -3.68457 
 C                     1.18079   0.70989  -3.3888 
 C                     0.75699   0.78373  -2.0622 
 C                     1.66876   0.58561  -1.00249 
 C                     1.25214   0.64377   0.35324 
 C                    -0.17111   0.86171   0.7323 
 C                    -0.52709   2.08238   1.32829 
 O                     0.44312   3.04442   1.59095 
 C                    -1.85249   2.34425   1.66838 
 C                    -2.85089   1.39716   1.43706 
 Br                   -4.64442   1.87143   1.93908 
 C                    -2.51881   0.14738   0.86946 
 C                    -3.50239  -0.83658   0.64449 
 C                    -3.15769  -2.07463   0.10191 
 C                    -1.83224  -2.35506  -0.21918 
 C                    -0.84099  -1.39697  -0.0085 
 C                    -1.16507  -0.13007   0.52395 
 H                     4.26093   0.16038   1.87251 
 H                     4.46784   0.06907  -2.93011 
 H                     2.83764   0.39025  -4.7165 
 H                     0.47034   0.85978  -4.1916 
 H                    -0.28628   1.0015   -1.87631 
 H                    -2.10738   3.29556   2.11861 
 H                    -4.54156  -0.66359   0.88728 
 H                    -3.92206  -2.82284  -0.06447 
 H                    -1.57046  -3.32091  -0.63189 
 H                     0.17761  -1.65959  -0.26121 
 Cu                    1.58947   2.52827   3.09805 
 
 ITRead=  0  0  0  0  0  0  0  0  0  0  0  0  0  0  0  0  0  0  0  0
 ITRead=  0  0  0  0  0  0  0  0  0  0  0  0  0  0  0
 MicOpt= -1 -1 -1 -1 -1 -1 -1 -1 -1 -1 -1 -1 -1 -1 -1 -1 -1 -1 -1 -1
 MicOpt= -1 -1 -1 -1 -1 -1 -1 -1 -1 -1 -1 -1 -1 -1 -1
 NAtoms=     35 NQM=       35 NQMF=       0 NMMI=      0 NMMIF=      0
                NMic=       0 NMicF=      0.
                    Isotopes and Nuclear Properties:
 (Nuclear quadrupole moments (NQMom) in fm**2, nuclear magnetic moments (NMagM)
  in nuclear magnetons)

  Atom         1           2           3           4           5           6           7           8           9          10
 IAtWgt=          16          12          12          12          79          12          12          12          12          12
 AtmWgt=  15.9949146  12.0000000  12.0000000  12.0000000  78.9183361  12.0000000  12.0000000  12.0000000  12.0000000  12.0000000
 NucSpn=           0           0           0           0           3           0           0           0           0           0
 AtZEff=  -0.0000000  -0.0000000  -0.0000000  -0.0000000  -0.0000000  -0.0000000  -0.0000000  -0.0000000  -0.0000000  -0.0000000
 NQMom=    0.0000000   0.0000000   0.0000000   0.0000000  31.3000000   0.0000000   0.0000000   0.0000000   0.0000000   0.0000000
 NMagM=    0.0000000   0.0000000   0.0000000   0.0000000   2.1063990   0.0000000   0.0000000   0.0000000   0.0000000   0.0000000
 AtZNuc=   8.0000000   6.0000000   6.0000000   6.0000000  35.0000000   6.0000000   6.0000000   6.0000000   6.0000000   6.0000000

  Atom        11          12          13          14          15          16          17          18          19          20
 IAtWgt=          12          12          12          12          16          12          12          79          12          12
 AtmWgt=  12.0000000  12.0000000  12.0000000  12.0000000  15.9949146  12.0000000  12.0000000  78.9183361  12.0000000  12.0000000
 NucSpn=           0           0           0           0           0           0           0           3           0           0
 AtZEff=  -0.0000000  -0.0000000  -0.0000000  -0.0000000  -0.0000000  -0.0000000  -0.0000000  -0.0000000  -0.0000000  -0.0000000
 NQMom=    0.0000000   0.0000000   0.0000000   0.0000000   0.0000000   0.0000000   0.0000000  31.3000000   0.0000000   0.0000000
 NMagM=    0.0000000   0.0000000   0.0000000   0.0000000   0.0000000   0.0000000   0.0000000   2.1063990   0.0000000   0.0000000
 AtZNuc=   6.0000000   6.0000000   6.0000000   6.0000000   8.0000000   6.0000000   6.0000000  35.0000000   6.0000000   6.0000000

  Atom        21          22          23          24          25          26          27          28          29          30
 IAtWgt=          12          12          12          12           1           1           1           1           1           1
 AtmWgt=  12.0000000  12.0000000  12.0000000  12.0000000   1.0078250   1.0078250   1.0078250   1.0078250   1.0078250   1.0078250
 NucSpn=           0           0           0           0           1           1           1           1           1           1
 AtZEff=  -0.0000000  -0.0000000  -0.0000000  -0.0000000  -0.0000000  -0.0000000  -0.0000000  -0.0000000  -0.0000000  -0.0000000
 NQMom=    0.0000000   0.0000000   0.0000000   0.0000000   0.0000000   0.0000000   0.0000000   0.0000000   0.0000000   0.0000000
 NMagM=    0.0000000   0.0000000   0.0000000   0.0000000   2.7928460   2.7928460   2.7928460   2.7928460   2.7928460   2.7928460
 AtZNuc=   6.0000000   6.0000000   6.0000000   6.0000000   1.0000000   1.0000000   1.0000000   1.0000000   1.0000000   1.0000000

  Atom        31          32          33          34          35
 IAtWgt=           1           1           1           1          63
 AtmWgt=   1.0078250   1.0078250   1.0078250   1.0078250  62.9295992
 NucSpn=           1           1           1           1           3
 AtZEff=  -0.0000000  -0.0000000  -0.0000000  -0.0000000  -0.0000000
 NQMom=    0.0000000   0.0000000   0.0000000   0.0000000 -22.0000000
 NMagM=    2.7928460   2.7928460   2.7928460   2.7928460   2.2233000
 AtZNuc=   1.0000000   1.0000000   1.0000000   1.0000000  29.0000000
 Leave Link  101 at Fri Mar  8 01:26:03 2024, MaxMem= 13421772800 cpu:               2.8 elap:               0.1
 (Enter /public/software/apps/Gaussian/g16/l103.exe)

 GradGradGradGradGradGradGradGradGradGradGradGradGradGradGradGradGradGrad
 Berny optimization.
 Initialization pass.
                           ----------------------------
                           !    Initial Parameters    !
                           ! (Angstroms and Degrees)  !
 --------------------------                            --------------------------
 ! Name  Definition              Value          Derivative Info.                !
 --------------------------------------------------------------------------------
 ! R1    R(1,2)                  1.3913         estimate D2E/DX2                !
 ! R2    R(1,35)                 1.9626         estimate D2E/DX2                !
 ! R3    R(2,3)                  1.3932         estimate D2E/DX2                !
 ! R4    R(2,12)                 1.4043         estimate D2E/DX2                !
 ! R5    R(3,4)                  1.3955         estimate D2E/DX2                !
 ! R6    R(3,25)                 1.0829         estimate D2E/DX2                !
 ! R7    R(4,5)                  1.9219         estimate D2E/DX2                !
 ! R8    R(4,6)                  1.4122         estimate D2E/DX2                !
 ! R9    R(6,7)                  1.4093         estimate D2E/DX2                !
 ! R10   R(6,11)                 1.4244         estimate D2E/DX2                !
 ! R11   R(7,8)                  1.395          estimate D2E/DX2                !
 ! R12   R(7,26)                 1.0811         estimate D2E/DX2                !
 ! R13   R(8,9)                  1.3923         estimate D2E/DX2                !
 ! R14   R(8,27)                 1.0825         estimate D2E/DX2                !
 ! R15   R(9,10)                 1.3946         estimate D2E/DX2                !
 ! R16   R(9,28)                 1.0825         estimate D2E/DX2                !
 ! R17   R(10,11)                1.4119         estimate D2E/DX2                !
 ! R18   R(10,29)                1.0818         estimate D2E/DX2                !
 ! R19   R(11,12)                1.4195         estimate D2E/DX2                !
 ! R20   R(12,13)                1.4889         estimate D2E/DX2                !
 ! R21   R(13,14)                1.4043         estimate D2E/DX2                !
 ! R22   R(13,24)                1.4195         estimate D2E/DX2                !
 ! R23   R(14,15)                1.3913         estimate D2E/DX2                !
 ! R24   R(14,16)                1.3932         estimate D2E/DX2                !
 ! R25   R(15,35)                1.9626         estimate D2E/DX2                !
 ! R26   R(16,17)                1.3955         estimate D2E/DX2                !
 ! R27   R(16,30)                1.0829         estimate D2E/DX2                !
 ! R28   R(17,18)                1.9219         estimate D2E/DX2                !
 ! R29   R(17,19)                1.4122         estimate D2E/DX2                !
 ! R30   R(19,20)                1.4093         estimate D2E/DX2                !
 ! R31   R(19,24)                1.4244         estimate D2E/DX2                !
 ! R32   R(20,21)                1.395          estimate D2E/DX2                !
 ! R33   R(20,31)                1.0811         estimate D2E/DX2                !
 ! R34   R(21,22)                1.3923         estimate D2E/DX2                !
 ! R35   R(21,32)                1.0825         estimate D2E/DX2                !
 ! R36   R(22,23)                1.3946         estimate D2E/DX2                !
 ! R37   R(22,33)                1.0825         estimate D2E/DX2                !
 ! R38   R(23,24)                1.4119         estimate D2E/DX2                !
 ! R39   R(23,34)                1.0818         estimate D2E/DX2                !
 ! A1    A(2,1,35)             107.4154         estimate D2E/DX2                !
 ! A2    A(1,2,3)              119.1669         estimate D2E/DX2                !
 ! A3    A(1,2,12)             120.2908         estimate D2E/DX2                !
 ! A4    A(3,2,12)             120.5418         estimate D2E/DX2                !
 ! A5    A(2,3,4)              120.8391         estimate D2E/DX2                !
 ! A6    A(2,3,25)             119.3769         estimate D2E/DX2                !
 ! A7    A(4,3,25)             119.7841         estimate D2E/DX2                !
 ! A8    A(3,4,5)              117.1872         estimate D2E/DX2                !
 ! A9    A(3,4,6)              119.9344         estimate D2E/DX2                !
 ! A10   A(5,4,6)              122.8749         estimate D2E/DX2                !
 ! A11   A(4,6,7)              121.1921         estimate D2E/DX2                !
 ! A12   A(4,6,11)             119.5603         estimate D2E/DX2                !
 ! A13   A(7,6,11)             119.2466         estimate D2E/DX2                !
 ! A14   A(6,7,8)              120.6148         estimate D2E/DX2                !
 ! A15   A(6,7,26)             121.5528         estimate D2E/DX2                !
 ! A16   A(8,7,26)             117.832          estimate D2E/DX2                !
 ! A17   A(7,8,9)              120.2443         estimate D2E/DX2                !
 ! A18   A(7,8,27)             119.9166         estimate D2E/DX2                !
 ! A19   A(9,8,27)             119.8379         estimate D2E/DX2                !
 ! A20   A(8,9,10)             120.2268         estimate D2E/DX2                !
 ! A21   A(8,9,28)             119.8593         estimate D2E/DX2                !
 ! A22   A(10,9,28)            119.9137         estimate D2E/DX2                !
 ! A23   A(9,10,11)            120.6813         estimate D2E/DX2                !
 ! A24   A(9,10,29)            117.8503         estimate D2E/DX2                !
 ! A25   A(11,10,29)           121.4677         estimate D2E/DX2                !
 ! A26   A(6,11,10)            118.9717         estimate D2E/DX2                !
 ! A27   A(6,11,12)            119.5899         estimate D2E/DX2                !
 ! A28   A(10,11,12)           121.4355         estimate D2E/DX2                !
 ! A29   A(2,12,11)            119.4797         estimate D2E/DX2                !
 ! A30   A(2,12,13)            118.5297         estimate D2E/DX2                !
 ! A31   A(11,12,13)           121.9858         estimate D2E/DX2                !
 ! A32   A(12,13,14)           118.5297         estimate D2E/DX2                !
 ! A33   A(12,13,24)           121.9859         estimate D2E/DX2                !
 ! A34   A(14,13,24)           119.4797         estimate D2E/DX2                !
 ! A35   A(13,14,15)           120.2909         estimate D2E/DX2                !
 ! A36   A(13,14,16)           120.5418         estimate D2E/DX2                !
 ! A37   A(15,14,16)           119.1669         estimate D2E/DX2                !
 ! A38   A(14,15,35)           111.7418         estimate D2E/DX2                !
 ! A39   A(14,16,17)           120.839          estimate D2E/DX2                !
 ! A40   A(14,16,30)           119.3769         estimate D2E/DX2                !
 ! A41   A(17,16,30)           119.7841         estimate D2E/DX2                !
 ! A42   A(16,17,18)           117.1872         estimate D2E/DX2                !
 ! A43   A(16,17,19)           119.9344         estimate D2E/DX2                !
 ! A44   A(18,17,19)           122.8749         estimate D2E/DX2                !
 ! A45   A(17,19,20)           121.1921         estimate D2E/DX2                !
 ! A46   A(17,19,24)           119.5603         estimate D2E/DX2                !
 ! A47   A(20,19,24)           119.2466         estimate D2E/DX2                !
 ! A48   A(19,20,21)           120.6148         estimate D2E/DX2                !
 ! A49   A(19,20,31)           121.5527         estimate D2E/DX2                !
 ! A50   A(21,20,31)           117.832          estimate D2E/DX2                !
 ! A51   A(20,21,22)           120.2443         estimate D2E/DX2                !
 ! A52   A(20,21,32)           119.9166         estimate D2E/DX2                !
 ! A53   A(22,21,32)           119.8379         estimate D2E/DX2                !
 ! A54   A(21,22,23)           120.2269         estimate D2E/DX2                !
 ! A55   A(21,22,33)           119.8593         estimate D2E/DX2                !
 ! A56   A(23,22,33)           119.9137         estimate D2E/DX2                !
 ! A57   A(22,23,24)           120.6812         estimate D2E/DX2                !
 ! A58   A(22,23,34)           117.8503         estimate D2E/DX2                !
 ! A59   A(24,23,34)           121.4677         estimate D2E/DX2                !
 ! A60   A(13,24,19)           119.5899         estimate D2E/DX2                !
 ! A61   A(13,24,23)           121.4354         estimate D2E/DX2                !
 ! A62   A(19,24,23)           118.9718         estimate D2E/DX2                !
 ! A63   A(1,35,15)            100.0            estimate D2E/DX2                !
 ! D1    D(35,1,2,3)           102.465          estimate D2E/DX2                !
 ! D2    D(35,1,2,12)          -77.3022         estimate D2E/DX2                !
 ! D3    D(2,1,35,15)           49.7288         estimate D2E/DX2                !
 ! D4    D(1,2,3,4)           -179.1383         estimate D2E/DX2                !
 ! D5    D(1,2,3,25)             0.8054         estimate D2E/DX2                !
 ! D6    D(12,2,3,4)             0.6282         estimate D2E/DX2                !
 ! D7    D(12,2,3,25)         -179.4281         estimate D2E/DX2                !
 ! D8    D(1,2,12,11)          177.3359         estimate D2E/DX2                !
 ! D9    D(1,2,12,13)           -1.8856         estimate D2E/DX2                !
 ! D10   D(3,2,12,11)           -2.4281         estimate D2E/DX2                !
 ! D11   D(3,2,12,13)          178.3504         estimate D2E/DX2                !
 ! D12   D(2,3,4,5)           -179.718          estimate D2E/DX2                !
 ! D13   D(2,3,4,6)              0.9392         estimate D2E/DX2                !
 ! D14   D(25,3,4,5)             0.3385         estimate D2E/DX2                !
 ! D15   D(25,3,4,6)          -179.0043         estimate D2E/DX2                !
 ! D16   D(3,4,6,7)            178.9609         estimate D2E/DX2                !
 ! D17   D(3,4,6,11)            -0.6736         estimate D2E/DX2                !
 ! D18   D(5,4,6,7)             -0.343          estimate D2E/DX2                !
 ! D19   D(5,4,6,11)          -179.9775         estimate D2E/DX2                !
 ! D20   D(4,6,7,8)           -179.0185         estimate D2E/DX2                !
 ! D21   D(4,6,7,26)             0.7271         estimate D2E/DX2                !
 ! D22   D(11,6,7,8)             0.6171         estimate D2E/DX2                !
 ! D23   D(11,6,7,26)         -179.6372         estimate D2E/DX2                !
 ! D24   D(4,6,11,10)          178.2707         estimate D2E/DX2                !
 ! D25   D(4,6,11,12)           -1.1225         estimate D2E/DX2                !
 ! D26   D(7,6,11,10)           -1.371          estimate D2E/DX2                !
 ! D27   D(7,6,11,12)          179.2358         estimate D2E/DX2                !
 ! D28   D(6,7,8,9)              0.2802         estimate D2E/DX2                !
 ! D29   D(6,7,8,27)           179.8885         estimate D2E/DX2                !
 ! D30   D(26,7,8,9)          -179.4747         estimate D2E/DX2                !
 ! D31   D(26,7,8,27)            0.1336         estimate D2E/DX2                !
 ! D32   D(7,8,9,10)            -0.4076         estimate D2E/DX2                !
 ! D33   D(7,8,9,28)           179.4696         estimate D2E/DX2                !
 ! D34   D(27,8,9,10)          179.9837         estimate D2E/DX2                !
 ! D35   D(27,8,9,28)           -0.139          estimate D2E/DX2                !
 ! D36   D(8,9,10,11)           -0.377          estimate D2E/DX2                !
 ! D37   D(8,9,10,29)          179.3237         estimate D2E/DX2                !
 ! D38   D(28,9,10,11)         179.7458         estimate D2E/DX2                !
 ! D39   D(28,9,10,29)          -0.5535         estimate D2E/DX2                !
 ! D40   D(9,10,11,6)            1.2634         estimate D2E/DX2                !
 ! D41   D(9,10,11,12)        -179.355          estimate D2E/DX2                !
 ! D42   D(29,10,11,6)        -178.4263         estimate D2E/DX2                !
 ! D43   D(29,10,11,12)          0.9553         estimate D2E/DX2                !
 ! D44   D(6,11,12,2)            2.6575         estimate D2E/DX2                !
 ! D45   D(6,11,12,13)        -178.1489         estimate D2E/DX2                !
 ! D46   D(10,11,12,2)        -176.7202         estimate D2E/DX2                !
 ! D47   D(10,11,12,13)          2.4733         estimate D2E/DX2                !
 ! D48   D(2,12,13,14)          68.5858         estimate D2E/DX2                !
 ! D49   D(2,12,13,24)        -110.6152         estimate D2E/DX2                !
 ! D50   D(11,12,13,14)       -110.6151         estimate D2E/DX2                !
 ! D51   D(11,12,13,24)         70.1839         estimate D2E/DX2                !
 ! D52   D(12,13,14,15)         -1.8857         estimate D2E/DX2                !
 ! D53   D(12,13,14,16)        178.3505         estimate D2E/DX2                !
 ! D54   D(24,13,14,15)        177.3358         estimate D2E/DX2                !
 ! D55   D(24,13,14,16)         -2.428          estimate D2E/DX2                !
 ! D56   D(12,13,24,19)       -178.149          estimate D2E/DX2                !
 ! D57   D(12,13,24,23)          2.4733         estimate D2E/DX2                !
 ! D58   D(14,13,24,19)          2.6574         estimate D2E/DX2                !
 ! D59   D(14,13,24,23)       -176.7203         estimate D2E/DX2                !
 ! D60   D(13,14,15,35)        -72.7679         estimate D2E/DX2                !
 ! D61   D(16,14,15,35)        106.9992         estimate D2E/DX2                !
 ! D62   D(13,14,16,17)          0.6282         estimate D2E/DX2                !
 ! D63   D(13,14,16,30)       -179.4281         estimate D2E/DX2                !
 ! D64   D(15,14,16,17)       -179.1383         estimate D2E/DX2                !
 ! D65   D(15,14,16,30)          0.8054         estimate D2E/DX2                !
 ! D66   D(14,15,35,1)          40.9511         estimate D2E/DX2                !
 ! D67   D(14,16,17,18)       -179.718          estimate D2E/DX2                !
 ! D68   D(14,16,17,19)          0.9392         estimate D2E/DX2                !
 ! D69   D(30,16,17,18)          0.3385         estimate D2E/DX2                !
 ! D70   D(30,16,17,19)       -179.0043         estimate D2E/DX2                !
 ! D71   D(16,17,19,20)        178.961          estimate D2E/DX2                !
 ! D72   D(16,17,19,24)         -0.6736         estimate D2E/DX2                !
 ! D73   D(18,17,19,20)         -0.343          estimate D2E/DX2                !
 ! D74   D(18,17,19,24)       -179.9775         estimate D2E/DX2                !
 ! D75   D(17,19,20,21)       -179.0185         estimate D2E/DX2                !
 ! D76   D(17,19,20,31)          0.7272         estimate D2E/DX2                !
 ! D77   D(24,19,20,21)          0.6171         estimate D2E/DX2                !
 ! D78   D(24,19,20,31)       -179.6371         estimate D2E/DX2                !
 ! D79   D(17,19,24,13)         -1.1225         estimate D2E/DX2                !
 ! D80   D(17,19,24,23)        178.2706         estimate D2E/DX2                !
 ! D81   D(20,19,24,13)        179.2358         estimate D2E/DX2                !
 ! D82   D(20,19,24,23)         -1.3711         estimate D2E/DX2                !
 ! D83   D(19,20,21,22)          0.2801         estimate D2E/DX2                !
 ! D84   D(19,20,21,32)        179.8884         estimate D2E/DX2                !
 ! D85   D(31,20,21,22)       -179.4748         estimate D2E/DX2                !
 ! D86   D(31,20,21,32)          0.1335         estimate D2E/DX2                !
 ! D87   D(20,21,22,23)         -0.4076         estimate D2E/DX2                !
 ! D88   D(20,21,22,33)        179.4696         estimate D2E/DX2                !
 ! D89   D(32,21,22,23)        179.9838         estimate D2E/DX2                !
 ! D90   D(32,21,22,33)         -0.139          estimate D2E/DX2                !
 ! D91   D(21,22,23,24)         -0.377          estimate D2E/DX2                !
 ! D92   D(21,22,23,34)        179.3237         estimate D2E/DX2                !
 ! D93   D(33,22,23,24)        179.7459         estimate D2E/DX2                !
 ! D94   D(33,22,23,34)         -0.5534         estimate D2E/DX2                !
 ! D95   D(22,23,24,13)       -179.355          estimate D2E/DX2                !
 ! D96   D(22,23,24,19)          1.2635         estimate D2E/DX2                !
 ! D97   D(34,23,24,13)          0.9552         estimate D2E/DX2                !
 ! D98   D(34,23,24,19)       -178.4263         estimate D2E/DX2                !
 --------------------------------------------------------------------------------
 Trust Radius=3.00D-01 FncErr=1.00D-07 GrdErr=1.00D-06 EigMax=2.50D+02 EigMin=1.00D-04
 Number of steps in this run=    210 maximum allowed number of steps=    210.
 GradGradGradGradGradGradGradGradGradGradGradGradGradGradGradGradGradGrad

 Leave Link  103 at Fri Mar  8 01:26:03 2024, MaxMem= 13421772800 cpu:               0.2 elap:               0.0
 (Enter /public/software/apps/Gaussian/g16/l202.exe)
                          Input orientation:                          
 ---------------------------------------------------------------------
 Center     Atomic      Atomic             Coordinates (Angstroms)
 Number     Number       Type             X           Y           Z
 ---------------------------------------------------------------------
      1          8           0        1.824491    0.618964    2.709206
      2          6           0        2.205471    0.509419    1.375537
      3          6           0        3.543258    0.270090    1.069027
      4          6           0        3.966829    0.171795   -0.256953
      5         35           0        5.834027   -0.168490   -0.559394
      6          6           0        3.037417    0.335280   -1.307603
      7          6           0        3.440152    0.262921   -2.656228
      8          6           0        2.515591    0.446450   -3.684566
      9          6           0        1.180794    0.709886   -3.388795
     10          6           0        0.756987    0.783733   -2.062202
     11          6           0        1.668763    0.585612   -1.002495
     12          6           0        1.252137    0.643771    0.353241
     13          6           0       -0.171107    0.861708    0.732295
     14          6           0       -0.527094    2.082384    1.328289
     15          8           0        0.443124    3.044417    1.590945
     16          6           0       -1.852488    2.344252    1.668376
     17          6           0       -2.850893    1.397164    1.437056
     18         35           0       -4.644420    1.871425    1.939082
     19          6           0       -2.518813    0.147383    0.869456
     20          6           0       -3.502395   -0.836577    0.644489
     21          6           0       -3.157693   -2.074626    0.101913
     22          6           0       -1.832244   -2.355061   -0.219183
     23          6           0       -0.840993   -1.396966   -0.008496
     24          6           0       -1.165070   -0.130065    0.523953
     25          1           0        4.260931    0.160376    1.872511
     26          1           0        4.467842    0.069069   -2.930109
     27          1           0        2.837635    0.390253   -4.716502
     28          1           0        0.470337    0.859783   -4.191599
     29          1           0       -0.286277    1.001504   -1.876311
     30          1           0       -2.107384    3.295562    2.118614
     31          1           0       -4.541561   -0.663594    0.887281
     32          1           0       -3.922063   -2.822835   -0.064470
     33          1           0       -1.570459   -3.320905   -0.631890
     34          1           0        0.177607   -1.659590   -0.261206
     35         29           0        1.589470    2.528269    3.098048
 ---------------------------------------------------------------------
                    Distance matrix (angstroms):
                    1          2          3          4          5
     1  O    0.000000
     2  C    1.391337   0.000000
     3  C    2.401262   1.393162   0.000000
     4  C    3.686146   2.425159   1.395456   0.000000
     5  Br   5.232610   4.167726   2.844597   1.921898   0.000000
     6  C    4.205523   2.814551   2.430740   1.412232   2.938474
     7  C    5.614714   4.223781   3.726688   2.458091   3.211459
     8  C    6.433327   5.069988   4.866605   3.732299   4.599660
     9  C    6.132555   4.877398   5.064270   4.226105   5.516306
    10  C    4.892141   3.740508   4.222763   3.733159   5.379730
    11  C    3.715116   2.439036   2.811492   2.451160   4.256105
    12  C    2.424619   1.404274   2.429243   2.822171   4.741981
    13  C    2.819488   2.487165   3.776229   4.310117   6.228274
    14  C    3.094912   3.153310   4.463115   5.134071   7.006685
    15  O    3.006909   3.094912   4.192865   4.907462   6.633895
    16  C    4.192865   4.463115   5.811664   6.503146   8.388048
    17  C    4.907461   5.134072   6.503146   7.131096   9.047924
    18  Br   6.633895   7.006686   8.388047   9.047924  10.963644
    19  C    4.740396   4.765086   6.066596   6.582776   8.480054
    20  C    5.895538   5.909811   7.144660   7.590700   9.437396
    21  C    6.235027   6.087934   7.164897   7.478904   9.215298
    22  C    5.549054   5.201108   6.119389   6.325794   7.979257
    23  C    4.307515   3.851077   4.812670   5.063388   6.809444
    24  C    3.778075   3.534782   4.756636   5.199742   7.082547
    25  H    2.616601   2.143299   1.082903   2.149708   2.914952
    26  H    6.252325   4.883730   4.109544   2.721641   2.746486
    27  H    7.497994   6.125910   5.829639   4.605473   5.154814
    28  H    7.036536   5.841785   6.120847   5.308505   6.558920
    29  H    5.062474   4.126193   4.886238   4.625975   6.368774
    30  H    4.792976   5.188013   6.494988   7.231687   9.068483
    31  H    6.744700   6.865624   8.140583   8.625535  10.487651
    32  H    7.249975   7.122093   8.159781   8.440348  10.122835
    33  H    6.181519   5.740975   6.475991   6.557522   8.047943
    34  H    4.089912   3.390540   4.101316   4.208586   5.857250
    35  Cu   1.962620   2.724382   3.610206   4.739287   6.218171
                    6          7          8          9         10
     6  C    0.000000
     7  C    1.409333   0.000000
     8  C    2.436106   1.394982   0.000000
     9  C    2.814025   2.416843   1.392323   0.000000
    10  C    2.443541   2.797050   2.416301   1.394602   0.000000
    11  C    1.424419   2.444746   2.816024   2.438849   1.411937
    12  C    2.457803   3.740235   4.235462   3.743300   2.469641
    13  C    3.838351   4.988169   5.186468   4.339824   2.945616
    14  C    4.765085   5.909811   6.087933   5.201107   3.851076
    15  O    4.740397   5.895539   6.235028   5.549054   4.307515
    16  C    6.066596   7.144661   7.164897   6.119390   4.812670
    17  C    6.582776   7.590700   7.478905   6.325796   5.063388
    18  Br   8.480055   9.437397   9.215299   7.979258   6.809445
    19  C    5.970476   6.924815   6.795129   5.668880   4.441894
    20  C    6.924814   7.765474   7.523499   6.371121   5.300369
    21  C    6.795128   7.523498   7.271822   6.225835   5.308326
    22  C    5.668879   6.371121   6.225834   5.340294   4.466863
    23  C    4.441894   5.300369   5.308326   4.466863   3.395099
    24  C    4.607824   5.610353   5.620611   4.638771   3.349258
    25  H    3.411847   4.603658   5.831737   6.121319   5.305484
    26  H    2.179337   1.081081   2.126712   3.380196   3.877429
    27  H    3.415191   2.150342   1.082480   2.147113   3.395472
    28  H    3.896465   3.396087   2.147322   1.082457   2.149950
    29  H    3.437183   3.878150   3.380582   2.127192   1.081841
    30  H    6.853555   7.922827   7.947719   6.915879   5.656247
    31  H    7.953375   8.781949   8.481590   7.274381   6.234486
    32  H    7.742960   8.392932   8.076924   7.040625   6.236327
    33  H    5.920878   6.484441   6.340946   5.605104   4.930603
    34  H    3.640462   4.480667   4.649835   4.050014   3.090161
    35  Cu   5.129865   6.455116   7.155105   6.749271   5.510410
                   11         12         13         14         15
    11  C    0.000000
    12  C    1.419500   0.000000
    13  C    2.543786   1.488893   0.000000
    14  C    3.534780   2.487165   1.404274   0.000000
    15  O    3.778074   2.819488   2.424619   1.391337   0.000000
    16  C    4.756635   3.776230   2.429244   1.393163   2.401262
    17  C    5.199742   4.310117   2.822172   2.425159   3.686146
    18  Br   7.082547   6.228275   4.741982   4.167727   5.232611
    19  C    4.607824   3.838352   2.457803   2.814552   4.205523
    20  C    5.610352   4.988169   3.740235   4.223782   5.614714
    21  C    5.620610   5.186468   4.235462   5.069988   6.433327
    22  C    4.638770   4.339824   3.743299   4.877397   6.132555
    23  C    3.349257   2.945616   2.469641   3.740508   4.892142
    24  C    3.297400   2.543787   1.419501   2.439037   3.715117
    25  H    3.894332   3.405098   4.629786   5.188013   4.792976
    26  H    3.437638   4.631569   5.963332   6.865623   6.744700
    27  H    3.898496   5.317929   6.242130   7.122093   7.249976
    28  H    3.417862   4.616648   4.965500   5.740974   6.181519
    29  H    2.181445   2.732324   2.614887   3.390539   4.089912
    30  H    5.598610   4.629786   3.405098   2.143299   2.616601
    31  H    6.610589   5.963333   4.631569   4.883731   6.252325
    32  H    6.614736   6.242130   5.317928   6.125909   7.497993
    33  H    5.088299   4.965500   4.616648   5.841784   7.036536
    34  H    2.795351   2.614887   2.732323   4.126193   5.062474
    35  Cu   4.538134   3.346504   3.387306   2.794764   1.962620
                   16         17         18         19         20
    16  C    0.000000
    17  C    1.395456   0.000000
    18  Br   2.844597   1.921898   0.000000
    19  C    2.430740   1.412232   2.938473   0.000000
    20  C    3.726689   2.458092   3.211459   1.409334   0.000000
    21  C    4.866606   3.732299   4.599659   2.436106   1.394982
    22  C    5.064270   4.226105   5.516305   2.814025   2.416842
    23  C    4.222764   3.733160   5.379730   2.443541   2.797049
    24  C    2.811493   2.451160   4.256105   1.424419   2.444745
    25  H    6.494989   7.231688   9.068484   6.853555   7.922827
    26  H    8.140583   8.625535  10.487651   7.953375   8.781949
    27  H    8.159781   8.440349  10.122836   7.742961   8.392933
    28  H    6.475992   6.557523   8.047944   5.920879   6.484442
    29  H    4.101316   4.208587   5.857252   3.640464   4.480668
    30  H    1.082902   2.149707   2.914953   3.411847   4.603659
    31  H    4.109545   2.721642   2.746486   2.179337   1.081081
    32  H    5.829638   4.605473   5.154813   3.415190   2.150341
    33  H    6.120847   5.308505   6.558919   3.896465   3.396087
    34  H    4.886238   4.625976   6.368774   3.437183   3.878150
    35  Cu   3.731608   4.873922   6.374640   5.245305   6.577935
                   21         22         23         24         25
    21  C    0.000000
    22  C    1.392322   0.000000
    23  C    2.416301   1.394602   0.000000
    24  C    2.816022   2.438848   1.411937   0.000000
    25  H    7.947719   6.915879   5.656247   5.598612   0.000000
    26  H    8.481590   7.274380   6.234486   6.610590   4.807942
    27  H    8.076925   7.040625   6.236327   6.614737   6.744902
    28  H    6.340947   5.605104   4.930604   5.088299   7.185486
    29  H    4.649836   4.050014   3.090162   2.795352   5.953005
    30  H    5.831737   6.121318   5.305484   3.894332   7.102492
    31  H    2.126712   3.380196   3.877429   3.437638   8.895700
    32  H    1.082479   2.147112   3.395472   3.898495   8.922602
    33  H    2.147322   1.082457   2.149949   3.417861   7.238539
    34  H    3.380582   2.127192   1.081841   2.181445   4.953641
    35  Cu   7.259409   6.823420   5.564642   4.613046   3.774329
                   26         27         28         29         30
    26  H    0.000000
    27  H    2.439659   0.000000
    28  H    4.265751   2.469834   0.000000
    29  H    4.957981   4.266045   2.439899   0.000000
    30  H    8.895699   8.922603   7.238539   4.953641   0.000000
    31  H    9.812166   9.325530   7.296220   5.340172   4.807943
    32  H    9.325530   8.812426   7.063147   5.579182   6.744902
    33  H    7.296219   7.063147   5.857860   4.677705   7.185485
    34  H    5.340171   5.579182   4.677705   3.147249   5.953004
    35  Cu   7.118382   8.197330   7.561432   5.531156   3.900610
                   31         32         33         34         35
    31  H    0.000000
    32  H    2.439658   0.000000
    33  H    4.265751   2.469834   0.000000
    34  H    4.957981   4.266045   2.439899   0.000000
    35  Cu   7.257067   8.307396   7.623019   5.551226   0.000000
 Symmetry turned off by external request.
 Stoichiometry    C20H10Br2CuO2(2)
 Framework group  C1[X(C20H10Br2CuO2)]
 Deg. of freedom    99
 Full point group                 C1      NOp   1
 Rotational constants (GHZ):           0.2479377           0.0750877           0.0642357
 Leave Link  202 at Fri Mar  8 01:26:03 2024, MaxMem= 13421772800 cpu:               0.3 elap:               0.0
 (Enter /public/software/apps/Gaussian/g16/l301.exe)
 Standard basis: def2SVPP (5D, 7F)
 Ernie: Thresh=  0.10000D-02 Tol=  0.10000D-05 Strict=F.
   416 basis functions,   821 primitive gaussians,   446 cartesian basis functions
   123 alpha electrons      122 beta electrons
       nuclear repulsion energy      3452.1723846719 Hartrees.
 IExCor=  402 DFT=T Ex+Corr=B3LYP ExCW=0 ScaHFX=  0.200000
 ScaDFX=  0.800000  0.720000  1.000000  0.810000 ScalE2=  1.000000  1.000000
 IRadAn=      5 IRanWt=     -1 IRanGd=            0 ICorTp=0 IEmpDi=141
 NAtoms=   35 NActive=   35 NUniq=   35 SFac= 1.00D+00 NAtFMM=   60 NAOKFM=F Big=F
 Integral buffers will be    131072 words long.
 Raffenetti 2 integral format.
 Two-electron integral symmetry is turned off.
 R6Disp:  Grimme-D3(BJ) Dispersion energy=       -0.1088880521 Hartrees.
 Nuclear repulsion after empirical dispersion term =     3452.0634966197 Hartrees.
 Leave Link  301 at Fri Mar  8 01:26:03 2024, MaxMem= 13421772800 cpu:               0.7 elap:               0.0
 (Enter /public/software/apps/Gaussian/g16/l302.exe)
 NPDir=0 NMtPBC=     1 NCelOv=     1 NCel=       1 NClECP=     1 NCelD=      1
         NCelK=      1 NCelE2=     1 NClLst=     1 CellRange=     0.0.
 One-electron integrals computed using PRISM.
   1 Symmetry operations used in ECPInt.
 ECPInt:  NShTT=   17391 NPrTT=   77464 LenC2=   15469 LenP2D=   44060.
 LDataN:  DoStor=T MaxTD1= 4 Len=   56
 NBasis=   416 RedAO= T EigKep=  1.80D-04  NBF=   416
 NBsUse=   416 1.00D-06 EigRej= -1.00D+00 NBFU=   416
 Precomputing XC quadrature grid using
 IXCGrd= 4 IRadAn=           5 IRanWt=          -1 IRanGd=           0 AccXCQ= 0.00D+00.
 Generated NRdTot=       0 NPtTot=           0 NUsed=           0 NTot=          32
 NSgBfM=   428   428   428   428   428 MxSgAt=    35 MxSgA2=    35.
 Leave Link  302 at Fri Mar  8 01:26:03 2024, MaxMem= 13421772800 cpu:              11.5 elap:               0.4
 (Enter /public/software/apps/Gaussian/g16/l303.exe)
 DipDrv:  MaxL=1.
 Leave Link  303 at Fri Mar  8 01:26:03 2024, MaxMem= 13421772800 cpu:               3.6 elap:               0.1
 (Enter /public/software/apps/Gaussian/g16/l401.exe)
 ExpMin= 3.30D-02 ExpMax= 1.13D+05 ExpMxC= 1.70D+04 IAcc=3 IRadAn=         5 AccDes= 0.00D+00
 Harris functional with IExCor=  402 and IRadAn=       5 diagonalized for initial guess.
 HarFok:  IExCor=  402 AccDes= 0.00D+00 IRadAn=         5 IDoV= 1 UseB2=F ITyADJ=14
 ICtDFT=  3500011 ScaDFX=  1.000000  1.000000  1.000000  1.000000
 FoFCou: FMM=F IPFlag=           0 FMFlag=      100000 FMFlg1=           0
         NFxFlg=           0 DoJE=T BraDBF=F KetDBF=T FulRan=T
         wScrn=  0.000000 ICntrl=       500 IOpCl=  0 I1Cent=   200000004 NGrid=           0
         NMat0=    1 NMatS0=      1 NMatT0=    0 NMatD0=    1 NMtDS0=    0 NMtDT0=    0
 Symmetry not used in FoFCou.
 Harris En= -7706.40810204744    
 JPrj=0 DoOrth=F DoCkMO=F.
 Initial guess <Sx>= 0.0000 <Sy>= 0.0000 <Sz>= 0.5000 <S**2>= 0.7500 S= 0.5000
 Leave Link  401 at Fri Mar  8 01:26:04 2024, MaxMem= 13421772800 cpu:              23.0 elap:               0.8
 (Enter /public/software/apps/Gaussian/g16/l502.exe)
 Two-electron integral symmetry not used.
 UHF open shell SCF:
 Using DIIS extrapolation, IDIIS=  1040.
 NGot= 13421772800 LenX= 13421356480 LenY= 13421157118
 Requested convergence on RMS density matrix=1.00D-08 within 128 cycles.
 Requested convergence on MAX density matrix=1.00D-06.
 Requested convergence on             energy=1.00D-06.
 No special actions if energy rises.
 Fock matrices will be formed incrementally for  20 cycles.

 Cycle   1  Pass 1  IDiag  1:
 FoFJK:  IHMeth= 1 ICntrl=       0 DoSepK=F KAlg= 0 I1Cent=           0 FoldK=F
 IRaf= 830000000 NMat=       1 IRICut=       1 DoRegI=T DoRafI=F ISym2E= 0 IDoP0=0 IntGTp=1.
 FoFCou: FMM=F IPFlag=           0 FMFlag=      100000 FMFlg1=           0
         NFxFlg=           0 DoJE=F BraDBF=F KetDBF=F FulRan=T
         wScrn=  0.000000 ICntrl=         0 IOpCl=  1 I1Cent=           0 NGrid=           0
         NMat0=    1 NMatS0=      1 NMatT0=    0 NMatD0=    1 NMtDS0=    0 NMtDT0=    0
 Symmetry not used in FoFCou.
 E= -7692.34985452443    
 DIIS: error= 4.00D-01 at cycle   1 NSaved=   1.
 NSaved= 1 IEnMin= 1 EnMin= -7692.34985452443     IErMin= 1 ErrMin= 4.00D-01
 ErrMax= 4.00D-01  0.00D+00 EMaxC= 1.00D-01 BMatC= 5.22D+01 BMatP= 5.22D+01
 IDIUse=3 WtCom= 0.00D+00 WtEn= 1.00D+00
 Coeff-Com:  0.100D+01
 Coeff-En:   0.100D+01
 Coeff:      0.100D+01
 Gap=     0.142 Goal=   None    Shift=    0.000
 Gap=     0.047 Goal=   None    Shift=    0.000
 GapD=    0.047 DampG=0.250 DampE=0.125 DampFc=0.1250 IDamp=-1.
 Damping current iteration by 1.25D-01
 RMSDP=6.63D-02 MaxDP=7.48D+00              OVMax= 9.77D-01

 Cycle   2  Pass 1  IDiag  1:
 RMSU=  8.28D-03    CP:  1.01D+00
 E= -7697.00006131717     Delta-E=       -4.650206792743 Rises=F Damp=T
 DIIS: error= 2.66D-01 at cycle   2 NSaved=   2.
 NSaved= 2 IEnMin= 2 EnMin= -7697.00006131717     IErMin= 2 ErrMin= 2.66D-01
 ErrMax= 2.66D-01  0.00D+00 EMaxC= 1.00D-01 BMatC= 2.00D+01 BMatP= 5.22D+01
 IDIUse=3 WtCom= 0.00D+00 WtEn= 1.00D+00
 Coeff-Com: -0.120D+01 0.220D+01
 Coeff-En:   0.000D+00 0.100D+01
 Coeff:      0.000D+00 0.100D+01
 Gap=    -0.041 Goal=   None    Shift=    0.000
 Gap=     0.018 Goal=   None    Shift=    0.000
 RMSDP=1.84D-02 MaxDP=2.86D+00 DE=-4.65D+00 OVMax= 9.09D-01

 Cycle   3  Pass 1  IDiag  1:
 RMSU=  1.62D-02    CP:  9.69D-01  2.05D+00
 E= -7683.43833964655     Delta-E=       13.561721670627 Rises=F Damp=F
 DIIS: error= 2.19D-01 at cycle   3 NSaved=   3.
 NSaved= 3 IEnMin= 2 EnMin= -7697.00006131717     IErMin= 3 ErrMin= 2.19D-01
 ErrMax= 2.19D-01  0.00D+00 EMaxC= 1.00D-01 BMatC= 6.28D+01 BMatP= 2.00D+01
 IDIUse=2 WtCom= 0.00D+00 WtEn= 1.00D+00
 EnCoef did   100 forward-backward iterations
 Coeff-En:   0.571D+00 0.155D-01 0.413D+00
 Coeff:      0.571D+00 0.155D-01 0.413D+00
 Gap=     0.122 Goal=   None    Shift=    0.000
 Gap=     0.010 Goal=   None    Shift=    0.000
 RMSDP=2.31D-02 MaxDP=3.70D+00 DE= 1.36D+01 OVMax= 7.55D-01

 Cycle   4  Pass 1  IDiag  1:
 RMSU=  8.55D-03    CP:  9.36D-01  1.26D-01  1.13D-01
 E= -7698.97896056145     Delta-E=      -15.540620914904 Rises=F Damp=F
 DIIS: error= 1.37D-01 at cycle   4 NSaved=   4.
 NSaved= 4 IEnMin= 4 EnMin= -7698.97896056145     IErMin= 4 ErrMin= 1.37D-01
 ErrMax= 1.37D-01  0.00D+00 EMaxC= 1.00D-01 BMatC= 2.37D+01 BMatP= 2.00D+01
 IDIUse=2 WtCom= 0.00D+00 WtEn= 1.00D+00
 EnCoef did   100 forward-backward iterations
 Coeff-En:   0.391D+00 0.130D-01 0.187D+00 0.408D+00
 Coeff:      0.391D+00 0.130D-01 0.187D+00 0.408D+00
 Gap=     0.095 Goal=   None    Shift=    0.000
 Gap=     0.018 Goal=   None    Shift=    0.000
 RMSDP=1.11D-02 MaxDP=8.93D-01 DE=-1.55D+01 OVMax= 7.93D-01

 Cycle   5  Pass 1  IDiag  1:
 RMSU=  8.25D-03    CP:  9.30D-01  1.17D-01  2.30D-01  1.63D-01
 E= -7698.35437212665     Delta-E=        0.624588434803 Rises=F Damp=F
 DIIS: error= 1.19D-01 at cycle   5 NSaved=   5.
 NSaved= 5 IEnMin= 4 EnMin= -7698.97896056145     IErMin= 5 ErrMin= 1.19D-01
 ErrMax= 1.19D-01  0.00D+00 EMaxC= 1.00D-01 BMatC= 2.32D+01 BMatP= 2.00D+01
 IDIUse=2 WtCom= 0.00D+00 WtEn= 1.00D+00
 EnCoef did   100 forward-backward iterations
 Coeff-En:   0.206D+00 0.568D-02 0.000D+00 0.429D+00 0.358D+00
 Coeff:      0.206D+00 0.568D-02 0.000D+00 0.429D+00 0.358D+00
 Gap=     0.021 Goal=   None    Shift=    0.000
 Gap=     0.039 Goal=   None    Shift=    0.000
 RMSDP=7.54D-03 MaxDP=3.55D-01 DE= 6.25D-01 OVMax= 7.40D-01

 Cycle   6  Pass 1  IDiag  1:
 RMSU=  4.97D-03    CP:  9.26D-01  1.15D-01  1.64D-01  3.88D-01  3.67D-01
 E= -7704.52424198996     Delta-E=       -6.169869863315 Rises=F Damp=F
 DIIS: error= 2.90D-02 at cycle   6 NSaved=   6.
 NSaved= 6 IEnMin= 6 EnMin= -7704.52424198996     IErMin= 6 ErrMin= 2.90D-02
 ErrMax= 2.90D-02  0.00D+00 EMaxC= 1.00D-01 BMatC= 2.84D+00 BMatP= 2.00D+01
 IDIUse=3 WtCom= 7.10D-01 WtEn= 2.90D-01
 EnCoef did   100 forward-backward iterations
 Coeff-Com: -0.876D-01 0.304D+00-0.140D-01 0.116D+00 0.168D+00 0.513D+00
 Coeff-En:   0.156D+00 0.190D-02 0.000D+00 0.411D-01 0.794D-01 0.722D+00
 Coeff:     -0.169D-01 0.216D+00-0.995D-02 0.945D-01 0.143D+00 0.573D+00
 Gap=     0.002 Goal=   None    Shift=    0.000
 Gap=    -0.010 Goal=   None    Shift=    0.000
 RMSDP=9.20D-03 MaxDP=1.03D+00 DE=-6.17D+00 OVMax= 8.56D-01

 Cycle   7  Pass 1  IDiag  1:
 RMSU=  7.06D-03    CP:  9.50D-01  5.01D-02  8.61D-02  4.07D-01  3.08D-01
                    CP: -1.43D-01
 E= -7700.30382158169     Delta-E=        4.220420408277 Rises=F Damp=F
 DIIS: error= 5.84D-02 at cycle   7 NSaved=   7.
 NSaved= 7 IEnMin= 6 EnMin= -7704.52424198996     IErMin= 6 ErrMin= 2.90D-02
 ErrMax= 5.84D-02  0.00D+00 EMaxC= 1.00D-01 BMatC= 1.48D+01 BMatP= 2.84D+00
 IDIUse=2 WtCom= 0.00D+00 WtEn= 1.00D+00
 EnCoef did     6 forward-backward iterations
 Coeff-En:   0.759D-01 0.000D+00 0.000D+00 0.000D+00 0.000D+00 0.697D+00
 Coeff-En:   0.227D+00
 Coeff:      0.759D-01 0.000D+00 0.000D+00 0.000D+00 0.000D+00 0.697D+00
 Coeff:      0.227D+00
 Gap=     0.108 Goal=   None    Shift=    0.000
 Gap=     0.047 Goal=   None    Shift=    0.000
 RMSDP=6.51D-03 MaxDP=5.18D-01 DE= 4.22D+00 OVMax= 7.84D-01

 Cycle   8  Pass 1  IDiag  1:
 RMSU=  3.47D-03    CP:  9.34D-01 -1.58D-02  9.91D-02  4.55D-01  2.22D-01
                    CP:  3.38D-01  3.14D-01
 E= -7705.81884128462     Delta-E=       -5.515019702929 Rises=F Damp=F
 DIIS: error= 1.64D-02 at cycle   8 NSaved=   8.
 NSaved= 8 IEnMin= 8 EnMin= -7705.81884128462     IErMin= 8 ErrMin= 1.64D-02
 ErrMax= 1.64D-02  0.00D+00 EMaxC= 1.00D-01 BMatC= 7.20D-01 BMatP= 2.84D+00
 IDIUse=3 WtCom= 8.36D-01 WtEn= 1.64D-01
 Coeff-Com: -0.905D-01 0.156D+00 0.858D-02-0.262D-01 0.375D-01 0.251D+00
 Coeff-Com:  0.752D-01 0.589D+00
 Coeff-En:   0.000D+00 0.000D+00 0.000D+00 0.000D+00 0.000D+00 0.158D+00
 Coeff-En:   0.000D+00 0.842D+00
 Coeff:     -0.756D-01 0.130D+00 0.718D-02-0.219D-01 0.313D-01 0.235D+00
 Coeff:      0.629D-01 0.630D+00
 Gap=     0.209 Goal=   None    Shift=    0.000
 Gap=     0.062 Goal=   None    Shift=    0.000
 RMSDP=2.38D-03 MaxDP=1.53D-01 DE=-5.52D+00 OVMax= 2.46D-01

 Cycle   9  Pass 1  IDiag  1:
 RMSU=  2.09D-03    CP:  9.29D-01  7.40D-03  1.18D-01  4.24D-01  2.91D-01
                    CP:  4.16D-01  2.58D-01  8.06D-01
 E= -7705.95220385668     Delta-E=       -0.133362572069 Rises=F Damp=F
 DIIS: error= 1.61D-02 at cycle   9 NSaved=   9.
 NSaved= 9 IEnMin= 9 EnMin= -7705.95220385668     IErMin= 9 ErrMin= 1.61D-02
 ErrMax= 1.61D-02  0.00D+00 EMaxC= 1.00D-01 BMatC= 4.98D-01 BMatP= 7.20D-01
 IDIUse=3 WtCom= 8.39D-01 WtEn= 1.61D-01
 EnCoef did     3 forward-backward iterations
 Coeff-Com: -0.870D-01 0.143D+00 0.300D-02-0.346D-01 0.151D-01 0.102D+00
 Coeff-Com:  0.341D-02 0.415D+00 0.440D+00
 Coeff-En:   0.000D+00 0.000D+00 0.000D+00 0.000D+00 0.000D+00 0.193D-01
 Coeff-En:   0.000D+00 0.292D+00 0.689D+00
 Coeff:     -0.730D-01 0.120D+00 0.251D-02-0.291D-01 0.126D-01 0.885D-01
 Coeff:      0.286D-02 0.395D+00 0.480D+00
 Gap=     0.096 Goal=   None    Shift=    0.000
 Gap=     0.017 Goal=   None    Shift=    0.000
 RMSDP=1.66D-03 MaxDP=1.09D-01 DE=-1.33D-01 OVMax= 3.01D-01

 Cycle  10  Pass 1  IDiag  1:
 RMSU=  1.31D-03    CP:  9.27D-01  9.50D-03  1.25D-01  4.21D-01  3.08D-01
                    CP:  4.42D-01  1.86D-01  7.72D-01  5.93D-01
 E= -7706.02242598040     Delta-E=       -0.070222123715 Rises=F Damp=F
 DIIS: error= 2.19D-02 at cycle  10 NSaved=  10.
 NSaved=10 IEnMin=10 EnMin= -7706.02242598040     IErMin= 9 ErrMin= 1.61D-02
 ErrMax= 2.19D-02  0.00D+00 EMaxC= 1.00D-01 BMatC= 2.78D-01 BMatP= 4.98D-01
 IDIUse=3 WtCom= 8.39D-01 WtEn= 1.61D-01
 Coeff-Com: -0.580D-01 0.107D+00-0.123D-02-0.356D-01-0.554D-02 0.694D-01
 Coeff-Com: -0.330D-02 0.264D+00 0.347D+00 0.316D+00
 Coeff-En:   0.000D+00 0.000D+00 0.000D+00 0.000D+00 0.000D+00 0.000D+00
 Coeff-En:   0.000D+00 0.000D+00 0.272D+00 0.728D+00
 Coeff:     -0.487D-01 0.899D-01-0.103D-02-0.299D-01-0.465D-02 0.583D-01
 Coeff:     -0.277D-02 0.222D+00 0.335D+00 0.382D+00
 Gap=     0.106 Goal=   None    Shift=    0.000
 Gap=     0.033 Goal=   None    Shift=    0.000
 RMSDP=7.18D-04 MaxDP=3.48D-02 DE=-7.02D-02 OVMax= 1.25D-01

 Cycle  11  Pass 1  IDiag  1:
 RMSU=  3.75D-04    CP:  9.28D-01  5.63D-03  1.19D-01  4.20D-01  2.90D-01
                    CP:  4.45D-01  2.12D-01  7.91D-01  6.96D-01  6.10D-01
 E= -7706.07038490627     Delta-E=       -0.047958925872 Rises=F Damp=F
 DIIS: error= 8.29D-03 at cycle  11 NSaved=  11.
 NSaved=11 IEnMin=11 EnMin= -7706.07038490627     IErMin=11 ErrMin= 8.29D-03
 ErrMax= 8.29D-03  0.00D+00 EMaxC= 1.00D-01 BMatC= 3.71D-02 BMatP= 2.78D-01
 IDIUse=3 WtCom= 9.17D-01 WtEn= 8.29D-02
 Coeff-Com: -0.234D-01 0.497D-01-0.237D-02-0.168D-01-0.642D-02 0.322D-01
 Coeff-Com: -0.458D-02 0.599D-01 0.161D-02 0.659D-02 0.903D+00
 Coeff-En:   0.000D+00 0.000D+00 0.000D+00 0.000D+00 0.000D+00 0.000D+00
 Coeff-En:   0.000D+00 0.000D+00 0.000D+00 0.000D+00 0.100D+01
 Coeff:     -0.214D-01 0.456D-01-0.217D-02-0.154D-01-0.589D-02 0.295D-01
 Coeff:     -0.420D-02 0.550D-01 0.147D-02 0.604D-02 0.911D+00
 Gap=     0.107 Goal=   None    Shift=    0.000
 Gap=     0.036 Goal=   None    Shift=    0.000
 RMSDP=4.16D-04 MaxDP=2.23D-02 DE=-4.80D-02 OVMax= 6.48D-02

 Cycle  12  Pass 1  IDiag  1:
 RMSU=  3.01D-04    CP:  9.28D-01  6.06D-03  1.19D-01  4.15D-01  2.92D-01
                    CP:  4.55D-01  1.95D-01  7.79D-01  6.65D-01  7.58D-01
                    CP:  6.10D-01
 E= -7706.06886357364     Delta-E=        0.001521332631 Rises=F Damp=F
 DIIS: error= 8.04D-03 at cycle  12 NSaved=  12.
 NSaved=12 IEnMin=11 EnMin= -7706.07038490627     IErMin=12 ErrMin= 8.04D-03
 ErrMax= 8.04D-03  0.00D+00 EMaxC= 1.00D-01 BMatC= 4.41D-02 BMatP= 3.71D-02
 IDIUse=3 WtCom= 9.17D-01 WtEn= 8.29D-02
 Coeff-Com: -0.742D-02 0.155D-01 0.581D-04-0.342D-02-0.104D-02 0.559D-02
 Coeff-Com: -0.235D-03-0.386D-02-0.174D+00-0.384D+00 0.769D+00 0.783D+00
 Coeff-En:   0.000D+00 0.000D+00 0.000D+00 0.000D+00 0.000D+00 0.000D+00
 Coeff-En:   0.000D+00 0.000D+00 0.000D+00 0.000D+00 0.591D+00 0.409D+00
 Coeff:     -0.681D-02 0.142D-01 0.533D-04-0.314D-02-0.951D-03 0.513D-02
 Coeff:     -0.215D-03-0.354D-02-0.159D+00-0.352D+00 0.755D+00 0.752D+00
 Gap=     0.117 Goal=   None    Shift=    0.000
 Gap=     0.042 Goal=   None    Shift=    0.000
 RMSDP=3.26D-04 MaxDP=2.29D-02 DE= 1.52D-03 OVMax= 4.75D-02

 Cycle  13  Pass 1  IDiag  1:
 RMSU=  1.59D-04    CP:  9.28D-01  4.59D-03  1.15D-01  4.12D-01  2.81D-01
                    CP:  4.61D-01  1.99D-01  7.91D-01  6.38D-01  6.63D-01
                    CP:  1.19D+00  8.92D-01
 E= -7706.07733406577     Delta-E=       -0.008470492134 Rises=F Damp=F
 DIIS: error= 1.29D-03 at cycle  13 NSaved=  13.
 NSaved=13 IEnMin=13 EnMin= -7706.07733406577     IErMin=13 ErrMin= 1.29D-03
 ErrMax= 1.29D-03  0.00D+00 EMaxC= 1.00D-01 BMatC= 1.96D-03 BMatP= 3.71D-02
 IDIUse=3 WtCom= 9.87D-01 WtEn= 1.29D-02
 Coeff-Com: -0.455D-02 0.822D-02 0.236D-03-0.494D-03-0.836D-04 0.233D-03
 Coeff-Com:  0.762D-04-0.922D-02-0.799D-01-0.178D+00 0.358D+00 0.390D+00
 Coeff-Com:  0.516D+00
 Coeff-En:   0.000D+00 0.000D+00 0.000D+00 0.000D+00 0.000D+00 0.000D+00
 Coeff-En:   0.000D+00 0.000D+00 0.000D+00 0.000D+00 0.000D+00 0.000D+00
 Coeff-En:   0.100D+01
 Coeff:     -0.449D-02 0.812D-02 0.233D-03-0.487D-03-0.826D-04 0.230D-03
 Coeff:      0.753D-04-0.911D-02-0.789D-01-0.176D+00 0.353D+00 0.385D+00
 Coeff:      0.523D+00
 Gap=     0.113 Goal=   None    Shift=    0.000
 Gap=     0.041 Goal=   None    Shift=    0.000
 RMSDP=9.90D-05 MaxDP=1.02D-02 DE=-8.47D-03 OVMax= 1.79D-02

 Cycle  14  Pass 1  IDiag  1:
 RMSU=  6.09D-05    CP:  9.28D-01  5.79D-03  1.16D-01  4.13D-01  2.83D-01
                    CP:  4.63D-01  1.96D-01  7.82D-01  6.49D-01  6.85D-01
                    CP:  1.18D+00  9.19D-01  6.89D-01
 E= -7706.07780337582     Delta-E=       -0.000469310042 Rises=F Damp=F
 DIIS: error= 9.93D-04 at cycle  14 NSaved=  14.
 NSaved=14 IEnMin=14 EnMin= -7706.07780337582     IErMin=14 ErrMin= 9.93D-04
 ErrMax= 9.93D-04  0.00D+00 EMaxC= 1.00D-01 BMatC= 5.41D-04 BMatP= 1.96D-03
 IDIUse=3 WtCom= 9.90D-01 WtEn= 9.93D-03
 Coeff-Com: -0.142D-02 0.256D-02 0.126D-03-0.265D-05-0.266D-03-0.210D-02
 Coeff-Com:  0.681D-03-0.863D-02-0.249D-01-0.537D-01 0.778D-01 0.939D-01
 Coeff-Com:  0.296D+00 0.620D+00
 Coeff-En:   0.000D+00 0.000D+00 0.000D+00 0.000D+00 0.000D+00 0.000D+00
 Coeff-En:   0.000D+00 0.000D+00 0.000D+00 0.000D+00 0.000D+00 0.000D+00
 Coeff-En:   0.127D+00 0.873D+00
 Coeff:     -0.141D-02 0.253D-02 0.125D-03-0.263D-05-0.263D-03-0.208D-02
 Coeff:      0.674D-03-0.855D-02-0.246D-01-0.532D-01 0.770D-01 0.930D-01
 Coeff:      0.295D+00 0.622D+00
 Gap=     0.112 Goal=   None    Shift=    0.000
 Gap=     0.040 Goal=   None    Shift=    0.000
 RMSDP=4.30D-05 MaxDP=3.53D-03 DE=-4.69D-04 OVMax= 8.15D-03

 Cycle  15  Pass 1  IDiag  1:
 RMSU=  3.43D-05    CP:  9.28D-01  6.09D-03  1.16D-01  4.13D-01  2.82D-01
                    CP:  4.64D-01  1.94D-01  7.80D-01  6.48D-01  6.94D-01
                    CP:  1.21D+00  9.41D-01  7.63D-01  1.10D+00
 E= -7706.07789904358     Delta-E=       -0.000095667765 Rises=F Damp=F
 DIIS: error= 4.12D-04 at cycle  15 NSaved=  15.
 NSaved=15 IEnMin=15 EnMin= -7706.07789904358     IErMin=15 ErrMin= 4.12D-04
 ErrMax= 4.12D-04  0.00D+00 EMaxC= 1.00D-01 BMatC= 1.23D-04 BMatP= 5.41D-04
 IDIUse=3 WtCom= 9.96D-01 WtEn= 4.12D-03
 Coeff-Com: -0.656D-04 0.262D-03 0.613D-04-0.287D-03 0.601D-04-0.198D-02
 Coeff-Com:  0.485D-03-0.257D-02-0.300D-02-0.133D-01-0.708D-03-0.259D-02
 Coeff-Com:  0.923D-01 0.251D+00 0.681D+00
 Coeff-En:   0.000D+00 0.000D+00 0.000D+00 0.000D+00 0.000D+00 0.000D+00
 Coeff-En:   0.000D+00 0.000D+00 0.000D+00 0.000D+00 0.000D+00 0.000D+00
 Coeff-En:   0.000D+00 0.000D+00 0.100D+01
 Coeff:     -0.653D-04 0.260D-03 0.611D-04-0.286D-03 0.599D-04-0.197D-02
 Coeff:      0.483D-03-0.256D-02-0.299D-02-0.133D-01-0.705D-03-0.258D-02
 Coeff:      0.919D-01 0.250D+00 0.682D+00
 Gap=     0.112 Goal=   None    Shift=    0.000
 Gap=     0.041 Goal=   None    Shift=    0.000
 RMSDP=2.74D-05 MaxDP=1.79D-03 DE=-9.57D-05 OVMax= 8.37D-03

 Cycle  16  Pass 1  IDiag  1:
 RMSU=  1.92D-05    CP:  9.28D-01  6.09D-03  1.16D-01  4.13D-01  2.82D-01
                    CP:  4.64D-01  1.95D-01  7.81D-01  6.47D-01  6.92D-01
                    CP:  1.21D+00  9.65D-01  8.15D-01  1.31D+00  1.22D+00
 E= -7706.07793073065     Delta-E=       -0.000031687066 Rises=F Damp=F
 DIIS: error= 1.93D-04 at cycle  16 NSaved=  16.
 NSaved=16 IEnMin=16 EnMin= -7706.07793073065     IErMin=16 ErrMin= 1.93D-04
 ErrMax= 1.93D-04  0.00D+00 EMaxC= 1.00D-01 BMatC= 5.33D-05 BMatP= 1.23D-04
 IDIUse=3 WtCom= 9.98D-01 WtEn= 1.93D-03
 Coeff-Com: -0.105D-03 0.299D-03 0.134D-04-0.370D-03 0.263D-03-0.173D-02
 Coeff-Com:  0.204D-03 0.498D-03 0.368D-02-0.176D-02-0.739D-02-0.195D-01
 Coeff-Com:  0.160D-01 0.165D-01 0.454D+00 0.540D+00
 Coeff-En:   0.000D+00 0.000D+00 0.000D+00 0.000D+00 0.000D+00 0.000D+00
 Coeff-En:   0.000D+00 0.000D+00 0.000D+00 0.000D+00 0.000D+00 0.000D+00
 Coeff-En:   0.000D+00 0.000D+00 0.000D+00 0.100D+01
 Coeff:     -0.105D-03 0.299D-03 0.134D-04-0.369D-03 0.262D-03-0.173D-02
 Coeff:      0.204D-03 0.497D-03 0.367D-02-0.176D-02-0.737D-02-0.195D-01
 Coeff:      0.160D-01 0.165D-01 0.453D+00 0.541D+00
 Gap=     0.112 Goal=   None    Shift=    0.000
 Gap=     0.041 Goal=   None    Shift=    0.000
 RMSDP=1.79D-05 MaxDP=6.90D-04 DE=-3.17D-05 OVMax= 3.40D-03

 Cycle  17  Pass 1  IDiag  1:
 RMSU=  9.78D-06    CP:  9.28D-01  5.99D-03  1.16D-01  4.13D-01  2.82D-01
                    CP:  4.63D-01  1.95D-01  7.81D-01  6.48D-01  6.91D-01
                    CP:  1.21D+00  9.64D-01  8.33D-01  1.43D+00  1.57D+00
                    CP:  1.05D+00
 E= -7706.07794756457     Delta-E=       -0.000016833927 Rises=F Damp=F
 DIIS: error= 1.87D-04 at cycle  17 NSaved=  17.
 NSaved=17 IEnMin=17 EnMin= -7706.07794756457     IErMin=17 ErrMin= 1.87D-04
 ErrMax= 1.87D-04  0.00D+00 EMaxC= 1.00D-01 BMatC= 2.84D-05 BMatP= 5.33D-05
 IDIUse=3 WtCom= 9.98D-01 WtEn= 1.87D-03
 Coeff-Com:  0.217D-03-0.317D-03 0.202D-04-0.171D-03 0.845D-04-0.559D-03
 Coeff-Com:  0.121D-03 0.146D-02 0.110D-02-0.342D-02 0.967D-02 0.894D-03
 Coeff-Com: -0.552D-02-0.139D+00-0.241D+00 0.216D+00 0.116D+01
 Coeff-En:   0.000D+00 0.000D+00 0.000D+00 0.000D+00 0.000D+00 0.000D+00
 Coeff-En:   0.000D+00 0.000D+00 0.000D+00 0.000D+00 0.000D+00 0.000D+00
 Coeff-En:   0.000D+00 0.000D+00 0.000D+00 0.000D+00 0.100D+01
 Coeff:      0.216D-03-0.316D-03 0.202D-04-0.170D-03 0.844D-04-0.558D-03
 Coeff:      0.121D-03 0.145D-02 0.110D-02-0.342D-02 0.965D-02 0.893D-03
 Coeff:     -0.551D-02-0.138D+00-0.240D+00 0.216D+00 0.116D+01
 Gap=     0.113 Goal=   None    Shift=    0.000
 Gap=     0.041 Goal=   None    Shift=    0.000
 RMSDP=3.00D-05 MaxDP=1.83D-03 DE=-1.68D-05 OVMax= 1.02D-02

 Cycle  18  Pass 1  IDiag  1:
 RMSU=  9.62D-06    CP:  9.28D-01  5.95D-03  1.16D-01  4.13D-01  2.82D-01
                    CP:  4.63D-01  1.95D-01  7.83D-01  6.48D-01  6.87D-01
                    CP:  1.21D+00  9.80D-01  8.83D-01  1.65D+00  2.02D+00
                    CP:  1.80D+00  1.37D+00
 E= -7706.07796390834     Delta-E=       -0.000016343763 Rises=F Damp=F
 DIIS: error= 7.25D-05 at cycle  18 NSaved=  18.
 NSaved=18 IEnMin=18 EnMin= -7706.07796390834     IErMin=18 ErrMin= 7.25D-05
 ErrMax= 7.25D-05  0.00D+00 EMaxC= 1.00D-01 BMatC= 1.52D-05 BMatP= 2.84D-05
 IDIUse=1 WtCom= 1.00D+00 WtEn= 0.00D+00
 Coeff-Com:  0.276D-05-0.353D-04 0.312D-05 0.140D-04 0.346D-05-0.841D-04
 Coeff-Com: -0.298D-04 0.720D-03 0.891D-04-0.333D-03 0.139D-01 0.720D-02
 Coeff-Com: -0.120D-01-0.130D+00-0.443D+00-0.152D+00 0.112D+01 0.600D+00
 Coeff:      0.276D-05-0.353D-04 0.312D-05 0.140D-04 0.346D-05-0.841D-04
 Coeff:     -0.298D-04 0.720D-03 0.891D-04-0.333D-03 0.139D-01 0.720D-02
 Coeff:     -0.120D-01-0.130D+00-0.443D+00-0.152D+00 0.112D+01 0.600D+00
 Gap=     0.113 Goal=   None    Shift=    0.000
 Gap=     0.041 Goal=   None    Shift=    0.000
 RMSDP=2.02D-05 MaxDP=8.33D-04 DE=-1.63D-05 OVMax= 5.74D-03

 Cycle  19  Pass 1  IDiag  1:
 RMSU=  4.53D-06    CP:  9.28D-01  5.90D-03  1.16D-01  4.13D-01  2.82D-01
                    CP:  4.63D-01  1.95D-01  7.83D-01  6.48D-01  6.86D-01
                    CP:  1.21D+00  9.82D-01  9.10D-01  1.82D+00  2.37D+00
                    CP:  2.21D+00  2.07D+00  1.08D+00
 E= -7706.07797145575     Delta-E=       -0.000007547411 Rises=F Damp=F
 DIIS: error= 4.04D-05 at cycle  19 NSaved=  19.
 NSaved=19 IEnMin=19 EnMin= -7706.07797145575     IErMin=19 ErrMin= 4.04D-05
 ErrMax= 4.04D-05  0.00D+00 EMaxC= 1.00D-01 BMatC= 1.77D-06 BMatP= 1.52D-05
 IDIUse=1 WtCom= 1.00D+00 WtEn= 0.00D+00
 Coeff-Com: -0.397D-04 0.407D-04-0.223D-05 0.446D-04-0.323D-04 0.630D-04
 Coeff-Com: -0.585D-05 0.663D-04 0.666D-04 0.115D-02 0.523D-02 0.198D-02
 Coeff-Com: -0.798D-02-0.509D-01-0.164D+00-0.133D+00 0.457D+00 0.225D+00
 Coeff-Com:  0.665D+00
 Coeff:     -0.397D-04 0.407D-04-0.223D-05 0.446D-04-0.323D-04 0.630D-04
 Coeff:     -0.585D-05 0.663D-04 0.666D-04 0.115D-02 0.523D-02 0.198D-02
 Coeff:     -0.798D-02-0.509D-01-0.164D+00-0.133D+00 0.457D+00 0.225D+00
 Coeff:      0.665D+00
 Gap=     0.113 Goal=   None    Shift=    0.000
 Gap=     0.041 Goal=   None    Shift=    0.000
 RMSDP=5.93D-06 MaxDP=3.01D-04 DE=-7.55D-06 OVMax= 1.96D-03

 Cycle  20  Pass 1  IDiag  1:
 RMSU=  2.47D-06    CP:  9.28D-01  5.90D-03  1.16D-01  4.13D-01  2.82D-01
                    CP:  4.63D-01  1.95D-01  7.83D-01  6.48D-01  6.86D-01
                    CP:  1.21D+00  9.83D-01  9.19D-01  1.86D+00  2.46D+00
                    CP:  2.31D+00  2.25D+00  1.25D+00  1.18D+00
 E= -7706.07797259830     Delta-E=       -0.000001142553 Rises=F Damp=F
 DIIS: error= 1.75D-05 at cycle  20 NSaved=  20.
 NSaved=20 IEnMin=20 EnMin= -7706.07797259830     IErMin=20 ErrMin= 1.75D-05
 ErrMax= 1.75D-05  0.00D+00 EMaxC= 1.00D-01 BMatC= 7.17D-07 BMatP= 1.77D-06
 IDIUse=1 WtCom= 1.00D+00 WtEn= 0.00D+00
 Coeff-Com: -0.472D-04 0.689D-04-0.495D-05 0.313D-04-0.280D-04 0.381D-04
 Coeff-Com: -0.828D-05-0.762D-04 0.367D-03 0.173D-02-0.255D-02-0.305D-02
 Coeff-Com: -0.746D-02-0.507D-02 0.433D-01-0.495D-01-0.395D-02-0.103D+00
 Coeff-Com:  0.367D+00 0.762D+00
 Coeff:     -0.472D-04 0.689D-04-0.495D-05 0.313D-04-0.280D-04 0.381D-04
 Coeff:     -0.828D-05-0.762D-04 0.367D-03 0.173D-02-0.255D-02-0.305D-02
 Coeff:     -0.746D-02-0.507D-02 0.433D-01-0.495D-01-0.395D-02-0.103D+00
 Coeff:      0.367D+00 0.762D+00
 Gap=     0.113 Goal=   None    Shift=    0.000
 Gap=     0.041 Goal=   None    Shift=    0.000
 RMSDP=5.83D-06 MaxDP=2.94D-04 DE=-1.14D-06 OVMax= 2.01D-03

 Cycle  21  Pass 1  IDiag  1:
 Restarting incremental Fock formation.
 E= -7706.07797338587     Delta-E=       -0.000000787570 Rises=F Damp=F
 DIIS: error= 1.82D-05 at cycle  21 NSaved=  20.
 NSaved=20 IEnMin=20 EnMin= -7706.07797338587     IErMin=19 ErrMin= 1.75D-05
 ErrMax= 1.82D-05  0.00D+00 EMaxC= 1.00D-01 BMatC= 3.90D-07 BMatP= 7.17D-07
 IDIUse=1 WtCom= 1.00D+00 WtEn= 0.00D+00
 Coeff-Com: -0.226D-04 0.408D-04-0.185D-05-0.543D-05 0.803D-05 0.655D-05
 Coeff-Com:  0.571D-04 0.732D-04 0.190D-03-0.557D-02-0.347D-02-0.335D-02
 Coeff-Com:  0.148D-01 0.113D+00 0.172D-01-0.209D+00-0.226D+00-0.200D+00
 Coeff-Com:  0.479D+00 0.102D+01
 Coeff:     -0.226D-04 0.408D-04-0.185D-05-0.543D-05 0.803D-05 0.655D-05
 Coeff:      0.571D-04 0.732D-04 0.190D-03-0.557D-02-0.347D-02-0.335D-02
 Coeff:      0.148D-01 0.113D+00 0.172D-01-0.209D+00-0.226D+00-0.200D+00
 Coeff:      0.479D+00 0.102D+01
 Gap=     0.113 Goal=   None    Shift=    0.000
 Gap=     0.041 Goal=   None    Shift=    0.000
 RMSDP=8.32D-06 MaxDP=3.78D-04 DE=-7.88D-07 OVMax= 2.94D-03

 Cycle  22  Pass 1  IDiag  1:
 RMSU=  8.32D-06    CP:  1.00D+00
 E= -7706.07797401953     Delta-E=       -0.000000633663 Rises=F Damp=F
 DIIS: error= 1.16D-05 at cycle  22 NSaved=  20.
 NSaved=20 IEnMin=20 EnMin= -7706.07797401953     IErMin=20 ErrMin= 1.16D-05
 ErrMax= 1.16D-05  0.00D+00 EMaxC= 1.00D-01 BMatC= 1.17D-07 BMatP= 3.90D-07
 IDIUse=1 WtCom= 1.00D+00 WtEn= 0.00D+00
 Coeff-Com:  0.254D-05-0.902D-05-0.417D-06-0.884D-05 0.463D-05 0.397D-04
 Coeff-Com: -0.739D-04-0.234D-03-0.256D-02-0.139D-02-0.924D-03 0.606D-02
 Coeff-Com:  0.495D-01 0.864D-02-0.100D+00-0.105D+00-0.145D+00 0.125D+00
 Coeff-Com:  0.507D+00 0.658D+00
 Coeff:      0.254D-05-0.902D-05-0.417D-06-0.884D-05 0.463D-05 0.397D-04
 Coeff:     -0.739D-04-0.234D-03-0.256D-02-0.139D-02-0.924D-03 0.606D-02
 Coeff:      0.495D-01 0.864D-02-0.100D+00-0.105D+00-0.145D+00 0.125D+00
 Coeff:      0.507D+00 0.658D+00
 Gap=     0.113 Goal=   None    Shift=    0.000
 Gap=     0.041 Goal=   None    Shift=    0.000
 RMSDP=2.68D-06 MaxDP=1.24D-04 DE=-6.34D-07 OVMax= 9.74D-04

 Cycle  23  Pass 1  IDiag  1:
 RMSU=  7.77D-07    CP:  1.00D+00  1.31D+00
 E= -7706.07797413058     Delta-E=       -0.000000111049 Rises=F Damp=F
 DIIS: error= 3.66D-06 at cycle  23 NSaved=  20.
 NSaved=20 IEnMin=20 EnMin= -7706.07797413058     IErMin=20 ErrMin= 3.66D-06
 ErrMax= 3.66D-06  0.00D+00 EMaxC= 1.00D-01 BMatC= 3.50D-08 BMatP= 1.17D-07
 IDIUse=1 WtCom= 1.00D+00 WtEn= 0.00D+00
 Coeff-Com: -0.711D-05 0.430D-05-0.164D-04 0.228D-05-0.425D-04-0.173D-03
 Coeff-Com: -0.434D-03 0.193D-02 0.136D-02 0.268D-02-0.207D-02-0.287D-01
 Coeff-Com: -0.112D-01 0.536D-01 0.512D-01 0.537D-01-0.155D+00-0.312D+00
 Coeff-Com:  0.348D+00 0.997D+00
 Coeff:     -0.711D-05 0.430D-05-0.164D-04 0.228D-05-0.425D-04-0.173D-03
 Coeff:     -0.434D-03 0.193D-02 0.136D-02 0.268D-02-0.207D-02-0.287D-01
 Coeff:     -0.112D-01 0.536D-01 0.512D-01 0.537D-01-0.155D+00-0.312D+00
 Coeff:      0.348D+00 0.997D+00
 Gap=     0.113 Goal=   None    Shift=    0.000
 Gap=     0.041 Goal=   None    Shift=    0.000
 RMSDP=2.04D-06 MaxDP=1.17D-04 DE=-1.11D-07 OVMax= 6.40D-04

 Cycle  24  Pass 1  IDiag  1:
 RMSU=  1.04D-06    CP:  1.00D+00  1.51D+00  1.66D+00
 E= -7706.07797420073     Delta-E=       -0.000000070151 Rises=F Damp=F
 DIIS: error= 3.82D-06 at cycle  24 NSaved=  20.
 NSaved=20 IEnMin=20 EnMin= -7706.07797420073     IErMin=19 ErrMin= 3.66D-06
 ErrMax= 3.82D-06  0.00D+00 EMaxC= 1.00D-01 BMatC= 2.46D-08 BMatP= 3.50D-08
 IDIUse=1 WtCom= 1.00D+00 WtEn= 0.00D+00
 Coeff-Com: -0.161D-05-0.115D-04 0.112D-05-0.776D-04-0.129D-03-0.275D-03
 Coeff-Com:  0.278D-02 0.176D-02 0.309D-02-0.220D-02-0.389D-01-0.140D-01
 Coeff-Com:  0.810D-01 0.739D-01 0.112D+00-0.152D+00-0.457D+00-0.785D-01
 Coeff-Com:  0.738D+00 0.731D+00
 Coeff:     -0.161D-05-0.115D-04 0.112D-05-0.776D-04-0.129D-03-0.275D-03
 Coeff:      0.278D-02 0.176D-02 0.309D-02-0.220D-02-0.389D-01-0.140D-01
 Coeff:      0.810D-01 0.739D-01 0.112D+00-0.152D+00-0.457D+00-0.785D-01
 Coeff:      0.738D+00 0.731D+00
 Gap=     0.113 Goal=   None    Shift=    0.000
 Gap=     0.041 Goal=   None    Shift=    0.000
 RMSDP=1.20D-06 MaxDP=6.86D-05 DE=-7.02D-08 OVMax= 2.99D-04

 Cycle  25  Pass 1  IDiag  1:
 RMSU=  4.64D-07    CP:  1.00D+00  1.59D+00  2.43D+00  1.62D+00
 E= -7706.07797422927     Delta-E=       -0.000000028538 Rises=F Damp=F
 DIIS: error= 3.75D-06 at cycle  25 NSaved=  20.
 NSaved=20 IEnMin=20 EnMin= -7706.07797422927     IErMin=18 ErrMin= 3.66D-06
 ErrMax= 3.75D-06  0.00D+00 EMaxC= 1.00D-01 BMatC= 1.19D-08 BMatP= 2.46D-08
 IDIUse=1 WtCom= 1.00D+00 WtEn= 0.00D+00
 Coeff-Com: -0.419D-05 0.384D-06-0.156D-04 0.183D-04-0.567D-06 0.102D-02
 Coeff-Com:  0.502D-03 0.829D-03-0.712D-03-0.110D-01-0.280D-02 0.302D-01
 Coeff-Com:  0.210D-01 0.400D-01-0.514D-01-0.167D+00-0.153D+00 0.126D+00
 Coeff-Com:  0.459D+00 0.708D+00
 Coeff:     -0.419D-05 0.384D-06-0.156D-04 0.183D-04-0.567D-06 0.102D-02
 Coeff:      0.502D-03 0.829D-03-0.712D-03-0.110D-01-0.280D-02 0.302D-01
 Coeff:      0.210D-01 0.400D-01-0.514D-01-0.167D+00-0.153D+00 0.126D+00
 Coeff:      0.459D+00 0.708D+00
 Gap=     0.113 Goal=   None    Shift=    0.000
 Gap=     0.041 Goal=   None    Shift=    0.000
 RMSDP=7.26D-07 MaxDP=4.48D-05 DE=-2.85D-08 OVMax= 2.04D-04

 Cycle  26  Pass 1  IDiag  1:
 RMSU=  1.90D-07    CP:  1.00D+00  1.65D+00  2.76D+00  2.01D+00  1.20D+00
 E= -7706.07797423740     Delta-E=       -0.000000008129 Rises=F Damp=F
 DIIS: error= 2.63D-06 at cycle  26 NSaved=  20.
 NSaved=20 IEnMin=20 EnMin= -7706.07797423740     IErMin=20 ErrMin= 2.63D-06
 ErrMax= 2.63D-06  0.00D+00 EMaxC= 1.00D-01 BMatC= 4.20D-09 BMatP= 1.19D-08
 IDIUse=1 WtCom= 1.00D+00 WtEn= 0.00D+00
 Coeff-Com:  0.117D-05 0.730D-05 0.389D-04 0.685D-04-0.135D-04-0.140D-03
 Coeff-Com: -0.266D-03 0.124D-03 0.331D-02 0.985D-03 0.722D-03-0.727D-02
 Coeff-Com: -0.482D-02-0.721D-04 0.126D-01-0.470D-01-0.834D-01 0.671D-01
 Coeff-Com:  0.332D+00 0.726D+00
 Coeff:      0.117D-05 0.730D-05 0.389D-04 0.685D-04-0.135D-04-0.140D-03
 Coeff:     -0.266D-03 0.124D-03 0.331D-02 0.985D-03 0.722D-03-0.727D-02
 Coeff:     -0.482D-02-0.721D-04 0.126D-01-0.470D-01-0.834D-01 0.671D-01
 Coeff:      0.332D+00 0.726D+00
 Gap=     0.113 Goal=   None    Shift=    0.000
 Gap=     0.041 Goal=   None    Shift=    0.000
 RMSDP=2.41D-07 MaxDP=1.47D-05 DE=-8.13D-09 OVMax= 6.29D-05

 Cycle  27  Pass 1  IDiag  1:
 RMSU=  1.22D-07    CP:  1.00D+00  1.67D+00  2.87D+00  2.12D+00  1.30D+00
                    CP:  1.17D+00
 E= -7706.07797423925     Delta-E=       -0.000000001844 Rises=F Damp=F
 DIIS: error= 1.54D-06 at cycle  27 NSaved=  20.
 NSaved=20 IEnMin=20 EnMin= -7706.07797423925     IErMin=20 ErrMin= 1.54D-06
 ErrMax= 1.54D-06  0.00D+00 EMaxC= 1.00D-01 BMatC= 1.58D-09 BMatP= 4.20D-09
 IDIUse=1 WtCom= 1.00D+00 WtEn= 0.00D+00
 Coeff-Com:  0.580D-05 0.119D-04 0.443D-04-0.292D-03-0.244D-03-0.424D-03
 Coeff-Com:  0.388D-04 0.458D-02 0.412D-03-0.508D-02-0.108D-01-0.173D-01
 Coeff-Com:  0.138D-01 0.617D-01 0.404D-01-0.700D-01-0.132D+00-0.129D+00
 Coeff-Com:  0.324D+00 0.920D+00
 Coeff:      0.580D-05 0.119D-04 0.443D-04-0.292D-03-0.244D-03-0.424D-03
 Coeff:      0.388D-04 0.458D-02 0.412D-03-0.508D-02-0.108D-01-0.173D-01
 Coeff:      0.138D-01 0.617D-01 0.404D-01-0.700D-01-0.132D+00-0.129D+00
 Coeff:      0.324D+00 0.920D+00
 Gap=     0.113 Goal=   None    Shift=    0.000
 Gap=     0.041 Goal=   None    Shift=    0.000
 RMSDP=1.57D-07 MaxDP=9.21D-06 DE=-1.84D-09 OVMax= 3.37D-05

 Cycle  28  Pass 1  IDiag  1:
 RMSU=  9.19D-08    CP:  1.00D+00  1.67D+00  2.90D+00  2.16D+00  1.38D+00
                    CP:  1.54D+00  1.64D+00
 E= -7706.07797424015     Delta-E=       -0.000000000904 Rises=F Damp=F
 DIIS: error= 4.42D-07 at cycle  28 NSaved=  20.
 NSaved=20 IEnMin=20 EnMin= -7706.07797424015     IErMin=20 ErrMin= 4.42D-07
 ErrMax= 4.42D-07  0.00D+00 EMaxC= 1.00D-01 BMatC= 6.48D-10 BMatP= 1.58D-09
 IDIUse=1 WtCom= 1.00D+00 WtEn= 0.00D+00
 Coeff-Com: -0.618D-05 0.220D-04-0.144D-03-0.983D-04-0.319D-03-0.656D-03
 Coeff-Com: -0.299D-05-0.163D-02 0.182D-03-0.332D-02-0.572D-02 0.561D-02
 Coeff-Com:  0.259D-01 0.433D-01-0.606D-02-0.111D+00-0.245D+00-0.103D+00
 Coeff-Com:  0.679D+00 0.723D+00
 Coeff:     -0.618D-05 0.220D-04-0.144D-03-0.983D-04-0.319D-03-0.656D-03
 Coeff:     -0.299D-05-0.163D-02 0.182D-03-0.332D-02-0.572D-02 0.561D-02
 Coeff:      0.259D-01 0.433D-01-0.606D-02-0.111D+00-0.245D+00-0.103D+00
 Coeff:      0.679D+00 0.723D+00
 Gap=     0.113 Goal=   None    Shift=    0.000
 Gap=     0.041 Goal=   None    Shift=    0.000
 RMSDP=2.36D-07 MaxDP=1.17D-05 DE=-9.04D-10 OVMax= 7.89D-05

 Cycle  29  Pass 1  IDiag  1:
 RMSU=  6.03D-08    CP:  1.00D+00  1.70D+00  2.92D+00  2.16D+00  1.39D+00
                    CP:  1.81D+00  2.25D+00  1.17D+00
 E= -7706.07797424061     Delta-E=       -0.000000000458 Rises=F Damp=F
 DIIS: error= 5.73D-07 at cycle  29 NSaved=  20.
 NSaved=20 IEnMin=20 EnMin= -7706.07797424061     IErMin=19 ErrMin= 4.42D-07
 ErrMax= 5.73D-07  0.00D+00 EMaxC= 1.00D-01 BMatC= 1.87D-10 BMatP= 6.48D-10
 IDIUse=1 WtCom= 1.00D+00 WtEn= 0.00D+00
 Coeff-Com:  0.848D-05-0.390D-04-0.192D-04-0.101D-03-0.342D-03-0.619D-03
 Coeff-Com: -0.112D-02 0.122D-02-0.417D-03 0.341D-02 0.453D-02 0.271D-02
 Coeff-Com: -0.312D-02-0.491D-02-0.118D-01-0.504D-01-0.785D-01 0.608D-01
 Coeff-Com:  0.171D+00 0.907D+00
 Coeff:      0.848D-05-0.390D-04-0.192D-04-0.101D-03-0.342D-03-0.619D-03
 Coeff:     -0.112D-02 0.122D-02-0.417D-03 0.341D-02 0.453D-02 0.271D-02
 Coeff:     -0.312D-02-0.491D-02-0.118D-01-0.504D-01-0.785D-01 0.608D-01
 Coeff:      0.171D+00 0.907D+00
 Gap=     0.113 Goal=   None    Shift=    0.000
 Gap=     0.041 Goal=   None    Shift=    0.000
 RMSDP=5.89D-08 MaxDP=2.90D-06 DE=-4.58D-10 OVMax= 1.33D-05

 Cycle  30  Pass 1  IDiag  1:
 RMSU=  2.52D-08    CP:  1.00D+00  1.70D+00  2.92D+00  2.16D+00  1.39D+00
                    CP:  1.92D+00  2.46D+00  1.31D+00  1.52D+00
 E= -7706.07797424069     Delta-E=       -0.000000000078 Rises=F Damp=F
 DIIS: error= 3.72D-07 at cycle  30 NSaved=  20.
 NSaved=20 IEnMin=20 EnMin= -7706.07797424069     IErMin=20 ErrMin= 3.72D-07
 ErrMax= 3.72D-07  0.00D+00 EMaxC= 1.00D-01 BMatC= 6.96D-11 BMatP= 1.87D-10
 IDIUse=1 WtCom= 1.00D+00 WtEn= 0.00D+00
 Coeff-Com: -0.131D-04-0.325D-05 0.138D-04-0.331D-04-0.223D-03-0.379D-03
 Coeff-Com:  0.279D-03 0.348D-03 0.301D-02 0.176D-02-0.256D-02-0.674D-02
 Coeff-Com:  0.171D-03 0.615D-02 0.309D-02-0.140D-01-0.631D-01-0.818D-01
 Coeff-Com:  0.417D+00 0.737D+00
 Coeff:     -0.131D-04-0.325D-05 0.138D-04-0.331D-04-0.223D-03-0.379D-03
 Coeff:      0.279D-03 0.348D-03 0.301D-02 0.176D-02-0.256D-02-0.674D-02
 Coeff:      0.171D-03 0.615D-02 0.309D-02-0.140D-01-0.631D-01-0.818D-01
 Coeff:      0.417D+00 0.737D+00
 Gap=     0.113 Goal=   None    Shift=    0.000
 Gap=     0.041 Goal=   None    Shift=    0.000
 RMSDP=2.75D-08 MaxDP=1.61D-06 DE=-7.82D-11 OVMax= 6.59D-06

 Cycle  31  Pass 1  IDiag  1:
 RMSU=  1.50D-08    CP:  1.00D+00  1.70D+00  2.92D+00  2.16D+00  1.39D+00
                    CP:  1.95D+00  2.57D+00  1.39D+00  1.71D+00  1.19D+00
 E= -7706.07797424076     Delta-E=       -0.000000000073 Rises=F Damp=F
 DIIS: error= 2.17D-07 at cycle  31 NSaved=  20.
 NSaved=20 IEnMin=20 EnMin= -7706.07797424076     IErMin=20 ErrMin= 2.17D-07
 ErrMax= 2.17D-07  0.00D+00 EMaxC= 1.00D-01 BMatC= 2.24D-11 BMatP= 6.96D-11
 IDIUse=1 WtCom= 1.00D+00 WtEn= 0.00D+00
 Coeff-Com: -0.967D-06 0.580D-04 0.175D-03 0.265D-03 0.281D-03-0.578D-03
 Coeff-Com:  0.200D-03 0.753D-03 0.408D-03-0.255D-02-0.751D-02-0.196D-02
 Coeff-Com:  0.144D-01 0.367D-01 0.340D-01-0.743D-01-0.146D+00-0.146D+00
 Coeff-Com:  0.343D+00 0.949D+00
 Coeff:     -0.967D-06 0.580D-04 0.175D-03 0.265D-03 0.281D-03-0.578D-03
 Coeff:      0.200D-03 0.753D-03 0.408D-03-0.255D-02-0.751D-02-0.196D-02
 Coeff:      0.144D-01 0.367D-01 0.340D-01-0.743D-01-0.146D+00-0.146D+00
 Coeff:      0.343D+00 0.949D+00
 Gap=     0.113 Goal=   None    Shift=    0.000
 Gap=     0.041 Goal=   None    Shift=    0.000
 RMSDP=1.84D-08 MaxDP=1.24D-06 DE=-7.28D-11 OVMax= 2.64D-06

 Cycle  32  Pass 1  IDiag  1:
 RMSU=  8.49D-09    CP:  1.00D+00  1.70D+00  2.92D+00  2.16D+00  1.39D+00
                    CP:  1.97D+00  2.62D+00  1.44D+00  1.86D+00  1.55D+00
                    CP:  1.36D+00
 E= -7706.07797424074     Delta-E=        0.000000000015 Rises=F Damp=F
 DIIS: error= 1.30D-08 at cycle  32 NSaved=  20.
 NSaved=20 IEnMin=19 EnMin= -7706.07797424076     IErMin=20 ErrMin= 1.30D-08
 ErrMax= 1.30D-08  0.00D+00 EMaxC= 1.00D-01 BMatC= 6.11D-13 BMatP= 2.24D-11
 IDIUse=1 WtCom= 1.00D+00 WtEn= 0.00D+00
 Coeff-Com:  0.171D-04 0.557D-04 0.101D-03 0.141D-03-0.227D-03 0.603D-04
 Coeff-Com: -0.139D-03-0.494D-04-0.781D-03-0.132D-02 0.167D-03 0.378D-02
 Coeff-Com:  0.952D-02 0.945D-02-0.160D-01-0.349D-01-0.938D-01 0.419D-01
 Coeff-Com:  0.328D+00 0.754D+00
 Coeff:      0.171D-04 0.557D-04 0.101D-03 0.141D-03-0.227D-03 0.603D-04
 Coeff:     -0.139D-03-0.494D-04-0.781D-03-0.132D-02 0.167D-03 0.378D-02
 Coeff:      0.952D-02 0.945D-02-0.160D-01-0.349D-01-0.938D-01 0.419D-01
 Coeff:      0.328D+00 0.754D+00
 Gap=     0.113 Goal=   None    Shift=    0.000
 Gap=     0.041 Goal=   None    Shift=    0.000
 RMSDP=4.93D-09 MaxDP=2.75D-07 DE= 1.46D-11 OVMax= 1.58D-06

 SCF Done:  E(UB3LYP) =  -7706.07797424     A.U. after   32 cycles
            NFock= 32  Conv=0.49D-08     -V/T= 2.0025
 <Sx>= 0.0000 <Sy>= 0.0000 <Sz>= 0.5000 <S**2>= 0.7697 S= 0.5098
 <L.S>=  0.00000000000    
 KE= 7.687237209167D+03 PE=-2.526332018932D+04 EE= 6.417941509293D+03
 Annihilation of the first spin contaminant:
 S**2 before annihilation     0.7697,   after     0.7503
 Leave Link  502 at Fri Mar  8 01:27:32 2024, MaxMem= 13421772800 cpu:            2782.9 elap:              87.5
 (Enter /public/software/apps/Gaussian/g16/l601.exe)
 Copying SCF densities to generalized density rwf, IOpCl= 1 IROHF=0.

 **********************************************************************

            Population analysis using the SCF Density.

 **********************************************************************

 Alpha  occ. eigenvalues -- -482.79418-482.79387-323.07573 -62.47584 -62.47553
 Alpha  occ. eigenvalues --  -56.30826 -56.30795 -56.30458 -56.30447 -56.30427
 Alpha  occ. eigenvalues --  -56.30415 -38.88256 -34.10225 -34.10149 -34.09466
 Alpha  occ. eigenvalues --  -19.13249 -19.13172 -10.24836 -10.24774 -10.24701
 Alpha  occ. eigenvalues --  -10.24679 -10.21054 -10.21043 -10.21003 -10.20997
 Alpha  occ. eigenvalues --  -10.20668 -10.20598 -10.19660 -10.19637 -10.19560
 Alpha  occ. eigenvalues --  -10.19529 -10.19496 -10.19475 -10.19454 -10.19433
 Alpha  occ. eigenvalues --  -10.19345 -10.19339  -8.69407  -8.69375  -6.52768
 Alpha  occ. eigenvalues --   -6.52737  -6.51461  -6.51431  -6.51429  -6.51399
 Alpha  occ. eigenvalues --   -4.34655  -2.84715  -2.84602  -2.82943  -2.64191
 Alpha  occ. eigenvalues --   -2.64160  -2.63823  -2.63802  -2.63792  -2.63771
[...]
 00149157,-0.00010846,0.00145179,-0.00268556,-0.00031326,-0.00247242,0.
 00640822,0.00035655,-0.00016562,0.00044524,-0.00018618,0.00015412,-0.0
 0064758,0.00002413,0.00000829,0.00011385,-0.00006487,0.00008202,-0.000
 20543,-0.00030873,0.00039420,-0.00039389,-0.00000374,0.00000082,0.0000
 0356,0.00000027,-0.00000218,-0.00000150,0.00000036,0.00000096,-0.00000
 091,0.00000163,-0.00000140,-0.00000864,0.00000202,-0.00001304,0.000013
 65,-0.03149632,0.11122786,0.06976545,0.00001204,0.00000054,-0.00014662
 ,0.00001356,-0.00003346,0.00016838,0.00002768,0.00001498,-0.00001434,0
 .00004924,-0.00001557,0.00003868,-0.00003220,0.00000710,0.00000642,-0.
 00001904,0.00001659,-0.00003392,0.00002136,-0.00000837,0.00004585,-0.0
 0003218,0.00000925,-0.00000209,0.00000260,-0.00000172,-0.00001723,-0.0
 0001041,-0.00000646,0.00001664,-0.00001270,0.00003352,-0.00002684,-0.0
 0015533,-0.00023024,-0.00009840,-0.00059351,0.00067499,0.00034453,0.00
 003098,0.00011403,0.00001961,-0.00000658,-0.00008862,-0.00003712,-0.00
 003036,-0.00004385,-0.00004654,-0.00137024,0.00144485,0.00030332,0.000
 83645,0.00279511,0.00084867,-0.01629672,0.00402507,0.00370188,-0.32471
 076,0.04732169,0.04848409,-0.00339667,-0.00076834,0.00072068,0.0014051
 1,0.00110926,0.00109386,0.00074311,-0.00032773,-0.00029141,-0.00049808
 ,-0.00354688,-0.00055545,-0.00000433,0.00000062,-0.00000045,-0.0000017
 2,0.00000022,0.00000191,-0.00000136,0.00000032,0.00000336,0.00000201,-
 0.00000093,0.00000728,-0.00000203,0.00000655,-0.00000774,0.00001303,-0
 .00006934,0.00000313,0.34354155,-0.00003781,0.00007670,0.00004795,0.00
 000408,-0.00000782,-0.00009632,-0.00000648,0.00002270,0.00001436,0.000
 00366,-0.00000495,-0.00000891,-0.00000747,0.00000112,0.00000353,-0.000
 00167,0.00001200,0.00001217,0.00000272,-0.00000234,-0.00000839,0.00001
 104,-0.00000307,0.00000979,-0.00000956,-0.00000152,0.00001435,-0.00000
 248,-0.00000726,0.00000058,0.00000636,0.00003543,-0.00002565,-0.000104
 60,-0.00026990,-0.00004034,-0.00102032,0.00046382,0.00026483,-0.000360
 11,0.00012932,0.00014898,0.00026769,-0.00001163,0.00005397,0.00060842,
 0.00010189,-0.00001167,-0.00161882,0.00056060,0.00138618,0.00150146,-0
 .00347660,-0.00132693,-0.02109310,0.00816828,0.00370180,0.04785450,-0.
 06392599,-0.01396072,0.02812290,-0.00065187,-0.00510289,0.00018150,-0.
 00371268,-0.00376691,-0.00036967,-0.00068678,0.00000349,-0.00222672,-0
 .00298024,-0.00251289,-0.00000065,0.00000012,-0.00000018,-0.00000081,-
 0.00000008,0.00000072,0.00000048,0.00000019,0.00000074,0.00000003,0.00
 000093,0.00000466,-0.00000147,0.00000963,-0.00000280,-0.00004969,0.000
 01454,-0.00007481,-0.05269350,0.06563637,0.00006896,-0.00008211,-0.000
 01382,-0.00008342,0.00003525,0.00011981,-0.00002138,0.00000446,-0.0000
 0572,-0.00004861,0.00001043,-0.00004566,0.00000789,-0.00000212,-0.0000
 0131,0.00001358,0.00000448,0.00004174,-0.00003764,0.00001423,-0.000063
 74,0.00004330,-0.00001138,-0.00000040,-0.00000043,0.00000639,0.0000276
 0,0.00003457,-0.00000549,-0.00002842,-0.00004594,-0.00001992,-0.000020
 43,-0.00004502,-0.00010368,0.00006220,0.00004410,0.00011819,0.00025463
 ,-0.00012779,0.00037260,-0.00003218,-0.00008805,-0.00017554,-0.0000843
 0,0.00014330,0.00004594,-0.00007927,-0.00074216,0.00116673,-0.00255112
 ,0.00038961,-0.00148827,-0.00058994,-0.00459222,0.00090797,0.00495570,
 0.04882239,-0.01384922,-0.04873049,0.01043388,-0.00185276,0.00311567,0
 .00072041,-0.00399835,0.00618051,-0.00018485,-0.00011476,-0.00059264,-
 0.00042464,-0.00233638,0.00432575,-0.00000614,0.00000032,0.00000191,0.
 00000029,0.00000057,-0.00000013,0.00000046,-0.00000049,-0.00000111,-0.
 00000087,0.00000176,-0.00000859,0.00000188,-0.00000695,-0.00000018,0.0
 0000825,-0.00008355,0.00022394,-0.05393030,0.01942104,0.03842748,-0.00
 003416,0.00004824,-0.00006293,0.00007225,-0.00001842,0.00004397,0.0000
 0343,-0.00000167,0.00002077,0.00005176,-0.00000901,0.00000064,-0.00003
 817,0.00001024,0.00000826,-0.00000515,-0.00000207,-0.00001284,0.000008
 91,0.00000053,0.00000492,-0.00000191,0.00000296,0.00000122,-0.00000373
 ,-0.00000118,-0.00000850,-0.00000426,0.00000662,-0.00000864,0.00000578
 ,-0.00002571,-0.00007972,-0.00006826,-0.00005614,0.00002659,-0.0000010
 0,-0.00008660,-0.00008553,-0.00021866,-0.00008280,0.00003313,0.0001309
 8,0.00003346,0.00004656,0.00016779,0.00016950,-0.00001392,0.00034758,-
 0.00001344,-0.00001602,0.00001328,-0.00006067,-0.00000065,0.00029185,0
 .00216911,0.00159729,0.00990259,0.00828900,0.00210140,-0.18899590,-0.1
 3683427,-0.02846272,-0.01458465,-0.02347624,-0.00572349,-0.00472284,0.
 00244572,0.00191882,-0.00000796,0.00093101,0.00022117,0.00000042,-0.00
 000008,-0.00000213,-0.00000280,-0.00000003,0.00000103,-0.00000293,-0.0
 0000071,0.00000581,0.00000281,-0.00000383,0.00000632,-0.00000437,0.000
 01275,-0.00000573,0.00002486,0.00003969,0.00000300,0.00075947,-0.00017
 887,-0.00070304,0.19629780,-0.00002554,0.00001843,-0.00013305,0.000057
 44,-0.00003211,0.00009936,0.00004027,0.00001489,-0.00001524,0.00007350
 ,-0.00002489,0.00006728,-0.00003347,0.00000766,0.00000538,-0.00002465,
 0.00000436,-0.00006171,0.00004043,-0.00001209,0.00008646,-0.00005881,0
 .00001735,-0.00000473,-0.00000145,0.00000435,-0.00003495,-0.00001625,-
 0.00000711,0.00001715,0.00000195,0.00001522,0.00002897,-0.00010123,0.0
 0003248,-0.00006615,-0.00000913,0.00026388,0.00031734,0.00025216,-0.00
 015566,-0.00009883,0.00000421,0.00008735,0.00002989,0.00019072,-0.0005
 2151,-0.00006359,-0.00139800,-0.00012395,0.00003042,0.00007521,-0.0000
 0301,-0.00006809,0.00288078,-0.00250206,-0.00382384,-0.02088334,-0.015
 60811,-0.00422574,-0.13641730,-0.19881944,-0.03823849,0.00598030,0.007
 88730,0.00071488,0.00134110,0.00125217,-0.00157945,0.00063158,-0.00021
 379,0.00005767,0.00000058,-0.00000086,-0.00000241,-0.00000194,-0.00000
 008,0.00000150,-0.00000290,0.,0.00000409,0.00000339,-0.00000500,0.0000
 0831,0.00000523,0.00000391,-0.00000986,-0.00007533,-0.00007853,-0.0000
 0457,0.00031927,0.00068793,0.00181308,0.14729780,0.20732765,0.00001823
 ,-0.00002972,-0.00024070,0.00008174,-0.00006223,0.00024446,0.00004362,
 -0.00001705,-0.00002338,0.00004060,-0.00000386,0.00007331,-0.00002141,
 0.00000492,0.00000160,-0.00006362,0.00003300,-0.00004146,0.00000957,-0
 .00000762,0.00004171,-0.00004395,0.00000669,-0.00001333,0.00003628,-0.
 00001690,-0.00003138,0.00001001,0.00000823,0.00005721,0.00002522,0.000
 04929,-0.00011400,-0.00012502,-0.00017519,-0.00006994,-0.00039370,0.00
 029620,-0.00045756,0.00018199,-0.00013132,0.00006367,-0.00004987,0.000
 08856,-0.00000123,0.00011404,0.00006657,-0.00050408,-0.00050542,-0.000
 24486,0.00028687,0.00007494,-0.00005356,0.00015075,0.00170732,-0.00381
 077,0.00648085,-0.00755487,-0.00743070,0.00259355,-0.02845825,-0.03813
 161,-0.04718861,0.00437586,0.00390098,0.00464577,0.00149593,-0.0017028
 5,0.00474528,0.00021599,0.00025885,-0.00060557,-0.00000139,0.00000197,
 -0.00000104,-0.00000047,-0.00000052,0.00000061,0.00000164,0.00000243,0
 .00000028,0.00000239,0.00000624,-0.00000441,0.00000328,0.00000348,0.00
 001416,-0.00004658,0.00000295,-0.00006701,-0.00054478,0.00184776,-0.00
 417306,0.02972536,0.04395632,0.03666403,0.00001957,-0.00003969,0.00012
 066,-0.00011488,0.00003310,-0.00006181,-0.00003334,0.00000066,-0.00001
 297,-0.00005384,0.00001466,-0.00005498,0.00001199,0.00000179,-0.000000
 08,0.00003011,-0.00000497,0.00004977,-0.00003925,0.00001526,-0.0000434
 3,0.00004218,-0.00000497,0.00000612,-0.00000830,0.00000530,0.00003358,
 0.00002803,-0.00000130,-0.00002653,-0.00003741,0.00001811,0.00002145,0
 .00025183,-0.00002166,0.00004471,0.00078149,-0.00059723,-0.00033754,-0
 .00004668,0.00004691,-0.00005044,-0.00017584,-0.00027531,-0.00019177,-
 0.00026713,-0.00005578,0.00003692,0.00002293,0.00041896,0.00007121,0.0
 0011008,0.00005698,0.00000128,-0.00067948,-0.00086871,-0.00029510,-0.0
 0544189,-0.00006335,0.00122546,-0.00336125,0.02836552,0.01011791,-0.08
 223219,0.07237203,0.02873379,0.01015872,-0.02078724,-0.00745301,-0.002
 82151,-0.00313007,0.00036182,-0.00000909,-0.00000241,0.00000189,-0.000
 00170,-0.00000291,0.00000202,-0.00000065,-0.00000173,-0.00000122,-0.00
 000362,0.00000101,-0.00000542,-0.00001357,0.00001201,-0.00001532,0.000
 00361,-0.00000043,0.00000674,-0.00018885,0.00119781,0.00045642,0.00128
 907,-0.00043593,-0.00065511,0.08181759,-0.00003675,0.00006085,-0.00065
 774,0.00035414,-0.00022076,0.00057482,0.00017920,0.00003722,-0.0000481
 2,0.00023443,-0.00005894,0.00028340,-0.00010856,0.00002625,0.00001808,
 -0.00011592,0.00003245,-0.00026471,0.00014465,-0.00004298,0.00031304,-
 0.00023283,0.00007372,-0.00000710,0.00005071,0.00001042,-0.00010143,-0
 .00004854,0.00003917,0.00007383,0.00007061,0.00005140,-0.00007079,-0.0
 0051842,0.00005540,-0.00035294,0.00046712,-0.00014570,-0.00005047,-0.0
 0020330,-0.00073239,0.00011835,0.00026860,0.00034063,0.00007015,0.0001
 4224,0.00001045,-0.00014132,0.00006021,-0.00028682,0.00012494,0.000024
 06,-0.00003876,0.00000920,-0.00035620,0.00069666,0.00041738,0.00087139
 ,0.00152042,-0.00139492,-0.00136215,-0.00092537,-0.00133456,0.07201868
 ,-0.28224734,-0.08797517,0.00845423,-0.01579633,-0.00759499,-0.0039701
 5,-0.00017160,-0.00236636,0.00000342,-0.00000598,-0.00001070,-0.000008
 72,-0.00000634,0.00000422,-0.00000597,-0.00000678,0.00001088,0.0000129
 1,-0.00002139,0.00002405,0.00001461,-0.00001250,0.00001476,0.00001257,
 -0.00000059,-0.00001777,-0.00013256,-0.00013179,-0.00007528,0.00042119
 ,0.00026333,0.00106447,-0.07690598,0.29712553,-0.00004414,0.00011412,-
 0.00029449,0.00016357,-0.00013006,0.00014441,0.00010573,0.00003034,-0.
 00002652,0.00012582,-0.00003771,0.00015802,-0.00004318,0.00000875,0.00
 000155,-0.00010989,0.00002270,-0.00008457,0.00005267,-0.00001543,0.000
 11395,-0.00007714,0.00001460,-0.00001997,0.00001084,-0.00002633,-0.000
 04595,0.00001080,-0.00000583,0.00005869,0.00005464,0.00009768,-0.00004
 435,-0.00017546,-0.00006848,0.00016765,-0.00006220,0.00020248,0.000210
 56,0.00003918,-0.00038144,-0.00075791,0.00015137,0.00019889,0.00011106
 ,-0.00009609,-0.00004502,0.00008623,-0.00006702,0.00023626,-0.00061590
 ,-0.00001588,-0.00000364,-0.00004596,-0.00008750,0.00042021,-0.0003468
 5,0.00145611,-0.00134630,0.00493420,0.00033136,-0.00471834,0.00200257,
 0.02874420,-0.08805276,-0.07073960,0.00203140,-0.00414570,0.00277113,0
 .00025634,-0.00256038,0.00759458,0.00000711,-0.00000478,-0.00000761,-0
 .00000160,-0.00000121,0.00000236,0.00000253,0.00000456,0.00000080,0.00
 000438,0.00000975,-0.00000350,0.00001109,0.00002024,0.00000784,0.00000
 203,-0.00001346,0.00003448,-0.00000567,-0.00022566,0.00007920,-0.00036
 320,0.00118284,-0.00270515,-0.03163592,0.09752289,0.06165667,0.0000478
 6,0.00010615,0.00020981,-0.00008700,-0.00051599,-0.00008591,-0.0000578
 2,0.00012018,0.00002871,-0.00016040,0.00011127,-0.00014254,0.00002874,
 -0.00000312,-0.00001248,0.00042708,-0.00020708,0.00002385,-0.00003813,
 0.00007172,0.00001886,0.00003238,-0.00000834,-0.00003447,-0.00002645,-
 0.00000119,-0.00008972,-0.00027401,-0.00008040,-0.00028033,-0.00091147
 ,-0.00201407,0.00070857,-0.00050284,-0.00177410,-0.00027258,-0.0007845
 0,-0.00086692,-0.00040114,-0.00012735,0.00028755,0.00004082,0.00000329
 ,-0.00014046,-0.00002834,0.00004329,0.00004171,0.00004250,-0.00027244,
 -0.00013658,-0.00011576,-0.00001937,0.00003502,0.00006472,0.00104848,0
 .00094742,0.00082958,0.00080752,-0.00012952,-0.00022452,-0.00046179,-0
 .00386493,-0.00010875,-0.01526660,0.00593551,0.00400247,-0.32248121,0.
 05269668,0.05224133,-0.00431980,0.00078856,0.00109727,-0.00000125,0.00
 000017,0.00000665,-0.00000097,-0.00000447,0.00000145,-0.00000418,0.000
 00910,-0.00000292,-0.00000885,0.00000705,-0.00000374,-0.00005040,0.000
 08670,0.00000632,-0.00000652,0.00000725,0.00001102,-0.00008799,0.00007
 834,-0.00011621,-0.00065739,0.00027783,0.00028809,0.00090216,0.0002362
 5,-0.00074693,0.34327192,-0.00016099,0.00020680,-0.00139675,0.00072618
 ,-0.00074407,0.00091427,0.00055039,0.00021485,-0.00015682,0.00051736,-
 0.00021346,0.00088186,-0.00005347,-0.00001230,-0.00001998,-0.00036050,
 0.00013422,-0.00069551,0.00046422,-0.00015969,0.00090529,-0.00067850,0
 .00014531,-0.00007321,0.00005587,0.00005110,-0.00035684,-0.00017783,-0
 .00002019,0.00032570,-0.00068325,-0.00106915,0.00102590,-0.00231993,-0
 .00071210,-0.00149965,-0.00049769,0.00189350,0.00194521,0.00017558,-0.
 00207010,-0.00025475,0.00098657,0.00187811,0.00056298,0.00083616,0.000
 01095,-0.00033564,0.00109266,-0.00091337,-0.00063743,0.00016079,-0.000
 23716,-0.00008376,0.00006253,-0.00300685,-0.00245945,-0.00034508,-0.00
 216320,-0.00045133,-0.00358357,-0.00166093,-0.00267998,-0.02284386,0.0
 0849026,0.00370169,0.05104682,-0.06565217,-0.01539478,0.02740932,-0.00
 141603,-0.00531705,0.00005276,-0.00000232,-0.00001876,0.00000762,0.000
 00259,-0.00000960,0.00001244,0.00000956,-0.00000959,0.00002617,-0.0000
 1558,0.00000881,0.00008516,-0.00005832,0.00011116,0.00001966,0.0000125
 4,-0.00001571,0.00006621,-0.00003954,0.00027104,-0.00103739,0.00021144
 ,0.00019076,0.00064851,0.00048344,0.00171705,-0.05209857,0.06640501,0.
 00016370,-0.00007261,-0.00135546,0.00020461,-0.00056371,0.00120040,0.0
 0018222,0.00007893,-0.00018361,0.00025907,-0.00010735,0.00056344,-0.00
 006272,0.00001360,-0.00002357,-0.00024221,0.00004459,-0.00027469,0.000
 06970,-0.00003665,0.00018599,-0.00016538,0.00003432,-0.00008266,0.0000
 4806,-0.00010185,-0.00017072,0.00015508,0.00020687,0.00006957,0.000469
 83,0.00098045,-0.00024298,-0.00084179,-0.00029434,-0.00005060,-0.00090
 651,0.00146287,-0.00171187,0.00050949,-0.00045793,-0.00046747,0.000053
 28,0.00052206,0.00009161,0.00000227,-0.00005769,-0.00016275,0.00045522
 ,-0.00018362,0.00003704,0.00011342,-0.00013077,0.00004114,0.00011185,-
 0.00296954,0.00367215,-0.00013651,0.00008607,-0.00053644,0.00028369,-0
 .00298598,0.00683970,-0.00557280,-0.00000089,0.00594508,0.05237302,-0.
 01541425,-0.04868971,0.01022627,-0.00157492,0.00164615,0.00000046,-0.0
 0000429,-0.00001151,-0.00000238,-0.00000641,0.00000561,-0.00000126,0.0
 0000772,0.00000823,0.00001147,0.00002067,0.00000631,-0.00004223,-0.000
 01617,0.00004386,0.00002215,-0.00001560,0.00003115,-0.00007323,0.00028
 873,-0.00082118,-0.00021942,-0.00000639,0.00010258,-0.00050052,0.00179
 093,-0.00441422,-0.05694274,0.01935165,0.03849228,-0.00754461,0.027836
 12,-0.00484931,-0.00109708,0.00196137,0.01178695,0.00158583,-0.0002806
 8,0.00014181,0.00073588,-0.00050857,0.00231076,-0.00047474,0.00011325,
 0.00002286,-0.00075342,0.00015454,-0.00184814,0.00069200,-0.00021365,0
 .00188765,-0.00129957,0.00033577,-0.00037473,0.00025163,-0.00021618,-0
 .00065742,-0.00018101,0.00010150,0.00031468,-0.00000353,0.00046064,0.0
 0011824,-0.00209901,-0.00070014,-0.00372758,0.00074022,0.00756734,0.00
 154060,-0.02466983,-0.01918532,-0.01472666,-0.02479609,0.03365109,-0.0
 3795355,0.00477986,0.00054111,-0.00001894,-0.00109244,-0.00461287,-0.0
 0139585,0.00001757,0.00027510,0.00006452,0.00116512,0.00331674,0.00098
 287,-0.00068751,-0.00366028,-0.00110062,-0.00178654,0.00176392,0.00079
 187,0.00090039,0.00090605,0.00014838,-0.00044438,0.00002834,0.00022098
 ,-0.00202294,-0.00103350,-0.00065947,-0.00003683,0.00026658,-0.0001115
 9,-0.00000672,0.00000614,0.00002529,0.00000103,0.00003424,0.00001773,0
 .00005253,-0.00000955,0.00003498,0.00010424,0.00006707,0.00013391,-0.0
 0026424,0.00019611,-0.00007155,-0.00000715,-0.00005719,0.00000941,-0.0
 0001650,0.00001155,0.00001234,0.00006110,-0.00003520,-0.00002936,-0.00
 000399,-0.00016236,-0.00000513,0.05820075,0.02260771,-0.09008008,0.002
 37939,0.00921623,-0.01208284,-0.03701623,-0.00511533,0.00197319,0.0058
 7330,-0.00112560,0.00021054,-0.00474284,-0.00045053,0.00004121,0.00048
 961,-0.00002663,-0.00017788,0.00358477,-0.00084546,0.00036115,-0.00343
 057,0.00203374,-0.00058704,0.00097399,-0.00023239,-0.00018986,0.001012
 65,0.00043441,0.00003009,0.00040472,0.00195158,-0.00076916,-0.00277609
 ,0.00169797,-0.00153803,0.00896436,-0.00136634,-0.00145668,-0.00362214
 ,-0.00331091,0.00441702,-0.00366391,0.02433160,-0.02030180,0.03024289,
 -0.00135644,-0.00019629,0.00013277,-0.00020836,0.00046175,-0.00003121,
 0.00021661,-0.00008080,-0.00005063,0.00013643,-0.00047854,-0.00025276,
 -0.00002468,0.00014264,0.00012428,-0.00000302,-0.00009085,-0.00002827,
 -0.00002852,0.00008009,-0.00015074,-0.00005151,-0.00010929,0.00022125,
 -0.00015853,-0.00065266,0.00000257,0.00046091,-0.00004530,-0.00018019,
 -0.00002284,0.00005141,-0.00004357,0.00003669,0.00003812,0.00002187,-0
 .00004679,0.00003096,0.00003576,0.00004175,0.00015237,-0.00005555,0.00
 011633,-0.00005729,0.00006738,0.00000741,-0.00000751,0.00001179,0.0000
 1129,0.00000851,0.00002907,-0.00000897,0.00002504,-0.00002083,0.000001
 28,0.00001687,0.00011151,-0.04891906,0.12086097,-0.00031369,-0.0065005
 1,0.00526925,0.00794710,-0.01400963,-0.02169149,-0.00186728,0.00083715
 ,0.00203076,-0.00049692,-0.00004493,-0.00294128,-0.00031973,0.00004924
 ,0.00026322,-0.00017573,-0.00010719,0.00203482,-0.00054630,0.00030633,
 -0.00228518,0.00147618,-0.00040766,0.00053252,-0.00023825,-0.00021746,
 0.00078040,0.00042087,0.00023518,0.00001425,0.00090429,-0.00028267,-0.
 00218625,0.00045657,-0.00391049,0.00262226,0.00174761,0.00682617,-0.00
 027666,-0.02638730,-0.01808428,-0.01467771,-0.03273747,0.03369864,-0.0
 4725994,0.00649355,0.00267558,0.00102049,-0.00113434,-0.00330449,-0.00
 134771,0.00082962,0.00015775,-0.00010804,0.00156647,0.00217982,0.00040
 633,-0.00068537,-0.00248030,-0.00067701,-0.00099949,0.00131856,0.00052
 084,0.00036268,0.00072390,-0.00014100,-0.00004735,0.00048307,0.0004216
 8,-0.00304492,-0.00160724,-0.00028334,0.00014843,0.00001861,-0.0000228
 4,-0.00001254,0.00004211,-0.00003138,0.00002630,0.00003549,0.00002800,
 -0.00003711,-0.00001755,0.00001842,0.00004800,0.00015525,-0.00002822,-
 0.00041050,-0.00008780,0.00021393,0.00002385,-0.00006058,0.00002754,0.
 00000220,0.00001612,0.00007523,0.00004941,0.00002895,0.00001662,-0.000
 01291,-0.00004677,0.00021714,0.04696407,0.00138160,0.07744435\\0.00000
 704,-0.00003005,0.00002173,-0.00001815,0.00001152,0.00001968,0.0000208
 0,-0.00000550,-0.00002358,-0.00000949,0.00000477,0.00000907,-0.0000020
 5,-0.00000022,-0.00000176,0.00000756,-0.00000025,-0.00000707,-0.000006
 47,-0.00000155,-0.00000634,0.00000968,0.00000023,-0.00000033,-0.000010
 45,0.00000404,0.00000672,-0.00001048,0.00000027,-0.00001915,0.00001503
 ,0.00000332,0.00002684,0.00000514,-0.00000044,-0.00003170,-0.00001754,
 -0.00002809,-0.00000547,0.00003290,0.00001029,0.00000441,-0.00000910,0
 .00002149,-0.00000548,-0.00003267,-0.00001256,0.00000078,0.00001595,0.
 00000560,0.00000557,0.00000275,-0.00000203,0.00000098,-0.00001062,-0.0
 0000634,0.00000197,0.00000216,-0.00000204,-0.00000618,-0.00000808,0.00
 000330,0.00000202,0.00001011,0.00000145,-0.00000239,-0.00000060,-0.000
 01951,-0.00001107,0.00000053,0.00002760,0.00001535,-0.00000206,-0.0000
 0241,0.00000310,0.00000127,0.00000070,0.00000266,-0.00000282,0.0000017
 8,0.00000015,0.00000252,0.00000270,-0.00000094,0.00000226,0.00000098,0
 .00000438,0.00000521,0.00000205,0.00000259,-0.00000024,0.00000434,0.00
 000202,0.00000095,0.00000109,-0.00000247,-0.00000394,0.00000032,-0.000
 00092,-0.00000101,0.00000379,0.00000092,0.00000392,-0.00000064,-0.0000
 0604\\\@
 The archive entry for this job was punched.


 IF I AM NOT FOR MYSELF, WHO WILL BE?
 BUT IF I AM ONLY FOR MYSELF, WHAT AM I?
 THOUGH A SEEKER SINCE MY BIRTH,
 HERE IS ALL I'VE LEARNED ON EARTH,
 THIS IS THE GIST OF WHAT I KNOW:
 GIVE ADVICE AND BUY A FOE.

 PRESSED FOR RULES AND VERITIES,
 ALL I RECOLLECT ARE THESE:
 FEED A COLD TO STARVE A FEVER,
 ARGUE WITH NO TRUE-BELIEVER.
 THINK-TOO-LONG IS NEVER-ACT,
 SCRATCH A MYTH AND FIND A FACT.

 STITCH IN TIME SAVES TWENTY STITCHES,
 GIVE THE RICH TO PLEASE THEM, RICHES.
 GIVE TO LOVE YOU HEARTH AND HALL,
 BUT DO NOT GIVE ADVICE AT ALL.

                                  -- HILLEL
 Job cpu time:       0 days  4 hours 29 minutes 52.1 seconds.
 Elapsed time:       0 days  0 hours  8 minutes 29.3 seconds.
 File lengths (MBytes):  RWF=   1707 Int=      0 D2E=      0 Chk=     22 Scr=      2
 Normal termination of Gaussian 16 at Fri Mar  8 01:47:05 2024.
