 Entering Gaussian System, Link 0=g16
 Initial command:
 /public/software/apps/Gaussian/g16/l1.exe "/public/home/LJQ_HG/tmp/Gau-75094.inp" -scrdir="/public/home/LJQ_HG/tmp/"
 Entering Link 1 = /public/software/apps/Gaussian/g16/l1.exe PID=     75095.
  
 Copyright (c) 1988-2019, Gaussian, Inc.  All Rights Reserved.
  
 This is part of the Gaussian(R) 16 program.  It is based on
 the Gaussian(R) 09 system (copyright 2009, Gaussian, Inc.),
 the Gaussian(R) 03 system (copyright 2003, Gaussian, Inc.),
 the Gaussian(R) 98 system (copyright 1998, Gaussian, Inc.),
 the Gaussian(R) 94 system (copyright 1995, Gaussian, Inc.),
 the Gaussian 92(TM) system (copyright 1992, Gaussian, Inc.),
 the Gaussian 90(TM) system (copyright 1990, Gaussian, Inc.),
 the Gaussian 88(TM) system (copyright 1988, Gaussian, Inc.),
 the Gaussian 86(TM) system (copyright 1986, Carnegie Mellon
 University), and the Gaussian 82(TM) system (copyright 1983,
 Carnegie Mellon University). Gaussian is a federally registered
 trademark of Gaussian, Inc.
  
 This software contains proprietary and confidential information,
 including trade secrets, belonging to Gaussian, Inc.
  
 This software is provided under written license and may be
 used, copied, transmitted, or stored only in accord with that
 written license.
  
 The following legend is applicable only to US Government
 contracts under FAR:
  
                    RESTRICTED RIGHTS LEGEND
  
 Use, reproduction and disclosure by the US Government is
 subject to restrictions as set forth in subparagraphs (a)
 and (c) of the Commercial Computer Software - Restricted
 Rights clause in FAR 52.227-19.
  
 Gaussian, Inc.
 340 Quinnipiac St., Bldg. 40, Wallingford CT 06492
  
  
 ---------------------------------------------------------------
 Warning -- This program may not be used in any manner that
 competes with the business of Gaussian, Inc. or will provide
 assistance to any competitor of Gaussian, Inc.  The licensee
 of this program is prohibited from giving any competitor of
 Gaussian, Inc. access to this program.  By using this program,
 the user acknowledges that Gaussian, Inc. is engaged in the
 business of creating and licensing software in the field of
 computational chemistry and represents and warrants to the
 licensee that it is not a competitor of Gaussian, Inc. and that
 it will not use this program in any manner prohibited above.
 ---------------------------------------------------------------
  

 Cite this work as:
 Gaussian 16, Revision C.01,
 M. J. Frisch, G. W. Trucks, H. B. Schlegel, G. E. Scuseria, 
 M. A. Robb, J. R. Cheeseman, G. Scalmani, V. Barone, 
 G. A. Petersson, H. Nakatsuji, X. Li, M. Caricato, A. V. Marenich, 
 J. Bloino, B. G. Janesko, R. Gomperts, B. Mennucci, H. P. Hratchian, 
 J. V. Ortiz, A. F. Izmaylov, J. L. Sonnenberg, D. Williams-Young, 
 F. Ding, F. Lipparini, F. Egidi, J. Goings, B. Peng, A. Petrone, 
 T. Henderson, D. Ranasinghe, V. G. Zakrzewski, J. Gao, N. Rega, 
 G. Zheng, W. Liang, M. Hada, M. Ehara, K. Toyota, R. Fukuda, 
 J. Hasegawa, M. Ishida, T. Nakajima, Y. Honda, O. Kitao, H. Nakai, 
 T. Vreven, K. Throssell, J. A. Montgomery, Jr., J. E. Peralta, 
 F. Ogliaro, M. J. Bearpark, J. J. Heyd, E. N. Brothers, K. N. Kudin, 
 V. N. Staroverov, T. A. Keith, R. Kobayashi, J. Normand, 
 K. Raghavachari, A. P. Rendell, J. C. Burant, S. S. Iyengar, 
 J. Tomasi, M. Cossi, J. M. Millam, M. Klene, C. Adamo, R. Cammi, 
 J. W. Ochterski, R. L. Martin, K. Morokuma, O. Farkas, 
 J. B. Foresman, and D. J. Fox, Gaussian, Inc., Wallingford CT, 2019.
 
 ******************************************
 Gaussian 16:  ES64L-G16RevC.01  3-Jul-2019
                 8-Mar-2024 
 ******************************************
 %nprocshared=32
 Will use up to   32 processors via shared memory.
 %mem=100GB
 ------------------------------------------
 #p opt freq b3lyp/def2svpp em=gd3bj nosymm
 ------------------------------------------
 1/18=20,19=15,26=3,38=1/1,3;
 2/9=110,12=2,15=1,17=6,18=5,40=1/2;
 3/5=43,7=202,11=2,25=1,30=1,71=1,74=-5,124=41/1,2,3;
 4//1;
 5/5=2,38=5/2;
 6/7=2,8=2,9=2,10=2,28=1/1;
 7/30=1/1,2,3,16;
 1/18=20,19=15,26=3/3(2);
 2/9=110,15=1/2;
 99//99;
 2/9=110,15=1/2;
 3/5=43,7=202,11=2,25=1,30=1,71=1,74=-5,124=41/1,2,3;
 4/5=5,16=3,69=1/1;
 5/5=2,38=5/2;
 7/30=1/1,2,3,16;
 1/18=20,19=15,26=3/3(-5);
 2/9=110,15=1/2;
 6/7=2,8=2,9=2,10=2,19=2,28=1/1;
 99/9=1/99;
 Leave Link    1 at Fri Mar  8 00:46:54 2024, MaxMem= 13421772800 cpu:               1.3 elap:               0.0
 (Enter /public/software/apps/Gaussian/g16/l101.exe)
 ------------------
 $$$$Title####0????
 ------------------
 Symbolic Z-matrix:
 Charge =  0 Multiplicity = 2
 O                    -0.0799    2.65113   2.87162 
 C                     0.95194   1.88704   2.33554 
 C                     2.09178   1.65407   3.10147 
 C                     3.14986   0.91448   2.58233 
 C                     3.09613   0.41861   1.2707 
 C                     4.18327  -0.30614   0.74916 
 F                     5.28352  -0.55154   1.50727 
 C                     4.14772  -0.78017  -0.56178 
 F                     5.2009   -1.47629  -1.058 
 C                     3.03972  -0.52906  -1.36878 
 F                     3.02615  -0.97701  -2.64923 
 C                     1.94706   0.18698  -0.87175 
 F                     0.9189    0.43362  -1.72174 
 C                     1.945     0.6578    0.46643 
 C                     0.84494   1.36591   1.03316 
 C                    -0.42543   1.59926   0.29666 
 C                    -0.69584   2.90758  -0.14421 
 O                     0.17493   3.94666   0.16883 
 C                    -1.83945   3.18267  -0.8903 
 C                    -2.74084   2.16811  -1.19721 
 C                    -2.52604   0.86078  -0.73472 
 C                    -3.45811  -0.15055  -1.03072 
 F                    -4.56029   0.11652  -1.77863 
 C                    -3.26446  -1.44631  -0.55319 
 F                    -4.16891  -2.41539  -0.84112 
 C                    -2.15212  -1.74612   0.23088 
 F                    -1.98604  -3.00539   0.70739 
 C                    -1.21166  -0.75821   0.53626 
 F                    -0.17453  -1.10534   1.33892 
 C                    -1.36958   0.56186   0.04142 
 H                     2.15764   2.05009   4.10701 
 H                     4.01929   0.74622   3.20626 
 H                    -2.03078   4.19128  -1.2344 
 H                    -3.61723   2.41426  -1.78446 
 Cu                    0.11944   4.43243   2.07035 
 
 ITRead=  0  0  0  0  0  0  0  0  0  0  0  0  0  0  0  0  0  0  0  0
 ITRead=  0  0  0  0  0  0  0  0  0  0  0  0  0  0  0
 MicOpt= -1 -1 -1 -1 -1 -1 -1 -1 -1 -1 -1 -1 -1 -1 -1 -1 -1 -1 -1 -1
 MicOpt= -1 -1 -1 -1 -1 -1 -1 -1 -1 -1 -1 -1 -1 -1 -1
 NAtoms=     35 NQM=       35 NQMF=       0 NMMI=      0 NMMIF=      0
                NMic=       0 NMicF=      0.
                    Isotopes and Nuclear Properties:
 (Nuclear quadrupole moments (NQMom) in fm**2, nuclear magnetic moments (NMagM)
  in nuclear magnetons)

  Atom         1           2           3           4           5           6           7           8           9          10
 IAtWgt=          16          12          12          12          12          12          19          12          19          12
 AtmWgt=  15.9949146  12.0000000  12.0000000  12.0000000  12.0000000  12.0000000  18.9984032  12.0000000  18.9984032  12.0000000
 NucSpn=           0           0           0           0           0           0           1           0           1           0
 AtZEff=  -0.0000000  -0.0000000  -0.0000000  -0.0000000  -0.0000000  -0.0000000  -0.0000000  -0.0000000  -0.0000000  -0.0000000
 NQMom=    0.0000000   0.0000000   0.0000000   0.0000000   0.0000000   0.0000000   0.0000000   0.0000000   0.0000000   0.0000000
 NMagM=    0.0000000   0.0000000   0.0000000   0.0000000   0.0000000   0.0000000   2.6288670   0.0000000   2.6288670   0.0000000
 AtZNuc=   8.0000000   6.0000000   6.0000000   6.0000000   6.0000000   6.0000000   9.0000000   6.0000000   9.0000000   6.0000000

  Atom        11          12          13          14          15          16          17          18          19          20
 IAtWgt=          19          12          19          12          12          12          12          16          12          12
 AtmWgt=  18.9984032  12.0000000  18.9984032  12.0000000  12.0000000  12.0000000  12.0000000  15.9949146  12.0000000  12.0000000
 NucSpn=           1           0           1           0           0           0           0           0           0           0
 AtZEff=  -0.0000000  -0.0000000  -0.0000000  -0.0000000  -0.0000000  -0.0000000  -0.0000000  -0.0000000  -0.0000000  -0.0000000
 NQMom=    0.0000000   0.0000000   0.0000000   0.0000000   0.0000000   0.0000000   0.0000000   0.0000000   0.0000000   0.0000000
 NMagM=    2.6288670   0.0000000   2.6288670   0.0000000   0.0000000   0.0000000   0.0000000   0.0000000   0.0000000   0.0000000
 AtZNuc=   9.0000000   6.0000000   9.0000000   6.0000000   6.0000000   6.0000000   6.0000000   8.0000000   6.0000000   6.0000000

  Atom        21          22          23          24          25          26          27          28          29          30
 IAtWgt=          12          12          19          12          19          12          19          12          19          12
 AtmWgt=  12.0000000  12.0000000  18.9984032  12.0000000  18.9984032  12.0000000  18.9984032  12.0000000  18.9984032  12.0000000
 NucSpn=           0           0           1           0           1           0           1           0           1           0
 AtZEff=  -0.0000000  -0.0000000  -0.0000000  -0.0000000  -0.0000000  -0.0000000  -0.0000000  -0.0000000  -0.0000000  -0.0000000
 NQMom=    0.0000000   0.0000000   0.0000000   0.0000000   0.0000000   0.0000000   0.0000000   0.0000000   0.0000000   0.0000000
 NMagM=    0.0000000   0.0000000   2.6288670   0.0000000   2.6288670   0.0000000   2.6288670   0.0000000   2.6288670   0.0000000
 AtZNuc=   6.0000000   6.0000000   9.0000000   6.0000000   9.0000000   6.0000000   9.0000000   6.0000000   9.0000000   6.0000000

  Atom        31          32          33          34          35
 IAtWgt=           1           1           1           1          63
 AtmWgt=   1.0078250   1.0078250   1.0078250   1.0078250  62.9295992
 NucSpn=           1           1           1           1           3
 AtZEff=  -0.0000000  -0.0000000  -0.0000000  -0.0000000  -0.0000000
 NQMom=    0.0000000   0.0000000   0.0000000   0.0000000 -22.0000000
 NMagM=    2.7928460   2.7928460   2.7928460   2.7928460   2.2233000
 AtZNuc=   1.0000000   1.0000000   1.0000000   1.0000000  29.0000000
 Leave Link  101 at Fri Mar  8 00:46:54 2024, MaxMem= 13421772800 cpu:               5.5 elap:               0.2
 (Enter /public/software/apps/Gaussian/g16/l103.exe)

 GradGradGradGradGradGradGradGradGradGradGradGradGradGradGradGradGradGrad
 Berny optimization.
 Initialization pass.
                           ----------------------------
                           !    Initial Parameters    !
                           ! (Angstroms and Degrees)  !
 --------------------------                            --------------------------
 ! Name  Definition              Value          Derivative Info.                !
 --------------------------------------------------------------------------------
 ! R1    R(1,2)                  1.3914         estimate D2E/DX2                !
 ! R2    R(1,35)                 1.9634         estimate D2E/DX2                !
 ! R3    R(2,3)                  1.3929         estimate D2E/DX2                !
 ! R4    R(2,15)                 1.4068         estimate D2E/DX2                !
 ! R5    R(3,4)                  1.3914         estimate D2E/DX2                !
 ! R6    R(3,31)                 1.0827         estimate D2E/DX2                !
 ! R7    R(4,5)                  1.4033         estimate D2E/DX2                !
 ! R8    R(4,32)                 1.0833         estimate D2E/DX2                !
 ! R9    R(5,6)                  1.4068         estimate D2E/DX2                !
 ! R10   R(5,14)                 1.4245         estimate D2E/DX2                !
 ! R11   R(6,7)                  1.3585         estimate D2E/DX2                !
 ! R12   R(6,8)                  1.3945         estimate D2E/DX2                !
 ! R13   R(8,9)                  1.3565         estimate D2E/DX2                !
 ! R14   R(8,10)                 1.3935         estimate D2E/DX2                !
 ! R15   R(10,11)                1.3566         estimate D2E/DX2                !
 ! R16   R(10,12)                1.3977         estimate D2E/DX2                !
 ! R17   R(12,13)                1.3566         estimate D2E/DX2                !
 ! R18   R(12,14)                1.4186         estimate D2E/DX2                !
 ! R19   R(14,15)                1.4257         estimate D2E/DX2                !
 ! R20   R(15,16)                1.4868         estimate D2E/DX2                !
 ! R21   R(16,17)                1.4068         estimate D2E/DX2                !
 ! R22   R(16,30)                1.4257         estimate D2E/DX2                !
 ! R23   R(17,18)                1.3914         estimate D2E/DX2                !
 ! R24   R(17,19)                1.3929         estimate D2E/DX2                !
 ! R25   R(18,35)                1.9634         estimate D2E/DX2                !
 ! R26   R(19,20)                1.3914         estimate D2E/DX2                !
 ! R27   R(19,33)                1.0827         estimate D2E/DX2                !
 ! R28   R(20,21)                1.4033         estimate D2E/DX2                !
 ! R29   R(20,34)                1.0833         estimate D2E/DX2                !
 ! R30   R(21,22)                1.4068         estimate D2E/DX2                !
 ! R31   R(21,30)                1.4245         estimate D2E/DX2                !
 ! R32   R(22,23)                1.3585         estimate D2E/DX2                !
 ! R33   R(22,24)                1.3945         estimate D2E/DX2                !
 ! R34   R(24,25)                1.3565         estimate D2E/DX2                !
 ! R35   R(24,26)                1.3935         estimate D2E/DX2                !
 ! R36   R(26,27)                1.3566         estimate D2E/DX2                !
 ! R37   R(26,28)                1.3977         estimate D2E/DX2                !
 ! R38   R(28,29)                1.3566         estimate D2E/DX2                !
 ! R39   R(28,30)                1.4186         estimate D2E/DX2                !
 ! A1    A(2,1,35)             105.4085         estimate D2E/DX2                !
 ! A2    A(1,2,3)              119.134          estimate D2E/DX2                !
 ! A3    A(1,2,15)             120.2454         estimate D2E/DX2                !
 ! A4    A(3,2,15)             120.6193         estimate D2E/DX2                !
 ! A5    A(2,3,4)              120.3995         estimate D2E/DX2                !
 ! A6    A(2,3,31)             119.9529         estimate D2E/DX2                !
 ! A7    A(4,3,31)             119.6476         estimate D2E/DX2                !
 ! A8    A(3,4,5)              120.4939         estimate D2E/DX2                !
 ! A9    A(3,4,32)             118.5536         estimate D2E/DX2                !
 ! A10   A(5,4,32)             120.9441         estimate D2E/DX2                !
 ! A11   A(4,5,6)              119.9317         estimate D2E/DX2                !
 ! A12   A(4,5,14)             119.9569         estimate D2E/DX2                !
 ! A13   A(6,5,14)             120.1099         estimate D2E/DX2                !
 ! A14   A(5,6,7)              120.8            estimate D2E/DX2                !
 ! A15   A(5,6,8)              120.2608         estimate D2E/DX2                !
 ! A16   A(7,6,8)              118.9387         estimate D2E/DX2                !
 ! A17   A(6,8,9)              119.9047         estimate D2E/DX2                !
 ! A18   A(6,8,10)             120.2273         estimate D2E/DX2                !
 ! A19   A(9,8,10)             119.8645         estimate D2E/DX2                !
 ! A20   A(8,10,11)            119.6726         estimate D2E/DX2                !
 ! A21   A(8,10,12)            120.5268         estimate D2E/DX2                !
 ! A22   A(11,10,12)           119.7994         estimate D2E/DX2                !
 ! A23   A(10,12,13)           117.5681         estimate D2E/DX2                !
 ! A24   A(10,12,14)           120.4374         estimate D2E/DX2                !
 ! A25   A(13,12,14)           121.9781         estimate D2E/DX2                !
 ! A26   A(5,14,12)            118.4051         estimate D2E/DX2                !
 ! A27   A(5,14,15)            118.8469         estimate D2E/DX2                !
 ! A28   A(12,14,15)           122.7466         estimate D2E/DX2                !
 ! A29   A(2,15,14)            119.5561         estimate D2E/DX2                !
 ! A30   A(2,15,16)            117.7365         estimate D2E/DX2                !
 ! A31   A(14,15,16)           122.7029         estimate D2E/DX2                !
 ! A32   A(15,16,17)           117.7365         estimate D2E/DX2                !
 ! A33   A(15,16,30)           122.7029         estimate D2E/DX2                !
 ! A34   A(17,16,30)           119.5561         estimate D2E/DX2                !
 ! A35   A(16,17,18)           120.2454         estimate D2E/DX2                !
 ! A36   A(16,17,19)           120.6193         estimate D2E/DX2                !
 ! A37   A(18,17,19)           119.134          estimate D2E/DX2                !
 ! A38   A(17,18,35)           112.6428         estimate D2E/DX2                !
 ! A39   A(17,19,20)           120.3995         estimate D2E/DX2                !
 ! A40   A(17,19,33)           119.9529         estimate D2E/DX2                !
 ! A41   A(20,19,33)           119.6476         estimate D2E/DX2                !
 ! A42   A(19,20,21)           120.4939         estimate D2E/DX2                !
 ! A43   A(19,20,34)           118.5536         estimate D2E/DX2                !
 ! A44   A(21,20,34)           120.9441         estimate D2E/DX2                !
 ! A45   A(20,21,22)           119.9317         estimate D2E/DX2                !
 ! A46   A(20,21,30)           119.9569         estimate D2E/DX2                !
 ! A47   A(22,21,30)           120.11           estimate D2E/DX2                !
 ! A48   A(21,22,23)           120.8            estimate D2E/DX2                !
 ! A49   A(21,22,24)           120.2608         estimate D2E/DX2                !
 ! A50   A(23,22,24)           118.9387         estimate D2E/DX2                !
 ! A51   A(22,24,25)           119.9047         estimate D2E/DX2                !
 ! A52   A(22,24,26)           120.2273         estimate D2E/DX2                !
 ! A53   A(25,24,26)           119.8645         estimate D2E/DX2                !
 ! A54   A(24,26,27)           119.6727         estimate D2E/DX2                !
 ! A55   A(24,26,28)           120.5268         estimate D2E/DX2                !
 ! A56   A(27,26,28)           119.7994         estimate D2E/DX2                !
 ! A57   A(26,28,29)           117.5681         estimate D2E/DX2                !
 ! A58   A(26,28,30)           120.4373         estimate D2E/DX2                !
 ! A59   A(29,28,30)           121.9781         estimate D2E/DX2                !
 ! A60   A(16,30,21)           118.8469         estimate D2E/DX2                !
 ! A61   A(16,30,28)           122.7465         estimate D2E/DX2                !
 ! A62   A(21,30,28)           118.4051         estimate D2E/DX2                !
 ! A63   A(1,35,18)            100.0001         estimate D2E/DX2                !
 ! D1    D(35,1,2,3)           101.2106         estimate D2E/DX2                !
 ! D2    D(35,1,2,15)          -78.3731         estimate D2E/DX2                !
 ! D3    D(2,1,35,18)           52.6397         estimate D2E/DX2                !
 ! D4    D(1,2,3,4)           -178.8074         estimate D2E/DX2                !
 ! D5    D(1,2,3,31)             1.166          estimate D2E/DX2                !
 ! D6    D(15,2,3,4)             0.7746         estimate D2E/DX2                !
 ! D7    D(15,2,3,31)         -179.2519         estimate D2E/DX2                !
 ! D8    D(1,2,15,14)          176.001          estimate D2E/DX2                !
 ! D9    D(1,2,15,16)           -3.2479         estimate D2E/DX2                !
 ! D10   D(3,2,15,14)           -3.5764         estimate D2E/DX2                !
 ! D11   D(3,2,15,16)          177.1747         estimate D2E/DX2                !
 ! D12   D(2,3,4,5)              1.4227         estimate D2E/DX2                !
 ! D13   D(2,3,4,32)          -179.6235         estimate D2E/DX2                !
 ! D14   D(31,3,4,5)          -178.5508         estimate D2E/DX2                !
 ! D15   D(31,3,4,32)            0.403          estimate D2E/DX2                !
 ! D16   D(3,4,5,6)            178.7969         estimate D2E/DX2                !
 ! D17   D(3,4,5,14)            -0.7665         estimate D2E/DX2                !
 ! D18   D(32,4,5,6)            -0.1316         estimate D2E/DX2                !
 ! D19   D(32,4,5,14)         -179.695          estimate D2E/DX2                !
 ! D20   D(4,5,6,7)              0.9656         estimate D2E/DX2                !
 ! D21   D(4,5,6,8)           -178.7782         estimate D2E/DX2                !
 ! D22   D(14,5,6,7)          -179.4717         estimate D2E/DX2                !
 ! D23   D(14,5,6,8)             0.7845         estimate D2E/DX2                !
 ! D24   D(4,5,14,12)          177.5603         estimate D2E/DX2                !
 ! D25   D(4,5,14,15)           -2.016          estimate D2E/DX2                !
 ! D26   D(6,5,14,12)           -2.0023         estimate D2E/DX2                !
 ! D27   D(6,5,14,15)          178.4214         estimate D2E/DX2                !
 ! D28   D(5,6,8,9)            179.8916         estimate D2E/DX2                !
 ! D29   D(5,6,8,10)             0.5732         estimate D2E/DX2                !
 ! D30   D(7,6,8,9)              0.1431         estimate D2E/DX2                !
 ! D31   D(7,6,8,10)          -179.1753         estimate D2E/DX2                !
 ! D32   D(6,8,10,11)          178.9438         estimate D2E/DX2                !
 ! D33   D(6,8,10,12)           -0.6703         estimate D2E/DX2                !
 ! D34   D(9,8,10,11)           -0.3748         estimate D2E/DX2                !
 ! D35   D(9,8,10,12)         -179.9889         estimate D2E/DX2                !
 ! D36   D(8,10,12,13)         177.955          estimate D2E/DX2                !
 ! D37   D(8,10,12,14)          -0.6007         estimate D2E/DX2                !
 ! D38   D(11,10,12,13)         -1.6586         estimate D2E/DX2                !
 ! D39   D(11,10,12,14)        179.7857         estimate D2E/DX2                !
 ! D40   D(10,12,14,5)           1.9146         estimate D2E/DX2                !
 ! D41   D(10,12,14,15)       -178.5267         estimate D2E/DX2                !
 ! D42   D(13,12,14,5)        -176.576          estimate D2E/DX2                !
 ! D43   D(13,12,14,15)          2.9827         estimate D2E/DX2                !
 ! D44   D(5,14,15,2)            4.1506         estimate D2E/DX2                !
 ! D45   D(5,14,15,16)        -176.6394         estimate D2E/DX2                !
 ! D46   D(12,14,15,2)        -175.4062         estimate D2E/DX2                !
 ! D47   D(12,14,15,16)          3.8038         estimate D2E/DX2                !
 ! D48   D(2,15,16,17)          70.8985         estimate D2E/DX2                !
 ! D49   D(2,15,16,30)        -108.3249         estimate D2E/DX2                !
 ! D50   D(14,15,16,17)       -108.325          estimate D2E/DX2                !
 ! D51   D(14,15,16,30)         72.4515         estimate D2E/DX2                !
 ! D52   D(15,16,17,18)         -3.2479         estimate D2E/DX2                !
 ! D53   D(15,16,17,19)        177.1747         estimate D2E/DX2                !
 ! D54   D(30,16,17,18)        176.0009         estimate D2E/DX2                !
 ! D55   D(30,16,17,19)         -3.5765         estimate D2E/DX2                !
 ! D56   D(15,16,30,21)       -176.6395         estimate D2E/DX2                !
 ! D57   D(15,16,30,28)          3.8037         estimate D2E/DX2                !
 ! D58   D(17,16,30,21)          4.1507         estimate D2E/DX2                !
 ! D59   D(17,16,30,28)       -175.4062         estimate D2E/DX2                !
 ! D60   D(16,17,18,35)        -70.8232         estimate D2E/DX2                !
 ! D61   D(19,17,18,35)        108.7605         estimate D2E/DX2                !
 ! D62   D(16,17,19,20)          0.7746         estimate D2E/DX2                !
 ! D63   D(16,17,19,33)       -179.2518         estimate D2E/DX2                !
 ! D64   D(18,17,19,20)       -178.8074         estimate D2E/DX2                !
 ! D65   D(18,17,19,33)          1.1661         estimate D2E/DX2                !
 ! D66   D(17,18,35,1)          38.0104         estimate D2E/DX2                !
 ! D67   D(17,19,20,21)          1.4228         estimate D2E/DX2                !
 ! D68   D(17,19,20,34)       -179.6235         estimate D2E/DX2                !
 ! D69   D(33,19,20,21)       -178.5508         estimate D2E/DX2                !
 ! D70   D(33,19,20,34)          0.4029         estimate D2E/DX2                !
 ! D71   D(19,20,21,22)        178.7968         estimate D2E/DX2                !
 ! D72   D(19,20,21,30)         -0.7665         estimate D2E/DX2                !
 ! D73   D(34,20,21,22)         -0.1316         estimate D2E/DX2                !
 ! D74   D(34,20,21,30)       -179.695          estimate D2E/DX2                !
 ! D75   D(20,21,22,23)          0.9656         estimate D2E/DX2                !
 ! D76   D(20,21,22,24)       -178.7782         estimate D2E/DX2                !
 ! D77   D(30,21,22,23)       -179.4717         estimate D2E/DX2                !
 ! D78   D(30,21,22,24)          0.7845         estimate D2E/DX2                !
 ! D79   D(20,21,30,16)         -2.016          estimate D2E/DX2                !
 ! D80   D(20,21,30,28)        177.5603         estimate D2E/DX2                !
 ! D81   D(22,21,30,16)        178.4214         estimate D2E/DX2                !
 ! D82   D(22,21,30,28)         -2.0023         estimate D2E/DX2                !
 ! D83   D(21,22,24,25)        179.8916         estimate D2E/DX2                !
 ! D84   D(21,22,24,26)          0.5733         estimate D2E/DX2                !
 ! D85   D(23,22,24,25)          0.143          estimate D2E/DX2                !
 ! D86   D(23,22,24,26)       -179.1753         estimate D2E/DX2                !
 ! D87   D(22,24,26,27)        178.9438         estimate D2E/DX2                !
 ! D88   D(22,24,26,28)         -0.6703         estimate D2E/DX2                !
 ! D89   D(25,24,26,27)         -0.3748         estimate D2E/DX2                !
 ! D90   D(25,24,26,28)       -179.9889         estimate D2E/DX2                !
 ! D91   D(24,26,28,29)        177.955          estimate D2E/DX2                !
 ! D92   D(24,26,28,30)         -0.6006         estimate D2E/DX2                !
 ! D93   D(27,26,28,29)         -1.6586         estimate D2E/DX2                !
 ! D94   D(27,26,28,30)        179.7857         estimate D2E/DX2                !
 ! D95   D(26,28,30,16)       -178.5267         estimate D2E/DX2                !
 ! D96   D(26,28,30,21)          1.9146         estimate D2E/DX2                !
 ! D97   D(29,28,30,16)          2.9827         estimate D2E/DX2                !
 ! D98   D(29,28,30,21)       -176.5761         estimate D2E/DX2                !
 --------------------------------------------------------------------------------
 Trust Radius=3.00D-01 FncErr=1.00D-07 GrdErr=1.00D-06 EigMax=2.50D+02 EigMin=1.00D-04
 Number of steps in this run=    210 maximum allowed number of steps=    210.
 GradGradGradGradGradGradGradGradGradGradGradGradGradGradGradGradGradGrad

 Leave Link  103 at Fri Mar  8 00:46:54 2024, MaxMem= 13421772800 cpu:               0.9 elap:               0.0
 (Enter /public/software/apps/Gaussian/g16/l202.exe)
                          Input orientation:                          
 ---------------------------------------------------------------------
 Center     Atomic      Atomic             Coordinates (Angstroms)
 Number     Number       Type             X           Y           Z
 ---------------------------------------------------------------------
      1          8           0       -0.079904    2.651131    2.871622
      2          6           0        0.951935    1.887040    2.335536
      3          6           0        2.091780    1.654070    3.101465
      4          6           0        3.149863    0.914479    2.582327
      5          6           0        3.096128    0.418612    1.270703
      6          6           0        4.183273   -0.306144    0.749162
      7          9           0        5.283518   -0.551543    1.507272
      8          6           0        4.147717   -0.780171   -0.561779
      9          9           0        5.200905   -1.476294   -1.058002
     10          6           0        3.039721   -0.529059   -1.368779
     11          9           0        3.026145   -0.977013   -2.649230
     12          6           0        1.947061    0.186983   -0.871753
     13          9           0        0.918904    0.433621   -1.721741
     14          6           0        1.945003    0.657801    0.466427
     15          6           0        0.844938    1.365913    1.033160
     16          6           0       -0.425430    1.599259    0.296664
     17          6           0       -0.695843    2.907584   -0.144208
     18          8           0        0.174928    3.946660    0.168832
     19          6           0       -1.839450    3.182669   -0.890303
     20          6           0       -2.740843    2.168106   -1.197210
     21          6           0       -2.526038    0.860784   -0.734723
     22          6           0       -3.458108   -0.150549   -1.030720
     23          9           0       -4.560288    0.116516   -1.778627
     24          6           0       -3.264465   -1.446310   -0.553187
     25          9           0       -4.168909   -2.415385   -0.841118
     26          6           0       -2.152119   -1.746115    0.230883
     27          9           0       -1.986044   -3.005386    0.707387
     28          6           0       -1.211663   -0.758214    0.536257
     29          9           0       -0.174529   -1.105342    1.338922
     30          6           0       -1.369578    0.561864    0.041424
     31          1           0        2.157642    2.050089    4.107014
     32          1           0        4.019287    0.746221    3.206259
     33          1           0       -2.030781    4.191275   -1.234404
     34          1           0       -3.617226    2.414260   -1.784460
     35         29           0        0.119442    4.432434    2.070348
 ---------------------------------------------------------------------
                    Distance matrix (angstroms):
                    1          2          3          4          5
     1  O    0.000000
     2  C    1.391372   0.000000
     3  C    2.400660   1.392899   0.000000
     4  C    3.678457   2.416127   1.391416   0.000000
     5  C    4.199317   2.808507   2.426265   1.403257   0.000000
     6  C    5.605800   4.215232   3.708114   2.432766   1.406826
     7  F    6.394128   5.039377   4.194445   2.803114   2.404546
     8  C    6.436991   5.071634   4.855076   3.708498   2.429179
     9  F    7.769461   6.393893   6.063580   4.813997   3.666555
    10  C    6.150339   4.890637   5.064358   4.207989   2.805018
    11  F    7.300053   6.111713   6.392662   5.564372   4.161555
    12  C    4.918686   3.763930   4.237894   3.729162   2.442156
    13  F    5.197495   4.309874   5.111600   4.871694   3.700709
    14  C    3.722711   2.447607   2.820908   2.448388   1.424486
    15  C    2.426327   1.406842   2.432187   2.813608   2.453908
    16  C    2.802897   2.477287   3.769119   4.298360   3.839798
    17  C    3.088750   3.147350   4.458311   5.118195   4.751421
    18  O    3.008057   3.088751   4.186959   4.885624   4.711120
    19  C    4.186958   4.458309   5.807357   6.488227   6.055567
    20  C    4.885622   5.118193   6.488227   7.110337   6.574310
    21  C    4.711119   4.751420   6.055566   6.574310   5.985482
    22  C    5.872814   5.910324   7.150724   7.606160   6.969828
    23  F    6.937069   7.102513   8.392221   8.893880   8.246841
    24  C    6.217698   6.101965   7.187364   7.519865   6.874711
    25  F    7.494931   7.404393   8.443971   8.739130   8.079114
    26  C    5.532029   5.221545   6.149161   6.381149   5.771600
    27  F    6.349289   5.934511   6.638583   6.727428   6.153825
    28  C    4.284675   3.862115   4.828265   5.099727   4.525637
    29  F    4.058228   3.349106   3.982094   4.083787   3.608918
    30  C    3.746774   3.522565   4.747396   5.196717   4.634024
    31  H    2.625654   2.149058   1.082727   2.144477   3.403988
    32  H    4.532552   3.386484   2.133180   1.083282   2.169315
    33  H    4.799731   5.191393   6.498667   7.221073   6.840595
    34  H    5.852167   6.174914   7.552675   8.192171   7.641057
    35  Cu   1.963369   2.691171   3.559863   4.671358   5.060717
                    6          7          8          9         10
     6  C    0.000000
     7  F    1.358488   0.000000
     8  C    1.394465   2.371347   0.000000
     9  F    2.381316   2.728117   1.356477   0.000000
    10  C    2.417246   3.647849   1.393543   2.380032   0.000000
    11  F    3.652133   4.749028   2.377840   2.740596   1.356614
    12  C    2.805563   4.163787   2.423707   3.659055   1.397733
    13  F    4.160375   5.517874   3.639236   4.735384   2.355674
    14  C    2.453361   3.700210   2.824344   4.180807   2.444386
    15  C    3.744451   4.858231   4.249454   5.605849   3.765276
    16  C    5.007540   6.219615   5.226116   6.553609   4.394395
    17  C    5.910324   7.102514   6.101965   7.404393   5.221545
    18  O    5.872815   6.937070   6.217699   7.494931   5.532029
    19  C    7.150724   8.392221   7.187364   8.443972   6.149160
    20  C    7.606159   8.893879   7.519865   8.739130   6.381148
    21  C    6.969827   8.246840   6.874711   8.079114   5.771600
    22  C    7.847477   9.111434   7.646235   8.759957   6.517617
    23  F    9.111433  10.399228   8.838219   9.916513   7.638382
    24  C    7.646234   8.838219   7.442060   8.480461   6.422562
    25  F    8.759956   9.916512   8.480461   9.419254   7.470007
    26  C    6.517616   7.638381   6.422561   7.470006   5.567346
    27  F    6.734102   7.714123   6.647209   7.556914   5.975029
    28  C    5.418028   6.570613   5.470751   6.646678   4.664326
    29  F    4.469561   5.488653   4.732886   5.897299   4.242069
    30  C    5.664670   6.903048   5.710119   6.966640   4.756123
    31  H    4.574952   4.826826   5.811058   6.955158   6.116729
    32  H    2.678001   2.483753   4.067490   4.951739   4.849419
    33  H    7.923117   9.138385   7.958740   9.189654   6.928896
    34  H    8.641043   9.942572   8.484909   9.665588   7.290464
    35  Cu   6.380782   7.198942   7.094106   8.397673   6.706119
                   11         12         13         14         15
    11  F    0.000000
    12  C    2.383009   0.000000
    13  F    2.700109   1.356620   0.000000
    14  C    3.680870   1.418591   2.427183   0.000000
    15  C    4.879238   2.496647   2.909316   1.425746   0.000000
    16  C    5.218126   2.998072   2.690707   2.556192   1.486846
    17  C    5.934511   3.862115   3.349106   3.522565   2.477287
    18  O    6.349289   4.284675   4.058227   3.746775   2.802897
    19  C    6.638584   4.828265   3.982094   4.747395   3.769118
    20  C    6.727428   5.099727   4.083787   5.196716   4.298359
    21  C    6.153826   4.525638   3.608919   4.634023   3.839797
    22  C    6.734104   5.418030   4.469564   5.664670   5.007541
    23  F    7.714125   6.570615   5.488655   6.903048   6.219615
    24  C    6.647211   5.470753   4.732889   5.710118   5.226116
    25  F    7.556916   6.646679   5.897302   6.966640   6.553609
    26  C    5.975030   4.664327   4.242072   4.756123   4.394396
    27  F    6.364213   5.306055   5.115286   5.378674   5.218126
    28  C    5.306055   3.585168   3.325408   3.460421   2.998072
    29  F    5.115285   3.325407   3.596062   2.891771   2.690707
    30  C    5.378675   3.460422   2.891772   3.343094   2.556192
    31  H    7.454158   5.320116   6.174287   3.903531   3.411725
    32  H    6.184062   4.608367   5.830547   3.437608   3.896520
    33  H    7.367865   5.655890   4.801885   5.584364   4.625395
    34  H    7.508857   6.062597   4.950085   6.252202   5.380420
    35  Cu   7.745028   5.479051   5.568625   4.489219   3.317477
                   16         17         18         19         20
    16  C    0.000000
    17  C    1.406842   0.000000
    18  O    2.426327   1.391372   0.000000
    19  C    2.432186   1.392899   2.400660   0.000000
    20  C    2.813607   2.416126   3.678457   1.391416   0.000000
    21  C    2.453907   2.808507   4.199317   2.426264   1.403256
    22  C    3.744451   4.215233   5.605800   3.708114   2.432766
    23  F    4.858231   5.039377   6.394128   4.194446   2.803114
    24  C    4.249454   5.071634   6.436992   4.855076   3.708497
    25  F    5.605850   6.393893   7.769462   6.063580   4.813997
    26  C    3.765277   4.890639   6.150340   5.064359   4.207989
    27  F    4.879238   6.111714   7.300054   6.392662   5.564372
    28  C    2.496647   3.763931   4.918686   4.237894   3.729162
    29  F    2.909316   4.309874   5.197495   5.111599   4.871693
    30  C    1.425746   2.447607   3.722711   2.820907   2.448386
    31  H    4.625395   5.191393   4.799731   6.498666   7.221072
    32  H    5.380421   6.174915   5.852168   7.552675   8.192170
    33  H    3.411725   2.149058   2.625654   1.082728   2.144478
    34  H    3.896520   3.386484   4.532552   2.133180   1.083283
    35  Cu   3.386698   2.809647   1.963369   3.763592   4.897484
                   21         22         23         24         25
    21  C    0.000000
    22  C    1.406827   0.000000
    23  F    2.404546   1.358488   0.000000
    24  C    2.429179   1.394465   2.371347   0.000000
    25  F    3.666555   2.381317   2.728117   1.356477   0.000000
    26  C    2.805019   2.417246   3.647849   1.393543   2.380032
    27  F    4.161556   3.652134   4.749028   2.377840   2.740596
    28  C    2.442156   2.805564   4.163788   2.423708   3.659055
    29  F    3.700709   4.160375   5.517874   3.639236   4.735384
    30  C    1.424485   2.453361   3.700210   2.824344   4.180807
    31  H    6.840594   7.923116   9.138384   7.958739   9.189653
    32  H    7.641056   8.641043   9.942571   8.484908   9.665587
    33  H    3.403987   4.574952   4.826826   5.811058   6.955158
    34  H    2.169315   2.678001   2.483753   4.067490   4.951739
    35  Cu   5.255823   6.589326   7.439195   7.272784   8.588318
                   26         27         28         29         30
    26  C    0.000000
    27  F    1.356614   0.000000
    28  C    1.397734   2.383009   0.000000
    29  F    2.355675   2.700109   1.356619   0.000000
    30  C    2.444388   3.680871   1.418592   2.427183   0.000000
    31  H    6.928896   7.367864   5.655890   4.801885   5.584364
    32  H    7.290463   7.508856   6.062596   4.950083   6.252202
    33  H    6.116730   7.454159   5.320116   6.174288   3.903531
    34  H    4.849419   6.184062   4.608368   5.830547   3.437607
    35  Cu   6.835063   7.849325   5.573877   5.593600   4.616820
                   31         32         33         34         35
    31  H    0.000000
    32  H    2.444822   0.000000
    33  H    7.117465   8.257797   0.000000
    34  H    8.257796   9.273940   2.444821   0.000000
    35  Cu   3.738694   5.485185   3.950064   5.735439   0.000000
 Symmetry turned off by external request.
 Stoichiometry    C20H4CuF8O2(2)
 Framework group  C1[X(C20H4CuF8O2)]
 Deg. of freedom    99
 Full point group                 C1      NOp   1
 Rotational constants (GHZ):           0.1525338           0.1162390           0.0818613
 Leave Link  202 at Fri Mar  8 00:46:55 2024, MaxMem= 13421772800 cpu:               1.4 elap:               0.1
 (Enter /public/software/apps/Gaussian/g16/l301.exe)
 Standard basis: def2SVPP (5D, 7F)
 Ernie: Thresh=  0.10000D-02 Tol=  0.10000D-05 Strict=F.
   452 basis functions,   837 primitive gaussians,   484 cartesian basis functions
   121 alpha electrons      120 beta electrons
       nuclear repulsion energy      3685.1776048244 Hartrees.
 IExCor=  402 DFT=T Ex+Corr=B3LYP ExCW=0 ScaHFX=  0.200000
 ScaDFX=  0.800000  0.720000  1.000000  0.810000 ScalE2=  1.000000  1.000000
 IRadAn=      5 IRanWt=     -1 IRanGd=            0 ICorTp=0 IEmpDi=141
 NAtoms=   35 NActive=   35 NUniq=   35 SFac= 1.00D+00 NAtFMM=   60 NAOKFM=F Big=F
 Integral buffers will be    131072 words long.
 Raffenetti 2 integral format.
 Two-electron integral symmetry is turned off.
 R6Disp:  Grimme-D3(BJ) Dispersion energy=       -0.1007509491 Hartrees.
 Nuclear repulsion after empirical dispersion term =     3685.0768538753 Hartrees.
 Leave Link  301 at Fri Mar  8 00:46:55 2024, MaxMem= 13421772800 cpu:               0.6 elap:               0.0
 (Enter /public/software/apps/Gaussian/g16/l302.exe)
 NPDir=0 NMtPBC=     1 NCelOv=     1 NCel=       1 NClECP=     1 NCelD=      1
         NCelK=      1 NCelE2=     1 NClLst=     1 CellRange=     0.0.
 One-electron integrals computed using PRISM.
   1 Symmetry operations used in ECPInt.
 ECPInt:  NShTT=   19701 NPrTT=   82252 LenC2=   16983 LenP2D=   45122.
 LDataN:  DoStor=T MaxTD1= 4 Len=   56
 NBasis=   452 RedAO= T EigKep=  1.36D-04  NBF=   452
 NBsUse=   452 1.00D-06 EigRej= -1.00D+00 NBFU=   452
 Precomputing XC quadrature grid using
 IXCGrd= 4 IRadAn=           5 IRanWt=          -1 IRanGd=           0 AccXCQ= 0.00D+00.
 Generated NRdTot=       0 NPtTot=           0 NUsed=           0 NTot=          32
 NSgBfM=   474   474   474   474   474 MxSgAt=    35 MxSgA2=    35.
 Leave Link  302 at Fri Mar  8 00:46:55 2024, MaxMem= 13421772800 cpu:              11.7 elap:               0.4
 (Enter /public/software/apps/Gaussian/g16/l303.exe)
 DipDrv:  MaxL=1.
 Leave Link  303 at Fri Mar  8 00:46:55 2024, MaxMem= 13421772800 cpu:               1.2 elap:               0.1
 (Enter /public/software/apps/Gaussian/g16/l401.exe)
 ExpMin= 3.30D-02 ExpMax= 7.64D+04 ExpMxC= 1.15D+04 IAcc=3 IRadAn=         5 AccDes= 0.00D+00
 Harris functional with IExCor=  402 and IRadAn=       5 diagonalized for initial guess.
 HarFok:  IExCor=  402 AccDes= 0.00D+00 IRadAn=         5 IDoV= 1 UseB2=F ITyADJ=14
 ICtDFT=  3500011 ScaDFX=  1.000000  1.000000  1.000000  1.000000
 FoFCou: FMM=F IPFlag=           0 FMFlag=      100000 FMFlg1=           0
         NFxFlg=           0 DoJE=T BraDBF=F KetDBF=T FulRan=T
         wScrn=  0.000000 ICntrl=       500 IOpCl=  0 I1Cent=   200000004 NGrid=           0
         NMat0=    1 NMatS0=      1 NMatT0=    0 NMatD0=    1 NMtDS0=    0 NMtDT0=    0
 Symmetry not used in FoFCou.
 Harris En= -3352.79101261473    
 JPrj=0 DoOrth=F DoCkMO=F.
 Initial guess <Sx>= 0.0000 <Sy>= 0.0000 <Sz>= 0.5000 <S**2>= 0.7500 S= 0.5000
 Leave Link  401 at Fri Mar  8 00:46:56 2024, MaxMem= 13421772800 cpu:              27.4 elap:               0.9
 (Enter /public/software/apps/Gaussian/g16/l502.exe)
 Two-electron integral symmetry not used.
 UHF open shell SCF:
 Using DIIS extrapolation, IDIIS=  1040.
 NGot= 13421772800 LenX= 13421284394 LenY= 13421049654
 Requested convergence on RMS density matrix=1.00D-08 within 128 cycles.
 Requested convergence on MAX density matrix=1.00D-06.
 Requested convergence on             energy=1.00D-06.
 No special actions if energy rises.
 Fock matrices will be formed incrementally for  20 cycles.

 Cycle   1  Pass 1  IDiag  1:
 FoFJK:  IHMeth= 1 ICntrl=       0 DoSepK=F KAlg= 0 I1Cent=           0 FoldK=F
 IRaf= 790000000 NMat=       1 IRICut=       1 DoRegI=T DoRafI=F ISym2E= 0 IDoP0=0 IntGTp=1.
 FoFCou: FMM=F IPFlag=           0 FMFlag=      100000 FMFlg1=           0
         NFxFlg=           0 DoJE=F BraDBF=F KetDBF=F FulRan=T
         wScrn=  0.000000 ICntrl=         0 IOpCl=  1 I1Cent=           0 NGrid=           0
         NMat0=    1 NMatS0=      1 NMatT0=    0 NMatD0=    1 NMtDS0=    0 NMtDT0=    0
 Symmetry not used in FoFCou.
 E= -3346.77478991305    
 DIIS: error= 3.34D-01 at cycle   1 NSaved=   1.
 NSaved= 1 IEnMin= 1 EnMin= -3346.77478991305     IErMin= 1 ErrMin= 3.34D-01
 ErrMax= 3.34D-01  0.00D+00 EMaxC= 1.00D-01 BMatC= 2.97D+01 BMatP= 2.97D+01
 IDIUse=3 WtCom= 0.00D+00 WtEn= 1.00D+00
 Coeff-Com:  0.100D+01
 Coeff-En:   0.100D+01
 Coeff:      0.100D+01
 Gap=     1.945 Goal=   None    Shift=    0.000
 Gap=     0.600 Goal=   None    Shift=    0.000
 GapD=    0.600 DampG=2.000 DampE=0.125 DampFc=0.2500 IDamp=-1.
 Damping current iteration by 2.50D-01
 RMSDP=3.63D-02 MaxDP=6.02D+00              OVMax= 9.82D-01

 Cycle   2  Pass 1  IDiag  1:
 RMSU=  9.08D-03    CP:  1.01D+00
 E= -3347.68872264705     Delta-E=       -0.913932733998 Rises=F Damp=T
 DIIS: error= 1.17D-01 at cycle   2 NSaved=   2.
 NSaved= 2 IEnMin= 2 EnMin= -3347.68872264705     IErMin= 2 ErrMin= 1.17D-01
 ErrMax= 1.17D-01  0.00D+00 EMaxC= 1.00D-01 BMatC= 3.61D+00 BMatP= 2.97D+01
 IDIUse=3 WtCom= 0.00D+00 WtEn= 1.00D+00
 Coeff-Com: -0.191D+00 0.119D+01
 Coeff-En:   0.403D+00 0.597D+00
 Coeff:      0.403D+00 0.597D+00
 Gap=     0.014 Goal=   None    Shift=    0.000
 Gap=     0.035 Goal=   None    Shift=    0.000
 RMSDP=1.00D-02 MaxDP=9.94D-01 DE=-9.14D-01 OVMax= 9.43D-01

 Cycle   3  Pass 1  IDiag  1:
 RMSU=  9.02D-03    CP:  9.35D-01  5.57D-01
 E= -3346.30250526645     Delta-E=        1.386217380596 Rises=F Damp=F
 DIIS: error= 2.24D-01 at cycle   3 NSaved=   3.
 NSaved= 3 IEnMin= 2 EnMin= -3347.68872264705     IErMin= 2 ErrMin= 1.17D-01
 ErrMax= 2.24D-01  0.00D+00 EMaxC= 1.00D-01 BMatC= 2.22D+01 BMatP= 3.61D+00
 IDIUse=2 WtCom= 0.00D+00 WtEn= 1.00D+00
 EnCoef did   100 forward-backward iterations
 Coeff-En:   0.504D+00 0.180D-01 0.478D+00
 Coeff:      0.504D+00 0.180D-01 0.478D+00
 Gap=     0.258 Goal=   None    Shift=    0.000
 Gap=    -0.193 Goal=   None    Shift=    0.000
 RMSDP=9.73D-03 MaxDP=6.71D-01 DE= 1.39D+00 OVMax= 7.87D-01

 Cycle   4  Pass 1  IDiag  1:
 RMSU=  8.04D-03    CP:  9.41D-01  4.82D-01  3.97D-01
 E= -3343.18523844611     Delta-E=        3.117266820348 Rises=F Damp=F
 DIIS: error= 1.28D-01 at cycle   4 NSaved=   4.
 NSaved= 4 IEnMin= 2 EnMin= -3347.68872264705     IErMin= 2 ErrMin= 1.17D-01
 ErrMax= 1.28D-01  0.00D+00 EMaxC= 1.00D-01 BMatC= 2.54D+01 BMatP= 3.61D+00
 IDIUse=2 WtCom= 0.00D+00 WtEn= 1.00D+00
 EnCoef did   100 forward-backward iterations
 Coeff-En:   0.448D+00 0.470D-02 0.350D+00 0.197D+00
 Coeff:      0.448D+00 0.470D-02 0.350D+00 0.197D+00
 Gap=    -0.021 Goal=   None    Shift=    0.000
 Gap=    -0.226 Goal=   None    Shift=    0.000
 RMSDP=9.12D-03 MaxDP=1.92D+00 DE= 3.12D+00 OVMax= 7.72D-01

 Cycle   5  Pass 1  IDiag  1:
 RMSU=  4.21D-03    CP:  9.24D-01  3.73D-02  3.95D-01  1.30D-01
 E= -3352.16802058683     Delta-E=       -8.982782140723 Rises=F Damp=F
 DIIS: error= 8.72D-02 at cycle   5 NSaved=   5.
 NSaved= 5 IEnMin= 5 EnMin= -3352.16802058683     IErMin= 5 ErrMin= 8.72D-02
 ErrMax= 8.72D-02  0.00D+00 EMaxC= 1.00D-01 BMatC= 2.92D+00 BMatP= 3.61D+00
 IDIUse=3 WtCom= 1.28D-01 WtEn= 8.72D-01
 Coeff-Com:  0.803D-03 0.493D+00 0.626D-01-0.950D-01 0.539D+00
 Coeff-En:   0.155D+00 0.000D+00 0.000D+00 0.000D+00 0.845D+00
 Coeff:      0.135D+00 0.632D-01 0.803D-02-0.122D-01 0.806D+00
 Gap=     0.192 Goal=   None    Shift=    0.000
 Gap=     0.000 Goal=   None    Shift=    0.000
 RMSDP=5.77D-03 MaxDP=3.82D-01 DE=-8.98D+00 OVMax= 8.49D-01

 Cycle   6  Pass 1  IDiag  1:
 RMSU=  4.99D-03    CP:  9.50D-01  4.33D-02  3.68D-01  1.39D-02  3.66D-01
 E= -3349.77442684876     Delta-E=        2.393593738071 Rises=F Damp=F
 DIIS: error= 5.38D-02 at cycle   6 NSaved=   6.
 NSaved= 6 IEnMin= 5 EnMin= -3352.16802058683     IErMin= 6 ErrMin= 5.38D-02
 ErrMax= 5.38D-02  0.00D+00 EMaxC= 1.00D-01 BMatC= 9.47D+00 BMatP= 2.92D+00
 IDIUse=2 WtCom= 0.00D+00 WtEn= 1.00D+00
 EnCoef did     7 forward-backward iterations
 Coeff-En:   0.100D+00 0.000D+00 0.000D+00 0.000D+00 0.748D+00 0.152D+00
 Coeff:      0.100D+00 0.000D+00 0.000D+00 0.000D+00 0.748D+00 0.152D+00
 Gap=    -0.019 Goal=   None    Shift=    0.000
 Gap=     0.044 Goal=   None    Shift=    0.000
 RMSDP=4.17D-03 MaxDP=3.08D-01 DE= 2.39D+00 OVMax= 7.81D-01

 Cycle   7  Pass 1  IDiag  1:
 RMSU=  2.64D-03    CP:  9.47D-01  2.41D-02  2.81D-01  6.47D-02  5.73D-01
                    CP:  4.02D-01
 E= -3352.19258425973     Delta-E=       -2.418157410975 Rises=F Damp=F
 DIIS: error= 1.15D-01 at cycle   7 NSaved=   7.
 NSaved= 7 IEnMin= 7 EnMin= -3352.19258425973     IErMin= 6 ErrMin= 5.38D-02
 ErrMax= 1.15D-01  0.00D+00 EMaxC= 1.00D-01 BMatC= 3.65D+00 BMatP= 2.92D+00
 IDIUse=2 WtCom= 0.00D+00 WtEn= 1.00D+00
 Coeff-En:   0.000D+00 0.000D+00 0.000D+00 0.000D+00 0.493D+00 0.000D+00
 Coeff-En:   0.507D+00
 Coeff:      0.000D+00 0.000D+00 0.000D+00 0.000D+00 0.493D+00 0.000D+00
 Coeff:      0.507D+00
 Gap=     0.210 Goal=   None    Shift=    0.000
 Gap=     0.090 Goal=   None    Shift=    0.000
 RMSDP=3.16D-03 MaxDP=3.21D-01 DE=-2.42D+00 OVMax= 4.59D-01

 Cycle   8  Pass 1  IDiag  1:
 RMSU=  2.29D-03    CP:  9.36D-01  3.57D-02  4.02D-01  6.06D-02  6.76D-01
                    CP:  3.76D-01  3.16D-01
 E= -3352.13619211447     Delta-E=        0.056392145266 Rises=F Damp=F
 DIIS: error= 4.75D-02 at cycle   8 NSaved=   8.
 NSaved= 8 IEnMin= 7 EnMin= -3352.19258425973     IErMin= 8 ErrMin= 4.75D-02
 ErrMax= 4.75D-02  0.00D+00 EMaxC= 1.00D-01 BMatC= 2.56D+00 BMatP= 2.92D+00
 IDIUse=3 WtCom= 5.25D-01 WtEn= 4.75D-01
 EnCoef did     4 forward-backward iterations
 Coeff-Com: -0.220D-01 0.403D-01-0.255D-01-0.167D-01 0.436D+00 0.177D-01
 Coeff-Com:  0.372D+00 0.198D+00
 Coeff-En:   0.000D+00 0.000D+00 0.000D+00 0.000D+00 0.394D+00 0.000D+00
 Coeff-En:   0.421D+00 0.185D+00
 Coeff:     -0.115D-01 0.211D-01-0.134D-01-0.874D-02 0.416D+00 0.926D-02
 Coeff:      0.395D+00 0.192D+00
 Gap=     0.195 Goal=   None    Shift=    0.000
 Gap=    -0.020 Goal=   None    Shift=    0.000
 RMSDP=2.67D-03 MaxDP=3.15D-01 DE= 5.64D-02 OVMax= 5.21D-01

 Cycle   9  Pass 1  IDiag  1:
 RMSU=  1.28D-03    CP:  9.34D-01  1.62D-02  3.39D-01  8.75D-02  7.80D-01
                    CP:  2.41D-01  5.79D-01  1.33D-01
 E= -3352.73467971276     Delta-E=       -0.598487598295 Rises=F Damp=F
 DIIS: error= 9.16D-03 at cycle   9 NSaved=   9.
 NSaved= 9 IEnMin= 9 EnMin= -3352.73467971276     IErMin= 9 ErrMin= 9.16D-03
 ErrMax= 9.16D-03  0.00D+00 EMaxC= 1.00D-01 BMatC= 1.04D-01 BMatP= 2.56D+00
 IDIUse=3 WtCom= 9.08D-01 WtEn= 9.16D-02
 Coeff-Com: -0.842D-02 0.341D-01-0.188D-01-0.171D-01 0.137D+00-0.152D-01
 Coeff-Com:  0.144D+00 0.155D+00 0.589D+00
 Coeff-En:   0.000D+00 0.000D+00 0.000D+00 0.000D+00 0.000D+00 0.000D+00
 Coeff-En:   0.000D+00 0.180D-01 0.982D+00
 Coeff:     -0.765D-02 0.310D-01-0.171D-01-0.156D-01 0.125D+00-0.138D-01
 Coeff:      0.131D+00 0.143D+00 0.625D+00
 Gap=     0.145 Goal=   None    Shift=    0.000
 Gap=     0.005 Goal=   None    Shift=    0.000
 RMSDP=1.46D-03 MaxDP=7.49D-02 DE=-5.98D-01 OVMax= 5.21D-01

 Cycle  10  Pass 1  IDiag  1:
 RMSU=  1.17D-03    CP:  9.35D-01  1.58D-02  3.44D-01  6.50D-02  7.42D-01
                    CP:  2.32D-01  6.07D-01  3.01D-01  4.27D-01
 E= -3352.74017015686     Delta-E=       -0.005490444100 Rises=F Damp=F
 DIIS: error= 9.68D-03 at cycle  10 NSaved=  10.
 NSaved=10 IEnMin=10 EnMin= -3352.74017015686     IErMin= 9 ErrMin= 9.16D-03
 ErrMax= 9.68D-03  0.00D+00 EMaxC= 1.00D-01 BMatC= 1.03D-01 BMatP= 1.04D-01
 IDIUse=3 WtCom= 9.08D-01 WtEn= 9.16D-02
 Coeff-Com: -0.406D-02 0.187D-01-0.360D-02-0.168D-02 0.113D-01-0.205D-02
 Coeff-Com: -0.635D-02 0.117D-01 0.480D+00 0.496D+00
 Coeff-En:   0.000D+00 0.000D+00 0.000D+00 0.000D+00 0.000D+00 0.000D+00
 Coeff-En:   0.000D+00 0.000D+00 0.463D+00 0.537D+00
 Coeff:     -0.369D-02 0.170D-01-0.327D-02-0.153D-02 0.103D-01-0.186D-02
 Coeff:     -0.577D-02 0.106D-01 0.479D+00 0.499D+00
 Gap=     0.112 Goal=   None    Shift=    0.000
 Gap=     0.024 Goal=   None    Shift=    0.000
 RMSDP=6.18D-04 MaxDP=3.52D-02 DE=-5.49D-03 OVMax= 1.41D-01

 Cycle  11  Pass 1  IDiag  1:
 RMSU=  3.69D-04    CP:  9.34D-01  1.72D-02  3.43D-01  7.83D-02  7.54D-01
                    CP:  2.19D-01  5.88D-01  2.44D-01  6.81D-01  7.28D-01
 E= -3352.76476571282     Delta-E=       -0.024595555957 Rises=F Damp=F
 DIIS: error= 1.69D-03 at cycle  11 NSaved=  11.
 NSaved=11 IEnMin=11 EnMin= -3352.76476571282     IErMin=11 ErrMin= 1.69D-03
 ErrMax= 1.69D-03  0.00D+00 EMaxC= 1.00D-01 BMatC= 6.36D-03 BMatP= 1.03D-01
 IDIUse=3 WtCom= 9.83D-01 WtEn= 1.69D-02
 Coeff-Com: -0.227D-02 0.912D-02-0.232D-02 0.149D-02 0.190D-02 0.117D-03
 Coeff-Com: -0.444D-02-0.612D-02 0.256D+00 0.290D+00 0.456D+00
 Coeff-En:   0.000D+00 0.000D+00 0.000D+00 0.000D+00 0.000D+00 0.000D+00
 Coeff-En:   0.000D+00 0.000D+00 0.000D+00 0.000D+00 0.100D+01
 Coeff:     -0.223D-02 0.897D-02-0.228D-02 0.147D-02 0.187D-02 0.115D-03
 Coeff:     -0.436D-02-0.602D-02 0.252D+00 0.285D+00 0.465D+00
 Gap=     0.110 Goal=   None    Shift=    0.000
 Gap=     0.032 Goal=   None    Shift=    0.000
 RMSDP=1.77D-04 MaxDP=7.23D-03 DE=-2.46D-02 OVMax= 3.93D-02

 Cycle  12  Pass 1  IDiag  1:
 RMSU=  1.58D-04    CP:  9.34D-01  1.76D-02  3.42D-01  8.05D-02  7.52D-01
                    CP:  2.21D-01  5.90D-01  2.37D-01  6.45D-01  7.64D-01
                    CP:  9.01D-01
 E= -3352.76623793504     Delta-E=       -0.001472222223 Rises=F Damp=F
 DIIS: error= 9.69D-04 at cycle  12 NSaved=  12.
 NSaved=12 IEnMin=12 EnMin= -3352.76623793504     IErMin=12 ErrMin= 9.69D-04
 ErrMax= 9.69D-04  0.00D+00 EMaxC= 1.00D-01 BMatC= 2.07D-03 BMatP= 6.36D-03
 IDIUse=3 WtCom= 9.90D-01 WtEn= 9.69D-03
 Coeff-Com: -0.161D-02 0.761D-02-0.221D-02 0.807D-03 0.843D-03-0.399D-03
 Coeff-Com:  0.400D-02-0.618D-02 0.235D-01-0.160D-01 0.264D+00 0.726D+00
 Coeff-En:   0.000D+00 0.000D+00 0.000D+00 0.000D+00 0.000D+00 0.000D+00
 Coeff-En:   0.000D+00 0.000D+00 0.000D+00 0.000D+00 0.606D-01 0.939D+00
 Coeff:     -0.160D-02 0.754D-02-0.218D-02 0.799D-03 0.835D-03-0.395D-03
 Coeff:      0.396D-02-0.612D-02 0.233D-01-0.158D-01 0.262D+00 0.728D+00
 Gap=     0.110 Goal=   None    Shift=    0.000
 Gap=     0.037 Goal=   None    Shift=    0.000
 RMSDP=1.37D-04 MaxDP=1.07D-02 DE=-1.47D-03 OVMax= 3.80D-02

 Cycle  13  Pass 1  IDiag  1:
 RMSU=  9.61D-05    CP:  9.34D-01  1.80D-02  3.42D-01  8.25D-02  7.54D-01
                    CP:  2.18D-01  5.84D-01  2.35D-01  6.22D-01  7.62D-01
                    CP:  1.13D+00  1.12D+00
 E= -3352.76682638297     Delta-E=       -0.000588447925 Rises=F Damp=F
 DIIS: error= 1.84D-03 at cycle  13 NSaved=  13.
 NSaved=13 IEnMin=13 EnMin= -3352.76682638297     IErMin=12 ErrMin= 9.69D-04
 ErrMax= 1.84D-03  0.00D+00 EMaxC= 1.00D-01 BMatC= 1.58D-03 BMatP= 2.07D-03
 IDIUse=3 WtCom= 9.90D-01 WtEn= 9.69D-03
 Coeff-Com: -0.742D-03 0.440D-02-0.224D-02 0.397D-03 0.128D-02-0.132D-03
 Coeff-Com:  0.914D-02-0.567D-02-0.229D-01-0.692D-01 0.543D-01 0.487D+00
 Coeff-Com:  0.545D+00
 Coeff-En:   0.000D+00 0.000D+00 0.000D+00 0.000D+00 0.000D+00 0.000D+00
 Coeff-En:   0.000D+00 0.000D+00 0.000D+00 0.000D+00 0.000D+00 0.000D+00
 Coeff-En:   0.100D+01
 Coeff:     -0.735D-03 0.436D-02-0.222D-02 0.393D-03 0.127D-02-0.131D-03
 Coeff:      0.905D-02-0.561D-02-0.227D-01-0.685D-01 0.538D-01 0.482D+00
 Coeff:      0.549D+00
 Gap=     0.110 Goal=   None    Shift=    0.000
 Gap=     0.039 Goal=   None    Shift=    0.000
 RMSDP=7.29D-05 MaxDP=4.29D-03 DE=-5.88D-04 OVMax= 2.06D-02

 Cycle  14  Pass 1  IDiag  1:
 RMSU=  4.35D-05    CP:  9.34D-01  1.80D-02  3.41D-01  8.34D-02  7.53D-01
                    CP:  2.18D-01  5.83D-01  2.30D-01  6.03D-01  7.60D-01
                    CP:  1.21D+00  1.38D+00  1.13D+00
 E= -3352.76714156990     Delta-E=       -0.000315186937 Rises=F Damp=F
 DIIS: error= 1.43D-03 at cycle  14 NSaved=  14.
 NSaved=14 IEnMin=14 EnMin= -3352.76714156990     IErMin=12 ErrMin= 9.69D-04
 ErrMax= 1.43D-03  0.00D+00 EMaxC= 1.00D-01 BMatC= 7.59D-04 BMatP= 1.58D-03
 IDIUse=3 WtCom= 9.90D-01 WtEn= 9.69D-03
 Coeff-Com: -0.696D-05 0.363D-03-0.116D-02 0.128D-03 0.589D-03-0.472D-04
 Coeff-Com:  0.972D-02-0.531D-02 0.810D-02-0.411D-02-0.932D-01-0.109D+00
 Coeff-Com:  0.157D+00 0.104D+01
 Coeff-En:   0.000D+00 0.000D+00 0.000D+00 0.000D+00 0.000D+00 0.000D+00
 Coeff-En:   0.000D+00 0.000D+00 0.000D+00 0.000D+00 0.000D+00 0.000D+00
 Coeff-En:   0.000D+00 0.100D+01
 Coeff:     -0.689D-05 0.359D-03-0.115D-02 0.127D-03 0.583D-03-0.468D-04
 Coeff:      0.963D-02-0.525D-02 0.802D-02-0.407D-02-0.923D-01-0.108D+00
 Coeff:      0.156D+00 0.104D+01
 Gap=     0.112 Goal=   None    Shift=    0.000
 Gap=     0.039 Goal=   None    Shift=    0.000
 RMSDP=8.96D-05 MaxDP=5.03D-03 DE=-3.15D-04 OVMax= 3.48D-02

 Cycle  15  Pass 1  IDiag  1:
 RMSU=  3.09D-05    CP:  9.34D-01  1.78D-02  3.40D-01  8.41D-02  7.53D-01
                    CP:  2.19D-01  5.85D-01  2.22D-01  5.65D-01  7.69D-01
                    CP:  1.27D+00  1.58D+00  1.61D+00  1.34D+00
 E= -3352.76735498141     Delta-E=       -0.000213411507 Rises=F Damp=F
 DIIS: error= 2.32D-04 at cycle  15 NSaved=  15.
 NSaved=15 IEnMin=15 EnMin= -3352.76735498141     IErMin=15 ErrMin= 2.32D-04
 ErrMax= 2.32D-04  0.00D+00 EMaxC= 1.00D-01 BMatC= 1.82D-04 BMatP= 7.59D-04
 IDIUse=3 WtCom= 9.98D-01 WtEn= 2.32D-03
 Coeff-Com:  0.226D-04-0.578D-03-0.159D-03-0.295D-04 0.106D-02 0.304D-03
 Coeff-Com:  0.417D-02-0.294D-02 0.264D-01 0.138D-01-0.614D-01-0.173D+00
 Coeff-Com: -0.139D+00 0.576D+00 0.756D+00
 Coeff-En:   0.000D+00 0.000D+00 0.000D+00 0.000D+00 0.000D+00 0.000D+00
 Coeff-En:   0.000D+00 0.000D+00 0.000D+00 0.000D+00 0.000D+00 0.000D+00
 Coeff-En:   0.000D+00 0.000D+00 0.100D+01
 Coeff:      0.225D-04-0.576D-03-0.158D-03-0.295D-04 0.106D-02 0.303D-03
 Coeff:      0.416D-02-0.293D-02 0.263D-01 0.137D-01-0.612D-01-0.173D+00
 Coeff:     -0.139D+00 0.575D+00 0.757D+00
 Gap=     0.113 Goal=   None    Shift=    0.000
 Gap=     0.040 Goal=   None    Shift=    0.000
 RMSDP=5.07D-05 MaxDP=2.70D-03 DE=-2.13D-04 OVMax= 1.47D-02

 Cycle  16  Pass 1  IDiag  1:
 RMSU=  1.78D-05    CP:  9.34D-01  1.76D-02  3.39D-01  8.44D-02  7.53D-01
                    CP:  2.20D-01  5.86D-01  2.16D-01  5.49D-01  7.62D-01
                    CP:  1.30D+00  1.69D+00  1.84D+00  1.87D+00  1.15D+00
 E= -3352.76742587963     Delta-E=       -0.000070898219 Rises=F Damp=F
 DIIS: error= 4.20D-04 at cycle  16 NSaved=  16.
 NSaved=16 IEnMin=16 EnMin= -3352.76742587963     IErMin=15 ErrMin= 2.32D-04
 ErrMax= 4.20D-04  0.00D+00 EMaxC= 1.00D-01 BMatC= 8.63D-05 BMatP= 1.82D-04
 IDIUse=3 WtCom= 9.98D-01 WtEn= 2.32D-03
 Coeff-Com: -0.343D-04-0.572D-04 0.128D-03-0.327D-04 0.280D-03-0.467D-04
 Coeff-Com: -0.112D-03-0.128D-03 0.155D-01-0.660D-02-0.143D-01-0.242D-01
 Coeff-Com: -0.713D-01 0.870D-01 0.351D+00 0.663D+00
 Coeff-En:   0.000D+00 0.000D+00 0.000D+00 0.000D+00 0.000D+00 0.000D+00
 Coeff-En:   0.000D+00 0.000D+00 0.000D+00 0.000D+00 0.000D+00 0.000D+00
 Coeff-En:   0.000D+00 0.000D+00 0.000D+00 0.100D+01
 Coeff:     -0.342D-04-0.571D-04 0.127D-03-0.327D-04 0.280D-03-0.466D-04
 Coeff:     -0.112D-03-0.128D-03 0.155D-01-0.658D-02-0.142D-01-0.242D-01
 Coeff:     -0.712D-01 0.868D-01 0.350D+00 0.664D+00
 Gap=     0.112 Goal=   None    Shift=    0.000
 Gap=     0.039 Goal=   None    Shift=    0.000
 RMSDP=1.91D-05 MaxDP=1.38D-03 DE=-7.09D-05 OVMax= 5.76D-03

 Cycle  17  Pass 1  IDiag  1:
 RMSU=  9.77D-06    CP:  9.34D-01  1.77D-02  3.39D-01  8.46D-02  7.54D-01
                    CP:  2.20D-01  5.85D-01  2.14D-01  5.44D-01  7.61D-01
                    CP:  1.32D+00  1.73D+00  1.93D+00  1.95D+00  1.37D+00
                    CP:  9.89D-01
 E= -3352.76745087902     Delta-E=       -0.000024999395 Rises=F Damp=F
 DIIS: error= 1.53D-04 at cycle  17 NSaved=  17.
 NSaved=17 IEnMin=17 EnMin= -3352.76745087902     IErMin=17 ErrMin= 1.53D-04
 ErrMax= 1.53D-04  0.00D+00 EMaxC= 1.00D-01 BMatC= 2.46D-05 BMatP= 8.63D-05
 IDIUse=3 WtCom= 9.98D-01 WtEn= 1.53D-03
 Coeff-Com: -0.416D-04 0.107D-03 0.821D-04-0.636D-04 0.128D-03-0.358D-06
 Coeff-Com: -0.565D-03 0.351D-03 0.773D-02-0.849D-02-0.267D-02 0.648D-02
 Coeff-Com: -0.130D-01-0.349D-02 0.485D-03 0.282D+00 0.731D+00
 Coeff-En:   0.000D+00 0.000D+00 0.000D+00 0.000D+00 0.000D+00 0.000D+00
 Coeff-En:   0.000D+00 0.000D+00 0.000D+00 0.000D+00 0.000D+00 0.000D+00
 Coeff-En:   0.000D+00 0.000D+00 0.000D+00 0.000D+00 0.100D+01
 Coeff:     -0.415D-04 0.107D-03 0.820D-04-0.635D-04 0.128D-03-0.357D-06
 Coeff:     -0.565D-03 0.350D-03 0.772D-02-0.848D-02-0.267D-02 0.647D-02
 Coeff:     -0.129D-01-0.349D-02 0.484D-03 0.282D+00 0.731D+00
 Gap=     0.112 Goal=   None    Shift=    0.000
 Gap=     0.040 Goal=   None    Shift=    0.000
 RMSDP=1.73D-05 MaxDP=1.04D-03 DE=-2.50D-05 OVMax= 6.07D-03

 Cycle  18  Pass 1  IDiag  1:
 RMSU=  5.85D-06    CP:  9.34D-01  1.77D-02  3.39D-01  8.48D-02  7.54D-01
                    CP:  2.20D-01  5.85D-01  2.13D-01  5.38D-01  7.60D-01
                    CP:  1.33D+00  1.77D+00  2.01D+00  2.09D+00  1.49D+00
                    CP:  1.23D+00  1.34D+00
 E= -3352.76746398842     Delta-E=       -0.000013109398 Rises=F Damp=F
 DIIS: error= 5.32D-05 at cycle  18 NSaved=  18.
 NSaved=18 IEnMin=18 EnMin= -3352.76746398842     IErMin=18 ErrMin= 5.32D-05
 ErrMax= 5.32D-05  0.00D+00 EMaxC= 1.00D-01 BMatC= 1.08D-05 BMatP= 2.46D-05
 IDIUse=1 WtCom= 1.00D+00 WtEn= 0.00D+00
 Coeff-Com:  0.705D-05 0.351D-06-0.634D-05-0.358D-04-0.176D-03 0.665D-04
 Coeff-Com: -0.743D-04 0.272D-03 0.574D-03 0.766D-03 0.712D-02 0.341D-02
 Coeff-Com:  0.279D-01-0.331D-01-0.342D+00-0.361D+00 0.555D+00 0.114D+01
 Coeff:      0.705D-05 0.351D-06-0.634D-05-0.358D-04-0.176D-03 0.665D-04
 Coeff:     -0.743D-04 0.272D-03 0.574D-03 0.766D-03 0.712D-02 0.341D-02
 Coeff:      0.279D-01-0.331D-01-0.342D+00-0.361D+00 0.555D+00 0.114D+01
 Gap=     0.113 Goal=   None    Shift=    0.000
 Gap=     0.040 Goal=   None    Shift=    0.000
 RMSDP=3.58D-05 MaxDP=1.97D-03 DE=-1.31D-05 OVMax= 1.37D-02

 Cycle  19  Pass 1  IDiag  1:
 RMSU=  5.71D-06    CP:  9.34D-01  1.77D-02  3.39D-01  8.49D-02  7.54D-01
                    CP:  2.20D-01  5.84D-01  2.10D-01  5.24D-01  7.59D-01
                    CP:  1.35D+00  1.84D+00  2.19D+00  2.37D+00  1.79D+00
                    CP:  1.61D+00  2.34D+00  1.67D+00
 E= -3352.76747961063     Delta-E=       -0.000015622209 Rises=F Damp=F
 DIIS: error= 4.15D-05 at cycle  19 NSaved=  19.
 NSaved=19 IEnMin=19 EnMin= -3352.76747961063     IErMin=19 ErrMin= 4.15D-05
 ErrMax= 4.15D-05  0.00D+00 EMaxC= 1.00D-01 BMatC= 4.52D-06 BMatP= 1.08D-05
 IDIUse=1 WtCom= 1.00D+00 WtEn= 0.00D+00
 Coeff-Com:  0.103D-04-0.657D-04-0.158D-05-0.274D-04-0.857D-04 0.603D-04
 Coeff-Com:  0.161D-03 0.654D-04 0.846D-03 0.162D-02 0.783D-02 0.621D-02
 Coeff-Com:  0.103D-01-0.427D-01-0.200D+00-0.185D+00 0.817D-01 0.518D+00
 Coeff-Com:  0.800D+00
 Coeff:      0.103D-04-0.657D-04-0.158D-05-0.274D-04-0.857D-04 0.603D-04
 Coeff:      0.161D-03 0.654D-04 0.846D-03 0.162D-02 0.783D-02 0.621D-02
 Coeff:      0.103D-01-0.427D-01-0.200D+00-0.185D+00 0.817D-01 0.518D+00
 Coeff:      0.800D+00
 Gap=     0.113 Goal=   None    Shift=    0.000
 Gap=     0.040 Goal=   None    Shift=    0.000
 RMSDP=1.84D-05 MaxDP=9.68D-04 DE=-1.56D-05 OVMax= 6.89D-03

 Cycle  20  Pass 1  IDiag  1:
 RMSU=  3.06D-06    CP:  9.34D-01  1.77D-02  3.39D-01  8.49D-02  7.54D-01
                    CP:  2.21D-01  5.84D-01  2.08D-01  5.16D-01  7.58D-01
                    CP:  1.36D+00  1.86D+00  2.28D+00  2.52D+00  1.92D+00
                    CP:  1.87D+00  2.78D+00  2.18D+00  1.29D+00
 E= -3352.76748428983     Delta-E=       -0.000004679196 Rises=F Damp=F
 DIIS: error= 1.66D-05 at cycle  20 NSaved=  20.
 NSaved=20 IEnMin=20 EnMin= -3352.76748428983     IErMin=20 ErrMin= 1.66D-05
 ErrMax= 1.66D-05  0.00D+00 EMaxC= 1.00D-01 BMatC= 1.23D-06 BMatP= 4.52D-06
 IDIUse=1 WtCom= 1.00D+00 WtEn= 0.00D+00
 Coeff-Com:  0.402D-05-0.424D-04-0.101D-05-0.958D-05 0.102D-04 0.753D-05
 Coeff-Com:  0.116D-03 0.123D-04 0.128D-02-0.455D-03 0.260D-02 0.657D-02
 Coeff-Com: -0.106D-02-0.184D-01-0.260D-01 0.233D-01-0.109D+00-0.919D-01
 Coeff-Com:  0.374D+00 0.839D+00
 Coeff:      0.402D-05-0.424D-04-0.101D-05-0.958D-05 0.102D-04 0.753D-05
 Coeff:      0.116D-03 0.123D-04 0.128D-02-0.455D-03 0.260D-02 0.657D-02
 Coeff:     -0.106D-02-0.184D-01-0.260D-01 0.233D-01-0.109D+00-0.919D-01
 Coeff:      0.374D+00 0.839D+00
 Gap=     0.113 Goal=   None    Shift=    0.000
 Gap=     0.040 Goal=   None    Shift=    0.000
 RMSDP=1.11D-05 MaxDP=5.72D-04 DE=-4.68D-06 OVMax= 4.23D-03

 Cycle  21  Pass 1  IDiag  1:
 Restarting incremental Fock formation.
 E= -3352.76748586163     Delta-E=       -0.000001571809 Rises=F Damp=F
 DIIS: error= 3.41D-05 at cycle  21 NSaved=  20.
 NSaved=20 IEnMin=20 EnMin= -3352.76748586163     IErMin=19 ErrMin= 1.66D-05
 ErrMax= 3.41D-05  0.00D+00 EMaxC= 1.00D-01 BMatC= 7.70D-07 BMatP= 1.23D-06
 IDIUse=1 WtCom= 1.00D+00 WtEn= 0.00D+00
 Coeff-Com: -0.157D-04 0.617D-04-0.140D-04 0.901D-04-0.905D-05-0.209D-04
 Coeff-Com: -0.195D-05 0.473D-03-0.234D-02-0.302D-02 0.320D-02 0.868D-03
 Coeff-Com:  0.140D-01 0.426D-01 0.655D-01-0.475D-01-0.232D+00-0.209D+00
 Coeff-Com:  0.448D+00 0.920D+00
 Coeff:     -0.157D-04 0.617D-04-0.140D-04 0.901D-04-0.905D-05-0.209D-04
 Coeff:     -0.195D-05 0.473D-03-0.234D-02-0.302D-02 0.320D-02 0.868D-03
 Coeff:      0.140D-01 0.426D-01 0.655D-01-0.475D-01-0.232D+00-0.209D+00
 Coeff:      0.448D+00 0.920D+00
 Gap=     0.113 Goal=   None    Shift=    0.000
 Gap=     0.040 Goal=   None    Shift=    0.000
 RMSDP=7.29D-06 MaxDP=3.58D-04 DE=-1.57D-06 OVMax= 2.80D-03

 Cycle  22  Pass 1  IDiag  1:
 RMSU=  7.29D-06    CP:  1.00D+00
 E= -3352.76748661760     Delta-E=       -0.000000755964 Rises=F Damp=F
 DIIS: error= 9.11D-06 at cycle  22 NSaved=  20.
 NSaved=20 IEnMin=20 EnMin= -3352.76748661760     IErMin=20 ErrMin= 9.11D-06
 ErrMax= 9.11D-06  0.00D+00 EMaxC= 1.00D-01 BMatC= 2.64D-07 BMatP= 7.70D-07
 IDIUse=1 WtCom= 1.00D+00 WtEn= 0.00D+00
 Coeff-Com: -0.176D-04 0.732D-04 0.590D-04-0.995D-05-0.394D-04-0.403D-04
 Coeff-Com:  0.347D-03-0.889D-03-0.273D-02-0.356D-02-0.135D-02 0.174D-01
 Coeff-Com:  0.260D-01 0.173D-01 0.238D-02-0.801D-01-0.203D+00-0.335D-01
 Coeff-Com:  0.422D+00 0.839D+00
 Coeff:     -0.176D-04 0.732D-04 0.590D-04-0.995D-05-0.394D-04-0.403D-04
 Coeff:      0.347D-03-0.889D-03-0.273D-02-0.356D-02-0.135D-02 0.174D-01
 Coeff:      0.260D-01 0.173D-01 0.238D-02-0.801D-01-0.203D+00-0.335D-01
 Coeff:      0.422D+00 0.839D+00
 Gap=     0.113 Goal=   None    Shift=    0.000
 Gap=     0.040 Goal=   None    Shift=    0.000
 RMSDP=4.77D-06 MaxDP=2.32D-04 DE=-7.56D-07 OVMax= 1.79D-03

 Cycle  23  Pass 1  IDiag  1:
 RMSU=  9.18D-07    CP:  1.00D+00  1.64D+00
 E= -3352.76748689638     Delta-E=       -0.000000278777 Rises=F Damp=F
 DIIS: error= 4.79D-06 at cycle  23 NSaved=  20.
 NSaved=20 IEnMin=20 EnMin= -3352.76748689638     IErMin=20 ErrMin= 4.79D-06
 ErrMax= 4.79D-06  0.00D+00 EMaxC= 1.00D-01 BMatC= 1.07D-07 BMatP= 2.64D-07
 IDIUse=1 WtCom= 1.00D+00 WtEn= 0.00D+00
 Coeff-Com:  0.224D-04-0.294D-04 0.301D-05 0.837D-05-0.497D-04 0.251D-04
 Coeff-Com:  0.423D-03 0.753D-03-0.340D-02 0.147D-02 0.111D-03-0.323D-01
 Coeff-Com: -0.467D-01 0.564D-01 0.158D+00 0.316D-01-0.316D+00-0.387D+00
 Coeff-Com:  0.452D+00 0.109D+01
 Coeff:      0.224D-04-0.294D-04 0.301D-05 0.837D-05-0.497D-04 0.251D-04
 Coeff:      0.423D-03 0.753D-03-0.340D-02 0.147D-02 0.111D-03-0.323D-01
 Coeff:     -0.467D-01 0.564D-01 0.158D+00 0.316D-01-0.316D+00-0.387D+00
 Coeff:      0.452D+00 0.109D+01
 Gap=     0.113 Goal=   None    Shift=    0.000
 Gap=     0.040 Goal=   None    Shift=    0.000
 RMSDP=2.64D-06 MaxDP=1.24D-04 DE=-2.79D-07 OVMax= 8.03D-04

 Cycle  24  Pass 1  IDiag  1:
 RMSU=  1.49D-06    CP:  1.00D+00  1.93D+00  1.48D+00
 E= -3352.76748701165     Delta-E=       -0.000000115270 Rises=F Damp=F
 DIIS: error= 1.60D-05 at cycle  24 NSaved=  20.
 NSaved=20 IEnMin=20 EnMin= -3352.76748701165     IErMin=19 ErrMin= 4.79D-06
 ErrMax= 1.60D-05  0.00D+00 EMaxC= 1.00D-01 BMatC= 1.04D-07 BMatP= 1.07D-07
 IDIUse=1 WtCom= 1.00D+00 WtEn= 0.00D+00
 Coeff-Com: -0.204D-04-0.656D-06-0.332D-05-0.110D-04 0.337D-03 0.371D-03
 Coeff-Com:  0.163D-02 0.544D-03-0.945D-03-0.836D-02-0.125D-01-0.235D-02
 Coeff-Com:  0.264D-01 0.622D-01 0.727D-02-0.123D+00-0.221D+00-0.897D-01
 Coeff-Com:  0.589D+00 0.770D+00
 Coeff:     -0.204D-04-0.656D-06-0.332D-05-0.110D-04 0.337D-03 0.371D-03
 Coeff:      0.163D-02 0.544D-03-0.945D-03-0.836D-02-0.125D-01-0.235D-02
 Coeff:      0.264D-01 0.622D-01 0.727D-02-0.123D+00-0.221D+00-0.897D-01
 Coeff:      0.589D+00 0.770D+00
 Gap=     0.113 Goal=   None    Shift=    0.000
 Gap=     0.040 Goal=   None    Shift=    0.000
 RMSDP=1.65D-06 MaxDP=8.60D-05 DE=-1.15D-07 OVMax= 4.81D-04

 Cycle  25  Pass 1  IDiag  1:
 RMSU=  7.97D-07    CP:  1.00D+00  2.13D+00  1.75D+00  1.17D+00
 E= -3352.76748706276     Delta-E=       -0.000000051109 Rises=F Damp=F
 DIIS: error= 1.93D-06 at cycle  25 NSaved=  20.
 NSaved=20 IEnMin=20 EnMin= -3352.76748706276     IErMin=20 ErrMin= 1.93D-06
 ErrMax= 1.93D-06  0.00D+00 EMaxC= 1.00D-01 BMatC= 9.05D-09 BMatP= 1.04D-07
 IDIUse=1 WtCom= 1.00D+00 WtEn= 0.00D+00
 Coeff-Com: -0.992D-05-0.212D-05 0.883D-06 0.133D-03 0.777D-04 0.925D-03
 Coeff-Com:  0.155D-02 0.239D-03-0.599D-02-0.771D-02 0.135D-02 0.127D-01
 Coeff-Com:  0.215D-01 0.455D-02-0.237D-01-0.807D-01-0.166D+00 0.183D+00
 Coeff-Com:  0.414D+00 0.644D+00
 Coeff:     -0.992D-05-0.212D-05 0.883D-06 0.133D-03 0.777D-04 0.925D-03
 Coeff:      0.155D-02 0.239D-03-0.599D-02-0.771D-02 0.135D-02 0.127D-01
 Coeff:      0.215D-01 0.455D-02-0.237D-01-0.807D-01-0.166D+00 0.183D+00
 Coeff:      0.414D+00 0.644D+00
 Gap=     0.113 Goal=   None    Shift=    0.000
 Gap=     0.040 Goal=   None    Shift=    0.000
 RMSDP=5.38D-07 MaxDP=3.06D-05 DE=-5.11D-08 OVMax= 1.65D-04

 Cycle  26  Pass 1  IDiag  1:
 RMSU=  1.93D-07    CP:  1.00D+00  2.18D+00  1.86D+00  1.31D+00  1.19D+00
 E= -3352.76748706949     Delta-E=       -0.000000006739 Rises=F Damp=F
 DIIS: error= 1.23D-06 at cycle  26 NSaved=  20.
 NSaved=20 IEnMin=20 EnMin= -3352.76748706949     IErMin=20 ErrMin= 1.23D-06
 ErrMax= 1.23D-06  0.00D+00 EMaxC= 1.00D-01 BMatC= 3.25D-09 BMatP= 9.05D-09
 IDIUse=1 WtCom= 1.00D+00 WtEn= 0.00D+00
 Coeff-Com:  0.237D-05 0.154D-05-0.126D-04-0.953D-04 0.277D-04 0.890D-03
 Coeff-Com:  0.465D-03-0.729D-03-0.851D-03 0.141D-02-0.123D-02-0.834D-02
 Coeff-Com: -0.393D-03 0.293D-01 0.236D-01-0.950D-01-0.646D-01 0.230D-01
 Coeff-Com:  0.391D+00 0.702D+00
 Coeff:      0.237D-05 0.154D-05-0.126D-04-0.953D-04 0.277D-04 0.890D-03
 Coeff:      0.465D-03-0.729D-03-0.851D-03 0.141D-02-0.123D-02-0.834D-02
 Coeff:     -0.393D-03 0.293D-01 0.236D-01-0.950D-01-0.646D-01 0.230D-01
 Coeff:      0.391D+00 0.702D+00
 Gap=     0.113 Goal=   None    Shift=    0.000
 Gap=     0.040 Goal=   None    Shift=    0.000
 RMSDP=3.86D-07 MaxDP=2.04D-05 DE=-6.74D-09 OVMax= 1.42D-04

 Cycle  27  Pass 1  IDiag  1:
 RMSU=  1.35D-07    CP:  1.00D+00  2.23D+00  1.95D+00  1.35D+00  1.26D+00
                    CP:  1.14D+00
 E= -3352.76748707218     Delta-E=       -0.000000002690 Rises=F Damp=F
 DIIS: error= 1.02D-06 at cycle  27 NSaved=  20.
 NSaved=20 IEnMin=20 EnMin= -3352.76748707218     IErMin=20 ErrMin= 1.02D-06
 ErrMax= 1.02D-06  0.00D+00 EMaxC= 1.00D-01 BMatC= 9.39D-10 BMatP= 3.25D-09
 IDIUse=1 WtCom= 1.00D+00 WtEn= 0.00D+00
 Coeff-Com:  0.129D-05-0.698D-05-0.980D-05-0.278D-03-0.516D-03-0.145D-03
 Coeff-Com:  0.187D-02 0.432D-03-0.235D-02-0.338D-02-0.147D-02 0.618D-02
 Coeff-Com:  0.107D-01 0.119D-01 0.121D-01-0.430D-01-0.110D+00-0.119D+00
 Coeff-Com:  0.162D+00 0.107D+01
 Coeff:      0.129D-05-0.698D-05-0.980D-05-0.278D-03-0.516D-03-0.145D-03
 Coeff:      0.187D-02 0.432D-03-0.235D-02-0.338D-02-0.147D-02 0.618D-02
 Coeff:      0.107D-01 0.119D-01 0.121D-01-0.430D-01-0.110D+00-0.119D+00
 Coeff:      0.162D+00 0.107D+01
 Gap=     0.113 Goal=   None    Shift=    0.000
 Gap=     0.040 Goal=   None    Shift=    0.000
 RMSDP=2.51D-07 MaxDP=1.15D-05 DE=-2.69D-09 OVMax= 9.56D-05

 Cycle  28  Pass 1  IDiag  1:
 RMSU=  1.04D-07    CP:  1.00D+00  2.26D+00  2.01D+00  1.36D+00  1.23D+00
                    CP:  1.46D+00  1.69D+00
 E= -3352.76748707326     Delta-E=       -0.000000001079 Rises=F Damp=F
 DIIS: error= 2.98D-07 at cycle  28 NSaved=  20.
 NSaved=20 IEnMin=20 EnMin= -3352.76748707326     IErMin=20 ErrMin= 2.98D-07
 ErrMax= 2.98D-07  0.00D+00 EMaxC= 1.00D-01 BMatC= 5.24D-10 BMatP= 9.39D-10
 IDIUse=1 WtCom= 1.00D+00 WtEn= 0.00D+00
 Coeff-Com:  0.219D-04-0.695D-06-0.135D-03-0.380D-03-0.169D-03 0.103D-02
 Coeff-Com:  0.610D-03-0.656D-03-0.212D-02-0.109D-02 0.930D-03 0.456D-02
 Coeff-Com:  0.792D-02 0.179D-01-0.108D-01-0.651D-01-0.166D+00-0.110D+00
 Coeff-Com:  0.650D+00 0.674D+00
 Coeff:      0.219D-04-0.695D-06-0.135D-03-0.380D-03-0.169D-03 0.103D-02
 Coeff:      0.610D-03-0.656D-03-0.212D-02-0.109D-02 0.930D-03 0.456D-02
 Coeff:      0.792D-02 0.179D-01-0.108D-01-0.651D-01-0.166D+00-0.110D+00
 Coeff:      0.650D+00 0.674D+00
 Gap=     0.113 Goal=   None    Shift=    0.000
 Gap=     0.040 Goal=   None    Shift=    0.000
 RMSDP=1.39D-07 MaxDP=6.26D-06 DE=-1.08D-09 OVMax= 4.90D-05

 Cycle  29  Pass 1  IDiag  1:
 RMSU=  3.95D-08    CP:  1.00D+00  2.27D+00  2.03D+00  1.36D+00  1.25D+00
                    CP:  1.58D+00  2.10D+00  1.19D+00
 E= -3352.76748707362     Delta-E=       -0.000000000352 Rises=F Damp=F
 DIIS: error= 2.50D-07 at cycle  29 NSaved=  20.
 NSaved=20 IEnMin=20 EnMin= -3352.76748707362     IErMin=20 ErrMin= 2.50D-07
 ErrMax= 2.50D-07  0.00D+00 EMaxC= 1.00D-01 BMatC= 1.33D-10 BMatP= 5.24D-10
 IDIUse=1 WtCom= 1.00D+00 WtEn= 0.00D+00
 Coeff-Com: -0.214D-04 0.223D-04 0.161D-04 0.405D-04-0.155D-03-0.410D-03
 Coeff-Com: -0.456D-04 0.981D-03 0.941D-03-0.247D-02-0.149D-02 0.196D-02
 Coeff-Com:  0.467D-02 0.848D-02-0.971D-02-0.390D-01-0.104D+00-0.287D-01
 Coeff-Com:  0.287D+00 0.881D+00
 Coeff:     -0.214D-04 0.223D-04 0.161D-04 0.405D-04-0.155D-03-0.410D-03
 Coeff:     -0.456D-04 0.981D-03 0.941D-03-0.247D-02-0.149D-02 0.196D-02
 Coeff:      0.467D-02 0.848D-02-0.971D-02-0.390D-01-0.104D+00-0.287D-01
 Coeff:      0.287D+00 0.881D+00
 Gap=     0.113 Goal=   None    Shift=    0.000
 Gap=     0.040 Goal=   None    Shift=    0.000
 RMSDP=8.97D-08 MaxDP=4.10D-06 DE=-3.52D-10 OVMax= 3.08D-05

 Cycle  30  Pass 1  IDiag  1:
 RMSU=  2.42D-08    CP:  1.00D+00  2.28D+00  2.04D+00  1.36D+00  1.24D+00
                    CP:  1.68D+00  2.36D+00  1.43D+00  1.32D+00
 E= -3352.76748707368     Delta-E=       -0.000000000069 Rises=F Damp=F
 DIIS: error= 2.49D-07 at cycle  30 NSaved=  20.
 NSaved=20 IEnMin=20 EnMin= -3352.76748707368     IErMin=20 ErrMin= 2.49D-07
 ErrMax= 2.49D-07  0.00D+00 EMaxC= 1.00D-01 BMatC= 4.38D-11 BMatP= 1.33D-10
 IDIUse=1 WtCom= 1.00D+00 WtEn= 0.00D+00
 Coeff-Com:  0.665D-04 0.902D-04 0.623D-04-0.433D-03-0.811D-03-0.265D-03
 Coeff-Com:  0.167D-02 0.229D-02-0.967D-03-0.332D-02-0.326D-02-0.268D-02
 Coeff-Com:  0.129D-01 0.733D-02 0.211D-01-0.304D-01-0.165D+00-0.516D-01
 Coeff-Com:  0.504D+00 0.709D+00
 Coeff:      0.665D-04 0.902D-04 0.623D-04-0.433D-03-0.811D-03-0.265D-03
 Coeff:      0.167D-02 0.229D-02-0.967D-03-0.332D-02-0.326D-02-0.268D-02
 Coeff:      0.129D-01 0.733D-02 0.211D-01-0.304D-01-0.165D+00-0.516D-01
 Coeff:      0.504D+00 0.709D+00
 Gap=     0.113 Goal=   None    Shift=    0.000
 Gap=     0.040 Goal=   None    Shift=    0.000
 RMSDP=2.54D-08 MaxDP=1.19D-06 DE=-6.91D-11 OVMax= 6.36D-06

 Cycle  31  Pass 1  IDiag  1:
 RMSU=  1.09D-08    CP:  1.00D+00  2.28D+00  2.05D+00  1.35D+00  1.25D+00
                    CP:  1.71D+00  2.46D+00  1.52D+00  1.58D+00  1.10D+00
 E= -3352.76748707372     Delta-E=       -0.000000000032 Rises=F Damp=F
 DIIS: error= 1.63D-07 at cycle  31 NSaved=  20.
 NSaved=20 IEnMin=20 EnMin= -3352.76748707372     IErMin=20 ErrMin= 1.63D-07
 ErrMax= 1.63D-07  0.00D+00 EMaxC= 1.00D-01 BMatC= 1.30D-11 BMatP= 4.38D-11
 IDIUse=1 WtCom= 1.00D+00 WtEn= 0.00D+00
 Coeff-Com:  0.827D-05 0.456D-05-0.370D-04-0.158D-03-0.523D-04 0.417D-03
 Coeff-Com:  0.414D-03-0.375D-03-0.255D-03 0.472D-03-0.139D-02 0.155D-02
 Coeff-Com: -0.297D-02 0.129D-01 0.926D-02-0.300D-01-0.949D-01 0.300D-01
 Coeff-Com:  0.378D+00 0.697D+00
 Coeff:      0.827D-05 0.456D-05-0.370D-04-0.158D-03-0.523D-04 0.417D-03
 Coeff:      0.414D-03-0.375D-03-0.255D-03 0.472D-03-0.139D-02 0.155D-02
 Coeff:     -0.297D-02 0.129D-01 0.926D-02-0.300D-01-0.949D-01 0.300D-01
 Coeff:      0.378D+00 0.697D+00
 Gap=     0.113 Goal=   None    Shift=    0.000
 Gap=     0.040 Goal=   None    Shift=    0.000
 RMSDP=9.69D-09 MaxDP=1.01D-06 DE=-3.18D-11 OVMax= 1.57D-06

 Cycle  32  Pass 1  IDiag  1:
 RMSU=  7.07D-09    CP:  1.00D+00  2.28D+00  2.05D+00  1.35D+00  1.25D+00
                    CP:  1.72D+00  2.48D+00  1.55D+00  1.61D+00  1.17D+00
                    CP:  1.09D+00
 E= -3352.76748707372     Delta-E=       -0.000000000005 Rises=F Damp=F
 DIIS: error= 2.15D-08 at cycle  32 NSaved=  20.
 NSaved=20 IEnMin=20 EnMin= -3352.76748707372     IErMin=20 ErrMin= 2.15D-08
 ErrMax= 2.15D-08  0.00D+00 EMaxC= 1.00D-01 BMatC= 3.71D-12 BMatP= 1.30D-11
 IDIUse=1 WtCom= 1.00D+00 WtEn= 0.00D+00
 Coeff-Com: -0.528D-06 0.268D-05-0.491D-04-0.361D-04 0.165D-03 0.205D-03
 Coeff-Com: -0.309D-03-0.583D-03-0.140D-03 0.317D-03 0.158D-02-0.800D-03
 Coeff-Com:  0.441D-02 0.708D-02-0.450D-02-0.603D-01-0.540D-01 0.115D+00
 Coeff-Com:  0.388D+00 0.604D+00
 Coeff:     -0.528D-06 0.268D-05-0.491D-04-0.361D-04 0.165D-03 0.205D-03
 Coeff:     -0.309D-03-0.583D-03-0.140D-03 0.317D-03 0.158D-02-0.800D-03
 Coeff:      0.441D-02 0.708D-02-0.450D-02-0.603D-01-0.540D-01 0.115D+00
 Coeff:      0.388D+00 0.604D+00
 Gap=     0.113 Goal=   None    Shift=    0.000
 Gap=     0.040 Goal=   None    Shift=    0.000
 RMSDP=1.38D-08 MaxDP=8.07D-07 DE=-4.55D-12 OVMax= 4.68D-06

 Cycle  33  Pass 1  IDiag  1:
 RMSU=  3.18D-09    CP:  1.00D+00  2.28D+00  2.05D+00  1.35D+00  1.25D+00
                    CP:  1.72D+00  2.50D+00  1.57D+00  1.69D+00  1.27D+00
                    CP:  1.20D+00  8.37D-01
 E= -3352.76748707371     Delta-E=        0.000000000015 Rises=F Damp=F
 DIIS: error= 3.59D-08 at cycle  33 NSaved=  20.
 NSaved=20 IEnMin=19 EnMin= -3352.76748707372     IErMin=19 ErrMin= 2.15D-08
 ErrMax= 3.59D-08  0.00D+00 EMaxC= 1.00D-01 BMatC= 1.12D-12 BMatP= 3.71D-12
 IDIUse=1 WtCom= 1.00D+00 WtEn= 0.00D+00
 Coeff-Com:  0.201D-04 0.120D-04-0.123D-04-0.515D-04-0.679D-04-0.895D-04
 Coeff-Com:  0.573D-04 0.285D-03 0.281D-04-0.517D-03-0.840D-03 0.113D-02
 Coeff-Com:  0.642D-02 0.149D-01-0.266D-01-0.648D-01-0.263D-01 0.752D-01
 Coeff-Com:  0.316D+00 0.705D+00
 Coeff:      0.201D-04 0.120D-04-0.123D-04-0.515D-04-0.679D-04-0.895D-04
 Coeff:      0.573D-04 0.285D-03 0.281D-04-0.517D-03-0.840D-03 0.113D-02
 Coeff:      0.642D-02 0.149D-01-0.266D-01-0.648D-01-0.263D-01 0.752D-01
 Coeff:      0.316D+00 0.705D+00
 Gap=     0.113 Goal=   None    Shift=    0.000
 Gap=     0.040 Goal=   None    Shift=    0.000
 RMSDP=4.97D-09 MaxDP=3.62D-07 DE= 1.55D-11 OVMax= 1.49D-06

 SCF Done:  E(UB3LYP) =  -3352.76748707     A.U. after   33 cycles
            NFock= 33  Conv=0.50D-08     -V/T= 2.0052
 <Sx>= 0.0000 <Sy>= 0.0000 <Sz>= 0.5000 <S**2>= 0.7697 S= 0.5098
 <L.S>=  0.00000000000    
 KE= 3.335273336070D+03 PE=-1.531870880967D+04 EE= 4.945591132649D+03
 Annihilation of the first spin contaminant:
 S**2 before annihilation     0.7697,   after     0.7503
 Leave Link  502 at Fri Mar  8 00:48:42 2024, MaxMem= 13421772800 cpu:            3374.6 elap:             106.2
 (Enter /public/software/apps/Gaussian/g16/l601.exe)
 Copying SCF densities to generalized density rwf, IOpCl= 1 IROHF=0.

[...]
 045251,-0.00021867,-0.00046468,-0.00012371,0.00006055,-0.00000703,0.00
 064076,-0.00021419,0.00061155,-0.00030143,0.00018536,0.00013179,-0.000
 78804,0.00056481,-0.00043514,0.00001932,0.00002960,0.00024997,0.000073
 56,-0.00062506,-0.00104532,0.00323379,-0.00028581,-0.00197903,-0.00092
 539,0.00008268,-0.00003041,-0.01437172,-0.01198888,0.00096317,-0.04284
 211,-0.00165436,-0.08053384,0.01379248,-0.00900444,0.01159227,-0.00026
 849,0.01132879,0.00798117,-0.00634649,-0.00514058,-0.00546555,-0.01118
 643,0.02174049,-0.00911729,-0.08932461,0.03006515,-0.13075264,-0.01198
 120,-0.03021953,-0.00592040,-0.00122876,0.00290290,0.00338121,-0.01703
 617,0.01809842,-0.00447434,0.00098834,-0.00153421,-0.00111690,0.030315
 56,0.00514558,0.00803258,-0.00573644,-0.00276266,0.00433478,-0.0376579
 2,0.06473105,-0.09874621,-0.01056846,0.02646164,-0.01439520,0.20142924
 ,-0.12114907,0.32026100,0.00140530,-0.00258070,0.00245396,0.00150180,-
 0.00645125,-0.02555543,-0.05174282,0.00436764,-0.01113611,0.00514332,0
 .00741962,0.02298360,-0.00159428,0.00580199,0.00043479,0.00080053,-0.0
 0018024,0.00054278,0.00003166,0.00016064,-0.00014227,-0.00030348,-0.00
 008727,0.00045825,0.00007422,-0.00001868,0.00005987,-0.00028000,0.0002
 8626,-0.00000249,-0.00000090,-0.00006835,-0.00006075,0.00048943,-0.000
 45138,0.00006556,-0.00031258,0.00014379,-0.00003468,-0.00070647,0.0001
 3983,0.00025663,-0.00290655,0.00278690,-0.00186068,0.00098224,-0.00125
 010,-0.00045447,0.00012752,0.00126626,-0.00024368,-0.00053141,-0.00098
 042,-0.00042928,-0.00032183,0.00003808,-0.00009910,0.00004404,0.000412
 18,-0.00008791,-0.00011104,-0.00039414,0.00013565,-0.00000979,0.000558
 77,-0.00021905,0.00008510,-0.00006418,0.00007106,0.00005212,-0.0004259
 9,0.00019532,0.00015978,0.00021220,0.00003690,-0.00016249,-0.00026548,
 -0.00003773,-0.00001078,0.00008730,-0.00003393,0.00049820,0.00006510,0
 .00025888,-0.00037680,-0.00003829,-0.00020257,-0.00027388,0.00017927,-
 0.00002684,0.04834601,-0.00165338,-0.00207048,0.00016877,0.00003562,0.
 00696600,0.00627167,0.00602142,-0.07038438,-0.08692018,-0.00157604,-0.
 00001984,-0.01588003,0.00593849,0.00443429,-0.00244240,-0.00060317,0.0
 0051958,-0.00053033,0.00024292,0.00024700,0.00000982,-0.00013787,-0.00
 056725,-0.00003308,-0.00000772,-0.00006902,-0.00007541,0.00024470,0.00
 012995,0.00000956,-0.00004663,-0.00007438,-0.00002352,-0.00035623,-0.0
 0014471,0.00013789,0.00006427,-0.00005821,-0.00002811,0.00039719,-0.00
 042722,0.00024877,0.00212763,0.00204314,-0.00047269,-0.00007145,0.0004
 8474,0.00060797,0.00013004,-0.00002768,0.00033719,-0.00000720,0.000173
 95,-0.00009262,0.00010701,-0.00005787,-0.00006241,0.00001283,-0.000102
 65,0.00004946,0.00010080,0.00006782,0.00001192,0.00002833,-0.00023696,
 0.00010034,-0.00004080,0.00002278,-0.00003563,0.00001600,0.00020040,-0
 .00006016,-0.00010355,-0.00013610,-0.00002470,0.00001112,0.00016230,-0
 .00004228,0.00001609,-0.00009237,0.00004943,-0.00030558,0.00007813,-0.
 00024995,0.00021325,-0.00003450,0.00020655,0.00006539,-0.00022669,-0.0
 0001626,-0.00821705,0.06277851,0.00158383,0.00060106,0.00238661,0.0033
 8711,-0.00779723,-0.01332430,-0.01314494,-0.08720019,-0.31270189,-0.00
 206971,-0.00223413,-0.00639979,0.00052124,-0.00252817,0.00195033,-0.00
 034867,-0.00007277,-0.00028840,-0.00001733,-0.00011560,0.00000069,0.00
 020272,0.00008784,0.00002839,0.00008548,-0.00003461,-0.00009706,-0.000
 02924,-0.00006763,0.00004316,0.00001691,0.00002235,0.00000068,0.000016
 80,0.00011857,-0.00002278,-0.00002340,0.00001760,-0.00001301,-0.000339
 86,0.00047861,0.00076043,-0.00309889,0.00032502,-0.00022339,0.00030629
 ,-0.00038029,-0.00059088,-0.00005098,0.00009220,-0.00007629,-0.0000042
 4,-0.00001982,-0.00017379,-0.00005399,0.00000331,0.00001345,-0.0000258
 8,0.00005258,-0.00002395,-0.00007421,-0.00004272,0.00000884,0.00003703
 ,0.00009005,-0.00001087,-0.00001995,-0.00001365,-0.00001158,0.00003355
 ,-0.00002362,0.00002952,-0.00001249,-0.00001114,-0.00000152,-0.0000021
 8,0.00002045,-0.00002647,0.00000162,-0.00005136,0.00002342,0.00004956,
 -0.00000257,0.00001094,-0.00001971,-0.00000669,-0.00000284,-0.00008043
 ,0.00019688,0.00000366,0.01235107,0.09691787,0.32862965,-0.00136433,0.
 00042861,-0.00059033,0.00171489,0.00529642,0.00208855,-0.01292295,0.00
 554507,-0.01447853,-0.23431538,0.06552659,-0.12780844,0.00367609,0.000
 08505,-0.00002105,-0.00130527,-0.00031882,0.00079863,-0.00093540,0.000
 94842,0.00193818,-0.00018256,-0.00009691,-0.00040557,-0.00003584,0.000
 11963,0.00003093,0.00022978,-0.00018299,0.00000148,-0.00001277,0.00002
 990,0.00000960,-0.00024180,0.00020556,-0.00003914,0.00029001,-0.000019
 98,0.00013721,0.00148730,0.00136888,0.00006358,-0.00027670,-0.00045337
 ,0.00009792,-0.00037785,0.00013215,-0.00008373,-0.00005542,-0.00059578
 ,0.00023017,0.00026476,0.00050841,0.00013532,0.00017650,-0.00006227,0.
 00006042,-0.00004139,-0.00020669,0.00003136,0.00004943,0.00018902,-0.0
 0003134,0.00002964,-0.00032101,0.00013899,-0.00006672,0.00002991,-0.00
 005151,-0.00000013,0.00028291,-0.00010555,-0.00012550,-0.00016731,-0.0
 0002762,0.00006981,0.00022632,-0.00001644,0.00002022,-0.00013043,0.000
 06152,-0.00038783,0.00002379,-0.00028709,0.00031671,-0.00000359,0.0002
 1086,0.00006080,-0.00007763,-0.00005046,-0.00025074,-0.00270779,0.0009
 8540,0.24453841,0.00038217,-0.00098875,0.00038776,0.00412684,0.0059156
 0,-0.00404036,0.01454184,0.00127345,0.00931825,0.06576184,-0.06341476,
 0.03661087,-0.00677467,0.00628913,-0.00442001,-0.00149575,-0.00167381,
 -0.00005416,0.00098880,-0.00083781,-0.00035156,0.00003077,-0.00012647,
 0.00012969,0.00000540,0.00017712,0.00001658,-0.00013408,-0.00006356,-0
 .00000638,0.00005108,0.00001974,0.00000581,-0.00049362,0.00038350,-0.0
 0005436,0.00015529,0.00007884,-0.00019757,0.00140467,0.00242556,-0.002
 33433,-0.00028363,-0.00083387,-0.00035259,-0.00023660,-0.00042549,0.00
 015115,0.00006484,-0.00015543,0.00008432,-0.00000801,0.00005299,0.0001
 4092,0.00004024,-0.00004434,-0.00001254,0.00000026,-0.00002286,0.00000
 964,0.00001762,0.00001469,0.00000166,-0.00001242,-0.00005365,0.0000077
 5,0.00000576,0.00000143,0.00000286,-0.00001131,0.00003784,-0.00002067,
 -0.00000915,-0.00001832,-0.00000103,0.00000280,0.00004394,-0.00000573,
 0.00000916,-0.00002243,0.00001236,-0.00011565,0.00002068,-0.00009087,0
 .00010180,0.00001132,0.00006645,-0.00004681,-0.00000417,-0.00002357,-0
 .00287600,-0.00355275,0.00143453,-0.07531422,0.05542836,0.00075575,-0.
 00018077,0.00039260,0.00048595,-0.00361111,-0.00023645,0.01143750,-0.0
 0425120,0.01163670,-0.12666736,0.03606651,-0.14337451,-0.02357004,0.00
 786500,-0.01155756,-0.00306457,0.00162278,-0.00204829,0.00222271,-0.00
 042085,0.00222125,0.00012890,0.00007319,0.00033749,0.00009608,-0.00008
 431,-0.00000890,-0.00023056,0.00021256,0.00019903,0.00008236,-0.000105
 98,-0.00016782,-0.00111153,0.00057395,0.00008397,-0.00016804,-0.000158
 63,-0.00060454,0.00126427,-0.00311961,-0.00414378,0.00097657,-0.000062
 17,0.00012781,0.00011519,0.00001873,0.00005735,0.00000284,0.00021738,-
 0.00002884,-0.00005906,-0.00018402,-0.00007314,-0.00006096,0.00001178,
 -0.00002494,0.00001525,0.00008007,-0.00001380,-0.00000266,-0.00007193,
 0.00001200,-0.00000357,0.00011719,-0.00003945,0.00001772,-0.00001080,0
 .00001576,0.00001131,-0.00009149,0.00004066,0.00003534,0.00004750,0.00
 000725,-0.00003144,-0.00005433,-0.00000507,-0.00000228,0.00002253,-0.0
 0001058,0.00012633,0.00000531,0.00007970,-0.00011021,0.00000059,-0.000
 05539,0.00000499,0.00001013,-0.00000029,0.00037161,0.00173508,0.000307
 66,0.13693116,-0.03643158,0.14688097,-0.00068150,0.00086051,0.00040262
 ,0.00030277,-0.00061137,-0.00107600,-0.00030533,0.00001801,-0.00011023
 ,0.00009352,-0.00017949,-0.00035198,-0.00014468,0.00012086,0.00037242,
 0.00005784,-0.00017358,-0.00053101,0.00007156,-0.00000004,0.00009301,0
 .00001145,0.00011217,0.00042398,0.00016960,-0.00012369,-0.00011453,-0.
 00019300,0.00016073,0.00014250,0.00000006,-0.00002568,-0.00006968,0.00
 047072,-0.00015151,0.00011457,-0.00035548,0.00010852,-0.00009883,-0.00
 024196,-0.00011682,-0.00015752,0.00077106,0.00119524,0.00071842,-0.002
 43418,-0.00084616,-0.00375983,-0.00083173,0.02327446,-0.01150080,0.001
 01841,-0.00005844,0.00389566,-0.05508788,0.03387332,-0.02291259,0.0070
 1917,-0.01915462,0.00761874,0.00020844,-0.00414491,-0.00465297,0.00068
 707,-0.00017306,0.00041196,0.00008088,-0.00000089,-0.00022722,-0.00029
 490,-0.00028667,0.00039033,0.00007537,-0.00000200,0.00005536,-0.000198
 35,-0.00022176,-0.00024215,-0.00002142,0.00009549,0.00001778,0.0003685
 0,0.00028582,0.00043281,-0.00028030,-0.00009747,-0.00014827,-0.0006170
 5,-0.00042358,0.00008797,-0.00001191,0.00001340,-0.00000633,0.00000975
 ,0.00000778,-0.00000357,0.05105672,-0.00009087,0.00003581,0.00025740,-
 0.00001915,0.00006212,-0.00021794,-0.00006380,-0.00004632,-0.00002525,
 0.00002771,-0.00002985,-0.00007788,-0.00003083,0.00003408,0.00005184,-
 0.00003008,-0.00004060,-0.00017933,0.00005313,-0.00001595,0.00003978,-
 0.00004906,0.00006842,0.00015384,0.00011498,-0.00008061,-0.00007440,-0
 .00004706,0.00006139,0.00014327,-0.00000071,-0.00002937,-0.00011913,0.
 00022842,-0.00008616,0.00016240,-0.00017741,0.00008178,-0.00012799,-0.
 00001572,-0.00001644,-0.00001174,-0.00007611,0.00010739,0.00014621,0.0
 0046942,0.00064315,0.00104087,-0.00209693,-0.00278850,0.00099974,-0.00
 001493,0.00092492,-0.00137786,0.03437238,-0.29403441,0.10151827,0.0048
 7198,-0.01515557,0.00968745,-0.00429226,-0.00068148,-0.00021214,0.0007
 4968,-0.00018945,0.00068055,-0.00014082,0.00002874,0.00000722,-0.00006
 677,-0.00023824,-0.00017793,-0.00003115,-0.00014883,0.00002846,-0.0001
 7003,-0.00000112,-0.00004507,0.00001915,-0.00001434,-0.00001052,0.0002
 6354,0.00012603,0.00002964,-0.00005831,-0.00005411,-0.00002326,-0.0001
 4691,0.00057301,-0.00039482,-0.00000609,0.00000402,0.00000283,0.000008
 73,0.00000139,-0.00000195,-0.03457345,0.31027302,-0.00006396,0.0001774
 3,0.00011469,-0.00012216,0.00012939,-0.00033694,-0.00012478,-0.0000889
 2,-0.00001406,-0.00000791,-0.00004487,-0.00014481,-0.00014474,0.000042
 35,0.00007392,0.00003389,-0.00009690,-0.00027206,0.00002076,0.00000374
 ,0.00004025,-0.00001036,0.00006502,0.00019945,0.00009726,-0.00007309,-
 0.00006605,-0.00003672,0.00006714,0.00010469,-0.00000733,-0.00000965,-
 0.00004966,0.00029873,-0.00008581,0.00020095,-0.00020549,0.00009132,-0
 .00013863,-0.00007240,-0.00022248,-0.00023818,0.00015255,0.00115097,-0
 .00000664,-0.00391963,0.00012188,0.00070191,-0.00031926,0.01857475,-0.
 00122937,0.00269995,-0.00198479,-0.00021694,-0.02547794,0.10139552,-0.
 08570829,0.00073561,-0.00675048,0.00686447,-0.00471478,-0.00012313,0.0
 0526552,0.00024150,0.00012852,0.00053484,-0.00023001,0.00014335,0.0001
 6939,0.00028632,-0.00032869,-0.00031028,0.00006823,-0.00000975,-0.0000
 1847,-0.00023760,0.00003132,0.00009249,0.00005639,-0.00004688,-0.00003
 842,0.00032449,0.00003509,-0.00017437,-0.00007211,-0.00006126,-0.00004
 764,-0.00044854,-0.00072336,-0.00033083,-0.00001614,0.00001084,-0.0000
 0974,0.00001205,0.00001189,-0.00000291,0.02826357,-0.11064795,0.078412
 66,0.00033132,-0.00038800,-0.00026724,-0.00011319,0.00018364,0.0006028
 6,0.00016736,0.00002438,0.00009833,-0.00006545,0.00009638,0.00017101,0
 .00007448,-0.00008454,-0.00015531,-0.00000898,0.00009791,0.00032942,-0
 .00006199,0.00001050,-0.00005777,0.00003176,-0.00009443,-0.00027865,-0
 .00014591,0.00010592,0.00010018,0.00009639,-0.00011830,-0.00017910,0.0
 0000642,0.00003732,0.00014036,-0.00039944,0.00014974,-0.00023235,0.000
 32802,-0.00011654,0.00015946,0.00003824,0.00009739,0.00002789,-0.00038
 577,-0.00005740,-0.00011572,-0.00032192,0.00027930,0.00045505,0.003213
 52,-0.00445242,-0.00337176,-0.00122407,0.00003553,-0.00061052,-0.00985
 811,0.00455460,-0.01258107,-0.22812655,0.03079466,-0.14346008,0.001190
 27,0.00029714,-0.00198772,-0.00170191,-0.00046449,0.00064315,-0.000381
 93,-0.00212299,0.00063892,-0.00020450,0.00031776,-0.00015675,-0.000005
 48,-0.00011425,-0.00008648,0.00016537,0.00012574,0.00015591,0.00000365
 ,-0.00001468,-0.00002010,-0.00033700,-0.00020897,-0.00027722,0.0002938
 9,0.00000293,0.00007660,0.00190564,-0.00026422,-0.00137072,0.00001241,
 -0.00001423,0.00000263,-0.00000827,-0.00000247,0.00000332,-0.00097947,
 0.00091466,0.00307038,0.23651689,0.00011194,-0.00009032,-0.00014172,-0
 .00007123,0.00008721,0.00011635,0.00005006,-0.00002661,0.00001850,-0.0
 0002788,0.00003871,0.00006351,0.00000755,-0.00003482,-0.00006562,0.000
 00310,0.00003155,0.00010857,-0.00002625,0.00000515,-0.00002438,0.00000
 862,-0.00002929,-0.00008826,-0.00004659,0.00003198,0.00002926,0.000038
 94,-0.00002858,-0.00003033,-0.00000359,0.00000657,0.00002265,-0.000084
 44,0.00003206,-0.00002417,0.00006676,-0.00000949,0.00003048,0.00003213
 ,0.00000935,0.00001978,0.00003375,-0.00005442,-0.00030410,-0.00052138,
 -0.00050796,-0.00034075,-0.00250781,-0.00257518,0.00189171,-0.00092511
 ,-0.00017586,-0.00109634,-0.02013651,0.00803848,-0.01455947,0.02980356
 ,-0.06285886,0.02896944,0.02189407,0.00058785,0.01657578,0.00313656,-0
 .00072353,0.00148356,-0.00236050,-0.00006368,-0.00167438,-0.00016751,0
 .00027945,-0.00027192,-0.00008539,0.00000575,0.00001750,0.00025924,0.0
 0024931,0.00003937,-0.00007682,-0.00015653,0.00001840,0.00101579,0.000
 59563,0.00055032,0.00012306,-0.00049738,0.00033999,-0.00115543,-0.0044
 5809,0.00204682,-0.00000065,0.00000140,-0.00000370,-0.00000242,0.00000
 110,0.00000051,0.00147184,0.00065091,-0.00093056,-0.02975321,0.0615257
 6,-0.00003897,0.00018659,-0.00000107,-0.00002417,-0.00009180,-0.000211
 55,-0.00005150,-0.00002991,-0.00003332,0.00001317,-0.00002213,-0.00004
 957,-0.00001761,0.00002250,0.00003506,0.00002104,-0.00004069,-0.000084
 10,0.00000161,0.00000076,0.00000731,0.00000827,0.00001821,0.00007435,0
 .00002522,-0.00002006,-0.00002126,-0.00002417,0.00003030,0.00003894,-0
 .00000458,-0.00000592,-0.00002522,0.00014463,-0.00004957,0.00008194,-0
 .00013024,0.00004183,-0.00004755,0.00004471,-0.00000801,0.00000894,0.0
 0026790,-0.00012024,-0.00030579,0.00091753,-0.00051224,-0.00015108,-0.
 00341770,0.00131657,0.00675660,0.00018975,-0.00033911,-0.00056058,-0.0
 0514615,0.00192551,0.00181122,-0.14300212,0.02965151,-0.15011686,-0.00
 975703,0.00156532,-0.00338449,-0.00064080,-0.00064805,-0.00259619,0.00
 077921,-0.00157792,0.00087177,0.00007129,-0.00014611,-0.00004569,0.000
 02665,0.00013320,0.00013206,0.00000479,-0.00021256,-0.00004934,-0.0000
 0634,0.00013715,-0.00000806,-0.00032828,-0.00017501,-0.00003211,-0.000
 24115,0.00024609,-0.00003284,-0.00075762,0.00299095,0.00231781,-0.0000
 0831,0.00000777,-0.00000567,0.00000303,0.00000383,-0.00000166,0.002856
 12,-0.00130396,-0.00316701,0.15830648,-0.03294039,0.14882871,0.0039230
 0,-0.00333749,-0.00296101,-0.00692885,0.01069373,0.00191389,0.00012027
 ,0.00030179,0.00109591,-0.00103644,0.00072866,0.00120992,0.00048457,-0
 .00066622,-0.00110633,-0.00040926,0.00080875,0.00192254,-0.00023842,-0
 .00002416,-0.00031097,-0.00013270,-0.00034955,-0.00155658,-0.00050471,
 0.00035636,0.00035396,0.00059748,-0.00047611,-0.00038502,0.00000372,0.
 00004895,0.00013672,-0.00126846,0.00041048,-0.00052641,0.00098755,-0.0
 0036440,0.00045276,-0.00015554,0.00069591,0.00023607,0.00022762,-0.000
 04044,-0.00217877,-0.00036008,0.00101143,-0.00063684,-0.00242899,-0.00
 485011,-0.00428295,0.00150556,0.00453245,0.00785337,-0.00039438,-0.001
 44234,0.00003034,-0.00078505,-0.00094677,0.00006420,0.00013369,0.00098
 282,-0.00014396,0.00000834,-0.00157399,0.00050786,-0.00026927,0.000172
 29,-0.00020106,-0.00018221,0.00114985,-0.00058166,-0.00041433,-0.00053
 505,-0.00007540,0.00043989,0.00062932,0.00011819,0.00002103,-0.0002055
 0,0.00007450,-0.00119582,-0.00010930,-0.00071570,0.00089319,0.00006756
 ,0.00061256,0.00020788,-0.00042504,-0.00011212,0.00015408,0.00006219,-
 0.00015880,-0.00002724,0.00011541,0.00000069,0.00020623,0.00010465,-0.
 00012982,-0.00004569,-0.00010426,-0.00008464,0.00686334,-0.01069552,-0
 .05889850,0.04931355,0.02840362,-0.03496953,-0.01130491,-0.00628757,0.
 00432415,-0.00042143,0.00128194,-0.00239681,-0.00413317,-0.00190522,0.
 00161609,0.00247515,0.00170530,-0.00180312,-0.00361005,0.00003225,0.00
 019232,0.00040137,0.00049004,0.00055441,0.00274533,0.00036101,-0.00033
 030,-0.00031732,-0.00070747,0.00057524,0.00031195,-0.00005203,0.000132
 00,0.00032065,0.00061779,0.00009269,0.00085237,-0.00083428,0.00007903,
 -0.00053163,0.00237633,-0.00238510,0.00029778,-0.00391234,0.00134248,0
 .00830202,0.00207392,0.00082244,-0.00435118,-0.01024105,-0.01574706,-0
 .01519499,0.00383911,0.00191439,-0.00467481,0.00180569,0.00177461,0.00
 137621,0.00001282,-0.00203116,0.00021165,0.00058381,0.00097915,-0.0000
 2763,-0.00078367,-0.00131728,0.00007430,0.00018576,0.00012943,0.000156
 73,-0.00045089,0.00048872,-0.00045459,0.00016445,0.00012205,0.00001341
 ,0.00008228,-0.00010454,0.00017671,-0.00002555,0.00047094,-0.00017516,
 0.00028557,0.00024409,0.00028359,-0.00014569,-0.00029912,-0.00020113,-
 0.00088746,-0.00086546,-0.00109440,0.00043042,-0.00003094,0.00014414,-
 0.00029416,0.00006182,0.00015993,-0.00023295,-0.00002482,0.00004804,0.
 00014564,0.00011238,-0.00003439,-0.00742190,0.10517529,0.00447153,0.04
 381441,-0.03540142,-0.00707835,0.00438052,0.00739141,0.00238505,-0.000
 98934,0.00100710,-0.00089310,0.00063158,0.00137683,0.00071157,-0.00077
 104,-0.00126293,-0.00022171,0.00075654,0.00196576,-0.00034223,0.000065
 49,-0.00039761,0.00010230,-0.00048056,-0.00159999,-0.00060992,0.000408
 69,0.00041186,0.00057777,-0.00047406,-0.00057164,0.00000362,0.00011342
 ,0.00037324,-0.00114161,0.00041720,-0.00079424,0.00109692,-0.00053849,
 0.00038671,-0.00057560,0.00043661,-0.00007892,0.00080888,-0.00512038,-
 0.00289384,0.00232101,0.00958839,-0.00182498,-0.02120639,-0.03312351,-
 0.01634085,0.01729936,0.00225948,-0.09388689,0.00578390,0.00257269,0.0
 0410394,-0.00100077,-0.00482115,0.00077760,0.00148049,0.00351429,-0.00
 028570,-0.00090605,-0.00458125,0.00108078,-0.00030882,0.00047495,-0.00
 030676,-0.00063883,0.00289375,-0.00150512,-0.00057561,-0.00083797,-0.0
 0011915,0.00078763,0.00109942,0.00025460,0.00003780,0.00002182,0.00002
 291,-0.00130876,0.00058897,-0.00101233,0.00136250,-0.00005608,0.000854
 53,-0.00188551,-0.00144909,-0.00195436,-0.00002450,0.00010887,-0.00019
 319,0.00003046,0.00000099,-0.00000229,-0.00033429,0.00007937,-0.000253
 95,0.00022664,0.00015360,-0.00003370,-0.00043540,-0.02113813,0.1407125
 9\\-0.00003308,0.00001119,0.00003213,-0.00000775,0.00001896,-0.0000245
 8,0.00001301,-0.00000279,-0.00000768,-0.00000965,0.00000310,-0.0000015
 0,0.00001854,0.00000076,0.00001847,0.00000543,-0.00000925,-0.00000867,
 -0.00000880,0.00000229,-0.00000307,0.00002325,-0.00000284,0.00001348,-
 0.00000952,0.00000602,0.00000327,-0.00002318,-0.00000292,-0.00002693,0
 .00000256,0.00000335,0.00001753,0.00001511,-0.00000187,-0.00000605,0.0
 0000782,-0.00000328,-0.00000252,-0.00002537,0.00000640,0.00000076,0.00
 002183,-0.00001292,0.00001287,-0.00002871,-0.00001831,-0.00001430,0.00
 002405,0.00001187,0.00002598,0.00000195,0.00001901,-0.00000500,-0.0000
 1965,-0.00001076,-0.00000475,0.00001084,0.00000842,-0.00000002,-0.0000
 1710,0.00000204,-0.00001034,-0.00000369,-0.00000436,-0.00000350,0.0000
 0961,-0.00000210,0.00000326,-0.00002350,-0.00000428,-0.00000847,0.0000
 1132,0.00000921,0.00000267,0.00002106,-0.00002240,0.00001160,-0.000003
 10,0.00001677,-0.00000836,-0.00000844,0.00000108,0.00000860,-0.0000010
 5,0.00000461,-0.00000808,0.00002266,0.00001462,0.00001461,-0.00000012,
 0.00000443,0.00000147,0.00000376,-0.00000031,-0.00000093,-0.00000131,0
 .00000391,0.00000288,-0.00000343,-0.00000261,-0.00000025,0.00001464,-0
 .00004705,-0.00002458\\\@
 The archive entry for this job was punched.


 THERE ARE PEOPLE SO ADDICTED TO EXAGERATING THEY
 CAN'T TELL THE TRUTH WITHOUT LYING. -- FORTUNE COOKIE
 Job cpu time:       0 days  5 hours 21 minutes 15.8 seconds.
 Elapsed time:       0 days  0 hours 10 minutes  6.6 seconds.
 File lengths (MBytes):  RWF=   1916 Int=      0 D2E=      0 Chk=     25 Scr=      2
 Normal termination of Gaussian 16 at Fri Mar  8 01:11:33 2024.
