 Entering Gaussian System, Link 0=g16
 Initial command:
 /public/software/apps/Gaussian/g16/l1.exe "/public/home/LJQ_HG/tmp/Gau-76190.inp" -scrdir="/public/home/LJQ_HG/tmp/"
 Entering Link 1 = /public/software/apps/Gaussian/g16/l1.exe PID=     76191.
  
 Copyright (c) 1988-2019, Gaussian, Inc.  All Rights Reserved.
  
 This is part of the Gaussian(R) 16 program.  It is based on
 the Gaussian(R) 09 system (copyright 2009, Gaussian, Inc.),
 the Gaussian(R) 03 system (copyright 2003, Gaussian, Inc.),
 the Gaussian(R) 98 system (copyright 1998, Gaussian, Inc.),
 the Gaussian(R) 94 system (copyright 1995, Gaussian, Inc.),
 the Gaussian 92(TM) system (copyright 1992, Gaussian, Inc.),
 the Gaussian 90(TM) system (copyright 1990, Gaussian, Inc.),
 the Gaussian 88(TM) system (copyright 1988, Gaussian, Inc.),
 the Gaussian 86(TM) system (copyright 1986, Carnegie Mellon
 University), and the Gaussian 82(TM) system (copyright 1983,
 Carnegie Mellon University). Gaussian is a federally registered
 trademark of Gaussian, Inc.
  
 This software contains proprietary and confidential information,
 including trade secrets, belonging to Gaussian, Inc.
  
 This software is provided under written license and may be
 used, copied, transmitted, or stored only in accord with that
 written license.
  
 The following legend is applicable only to US Government
 contracts under FAR:
  
                    RESTRICTED RIGHTS LEGEND
  
 Use, reproduction and disclosure by the US Government is
 subject to restrictions as set forth in subparagraphs (a)
 and (c) of the Commercial Computer Software - Restricted
 Rights clause in FAR 52.227-19.
  
 Gaussian, Inc.
 340 Quinnipiac St., Bldg. 40, Wallingford CT 06492
  
  
 ---------------------------------------------------------------
 Warning -- This program may not be used in any manner that
 competes with the business of Gaussian, Inc. or will provide
 assistance to any competitor of Gaussian, Inc.  The licensee
 of this program is prohibited from giving any competitor of
 Gaussian, Inc. access to this program.  By using this program,
 the user acknowledges that Gaussian, Inc. is engaged in the
 business of creating and licensing software in the field of
 computational chemistry and represents and warrants to the
 licensee that it is not a competitor of Gaussian, Inc. and that
 it will not use this program in any manner prohibited above.
 ---------------------------------------------------------------
  

 Cite this work as:
 Gaussian 16, Revision C.01,
 M. J. Frisch, G. W. Trucks, H. B. Schlegel, G. E. Scuseria, 
 M. A. Robb, J. R. Cheeseman, G. Scalmani, V. Barone, 
 G. A. Petersson, H. Nakatsuji, X. Li, M. Caricato, A. V. Marenich, 
 J. Bloino, B. G. Janesko, R. Gomperts, B. Mennucci, H. P. Hratchian, 
 J. V. Ortiz, A. F. Izmaylov, J. L. Sonnenberg, D. Williams-Young, 
 F. Ding, F. Lipparini, F. Egidi, J. Goings, B. Peng, A. Petrone, 
 T. Henderson, D. Ranasinghe, V. G. Zakrzewski, J. Gao, N. Rega, 
 G. Zheng, W. Liang, M. Hada, M. Ehara, K. Toyota, R. Fukuda, 
 J. Hasegawa, M. Ishida, T. Nakajima, Y. Honda, O. Kitao, H. Nakai, 
 T. Vreven, K. Throssell, J. A. Montgomery, Jr., J. E. Peralta, 
 F. Ogliaro, M. J. Bearpark, J. J. Heyd, E. N. Brothers, K. N. Kudin, 
 V. N. Staroverov, T. A. Keith, R. Kobayashi, J. Normand, 
 K. Raghavachari, A. P. Rendell, J. C. Burant, S. S. Iyengar, 
 J. Tomasi, M. Cossi, J. M. Millam, M. Klene, C. Adamo, R. Cammi, 
 J. W. Ochterski, R. L. Martin, K. Morokuma, O. Farkas, 
 J. B. Foresman, and D. J. Fox, Gaussian, Inc., Wallingford CT, 2019.
 
 ******************************************
 Gaussian 16:  ES64L-G16RevC.01  3-Jul-2019
                 8-Mar-2024 
 ******************************************
 %nprocshared=32
 Will use up to   32 processors via shared memory.
 %mem=100GB
 ------------------------------------------
 #p opt freq b3lyp/def2svpp em=gd3bj nosymm
 ------------------------------------------
 1/18=20,19=15,26=3,38=1/1,3;
 2/9=110,12=2,15=1,17=6,18=5,40=1/2;
 3/5=43,7=202,11=2,25=1,30=1,71=1,74=-5,124=41/1,2,3;
 4//1;
 5/5=2,38=5/2;
 6/7=2,8=2,9=2,10=2,28=1/1;
 7/30=1/1,2,3,16;
 1/18=20,19=15,26=3/3(2);
 2/9=110,15=1/2;
 99//99;
 2/9=110,15=1/2;
 3/5=43,7=202,11=2,25=1,30=1,71=1,74=-5,124=41/1,2,3;
 4/5=5,16=3,69=1/1;
 5/5=2,38=5/2;
 7/30=1/1,2,3,16;
 1/18=20,19=15,26=3/3(-5);
 2/9=110,15=1/2;
 6/7=2,8=2,9=2,10=2,19=2,28=1/1;
 99/9=1/99;
 Leave Link    1 at Fri Mar  8 00:44:58 2024, MaxMem= 13421772800 cpu:               2.6 elap:               0.1
 (Enter /public/software/apps/Gaussian/g16/l101.exe)
 ------------------
 $$$$Title####0????
 ------------------
 Symbolic Z-matrix:
 Charge =  0 Multiplicity = 2
 C                     5.52641  -2.77116   0.3151 
 O                     4.10954  -2.89561   0.38243 
 C                     3.21035  -1.83203   0.21262 
 C                     1.8428   -2.10117   0.30516 
 C                     0.90139  -1.08242   0.1482 
 C                     1.31224   0.24314  -0.09861 
 C                     0.37916   1.30296  -0.25087 
 C                    -1.08632   1.08794  -0.10785 
 C                    -1.89877   1.19105  -1.25232 
 O                    -1.33988   1.52382  -2.48212 
 C                    -3.27353   0.96602  -1.1681 
 C                    -3.86325   0.64849   0.05398 
 C                    -3.0838    0.56957   1.21562 
 C                    -3.68728   0.27101   2.44752 
 C                    -2.9191    0.21074   3.61104 
 C                    -1.54654   0.45292   3.55783 
 C                    -0.92997   0.74965   2.34008 
 C                    -1.68389   0.80045   1.14785 
 C                     0.84454   2.59383  -0.56259 
 O                    -0.05599   3.63423  -0.76789 
 C                     2.21242   2.84568  -0.67423 
 C                     3.13612   1.81854  -0.49098 
 C                     2.70025   0.51619  -0.21042 
 C                     3.63671  -0.51756  -0.04873 
 H                     5.83063  -2.40878  -0.68958 
 H                     5.88609  -2.07211   1.09945 
 H                     5.9862   -3.76567   0.48793 
 H                     1.50572  -3.11175   0.49886 
 H                    -0.14611  -1.34403   0.2173 
 H                    -3.8886    1.03965  -2.05605 
 H                    -4.93248   0.47665   0.09331 
 H                    -4.75359   0.08869   2.51088 
 H                    -3.39039  -0.01831   4.55813 
 H                    -0.95723   0.41295   4.46489 
 H                     0.13458   0.94238   2.34269 
 H                     2.56106   3.8441   -0.90618 
 H                     4.193     2.0404   -0.58124 
 H                     4.69276  -0.29441  -0.13141 
 Cu                   -0.85542   3.42449  -2.54792 
 
 ITRead=  0  0  0  0  0  0  0  0  0  0  0  0  0  0  0  0  0  0  0  0
 ITRead=  0  0  0  0  0  0  0  0  0  0  0  0  0  0  0  0  0  0  0
 MicOpt= -1 -1 -1 -1 -1 -1 -1 -1 -1 -1 -1 -1 -1 -1 -1 -1 -1 -1 -1 -1
 MicOpt= -1 -1 -1 -1 -1 -1 -1 -1 -1 -1 -1 -1 -1 -1 -1 -1 -1 -1 -1
 NAtoms=     39 NQM=       39 NQMF=       0 NMMI=      0 NMMIF=      0
                NMic=       0 NMicF=      0.
                    Isotopes and Nuclear Properties:
 (Nuclear quadrupole moments (NQMom) in fm**2, nuclear magnetic moments (NMagM)
  in nuclear magnetons)

  Atom         1           2           3           4           5           6           7           8           9          10
 IAtWgt=          12          16          12          12          12          12          12          12          12          16
 AtmWgt=  12.0000000  15.9949146  12.0000000  12.0000000  12.0000000  12.0000000  12.0000000  12.0000000  12.0000000  15.9949146
 NucSpn=           0           0           0           0           0           0           0           0           0           0
 AtZEff=  -0.0000000  -0.0000000  -0.0000000  -0.0000000  -0.0000000  -0.0000000  -0.0000000  -0.0000000  -0.0000000  -0.0000000
 NQMom=    0.0000000   0.0000000   0.0000000   0.0000000   0.0000000   0.0000000   0.0000000   0.0000000   0.0000000   0.0000000
 NMagM=    0.0000000   0.0000000   0.0000000   0.0000000   0.0000000   0.0000000   0.0000000   0.0000000   0.0000000   0.0000000
 AtZNuc=   6.0000000   8.0000000   6.0000000   6.0000000   6.0000000   6.0000000   6.0000000   6.0000000   6.0000000   8.0000000

  Atom        11          12          13          14          15          16          17          18          19          20
 IAtWgt=          12          12          12          12          12          12          12          12          12          16
 AtmWgt=  12.0000000  12.0000000  12.0000000  12.0000000  12.0000000  12.0000000  12.0000000  12.0000000  12.0000000  15.9949146
 NucSpn=           0           0           0           0           0           0           0           0           0           0
 AtZEff=  -0.0000000  -0.0000000  -0.0000000  -0.0000000  -0.0000000  -0.0000000  -0.0000000  -0.0000000  -0.0000000  -0.0000000
 NQMom=    0.0000000   0.0000000   0.0000000   0.0000000   0.0000000   0.0000000   0.0000000   0.0000000   0.0000000   0.0000000
 NMagM=    0.0000000   0.0000000   0.0000000   0.0000000   0.0000000   0.0000000   0.0000000   0.0000000   0.0000000   0.0000000
 AtZNuc=   6.0000000   6.0000000   6.0000000   6.0000000   6.0000000   6.0000000   6.0000000   6.0000000   6.0000000   8.0000000

  Atom        21          22          23          24          25          26          27          28          29          30
 IAtWgt=          12          12          12          12           1           1           1           1           1           1
 AtmWgt=  12.0000000  12.0000000  12.0000000  12.0000000   1.0078250   1.0078250   1.0078250   1.0078250   1.0078250   1.0078250
 NucSpn=           0           0           0           0           1           1           1           1           1           1
 AtZEff=  -0.0000000  -0.0000000  -0.0000000  -0.0000000  -0.0000000  -0.0000000  -0.0000000  -0.0000000  -0.0000000  -0.0000000
 NQMom=    0.0000000   0.0000000   0.0000000   0.0000000   0.0000000   0.0000000   0.0000000   0.0000000   0.0000000   0.0000000
 NMagM=    0.0000000   0.0000000   0.0000000   0.0000000   2.7928460   2.7928460   2.7928460   2.7928460   2.7928460   2.7928460
 AtZNuc=   6.0000000   6.0000000   6.0000000   6.0000000   1.0000000   1.0000000   1.0000000   1.0000000   1.0000000   1.0000000

  Atom        31          32          33          34          35          36          37          38          39
 IAtWgt=           1           1           1           1           1           1           1           1          63
 AtmWgt=   1.0078250   1.0078250   1.0078250   1.0078250   1.0078250   1.0078250   1.0078250   1.0078250  62.9295992
 NucSpn=           1           1           1           1           1           1           1           1           3
 AtZEff=  -0.0000000  -0.0000000  -0.0000000  -0.0000000  -0.0000000  -0.0000000  -0.0000000  -0.0000000  -0.0000000
 NQMom=    0.0000000   0.0000000   0.0000000   0.0000000   0.0000000   0.0000000   0.0000000   0.0000000 -22.0000000
 NMagM=    2.7928460   2.7928460   2.7928460   2.7928460   2.7928460   2.7928460   2.7928460   2.7928460   2.2233000
 AtZNuc=   1.0000000   1.0000000   1.0000000   1.0000000   1.0000000   1.0000000   1.0000000   1.0000000  29.0000000
 Leave Link  101 at Fri Mar  8 00:44:58 2024, MaxMem= 13421772800 cpu:               4.0 elap:               0.1
 (Enter /public/software/apps/Gaussian/g16/l103.exe)

 GradGradGradGradGradGradGradGradGradGradGradGradGradGradGradGradGradGrad
 Berny optimization.
 Initialization pass.
                           ----------------------------
                           !    Initial Parameters    !
                           ! (Angstroms and Degrees)  !
 --------------------------                            --------------------------
 ! Name  Definition              Value          Derivative Info.                !
 --------------------------------------------------------------------------------
 ! R1    R(1,2)                  1.4239         estimate D2E/DX2                !
 ! R2    R(1,25)                 1.1105         estimate D2E/DX2                !
 ! R3    R(1,26)                 1.1105         estimate D2E/DX2                !
 ! R4    R(1,27)                 1.1092         estimate D2E/DX2                !
 ! R5    R(2,3)                  1.4031         estimate D2E/DX2                !
 ! R6    R(3,4)                  1.3968         estimate D2E/DX2                !
 ! R7    R(3,24)                 1.4064         estimate D2E/DX2                !
 ! R8    R(4,5)                  1.396          estimate D2E/DX2                !
 ! R9    R(4,28)                 1.0828         estimate D2E/DX2                !
 ! R10   R(5,6)                  1.4096         estimate D2E/DX2                !
 ! R11   R(5,29)                 1.0819         estimate D2E/DX2                !
 ! R12   R(6,7)                  1.4202         estimate D2E/DX2                !
 ! R13   R(6,23)                 1.419          estimate D2E/DX2                !
 ! R14   R(7,8)                  1.4881         estimate D2E/DX2                !
 ! R15   R(7,19)                 1.4072         estimate D2E/DX2                !
 ! R16   R(8,9)                  1.4073         estimate D2E/DX2                !
 ! R17   R(8,18)                 1.42           estimate D2E/DX2                !
 ! R18   R(9,10)                 1.3912         estimate D2E/DX2                !
 ! R19   R(9,11)                 1.3956         estimate D2E/DX2                !
 ! R20   R(10,39)                1.9625         estimate D2E/DX2                !
 ! R21   R(11,12)                1.3936         estimate D2E/DX2                !
 ! R22   R(11,30)                1.0827         estimate D2E/DX2                !
 ! R23   R(12,13)                1.4011         estimate D2E/DX2                !
 ! R24   R(12,31)                1.0837         estimate D2E/DX2                !
 ! R25   R(13,14)                1.4039         estimate D2E/DX2                !
 ! R26   R(13,18)                1.4204         estimate D2E/DX2                !
 ! R27   R(14,15)                1.3955         estimate D2E/DX2                !
 ! R28   R(14,32)                1.0836         estimate D2E/DX2                !
 ! R29   R(15,16)                1.3948         estimate D2E/DX2                !
 ! R30   R(15,33)                1.0824         estimate D2E/DX2                !
 ! R31   R(16,17)                1.3968         estimate D2E/DX2                !
 ! R32   R(16,34)                1.0824         estimate D2E/DX2                !
 ! R33   R(17,18)                1.4115         estimate D2E/DX2                !
 ! R34   R(17,35)                1.0819         estimate D2E/DX2                !
 ! R35   R(19,20)                1.3912         estimate D2E/DX2                !
 ! R36   R(19,21)                1.3953         estimate D2E/DX2                !
 ! R37   R(20,39)                1.9625         estimate D2E/DX2                !
 ! R38   R(21,22)                1.3935         estimate D2E/DX2                !
 ! R39   R(21,36)                1.0827         estimate D2E/DX2                !
 ! R40   R(22,23)                1.4017         estimate D2E/DX2                !
 ! R41   R(22,37)                1.0837         estimate D2E/DX2                !
 ! R42   R(23,24)                1.4042         estimate D2E/DX2                !
 ! R43   R(24,38)                1.0825         estimate D2E/DX2                !
 ! A1    A(2,1,25)             110.1141         estimate D2E/DX2                !
 ! A2    A(2,1,26)             110.1151         estimate D2E/DX2                !
 ! A3    A(2,1,27)             109.0707         estimate D2E/DX2                !
 ! A4    A(25,1,26)            110.1728         estimate D2E/DX2                !
 ! A5    A(25,1,27)            108.662          estimate D2E/DX2                !
 ! A6    A(26,1,27)            108.6672         estimate D2E/DX2                !
 ! A7    A(1,2,3)              124.4527         estimate D2E/DX2                !
 ! A8    A(2,3,4)              118.2526         estimate D2E/DX2                !
 ! A9    A(2,3,24)             122.4593         estimate D2E/DX2                !
 ! A10   A(4,3,24)             119.2879         estimate D2E/DX2                !
 ! A11   A(3,4,5)              120.8088         estimate D2E/DX2                !
 ! A12   A(3,4,28)             119.7663         estimate D2E/DX2                !
 ! A13   A(5,4,28)             119.4247         estimate D2E/DX2                !
 ! A14   A(4,5,6)              120.6245         estimate D2E/DX2                !
 ! A15   A(4,5,29)             117.9889         estimate D2E/DX2                !
 ! A16   A(6,5,29)             121.3859         estimate D2E/DX2                !
 ! A17   A(5,6,7)              121.9407         estimate D2E/DX2                !
 ! A18   A(5,6,23)             118.6762         estimate D2E/DX2                !
 ! A19   A(7,6,23)             119.38           estimate D2E/DX2                !
 ! A20   A(6,7,8)              121.9304         estimate D2E/DX2                !
 ! A21   A(6,7,19)             119.4085         estimate D2E/DX2                !
 ! A22   A(8,7,19)             118.6563         estimate D2E/DX2                !
 ! A23   A(7,8,9)              118.672          estimate D2E/DX2                !
 ! A24   A(7,8,18)             121.916          estimate D2E/DX2                !
 ! A25   A(9,8,18)             119.407          estimate D2E/DX2                !
 ! A26   A(8,9,10)             120.2969         estimate D2E/DX2                !
 ! A27   A(8,9,11)             120.5173         estimate D2E/DX2                !
 ! A28   A(10,9,11)            119.1855         estimate D2E/DX2                !
 ! A29   A(9,10,39)            111.1281         estimate D2E/DX2                !
 ! A30   A(9,11,12)            120.4312         estimate D2E/DX2                !
 ! A31   A(9,11,30)            119.9445         estimate D2E/DX2                !
 ! A32   A(12,11,30)           119.6241         estimate D2E/DX2                !
 ! A33   A(11,12,13)           120.2961         estimate D2E/DX2                !
 ! A34   A(11,12,31)           119.0445         estimate D2E/DX2                !
 ! A35   A(13,12,31)           120.6549         estimate D2E/DX2                !
 ! A36   A(12,13,14)           120.023          estimate D2E/DX2                !
 ! A37   A(12,13,18)           119.9701         estimate D2E/DX2                !
 ! A38   A(14,13,18)           120.0056         estimate D2E/DX2                !
 ! A39   A(13,14,15)           120.2763         estimate D2E/DX2                !
 ! A40   A(13,14,32)           120.6689         estimate D2E/DX2                !
 ! A41   A(15,14,32)           119.0543         estimate D2E/DX2                !
 ! A42   A(14,15,16)           120.1574         estimate D2E/DX2                !
 ! A43   A(14,15,33)           119.9334         estimate D2E/DX2                !
 ! A44   A(16,15,33)           119.9081         estimate D2E/DX2                !
 ! A45   A(15,16,17)           120.2997         estimate D2E/DX2                !
 ! A46   A(15,16,34)           119.8264         estimate D2E/DX2                !
 ! A47   A(17,16,34)           119.8737         estimate D2E/DX2                !
 ! A48   A(16,17,18)           120.5465         estimate D2E/DX2                !
 ! A49   A(16,17,35)           118.0397         estimate D2E/DX2                !
 ! A50   A(18,17,35)           121.4132         estimate D2E/DX2                !
 ! A51   A(8,18,13)            119.3293         estimate D2E/DX2                !
 ! A52   A(8,18,17)            121.9655         estimate D2E/DX2                !
 ! A53   A(13,18,17)           118.702          estimate D2E/DX2                !
 ! A54   A(7,19,20)            120.3079         estimate D2E/DX2                !
 ! A55   A(7,19,21)            120.4984         estimate D2E/DX2                !
 ! A56   A(20,19,21)           119.1933         estimate D2E/DX2                !
 ! A57   A(19,20,39)           108.5174         estimate D2E/DX2                !
 ! A58   A(19,21,22)           120.415          estimate D2E/DX2                !
 ! A59   A(19,21,36)           119.9517         estimate D2E/DX2                !
 ! A60   A(22,21,36)           119.6332         estimate D2E/DX2                !
 ! A61   A(21,22,23)           120.3341         estimate D2E/DX2                !
 ! A62   A(21,22,37)           118.9874         estimate D2E/DX2                !
 ! A63   A(23,22,37)           120.6739         estimate D2E/DX2                !
 ! A64   A(6,23,22)            119.9145         estimate D2E/DX2                !
 ! A65   A(6,23,24)            120.1064         estimate D2E/DX2                !
 ! A66   A(22,23,24)           119.978          estimate D2E/DX2                !
 ! A67   A(3,24,23)            120.4833         estimate D2E/DX2                !
 ! A68   A(3,24,38)            120.1724         estimate D2E/DX2                !
 ! A69   A(23,24,38)           119.3438         estimate D2E/DX2                !
 ! A70   A(10,39,20)           100.0001         estimate D2E/DX2                !
 ! D1    D(25,1,2,3)           -60.9623         estimate D2E/DX2                !
 ! D2    D(26,1,2,3)            60.7219         estimate D2E/DX2                !
 ! D3    D(27,1,2,3)           179.8833         estimate D2E/DX2                !
 ! D4    D(1,2,3,4)            179.992          estimate D2E/DX2                !
 ! D5    D(1,2,3,24)             0.1679         estimate D2E/DX2                !
 ! D6    D(2,3,4,5)            179.8493         estimate D2E/DX2                !
 ! D7    D(2,3,4,28)            -0.2793         estimate D2E/DX2                !
 ! D8    D(24,3,4,5)            -0.3208         estimate D2E/DX2                !
 ! D9    D(24,3,4,28)          179.5506         estimate D2E/DX2                !
 ! D10   D(2,3,24,23)         -179.9413         estimate D2E/DX2                !
 ! D11   D(2,3,24,38)            0.3229         estimate D2E/DX2                !
 ! D12   D(4,3,24,23)            0.2363         estimate D2E/DX2                !
 ! D13   D(4,3,24,38)         -179.4995         estimate D2E/DX2                !
 ! D14   D(3,4,5,6)             -0.4223         estimate D2E/DX2                !
 ! D15   D(3,4,5,29)           179.2954         estimate D2E/DX2                !
 ! D16   D(28,4,5,6)           179.7059         estimate D2E/DX2                !
 ! D17   D(28,4,5,29)           -0.5765         estimate D2E/DX2                !
 ! D18   D(4,5,6,7)           -179.4279         estimate D2E/DX2                !
 ! D19   D(4,5,6,23)             1.2243         estimate D2E/DX2                !
 ! D20   D(29,5,6,7)             0.8642         estimate D2E/DX2                !
 ! D21   D(29,5,6,23)         -178.4836         estimate D2E/DX2                !
 ! D22   D(5,6,7,8)              2.368          estimate D2E/DX2                !
 ! D23   D(5,6,7,19)          -176.8223         estimate D2E/DX2                !
 ! D24   D(23,6,7,8)          -178.2888         estimate D2E/DX2                !
 ! D25   D(23,6,7,19)            2.521          estimate D2E/DX2                !
 ! D26   D(5,6,23,22)          178.3026         estimate D2E/DX2                !
 ! D27   D(5,6,23,24)           -1.3005         estimate D2E/DX2                !
 ! D28   D(7,6,23,22)           -1.0622         estimate D2E/DX2                !
 ! D29   D(7,6,23,24)          179.3347         estimate D2E/DX2                !
 ! D30   D(6,7,8,9)           -111.0444         estimate D2E/DX2                !
 ! D31   D(6,7,8,18)            69.7778         estimate D2E/DX2                !
 ! D32   D(19,7,8,9)            68.1517         estimate D2E/DX2                !
 ! D33   D(19,7,8,18)         -111.0261         estimate D2E/DX2                !
 ! D34   D(6,7,19,20)          177.4585         estimate D2E/DX2                !
 ! D35   D(6,7,19,21)           -2.3166         estimate D2E/DX2                !
 ! D36   D(8,7,19,20)           -1.7583         estimate D2E/DX2                !
 ! D37   D(8,7,19,21)          178.4666         estimate D2E/DX2                !
 ! D38   D(7,8,9,10)            -1.7351         estimate D2E/DX2                !
 ! D39   D(7,8,9,11)           178.4933         estimate D2E/DX2                !
 ! D40   D(18,8,9,10)          177.4638         estimate D2E/DX2                !
 ! D41   D(18,8,9,11)           -2.3077         estimate D2E/DX2                !
 ! D42   D(7,8,18,13)         -178.3265         estimate D2E/DX2                !
 ! D43   D(7,8,18,17)            2.3318         estimate D2E/DX2                !
 ! D44   D(9,8,18,13)            2.5015         estimate D2E/DX2                !
 ! D45   D(9,8,18,17)         -176.8401         estimate D2E/DX2                !
 ! D46   D(8,9,10,39)          -73.6936         estimate D2E/DX2                !
 ! D47   D(11,9,10,39)         106.081          estimate D2E/DX2                !
 ! D48   D(8,9,11,12)            0.6226         estimate D2E/DX2                !
 ! D49   D(8,9,11,30)         -179.4853         estimate D2E/DX2                !
 ! D50   D(10,9,11,12)        -179.1515         estimate D2E/DX2                !
 ! D51   D(10,9,11,30)           0.7406         estimate D2E/DX2                !
 ! D52   D(9,10,39,20)          42.6953         estimate D2E/DX2                !
 ! D53   D(9,11,12,13)           0.8686         estimate D2E/DX2                !
 ! D54   D(9,11,12,31)        -179.9001         estimate D2E/DX2                !
 ! D55   D(30,11,12,13)       -179.0239         estimate D2E/DX2                !
 ! D56   D(30,11,12,31)          0.2074         estimate D2E/DX2                !
 ! D57   D(11,12,13,14)        178.9462         estimate D2E/DX2                !
 ! D58   D(11,12,13,18)         -0.6402         estimate D2E/DX2                !
 ! D59   D(31,12,13,14)         -0.2726         estimate D2E/DX2                !
 ! D60   D(31,12,13,18)       -179.859          estimate D2E/DX2                !
 ! D61   D(12,13,14,15)       -179.0417         estimate D2E/DX2                !
 ! D62   D(12,13,14,32)          0.6841         estimate D2E/DX2                !
 ! D63   D(18,13,14,15)          0.5446         estimate D2E/DX2                !
 ! D64   D(18,13,14,32)       -179.7296         estimate D2E/DX2                !
 ! D65   D(12,13,18,8)          -1.0494         estimate D2E/DX2                !
 ! D66   D(12,13,18,17)        178.3139         estimate D2E/DX2                !
 ! D67   D(14,13,18,8)         179.3641         estimate D2E/DX2                !
 ! D68   D(14,13,18,17)         -1.2726         estimate D2E/DX2                !
 ! D69   D(13,14,15,16)          0.286          estimate D2E/DX2                !
 ! D70   D(13,14,15,33)        179.8983         estimate D2E/DX2                !
 ! D71   D(32,14,15,16)       -179.4442         estimate D2E/DX2                !
 ! D72   D(32,14,15,33)          0.1681         estimate D2E/DX2                !
 ! D73   D(14,15,16,17)         -0.3679         estimate D2E/DX2                !
 ! D74   D(14,15,16,34)        179.4868         estimate D2E/DX2                !
 ! D75   D(33,15,16,17)       -179.9803         estimate D2E/DX2                !
 ! D76   D(33,15,16,34)         -0.1256         estimate D2E/DX2                !
 ! D77   D(15,16,17,18)         -0.3885         estimate D2E/DX2                !
 ! D78   D(15,16,17,35)        179.3104         estimate D2E/DX2                !
 ! D79   D(34,16,17,18)        179.7569         estimate D2E/DX2                !
 ! D80   D(34,16,17,35)         -0.5443         estimate D2E/DX2                !
 ! D81   D(16,17,18,8)        -179.4561         estimate D2E/DX2                !
 ! D82   D(16,17,18,13)          1.1983         estimate D2E/DX2                !
 ! D83   D(35,17,18,8)           0.8554         estimate D2E/DX2                !
 ! D84   D(35,17,18,13)       -178.4903         estimate D2E/DX2                !
 ! D85   D(7,19,20,39)         -76.4277         estimate D2E/DX2                !
 ! D86   D(21,19,20,39)        103.3503         estimate D2E/DX2                !
 ! D87   D(7,19,21,22)           0.6167         estimate D2E/DX2                !
 ! D88   D(7,19,21,36)        -179.4823         estimate D2E/DX2                !
 ! D89   D(20,19,21,22)       -179.1609         estimate D2E/DX2                !
 ! D90   D(20,19,21,36)          0.7401         estimate D2E/DX2                !
 ! D91   D(19,20,39,10)         48.0233         estimate D2E/DX2                !
 ! D92   D(19,21,22,23)          0.881          estimate D2E/DX2                !
 ! D93   D(19,21,22,37)       -179.8881         estimate D2E/DX2                !
 ! D94   D(36,21,22,23)       -179.0203         estimate D2E/DX2                !
 ! D95   D(36,21,22,37)          0.2105         estimate D2E/DX2                !
 ! D96   D(21,22,23,6)          -0.6433         estimate D2E/DX2                !
 ! D97   D(21,22,23,24)        178.9603         estimate D2E/DX2                !
 ! D98   D(37,22,23,6)        -179.8611         estimate D2E/DX2                !
 ! D99   D(37,22,23,24)         -0.2575         estimate D2E/DX2                !
 ! D100  D(6,23,24,3)            0.5832         estimate D2E/DX2                !
 ! D101  D(6,23,24,38)        -179.6788         estimate D2E/DX2                !
 ! D102  D(22,23,24,3)        -179.0197         estimate D2E/DX2                !
 ! D103  D(22,23,24,38)          0.7183         estimate D2E/DX2                !
 --------------------------------------------------------------------------------
 Trust Radius=3.00D-01 FncErr=1.00D-07 GrdErr=1.00D-06 EigMax=2.50D+02 EigMin=1.00D-04
 Number of steps in this run=    226 maximum allowed number of steps=    234.
 GradGradGradGradGradGradGradGradGradGradGradGradGradGradGradGradGradGrad

 Leave Link  103 at Fri Mar  8 00:44:58 2024, MaxMem= 13421772800 cpu:               0.9 elap:               0.0
 (Enter /public/software/apps/Gaussian/g16/l202.exe)
                          Input orientation:                          
 ---------------------------------------------------------------------
 Center     Atomic      Atomic             Coordinates (Angstroms)
 Number     Number       Type             X           Y           Z
 ---------------------------------------------------------------------
      1          6           0        5.526407   -2.771156    0.315095
      2          8           0        4.109540   -2.895613    0.382429
      3          6           0        3.210348   -1.832030    0.212620
      4          6           0        1.842803   -2.101169    0.305155
      5          6           0        0.901385   -1.082420    0.148203
      6          6           0        1.312240    0.243141   -0.098613
      7          6           0        0.379160    1.302962   -0.250871
      8          6           0       -1.086320    1.087936   -0.107845
      9          6           0       -1.898771    1.191046   -1.252318
     10          8           0       -1.339879    1.523820   -2.482123
     11          6           0       -3.273535    0.966019   -1.168100
     12          6           0       -3.863250    0.648491    0.053981
     13          6           0       -3.083797    0.569570    1.215623
     14          6           0       -3.687275    0.271005    2.447521
     15          6           0       -2.919099    0.210737    3.611042
     16          6           0       -1.546537    0.452920    3.557827
     17          6           0       -0.929970    0.749651    2.340079
     18          6           0       -1.683894    0.800451    1.147852
     19          6           0        0.844536    2.593828   -0.562588
     20          8           0       -0.055987    3.634231   -0.767891
     21          6           0        2.212419    2.845679   -0.674234
     22          6           0        3.136122    1.818544   -0.490978
     23          6           0        2.700249    0.516186   -0.210422
     24          6           0        3.636714   -0.517555   -0.048733
     25          1           0        5.830625   -2.408783   -0.689576
     26          1           0        5.886093   -2.072114    1.099453
     27          1           0        5.986198   -3.765670    0.487931
     28          1           0        1.505716   -3.111748    0.498862
     29          1           0       -0.146113   -1.344029    0.217295
     30          1           0       -3.888604    1.039648   -2.056049
     31          1           0       -4.932482    0.476652    0.093314
     32          1           0       -4.753593    0.088687    2.510881
     33          1           0       -3.390390   -0.018308    4.558132
     34          1           0       -0.957232    0.412953    4.464893
     35          1           0        0.134583    0.942376    2.342692
     36          1           0        2.561063    3.844095   -0.906182
     37          1           0        4.192996    2.040405   -0.581236
     38          1           0        4.692759   -0.294408   -0.131407
     39         29           0       -0.855424    3.424492   -2.547916
 ---------------------------------------------------------------------
                    Distance matrix (angstroms):
                    1          2          3          4          5
     1  C    0.000000
     2  O    1.423916   0.000000
     3  C    2.501317   1.403065   0.000000
     4  C    3.744051   2.403166   1.396846   0.000000
     5  C    4.926511   3.692532   2.428451   1.395977   0.000000
     6  C    5.197725   4.231792   2.829490   2.437276   1.409550
     7  C    6.588847   5.651976   4.249544   3.746935   2.474273
     8  C    7.668092   6.565515   5.204830   4.349796   2.954146
     9  C    8.560905   7.448019   6.114583   5.221473   3.869235
    10  O    8.568380   7.578470   6.263221   5.571259   4.328321
    11  C    9.674984   8.475030   7.195568   6.144513   4.833085
    12  C    9.996391   8.731204   7.497596   6.338987   5.070175
    13  C    9.279386   8.027814   6.811017   5.677428   4.444112
    14  C    9.934481   8.665010   7.549486   6.387386   5.307958
    15  C    9.543664   8.335174   7.300157   6.240954   5.315977
    16  C    8.422382   7.299797   6.248149   5.347043   4.469354
    17  C    7.627676   6.520506   5.322912   4.467254   3.393327
    18  C    8.089394   6.914524   5.635443   4.644042   3.350846
    19  C    7.174489   6.456568   5.078015   4.877757   3.744764
    20  O    8.565335   7.830307   6.442853   6.136094   4.899243
    21  C    6.596220   6.138244   4.864497   5.056394   4.221987
    22  C    5.237228   4.892204   3.718501   4.203647   3.717283
    23  C    4.366916   3.738709   2.439935   2.802067   2.433118
    24  C    2.963449   2.462646   1.406392   2.418923   2.799979
    25  H    1.110507   2.085265   2.830628   4.121509   5.172864
    26  H    1.110518   2.085285   2.829085   4.120673   5.170269
    27  H    1.109206   2.071226   3.394128   4.468970   5.759390
    28  H    4.039273   2.615372   2.150670   1.082783   2.146241
    29  H    5.850106   4.532688   3.391754   2.129969   1.081880
    30  H   10.430100   9.241361   7.986771   6.949032   5.683827
    31  H   10.953803   9.654736   8.464628   7.252208   6.038851
    32  H   10.893970   9.591219   8.508555   7.291991   6.239593
    33  H   10.251381   9.053415   8.108194   7.057792   6.244929
    34  H    8.330483   7.299678   6.363214   5.609316   4.931978
    35  H    6.853702   5.862855   4.657775   4.041378   3.082785
    36  H    7.351621   7.034342   5.821656   6.109779   5.304414
    37  H    5.072722   5.029899   4.073274   4.843731   4.595522
    38  H    2.651153   2.714855   2.163372   3.402532   3.882481
    39  Cu   9.344017   8.554620   7.195977   6.778892   5.537842
                    6          7          8          9         10
     6  C    0.000000
     7  C    1.420226   0.000000
     8  C    2.543001   1.488061   0.000000
     9  C    3.541208   2.490861   1.407312   0.000000
    10  O    3.788798   2.825307   2.427238   1.391229   0.000000
    11  C    4.763999   3.781140   2.433704   1.395602   2.403502
    12  C    5.193582   4.303407   2.816139   2.420736   3.683127
    13  C    4.599882   3.831519   2.451568   2.807357   4.198234
    14  C    5.610590   4.988201   3.736608   4.211179   5.601893
    15  C    5.627328   5.194790   4.237768   5.065012   6.429991
    16  C    4.646092   4.351673   3.748626   4.879180   6.137632
    17  C    3.351310   2.955164   2.476129   3.746828   4.901122
    18  C    3.292581   2.542663   1.420041   2.441219   3.717301
    19  C    2.441260   1.407152   2.490523   3.157413   3.098580
    20  O    3.717455   2.427237   2.825042   3.098334   3.006793
    21  C    2.813337   2.433115   3.780494   4.469214   4.199356
    22  C    2.441801   2.815016   4.302278   5.130647   4.907760
    23  C    1.419022   2.451144   3.830865   4.763609   4.743267
    24  C    2.446288   3.737218   4.988802   5.916885   5.903819
    25  H    5.272356   6.609689   7.772360   8.545116   8.372259
    26  H    5.264589   6.598547   7.749711   8.762599   8.830238
    27  H    6.185506   7.594454   8.598427   9.474716   9.511642
    28  H    3.413164   4.617455   4.972332   5.759444   6.202594
    29  H    2.178463   2.738914   2.627577   3.414407   4.115397
    30  H    5.613801   4.641316   3.413301   2.151358   2.629061
    31  H    6.252033   5.386538   3.899628   3.394773   4.542712
    32  H    6.605123   5.953729   4.615746   4.850451   6.216361
    33  H    6.623319   6.251542   5.320137   6.119542   7.493193
    34  H    5.099503   4.981615   4.624089   5.846232   7.045671
    35  H    2.799246   2.629907   2.741701   4.137688   5.078480
    36  H    3.895972   3.412842   4.640814   5.200827   4.804645
    37  H    3.429554   3.898501   5.385394   6.187195   5.873069
    38  H    3.423148   4.601413   5.942153   6.849181   6.724919
    39  Cu   4.562767   3.361771   3.386259   2.784857   1.962544
                   11         12         13         14         15
    11  C    0.000000
    12  C    1.393582   0.000000
    13  C    2.423903   1.401138   0.000000
    14  C    3.704989   2.429505   1.403887   0.000000
    15  C    4.851420   3.706175   2.427739   1.395531   0.000000
    16  C    5.057685   4.205038   2.804050   2.418394   1.394780
    17  C    4.224504   3.720297   2.436350   2.800603   2.421241
    18  C    2.813895   2.443202   1.420432   2.446015   2.817942
    19  C    4.469331   5.131057   4.763555   5.915537   6.104364
    20  O    4.199064   4.907685   4.742795   5.902238   6.252422
    21  C    5.820027   6.501668   6.066476   7.154068   7.186027
    22  C    6.501461   7.117388   6.569613   7.588702   7.488479
    23  C    6.066761   6.570155   5.957486   6.922806   6.802496
    24  C    7.155803   7.590762   6.924284   7.777784   7.543411
    25  H    9.721317  10.191713   9.589958  10.373672  10.095290
    26  H    9.913165  10.175676   9.351519   9.947707   9.436678
    27  H   10.529671  10.802072  10.079120  10.663527  10.240603
    28  H    6.499860   6.569864   5.927013   6.496726   6.348508
    29  H    4.127519   4.220653   3.645340   4.485763   4.650190
    30  H    1.082675   2.146130   3.401841   4.573127   5.808869
    31  H    2.140736   1.083666   2.164682   2.671165   4.061875
    32  H    4.061426   2.672536   2.167293   1.083646   2.142573
    33  H    5.811393   4.577728   3.407634   2.150935   1.082385
    34  H    6.115697   5.287397   3.886459   3.397510   2.149157
    35  H    4.893004   4.615976   3.430341   3.881794   3.386588
    36  H    6.511103   7.239171   6.862144   7.940782   7.977392
    37  H    7.566228   8.200245   7.638310   8.625707   8.456050
    38  H    8.131743   8.609804   7.939507   8.786099   8.497145
    39  Cu   3.714195   4.850058   5.223069   6.551202   7.247050
                   16         17         18         19         20
    16  C    0.000000
    17  C    1.396823   0.000000
    18  C    2.438775   1.411519   0.000000
    19  C    5.222886   3.869798   3.540447   0.000000
    20  O    5.572640   4.329449   3.788200   1.391233   0.000000
    21  C    6.145355   4.832600   4.762794   1.395349   2.403383
    22  C    6.339168   5.068582   5.191804   2.420240   3.682792
    23  C    5.677930   4.442753   4.598524   2.807897   4.198787
    24  C    6.388677   5.307244   5.610510   4.212008   5.602728
    25  H    8.980662   8.053581   8.375161   7.064229   8.436608
    26  H    8.225776   7.480657   8.096831   7.067580   8.447346
    27  H    9.163125   8.464748   8.950713   8.245210   9.635540
    28  H    5.601819   4.922707   5.089214   5.841013   7.039305
    29  H    4.043435   3.082878   2.798125   4.134770   5.075607
    30  H    6.111066   5.306935   3.896530   5.200819   4.804182
    31  H    4.844382   4.598107   3.430775   6.187615   5.873005
    32  H    3.393224   3.884088   3.433294   6.860101   6.737116
    33  H    2.149991   3.400469   3.900321   7.140002   7.268136
    34  H    1.082426   2.151498   3.417741   5.768722   6.210548
    35  H    2.131264   1.081861   2.180515   3.416428   4.118025
    36  H    6.949807   5.683406   5.612707   2.151206   2.629091
    37  H    7.252185   6.036962   6.250205   3.393937   4.541913
    38  H    7.286821   6.230039   6.595220   4.830802   6.195959
    39  Cu   6.825538   5.572506   4.607673   2.742516   1.962544
                   21         22         23         24         25
    21  C    0.000000
    22  C    1.393491   0.000000
    23  C    2.424796   1.401725   0.000000
    24  C    3.705565   2.429718   1.404183   0.000000
    25  H    6.379735   5.016979   4.310950   2.966592   0.000000
    26  H    6.389564   5.022851   4.308674   2.965584   1.821276
    27  H    7.700777   6.345443   5.442375   4.044544   1.803294
    28  H    6.112816   5.286377   3.884829   3.401595   4.539976
    29  H    4.889903   4.612655   3.427115   3.881187   6.138201
    30  H    6.511040   7.238985   6.862458   7.942582  10.402997
    31  H    7.566441   8.200271   7.638874   8.627847  11.170637
    32  H    8.140718   8.616912   7.946572   8.792975  11.336047
    33  H    8.183614   8.453573   7.753752   8.417401  10.875658
    34  H    6.509644   6.579657   5.936867   6.507150   8.978070
    35  H    4.128172   4.219786   3.644540   4.485001   7.271163
    36  H    1.082676   2.146146   3.402710   4.573427   7.059422
    37  H    2.140047   1.083675   2.165419   2.671361   4.742240
    38  H    4.038180   2.648958   2.152534   1.082525   2.465131
    39  Cu   3.641067   4.768910   5.154118   6.478036   9.065527
                   26         27         28         29         30
    26  H    0.000000
    27  H    1.803361   0.000000
    28  H    4.541944   4.527963   0.000000
    29  H    6.139692   6.598699   2.435703   0.000000
    30  H   10.732425  11.272738   7.270512   4.985604   0.000000
    31  H   11.160201  11.720520   7.381834   5.122458   2.454874
    32  H   10.948247  11.588421   7.312315   5.342479   4.744405
    33  H   10.111069  10.887133   7.072404   5.579044   6.716761
    34  H    8.020776   9.027089   5.849704   4.667653   7.176933
    35  H    6.611555   7.736099   4.660004   3.134286   5.961914
    36  H    7.076717   8.460711   7.174375   5.958828   7.126382
    37  H    4.754378   6.170024   5.910395   5.560568   8.275799
    38  H    2.469676   3.755825   4.300219   4.963666   8.895153
    39  Cu   9.432075  10.378949   7.588167   5.557725   3.889678
                   31         32         33         34         35
    31  H    0.000000
    32  H    2.455025   0.000000
    33  H    4.749488   2.461911   0.000000
    34  H    5.909092   4.282017   2.472840   0.000000
    35  H    5.563430   4.965011   4.272765   2.444603   0.000000
    36  H    8.275982   8.904134   8.955260   7.280081   4.986277
    37  H    9.283032   9.664980   9.389310   7.391675   5.121107
    38  H    9.658690   9.816416   9.349080   7.317700   5.331770
    39  Cu   5.682276   7.205189   8.293060   7.632773   5.573066
                   36         37         38         39
    36  H    0.000000
    37  H    2.453995   0.000000
    38  H    4.719281   2.429704   0.000000
    39  Cu   3.813626   5.591965   7.102962   0.000000
 Symmetry turned off by external request.
 Stoichiometry    C21H14CuO3(2)
 Framework group  C1[X(C21H14CuO3)]
 Deg. of freedom   111
 Full point group                 C1      NOp   1
 Rotational constants (GHZ):           0.2507336           0.1571306           0.1124107
 Leave Link  202 at Fri Mar  8 00:44:58 2024, MaxMem= 13421772800 cpu:               1.4 elap:               0.1
 (Enter /public/software/apps/Gaussian/g16/l301.exe)
 Standard basis: def2SVPP (5D, 7F)
 Ernie: Thresh=  0.10000D-02 Tol=  0.10000D-05 Strict=F.
   388 basis functions,   727 primitive gaussians,   414 cartesian basis functions
    97 alpha electrons       96 beta electrons
       nuclear repulsion energy      2474.1260723942 Hartrees.
 IExCor=  402 DFT=T Ex+Corr=B3LYP ExCW=0 ScaHFX=  0.200000
 ScaDFX=  0.800000  0.720000  1.000000  0.810000 ScalE2=  1.000000  1.000000
 IRadAn=      5 IRanWt=     -1 IRanGd=            0 ICorTp=0 IEmpDi=141
 NAtoms=   39 NActive=   39 NUniq=   39 SFac= 1.00D+00 NAtFMM=   60 NAOKFM=F Big=F
 Integral buffers will be    131072 words long.
 Raffenetti 2 integral format.
 Two-electron integral symmetry is turned off.
 R6Disp:  Grimme-D3(BJ) Dispersion energy=       -0.1037074734 Hartrees.
 Nuclear repulsion after empirical dispersion term =     2474.0223649207 Hartrees.
 Leave Link  301 at Fri Mar  8 00:44:58 2024, MaxMem= 13421772800 cpu:               1.7 elap:               0.1
 (Enter /public/software/apps/Gaussian/g16/l302.exe)
 NPDir=0 NMtPBC=     1 NCelOv=     1 NCel=       1 NClECP=     1 NCelD=      1
         NCelK=      1 NCelE2=     1 NClLst=     1 CellRange=     0.0.
 One-electron integrals computed using PRISM.
   1 Symmetry operations used in ECPInt.
 ECPInt:  NShTT=   16653 NPrTT=   69772 LenC2=   15153 LenP2D=   41827.
 LDataN:  DoStor=T MaxTD1= 4 Len=   56
 NBasis=   388 RedAO= T EigKep=  1.90D-04  NBF=   388
 NBsUse=   388 1.00D-06 EigRej= -1.00D+00 NBFU=   388
 Precomputing XC quadrature grid using
 IXCGrd= 4 IRadAn=           5 IRanWt=          -1 IRanGd=           0 AccXCQ= 0.00D+00.
 Generated NRdTot=       0 NPtTot=           0 NUsed=           0 NTot=          32
 NSgBfM=   410   410   410   410   410 MxSgAt=    39 MxSgA2=    39.
 Leave Link  302 at Fri Mar  8 00:44:58 2024, MaxMem= 13421772800 cpu:              10.2 elap:               0.3
 (Enter /public/software/apps/Gaussian/g16/l303.exe)
 DipDrv:  MaxL=1.
 Leave Link  303 at Fri Mar  8 00:44:58 2024, MaxMem= 13421772800 cpu:               1.4 elap:               0.1
 (Enter /public/software/apps/Gaussian/g16/l401.exe)
 ExpMin= 3.30D-02 ExpMax= 7.64D+04 ExpMxC= 1.15D+04 IAcc=3 IRadAn=         5 AccDes= 0.00D+00
 Harris functional with IExCor=  402 and IRadAn=       5 diagonalized for initial guess.
 HarFok:  IExCor=  402 AccDes= 0.00D+00 IRadAn=         5 IDoV= 1 UseB2=F ITyADJ=14
 ICtDFT=  3500011 ScaDFX=  1.000000  1.000000  1.000000  1.000000
 FoFCou: FMM=F IPFlag=           0 FMFlag=      100000 FMFlg1=           0
         NFxFlg=           0 DoJE=T BraDBF=F KetDBF=T FulRan=T
         wScrn=  0.000000 ICntrl=       500 IOpCl=  0 I1Cent=   200000004 NGrid=           0
         NMat0=    1 NMatS0=      1 NMatT0=    0 NMatD0=    1 NMtDS0=    0 NMtDT0=    0
 Symmetry not used in FoFCou.
 Harris En= -2674.20049624876    
 JPrj=0 DoOrth=F DoCkMO=F.
 Initial guess <Sx>= 0.0000 <Sy>= 0.0000 <Sz>= 0.5000 <S**2>= 0.7500 S= 0.5000
 Leave Link  401 at Fri Mar  8 00:44:59 2024, MaxMem= 13421772800 cpu:              25.4 elap:               0.8
 (Enter /public/software/apps/Gaussian/g16/l502.exe)
 Two-electron integral symmetry not used.
 UHF open shell SCF:
 Using DIIS extrapolation, IDIIS=  1040.
 NGot= 13421772800 LenX= 13421412418 LenY= 13421240581
 Requested convergence on RMS density matrix=1.00D-08 within 128 cycles.
 Requested convergence on MAX density matrix=1.00D-06.
 Requested convergence on             energy=1.00D-06.
 No special actions if energy rises.
 Fock matrices will be formed incrementally for  20 cycles.

 Cycle   1  Pass 1  IDiag  1:
 FoFJK:  IHMeth= 1 ICntrl=       0 DoSepK=F KAlg= 0 I1Cent=           0 FoldK=F
 IRaf= 850000000 NMat=       1 IRICut=       1 DoRegI=T DoRafI=F ISym2E= 0 IDoP0=0 IntGTp=1.
 FoFCou: FMM=F IPFlag=           0 FMFlag=      100000 FMFlg1=           0
         NFxFlg=           0 DoJE=F BraDBF=F KetDBF=F FulRan=T
         wScrn=  0.000000 ICntrl=         0 IOpCl=  1 I1Cent=           0 NGrid=           0
         NMat0=    1 NMatS0=      1 NMatT0=    0 NMatD0=    1 NMtDS0=    0 NMtDT0=    0
 Symmetry not used in FoFCou.
 E= -2660.61685654116    
 DIIS: error= 4.06D-01 at cycle   1 NSaved=   1.
 NSaved= 1 IEnMin= 1 EnMin= -2660.61685654116     IErMin= 1 ErrMin= 4.06D-01
 ErrMax= 4.06D-01  0.00D+00 EMaxC= 1.00D-01 BMatC= 4.71D+01 BMatP= 4.71D+01
 IDIUse=3 WtCom= 0.00D+00 WtEn= 1.00D+00
 Coeff-Com:  0.100D+01
 Coeff-En:   0.100D+01
 Coeff:      0.100D+01
 Gap=     0.112 Goal=   None    Shift=    0.000
 Gap=     0.196 Goal=   None    Shift=    0.000
 GapD=    0.112 DampG=1.000 DampE=0.125 DampFc=0.1250 IDamp=-1.
 Damping current iteration by 1.25D-01
 RMSDP=6.66D-02 MaxDP=6.95D+00              OVMax= 9.88D-01

 Cycle   2  Pass 1  IDiag  1:
 RMSU=  8.32D-03    CP:  1.02D+00
 E= -2665.12355049196     Delta-E=       -4.506693950801 Rises=F Damp=T
 DIIS: error= 2.69D-01 at cycle   2 NSaved=   2.
 NSaved= 2 IEnMin= 2 EnMin= -2665.12355049196     IErMin= 2 ErrMin= 2.69D-01
 ErrMax= 2.69D-01  0.00D+00 EMaxC= 1.00D-01 BMatC= 1.82D+01 BMatP= 4.71D+01
 IDIUse=3 WtCom= 0.00D+00 WtEn= 1.00D+00
 Coeff-Com: -0.121D+01 0.221D+01
 Coeff-En:   0.000D+00 0.100D+01
 Coeff:      0.000D+00 0.100D+01
 Gap=     0.070 Goal=   None    Shift=    0.000
 Gap=    -0.043 Goal=   None    Shift=    0.000
 RMSDP=1.94D-02 MaxDP=2.88D+00 DE=-4.51D+00 OVMax= 9.31D-01

 Cycle   3  Pass 1  IDiag  1:
 RMSU=  1.67D-02    CP:  9.41D-01  2.16D+00
 E= -2652.30579008798     Delta-E=       12.817760403982 Rises=F Damp=F
 DIIS: error= 3.00D-01 at cycle   3 NSaved=   3.
 NSaved= 3 IEnMin= 2 EnMin= -2665.12355049196     IErMin= 2 ErrMin= 2.69D-01
 ErrMax= 3.00D-01  0.00D+00 EMaxC= 1.00D-01 BMatC= 5.78D+01 BMatP= 1.82D+01
 IDIUse=2 WtCom= 0.00D+00 WtEn= 1.00D+00
 EnCoef did   100 forward-backward iterations
 Coeff-En:   0.553D+00 0.352D-01 0.412D+00
 Coeff:      0.553D+00 0.352D-01 0.412D+00
 Gap=     0.156 Goal=   None    Shift=    0.000
 Gap=    -0.046 Goal=   None    Shift=    0.000
 RMSDP=2.39D-02 MaxDP=3.76D+00 DE= 1.28D+01 OVMax= 8.44D-01

 Cycle   4  Pass 1  IDiag  1:
 RMSU=  8.16D-03    CP:  8.90D-01  1.21D-01  1.25D-01
 E= -2669.08957996884     Delta-E=      -16.783789880862 Rises=F Damp=F
 DIIS: error= 1.51D-01 at cycle   4 NSaved=   4.
 NSaved= 4 IEnMin= 4 EnMin= -2669.08957996884     IErMin= 4 ErrMin= 1.51D-01
 ErrMax= 1.51D-01  0.00D+00 EMaxC= 1.00D-01 BMatC= 1.73D+01 BMatP= 1.82D+01
 IDIUse=3 WtCom= 0.00D+00 WtEn= 1.00D+00
 EnCoef did   100 forward-backward iterations
 Coeff-Com: -0.610D+00 0.128D+01 0.967D-01 0.231D+00
 Coeff-En:   0.340D+00 0.985D-02 0.122D+00 0.528D+00
 Coeff:      0.340D+00 0.985D-02 0.122D+00 0.528D+00
 Gap=     0.208 Goal=   None    Shift=    0.000
 Gap=     0.114 Goal=   None    Shift=    0.000
 RMSDP=1.23D-02 MaxDP=9.71D-01 DE=-1.68D+01 OVMax= 8.24D-01

 Cycle   5  Pass 1  IDiag  1:
 RMSU=  9.86D-03    CP:  8.87D-01  1.44D-01  2.34D-01  1.35D-01
 E= -2662.42303724636     Delta-E=        6.666542722475 Rises=F Damp=F
 DIIS: error= 1.37D-01 at cycle   5 NSaved=   5.
 NSaved= 5 IEnMin= 4 EnMin= -2669.08957996884     IErMin= 5 ErrMin= 1.37D-01
 ErrMax= 1.37D-01  0.00D+00 EMaxC= 1.00D-01 BMatC= 3.01D+01 BMatP= 1.73D+01
 IDIUse=2 WtCom= 0.00D+00 WtEn= 1.00D+00
 EnCoef did   100 forward-backward iterations
 Coeff-En:   0.207D+00 0.161D-02 0.000D+00 0.551D+00 0.241D+00
 Coeff:      0.207D+00 0.161D-02 0.000D+00 0.551D+00 0.241D+00
 Gap=     0.197 Goal=   None    Shift=    0.000
 Gap=     0.089 Goal=   None    Shift=    0.000
 RMSDP=8.66D-03 MaxDP=3.07D-01 DE= 6.67D+00 OVMax= 7.39D-01

 Cycle   6  Pass 1  IDiag  1:
 RMSU=  5.09D-03    CP:  8.81D-01  1.10D-01  1.71D-01  3.85D-01  3.30D-01
 E= -2672.38095520356     Delta-E=       -9.957917957198 Rises=F Damp=F
 DIIS: error= 2.76D-02 at cycle   6 NSaved=   6.
 NSaved= 6 IEnMin= 6 EnMin= -2672.38095520356     IErMin= 6 ErrMin= 2.76D-02
 ErrMax= 2.76D-02  0.00D+00 EMaxC= 1.00D-01 BMatC= 3.07D+00 BMatP= 1.73D+01
 IDIUse=3 WtCom= 7.24D-01 WtEn= 2.76D-01
 EnCoef did   100 forward-backward iterations
 Coeff-Com: -0.604D-01 0.270D+00-0.148D-01 0.204D+00 0.113D+00 0.488D+00
 Coeff-En:   0.160D+00 0.199D-02 0.000D+00 0.168D+00 0.109D-01 0.659D+00
 Coeff:      0.640D-03 0.196D+00-0.107D-01 0.194D+00 0.845D-01 0.536D+00
 Gap=     0.016 Goal=   None    Shift=    0.000
 Gap=    -0.023 Goal=   None    Shift=    0.000
 RMSDP=9.29D-03 MaxDP=8.86D-01 DE=-9.96D+00 OVMax= 8.83D-01

 Cycle   7  Pass 1  IDiag  1:
 RMSU=  7.13D-03    CP:  9.06D-01  4.60D-02  9.69D-02  4.03D-01  2.54D-01
                    CP: -1.24D-01
 E= -2667.47917192614     Delta-E=        4.901783277420 Rises=F Damp=F
 DIIS: error= 1.14D-01 at cycle   7 NSaved=   7.
 NSaved= 7 IEnMin= 6 EnMin= -2672.38095520356     IErMin= 6 ErrMin= 2.76D-02
 ErrMax= 1.14D-01  0.00D+00 EMaxC= 1.00D-01 BMatC= 1.84D+01 BMatP= 3.07D+00
 IDIUse=2 WtCom= 0.00D+00 WtEn= 1.00D+00
 EnCoef did     8 forward-backward iterations
 Coeff-En:   0.936D-01 0.000D+00 0.000D+00 0.104D+00 0.000D+00 0.628D+00
 Coeff-En:   0.173D+00
 Coeff:      0.936D-01 0.000D+00 0.000D+00 0.104D+00 0.000D+00 0.628D+00
 Coeff:      0.173D+00
 Gap=     0.015 Goal=   None    Shift=    0.000
 Gap=     0.020 Goal=   None    Shift=    0.000
 RMSDP=7.20D-03 MaxDP=3.34D-01 DE= 4.90D+00 OVMax= 6.92D-01

 Cycle   8  Pass 1  IDiag  1:
 RMSU=  3.53D-03    CP:  8.91D-01  4.15D-03  9.97D-02  5.89D-01  1.08D-01
                    CP:  3.47D-01  2.45D-01
 E= -2673.71123974275     Delta-E=       -6.232067816608 Rises=F Damp=F
 DIIS: error= 1.51D-02 at cycle   8 NSaved=   8.
 NSaved= 8 IEnMin= 8 EnMin= -2673.71123974275     IErMin= 8 ErrMin= 1.51D-02
 ErrMax= 1.51D-02  0.00D+00 EMaxC= 1.00D-01 BMatC= 7.68D-01 BMatP= 3.07D+00
 IDIUse=3 WtCom= 8.49D-01 WtEn= 1.51D-01
 Coeff-Com: -0.105D-01 0.260D-01 0.452D-02-0.430D-01 0.219D-01 0.278D+00
 Coeff-Com:  0.353D-01 0.688D+00
 Coeff-En:   0.000D+00 0.000D+00 0.000D+00 0.000D+00 0.000D+00 0.157D+00
 Coeff-En:   0.000D+00 0.843D+00
 Coeff:     -0.888D-02 0.220D-01 0.383D-02-0.365D-01 0.186D-01 0.259D+00
 Coeff:      0.299D-01 0.712D+00
 Gap=     0.180 Goal=   None    Shift=    0.000
 Gap=     0.053 Goal=   None    Shift=    0.000
 RMSDP=2.29D-03 MaxDP=1.04D-01 DE=-6.23D+00 OVMax= 2.81D-01

 Cycle   9  Pass 1  IDiag  1:
 RMSU=  1.93D-03    CP:  8.87D-01  9.05D-03  1.13D-01  4.96D-01  1.71D-01
                    CP:  4.50D-01  2.30D-01  8.71D-01
 E= -2673.86240299466     Delta-E=       -0.151163251912 Rises=F Damp=F
 DIIS: error= 1.52D-02 at cycle   9 NSaved=   9.
 NSaved= 9 IEnMin= 9 EnMin= -2673.86240299466     IErMin= 8 ErrMin= 1.51D-02
 ErrMax= 1.52D-02  0.00D+00 EMaxC= 1.00D-01 BMatC= 3.18D-01 BMatP= 7.68D-01
 IDIUse=3 WtCom= 8.49D-01 WtEn= 1.51D-01
 EnCoef did     3 forward-backward iterations
 Coeff-Com: -0.424D-01 0.560D-01 0.413D-02-0.144D-01 0.216D-01 0.147D+00
 Coeff-Com:  0.412D-02 0.402D+00 0.422D+00
 Coeff-En:   0.000D+00 0.000D+00 0.000D+00 0.000D+00 0.000D+00 0.335D-01
 Coeff-En:   0.000D+00 0.182D+00 0.784D+00
 Coeff:     -0.360D-01 0.475D-01 0.351D-02-0.122D-01 0.183D-01 0.130D+00
 Coeff:      0.349D-02 0.368D+00 0.477D+00
 Gap=     0.155 Goal=   None    Shift=    0.000
 Gap=     0.032 Goal=   None    Shift=    0.000
 RMSDP=1.78D-03 MaxDP=1.30D-01 DE=-1.51D-01 OVMax= 3.13D-01

 Cycle  10  Pass 1  IDiag  1:
 RMSU=  1.27D-03    CP:  8.82D-01  1.00D-02  1.22D-01  5.10D-01  1.91D-01
                    CP:  4.74D-01  1.73D-01  8.17D-01  4.24D-01
 E= -2673.93605462515     Delta-E=       -0.073651630484 Rises=F Damp=F
 DIIS: error= 1.63D-02 at cycle  10 NSaved=  10.
 NSaved=10 IEnMin=10 EnMin= -2673.93605462515     IErMin= 8 ErrMin= 1.51D-02
 ErrMax= 1.63D-02  0.00D+00 EMaxC= 1.00D-01 BMatC= 1.46D-01 BMatP= 3.18D-01
 IDIUse=3 WtCom= 8.49D-01 WtEn= 1.51D-01
 Coeff-Com: -0.400D-01 0.631D-01-0.804D-04-0.131D-01 0.582D-03 0.471D-01
 Coeff-Com: -0.281D-02 0.103D+00 0.358D+00 0.484D+00
 Coeff-En:   0.000D+00 0.000D+00 0.000D+00 0.000D+00 0.000D+00 0.000D+00
 Coeff-En:   0.000D+00 0.000D+00 0.255D+00 0.745D+00
 Coeff:     -0.339D-01 0.536D-01-0.682D-04-0.111D-01 0.494D-03 0.399D-01
 Coeff:     -0.238D-02 0.873D-01 0.342D+00 0.524D+00
 Gap=     0.102 Goal=   None    Shift=    0.000
 Gap=     0.030 Goal=   None    Shift=    0.000
 RMSDP=7.51D-04 MaxDP=5.50D-02 DE=-7.37D-02 OVMax= 1.49D-01

 Cycle  11  Pass 1  IDiag  1:
 RMSU=  5.68D-04    CP:  8.83D-01  1.56D-02  1.23D-01  5.09D-01  1.89D-01
                    CP:  4.85D-01  1.76D-01  7.80D-01  6.17D-01  7.77D-01
 E= -2673.95760630794     Delta-E=       -0.021551682795 Rises=F Damp=F
 DIIS: error= 1.03D-02 at cycle  11 NSaved=  11.
 NSaved=11 IEnMin=11 EnMin= -2673.95760630794     IErMin=11 ErrMin= 1.03D-02
 ErrMax= 1.03D-02  0.00D+00 EMaxC= 1.00D-01 BMatC= 5.14D-02 BMatP= 1.46D-01
 IDIUse=3 WtCom= 8.97D-01 WtEn= 1.03D-01
 Coeff-Com: -0.341D-01 0.593D-01-0.140D-02-0.176D-01-0.234D-02 0.306D-01
 Coeff-Com: -0.437D-02 0.718D-01 0.237D+00 0.335D+00 0.326D+00
 Coeff-En:   0.000D+00 0.000D+00 0.000D+00 0.000D+00 0.000D+00 0.000D+00
 Coeff-En:   0.000D+00 0.000D+00 0.000D+00 0.684D-01 0.932D+00
 Coeff:     -0.306D-01 0.532D-01-0.125D-02-0.158D-01-0.210D-02 0.275D-01
 Coeff:     -0.392D-02 0.644D-01 0.213D+00 0.308D+00 0.388D+00
 Gap=     0.103 Goal=   None    Shift=    0.000
 Gap=     0.037 Goal=   None    Shift=    0.000
 RMSDP=3.33D-04 MaxDP=1.97D-02 DE=-2.16D-02 OVMax= 4.91D-02

 Cycle  12  Pass 1  IDiag  1:
 RMSU=  1.91D-04    CP:  8.83D-01  1.36D-02  1.23D-01  5.06D-01  1.90D-01
                    CP:  4.86D-01  1.76D-01  7.91D-01  5.71D-01  8.74D-01
                    CP:  6.10D-01
 E= -2673.96051617067     Delta-E=       -0.002909862728 Rises=F Damp=F
 DIIS: error= 1.03D-02 at cycle  12 NSaved=  12.
 NSaved=12 IEnMin=12 EnMin= -2673.96051617067     IErMin=11 ErrMin= 1.03D-02
 ErrMax= 1.03D-02  0.00D+00 EMaxC= 1.00D-01 BMatC= 3.91D-02 BMatP= 5.14D-02
 IDIUse=3 WtCom= 8.97D-01 WtEn= 1.03D-01
 Coeff-Com: -0.299D-01 0.541D-01-0.156D-02-0.186D-01-0.151D-02 0.302D-01
 Coeff-Com: -0.512D-02 0.889D-01 0.161D+00 0.616D-01 0.168D+00 0.492D+00
 Coeff-En:   0.000D+00 0.000D+00 0.000D+00 0.000D+00 0.000D+00 0.000D+00
 Coeff-En:   0.000D+00 0.000D+00 0.000D+00 0.000D+00 0.247D+00 0.753D+00
 Coeff:     -0.269D-01 0.486D-01-0.140D-02-0.167D-01-0.136D-02 0.271D-01
 Coeff:     -0.459D-02 0.798D-01 0.145D+00 0.553D-01 0.176D+00 0.519D+00
 Gap=     0.108 Goal=   None    Shift=    0.000
 Gap=     0.038 Goal=   None    Shift=    0.000
 RMSDP=1.76D-04 MaxDP=1.21D-02 DE=-2.91D-03 OVMax= 4.19D-02

 Cycle  13  Pass 1  IDiag  1:
 RMSU=  1.27D-04    CP:  8.83D-01  1.20D-02  1.22D-01  5.05D-01  1.88D-01
                    CP:  4.84D-01  1.76D-01  7.96D-01  5.82D-01  8.25D-01
                    CP:  7.34D-01  6.58D-01
 E= -2673.96347484832     Delta-E=       -0.002958677653 Rises=F Damp=F
 DIIS: error= 7.91D-03 at cycle  13 NSaved=  13.
 NSaved=13 IEnMin=13 EnMin= -2673.96347484832     IErMin=13 ErrMin= 7.91D-03
 ErrMax= 7.91D-03  0.00D+00 EMaxC= 1.00D-01 BMatC= 2.23D-02 BMatP= 3.91D-02
 IDIUse=3 WtCom= 9.21D-01 WtEn= 7.91D-02
 Coeff-Com: -0.182D-01 0.334D-01-0.302D-03-0.120D-01-0.598D-03 0.239D-01
 Coeff-Com: -0.322D-02 0.842D-01 0.964D-02-0.415D+00-0.516D+00 0.370D+00
 Coeff-Com:  0.144D+01
 Coeff-En:   0.000D+00 0.000D+00 0.000D+00 0.000D+00 0.000D+00 0.000D+00
 Coeff-En:   0.000D+00 0.000D+00 0.000D+00 0.000D+00 0.000D+00 0.000D+00
 Coeff-En:   0.100D+01
 Coeff:     -0.167D-01 0.308D-01-0.278D-03-0.111D-01-0.551D-03 0.220D-01
 Coeff:     -0.296D-02 0.775D-01 0.887D-02-0.383D+00-0.476D+00 0.341D+00
 Coeff:      0.141D+01
 Gap=     0.120 Goal=   None    Shift=    0.000
 Gap=     0.043 Goal=   None    Shift=    0.000
 RMSDP=2.30D-04 MaxDP=2.40D-02 DE=-2.96D-03 OVMax= 2.39D-02

 Cycle  14  Pass 1  IDiag  1:
 RMSU=  1.68D-04    CP:  8.83D-01  1.04D-02  1.19D-01  5.01D-01  1.83D-01
                    CP:  4.86D-01  1.80D-01  8.08D-01  5.75D-01  7.64D-01
                    CP:  7.35D-01  1.14D+00  1.26D+00
 E= -2673.96601576637     Delta-E=       -0.002540918051 Rises=F Damp=F
 DIIS: error= 1.94D-03 at cycle  14 NSaved=  14.
 NSaved=14 IEnMin=14 EnMin= -2673.96601576637     IErMin=14 ErrMin= 1.94D-03
 ErrMax= 1.94D-03  0.00D+00 EMaxC= 1.00D-01 BMatC= 4.16D-03 BMatP= 2.23D-02
 IDIUse=3 WtCom= 9.81D-01 WtEn= 1.94D-02
 Coeff-Com: -0.125D-01 0.210D-01 0.434D-03-0.188D-02-0.106D-03 0.562D-02
 Coeff-Com: -0.766D-03 0.143D-01-0.441D-01-0.321D+00-0.506D+00-0.618D-01
 Coeff-Com:  0.124D+01 0.667D+00
 Coeff-En:   0.000D+00 0.000D+00 0.000D+00 0.000D+00 0.000D+00 0.000D+00
 Coeff-En:   0.000D+00 0.000D+00 0.000D+00 0.000D+00 0.000D+00 0.000D+00
 Coeff-En:   0.000D+00 0.100D+01
 Coeff:     -0.122D-01 0.206D-01 0.425D-03-0.185D-02-0.104D-03 0.552D-02
 Coeff:     -0.751D-03 0.140D-01-0.432D-01-0.315D+00-0.496D+00-0.606D-01
 Coeff:      0.122D+01 0.674D+00
 Gap=     0.115 Goal=   None    Shift=    0.000
 Gap=     0.043 Goal=   None    Shift=    0.000
 RMSDP=1.77D-04 MaxDP=1.43D-02 DE=-2.54D-03 OVMax= 4.08D-02

 Cycle  15  Pass 1  IDiag  1:
 RMSU=  8.95D-05    CP:  8.83D-01  1.19D-02  1.19D-01  5.00D-01  1.83D-01
                    CP:  4.90D-01  1.73D-01  7.92D-01  5.85D-01  7.88D-01
                    CP:  8.18D-01  1.23D+00  2.09D+00  7.36D-01
 E= -2673.96704618615     Delta-E=       -0.001030419774 Rises=F Damp=F
 DIIS: error= 1.47D-03 at cycle  15 NSaved=  15.
 NSaved=15 IEnMin=15 EnMin= -2673.96704618615     IErMin=15 ErrMin= 1.47D-03
 ErrMax= 1.47D-03  0.00D+00 EMaxC= 1.00D-01 BMatC= 1.20D-03 BMatP= 4.16D-03
 IDIUse=3 WtCom= 9.85D-01 WtEn= 1.47D-02
 Coeff-Com: -0.596D-02 0.990D-02 0.305D-03-0.467D-03-0.364D-03 0.264D-02
 Coeff-Com:  0.350D-04 0.266D-03-0.320D-01-0.145D+00-0.238D+00-0.617D-01
 Coeff-Com:  0.456D+00 0.396D+00 0.619D+00
 Coeff-En:   0.000D+00 0.000D+00 0.000D+00 0.000D+00 0.000D+00 0.000D+00
 Coeff-En:   0.000D+00 0.000D+00 0.000D+00 0.000D+00 0.000D+00 0.000D+00
 Coeff-En:   0.000D+00 0.000D+00 0.100D+01
 Coeff:     -0.588D-02 0.975D-02 0.301D-03-0.460D-03-0.358D-03 0.260D-02
 Coeff:      0.344D-04 0.262D-03-0.315D-01-0.143D+00-0.235D+00-0.608D-01
 Coeff:      0.449D+00 0.390D+00 0.625D+00
 Gap=     0.113 Goal=   None    Shift=    0.000
 Gap=     0.043 Goal=   None    Shift=    0.000
 RMSDP=6.95D-05 MaxDP=4.83D-03 DE=-1.03D-03 OVMax= 8.39D-03

 Cycle  16  Pass 1  IDiag  1:
 RMSU=  5.33D-05    CP:  8.83D-01  1.25D-02  1.19D-01  5.00D-01  1.83D-01
                    CP:  4.92D-01  1.72D-01  7.88D-01  5.78D-01  7.95D-01
                    CP:  8.48D-01  1.31D+00  2.07D+00  8.81D-01  9.09D-01
 E= -2673.96728106490     Delta-E=       -0.000234878757 Rises=F Damp=F
 DIIS: error= 4.95D-04 at cycle  16 NSaved=  16.
 NSaved=16 IEnMin=16 EnMin= -2673.96728106490     IErMin=16 ErrMin= 4.95D-04
 ErrMax= 4.95D-04  0.00D+00 EMaxC= 1.00D-01 BMatC= 2.49D-04 BMatP= 1.20D-03
 IDIUse=3 WtCom= 9.95D-01 WtEn= 4.95D-03
 Coeff-Com: -0.388D-03 0.753D-03-0.121D-04-0.419D-03 0.101D-03 0.113D-02
 Coeff-Com: -0.119D-03-0.174D-02-0.666D-02 0.854D-02 0.216D-01 0.195D-01
 Coeff-Com: -0.184D+00-0.147D-01 0.404D+00 0.753D+00
 Coeff-En:   0.000D+00 0.000D+00 0.000D+00 0.000D+00 0.000D+00 0.000D+00
 Coeff-En:   0.000D+00 0.000D+00 0.000D+00 0.000D+00 0.000D+00 0.000D+00
 Coeff-En:   0.000D+00 0.000D+00 0.000D+00 0.100D+01
 Coeff:     -0.386D-03 0.750D-03-0.121D-04-0.417D-03 0.101D-03 0.113D-02
 Coeff:     -0.118D-03-0.173D-02-0.662D-02 0.850D-02 0.215D-01 0.194D-01
 Coeff:     -0.183D+00-0.146D-01 0.402D+00 0.754D+00
 Gap=     0.112 Goal=   None    Shift=    0.000
 Gap=     0.042 Goal=   None    Shift=    0.000
 RMSDP=4.67D-05 MaxDP=3.43D-03 DE=-2.35D-04 OVMax= 1.15D-02

 Cycle  17  Pass 1  IDiag  1:
 RMSU=  2.81D-05    CP:  8.84D-01  1.27D-02  1.19D-01  4.99D-01  1.83D-01
                    CP:  4.93D-01  1.70D-01  7.84D-01  5.81D-01  7.96D-01
                    CP:  8.62D-01  1.32D+00  2.14D+00  8.81D-01  1.23D+00
                    CP:  1.02D+00
 E= -2673.96735356339     Delta-E=       -0.000072498490 Rises=F Damp=F
 DIIS: error= 1.26D-04 at cycle  17 NSaved=  17.
 NSaved=17 IEnMin=17 EnMin= -2673.96735356339     IErMin=17 ErrMin= 1.26D-04
 ErrMax= 1.26D-04  0.00D+00 EMaxC= 1.00D-01 BMatC= 4.03D-05 BMatP= 2.49D-04
 IDIUse=3 WtCom= 9.99D-01 WtEn= 1.26D-03
 Coeff-Com:  0.149D-03-0.210D-03-0.169D-04-0.242D-03 0.124D-03 0.588D-03
 Coeff-Com: -0.816D-04-0.675D-03 0.106D-02 0.176D-01 0.301D-01 0.313D-01
 Coeff-Com: -0.135D+00-0.359D-01 0.118D+00 0.375D+00 0.599D+00
 Coeff-En:   0.000D+00 0.000D+00 0.000D+00 0.000D+00 0.000D+00 0.000D+00
 Coeff-En:   0.000D+00 0.000D+00 0.000D+00 0.000D+00 0.000D+00 0.000D+00
 Coeff-En:   0.000D+00 0.000D+00 0.000D+00 0.000D+00 0.100D+01
 Coeff:      0.149D-03-0.210D-03-0.169D-04-0.241D-03 0.123D-03 0.588D-03
 Coeff:     -0.815D-04-0.675D-03 0.106D-02 0.176D-01 0.301D-01 0.313D-01
 Coeff:     -0.135D+00-0.358D-01 0.117D+00 0.374D+00 0.599D+00
 Gap=     0.112 Goal=   None    Shift=    0.000
 Gap=     0.042 Goal=   None    Shift=    0.000
 RMSDP=1.71D-05 MaxDP=1.13D-03 DE=-7.25D-05 OVMax= 1.83D-03

 Cycle  18  Pass 1  IDiag  1:
 RMSU=  1.34D-05    CP:  8.84D-01  1.28D-02  1.19D-01  4.99D-01  1.83D-01
                    CP:  4.93D-01  1.70D-01  7.85D-01  5.80D-01  7.96D-01
                    CP:  8.57D-01  1.31D+00  2.11D+00  8.96D-01  1.24D+00
                    CP:  1.17D+00  9.80D-01
 E= -2673.96736533041     Delta-E=       -0.000011767021 Rises=F Damp=F
 DIIS: error= 2.13D-04 at cycle  18 NSaved=  18.
 NSaved=18 IEnMin=18 EnMin= -2673.96736533041     IErMin=17 ErrMin= 1.26D-04
 ErrMax= 2.13D-04  0.00D+00 EMaxC= 1.00D-01 BMatC= 2.56D-05 BMatP= 4.03D-05
 IDIUse=3 WtCom= 9.99D-01 WtEn= 1.26D-03
 Coeff-Com: -0.695D-05-0.132D-04 0.366D-05-0.350D-04-0.745D-05-0.220D-04
 Coeff-Com: -0.117D-05-0.410D-03 0.345D-02 0.867D-02 0.105D-01 0.257D-01
 Coeff-Com: -0.169D-01-0.373D-02-0.662D-01-0.499D-01 0.326D+00 0.762D+00
 Coeff-En:   0.000D+00 0.000D+00 0.000D+00 0.000D+00 0.000D+00 0.000D+00
 Coeff-En:   0.000D+00 0.000D+00 0.000D+00 0.000D+00 0.000D+00 0.000D+00
 Coeff-En:   0.000D+00 0.000D+00 0.000D+00 0.000D+00 0.000D+00 0.100D+01
 Coeff:     -0.694D-05-0.132D-04 0.366D-05-0.349D-04-0.744D-05-0.220D-04
 Coeff:     -0.117D-05-0.410D-03 0.345D-02 0.866D-02 0.105D-01 0.257D-01
 Coeff:     -0.169D-01-0.372D-02-0.661D-01-0.499D-01 0.326D+00 0.763D+00
 Gap=     0.112 Goal=   None    Shift=    0.000
 Gap=     0.042 Goal=   None    Shift=    0.000
 RMSDP=1.36D-05 MaxDP=1.49D-03 DE=-1.18D-05 OVMax= 2.16D-03

 Cycle  19  Pass 1  IDiag  1:
 RMSU=  6.79D-06    CP:  8.84D-01  1.29D-02  1.19D-01  4.99D-01  1.83D-01
                    CP:  4.93D-01  1.70D-01  7.85D-01  5.81D-01  7.95D-01
                    CP:  8.54D-01  1.29D+00  2.08D+00  8.81D-01  1.28D+00
                    CP:  1.24D+00  1.26D+00  1.13D+00
 E= -2673.96737255762     Delta-E=       -0.000007227207 Rises=F Damp=F
 DIIS: error= 8.00D-05 at cycle  19 NSaved=  19.
 NSaved=19 IEnMin=19 EnMin= -2673.96737255762     IErMin=19 ErrMin= 8.00D-05
 ErrMax= 8.00D-05  0.00D+00 EMaxC= 1.00D-01 BMatC= 4.90D-06 BMatP= 2.56D-05
 IDIUse=1 WtCom= 1.00D+00 WtEn= 0.00D+00
 Coeff-Com: -0.927D-04 0.139D-03-0.460D-06 0.144D-04-0.531D-05-0.344D-04
 Coeff-Com:  0.356D-06-0.254D-04 0.149D-02 0.317D-02 0.209D-02 0.146D-01
 Coeff-Com:  0.326D-02 0.600D-02-0.484D-01-0.700D-01 0.604D-01 0.389D+00
 Coeff-Com:  0.639D+00
 Coeff:     -0.927D-04 0.139D-03-0.460D-06 0.144D-04-0.531D-05-0.344D-04
 Coeff:      0.356D-06-0.254D-04 0.149D-02 0.317D-02 0.209D-02 0.146D-01
 Coeff:      0.326D-02 0.600D-02-0.484D-01-0.700D-01 0.604D-01 0.389D+00
 Coeff:      0.639D+00
 Gap=     0.112 Goal=   None    Shift=    0.000
 Gap=     0.042 Goal=   None    Shift=    0.000
 RMSDP=6.58D-06 MaxDP=3.95D-04 DE=-7.23D-06 OVMax= 1.54D-03

 Cycle  20  Pass 1  IDiag  1:
 RMSU=  3.85D-06    CP:  8.84D-01  1.29D-02  1.19D-01  4.99D-01  1.83D-01
                    CP:  4.93D-01  1.70D-01  7.84D-01  5.81D-01  7.96D-01
                    CP:  8.54D-01  1.29D+00  2.07D+00  8.82D-01  1.30D+00
                    CP:  1.29D+00  1.34D+00  1.36D+00  1.23D+00
 E= -2673.96737431788     Delta-E=       -0.000001760260 Rises=F Damp=F
 DIIS: error= 2.26D-05 at cycle  20 NSaved=  20.
 NSaved=20 IEnMin=20 EnMin= -2673.96737431788     IErMin=20 ErrMin= 2.26D-05
 ErrMax= 2.26D-05  0.00D+00 EMaxC= 1.00D-01 BMatC= 1.68D-06 BMatP= 4.90D-06
 IDIUse=1 WtCom= 1.00D+00 WtEn= 0.00D+00
 Coeff-Com:  0.250D-04-0.337D-04 0.978D-06-0.132D-04 0.171D-05-0.349D-04
 Coeff-Com:  0.142D-04 0.262D-03-0.859D-03-0.138D-03-0.230D-02 0.281D-02
 Coeff-Com: -0.173D-02 0.669D-02-0.439D-02-0.153D-01-0.999D-01-0.307D-01
 Coeff-Com:  0.399D+00 0.746D+00
 Coeff:      0.250D-04-0.337D-04 0.978D-06-0.132D-04 0.171D-05-0.349D-04
 Coeff:      0.142D-04 0.262D-03-0.859D-03-0.138D-03-0.230D-02 0.281D-02
 Coeff:     -0.173D-02 0.669D-02-0.439D-02-0.153D-01-0.999D-01-0.307D-01
 Coeff:      0.399D+00 0.746D+00
 Gap=     0.112 Goal=   None    Shift=    0.000
 Gap=     0.042 Goal=   None    Shift=    0.000
 RMSDP=7.45D-06 MaxDP=3.50D-04 DE=-1.76D-06 OVMax= 2.38D-03

 Cycle  21  Pass 1  IDiag  1:
 Restarting incremental Fock formation.
 E= -2673.96737559951     Delta-E=       -0.000001281629 Rises=F Damp=F
 DIIS: error= 2.28D-05 at cycle  21 NSaved=  20.
 NSaved=20 IEnMin=20 EnMin= -2673.96737559951     IErMin=19 ErrMin= 2.26D-05
 ErrMax= 2.28D-05  0.00D+00 EMaxC= 1.00D-01 BMatC= 9.32D-07 BMatP= 1.68D-06
 IDIUse=1 WtCom= 1.00D+00 WtEn= 0.00D+00
 Coeff-Com:  0.321D-04-0.437D-04-0.553D-04 0.163D-04-0.654D-04 0.231D-04
 Coeff-Com:  0.859D-04-0.797D-03-0.377D-03-0.313D-02-0.130D-02-0.441D-02
 Coeff-Com:  0.672D-02 0.920D-02 0.891D-02-0.712D-01-0.837D-01-0.151D-01
 Coeff-Com:  0.176D+00 0.979D+00
 Coeff:      0.321D-04-0.437D-04-0.553D-04 0.163D-04-0.654D-04 0.231D-04
 Coeff:      0.859D-04-0.797D-03-0.377D-03-0.313D-02-0.130D-02-0.441D-02
 Coeff:      0.672D-02 0.920D-02 0.891D-02-0.712D-01-0.837D-01-0.151D-01
 Coeff:      0.176D+00 0.979D+00
 Gap=     0.112 Goal=   None    Shift=    0.000
 Gap=     0.042 Goal=   None    Shift=    0.000
 RMSDP=6.92D-06 MaxDP=3.40D-04 DE=-1.28D-06 OVMax= 2.25D-03

 Cycle  22  Pass 1  IDiag  1:
 RMSU=  6.92D-06    CP:  1.00D+00
 E= -2673.96737643188     Delta-E=       -0.000000832369 Rises=F Damp=F
 DIIS: error= 2.25D-05 at cycle  22 NSaved=  20.
 NSaved=20 IEnMin=20 EnMin= -2673.96737643188     IErMin=20 ErrMin= 2.25D-05
 ErrMax= 2.25D-05  0.00D+00 EMaxC= 1.00D-01 BMatC= 6.16D-07 BMatP= 9.32D-07
 IDIUse=1 WtCom= 1.00D+00 WtEn= 0.00D+00
 Coeff-Com:  0.613D-05-0.500D-04 0.175D-04-0.647D-04 0.182D-04-0.102D-03
 Coeff-Com: -0.118D-03-0.385D-03-0.332D-02-0.218D-02-0.948D-03 0.695D-02
 Coeff-Com:  0.791D-02 0.661D-02-0.203D-01-0.277D-01-0.152D+00-0.295D+00
 Coeff-Com:  0.483D+00 0.999D+00
 Coeff:      0.613D-05-0.500D-04 0.175D-04-0.647D-04 0.182D-04-0.102D-03
 Coeff:     -0.118D-03-0.385D-03-0.332D-02-0.218D-02-0.948D-03 0.695D-02
 Coeff:      0.791D-02 0.661D-02-0.203D-01-0.277D-01-0.152D+00-0.295D+00
 Coeff:      0.483D+00 0.999D+00
 Gap=     0.112 Goal=   None    Shift=    0.000
 Gap=     0.042 Goal=   None    Shift=    0.000
 RMSDP=7.18D-06 MaxDP=3.48D-04 DE=-8.32D-07 OVMax= 2.32D-03

 Cycle  23  Pass 1  IDiag  1:
 RMSU=  1.58D-06    CP:  1.00D+00  2.01D+00
 E= -2673.96737702924     Delta-E=       -0.000000597362 Rises=F Damp=F
 DIIS: error= 1.73D-05 at cycle  23 NSaved=  20.
 NSaved=20 IEnMin=20 EnMin= -2673.96737702924     IErMin=20 ErrMin= 1.73D-05
 ErrMax= 1.73D-05  0.00D+00 EMaxC= 1.00D-01 BMatC= 2.51D-07 BMatP= 6.16D-07
 IDIUse=1 WtCom= 1.00D+00 WtEn= 0.00D+00
 Coeff-Com: -0.321D-06 0.144D-05-0.130D-05 0.623D-06-0.980D-04 0.447D-03
 Coeff-Com: -0.344D-03-0.193D-02-0.776D-03 0.402D-02 0.384D-02-0.187D-02
 Coeff-Com: -0.812D-02 0.170D-01 0.459D-01-0.148D-01-0.310D+00-0.543D+00
 Coeff-Com:  0.821D+00 0.989D+00
 Coeff:     -0.321D-06 0.144D-05-0.130D-05 0.623D-06-0.980D-04 0.447D-03
 Coeff:     -0.344D-03-0.193D-02-0.776D-03 0.402D-02 0.384D-02-0.187D-02
 Coeff:     -0.812D-02 0.170D-01 0.459D-01-0.148D-01-0.310D+00-0.543D+00
 Coeff:      0.821D+00 0.989D+00
 Gap=     0.112 Goal=   None    Shift=    0.000
 Gap=     0.042 Goal=   None    Shift=    0.000
 RMSDP=6.77D-06 MaxDP=3.28D-04 DE=-5.97D-07 OVMax= 2.23D-03

 Cycle  24  Pass 1  IDiag  1:
 RMSU=  1.25D-06    CP:  1.00D+00  2.97D+00  1.46D+00
 E= -2673.96737727526     Delta-E=       -0.000000246019 Rises=F Damp=F
 DIIS: error= 8.98D-06 at cycle  24 NSaved=  20.
 NSaved=20 IEnMin=20 EnMin= -2673.96737727526     IErMin=20 ErrMin= 8.98D-06
 ErrMax= 8.98D-06  0.00D+00 EMaxC= 1.00D-01 BMatC= 4.64D-08 BMatP= 2.51D-07
 IDIUse=1 WtCom= 1.00D+00 WtEn= 0.00D+00
 Coeff-Com:  0.917D-05 0.178D-04-0.387D-05-0.430D-04 0.159D-03-0.119D-03
 Coeff-Com: -0.514D-03-0.722D-04 0.149D-02 0.106D-02-0.672D-03-0.253D-02
 Coeff-Com:  0.993D-02 0.196D-01-0.855D-02-0.134D+00-0.256D+00 0.308D+00
 Coeff-Com:  0.485D+00 0.577D+00
 Coeff:      0.917D-05 0.178D-04-0.387D-05-0.430D-04 0.159D-03-0.119D-03
 Coeff:     -0.514D-03-0.722D-04 0.149D-02 0.106D-02-0.672D-03-0.253D-02
 Coeff:      0.993D-02 0.196D-01-0.855D-02-0.134D+00-0.256D+00 0.308D+00
 Coeff:      0.485D+00 0.577D+00
 Gap=     0.112 Goal=   None    Shift=    0.000
 Gap=     0.042 Goal=   None    Shift=    0.000
 RMSDP=6.43D-07 MaxDP=2.70D-05 DE=-2.46D-07 OVMax= 1.93D-04

 Cycle  25  Pass 1  IDiag  1:
 RMSU=  4.28D-07    CP:  1.00D+00  3.00D+00  1.58D+00  1.10D+00
 E= -2673.96737728315     Delta-E=       -0.000000007890 Rises=F Damp=F
 DIIS: error= 9.91D-06 at cycle  25 NSaved=  20.
 NSaved=20 IEnMin=20 EnMin= -2673.96737728315     IErMin=19 ErrMin= 8.98D-06
 ErrMax= 9.91D-06  0.00D+00 EMaxC= 1.00D-01 BMatC= 4.29D-08 BMatP= 4.64D-08
 IDIUse=1 WtCom= 1.00D+00 WtEn= 0.00D+00
 Coeff-Com:  0.703D-05 0.163D-04-0.329D-04-0.107D-03 0.158D-03 0.523D-03
 Coeff-Com:  0.220D-03-0.126D-02-0.882D-03 0.134D-02 0.354D-02 0.271D-02
 Coeff-Com: -0.665D-02-0.368D-01-0.224D-01 0.909D-01-0.105D-01-0.217D-01
 Coeff-Com:  0.150D+00 0.851D+00
 Coeff:      0.703D-05 0.163D-04-0.329D-04-0.107D-03 0.158D-03 0.523D-03
 Coeff:      0.220D-03-0.126D-02-0.882D-03 0.134D-02 0.354D-02 0.271D-02
 Coeff:     -0.665D-02-0.368D-01-0.224D-01 0.909D-01-0.105D-01-0.217D-01
 Coeff:      0.150D+00 0.851D+00
 Gap=     0.112 Goal=   None    Shift=    0.000
 Gap=     0.042 Goal=   None    Shift=    0.000
 RMSDP=4.15D-07 MaxDP=3.41D-05 DE=-7.89D-09 OVMax= 6.65D-05

 Cycle  26  Pass 1  IDiag  1:
 RMSU=  2.97D-07    CP:  1.00D+00  3.00D+00  1.57D+00  1.12D+00  1.67D+00
 E= -2673.96737729318     Delta-E=       -0.000000010032 Rises=F Damp=F
 DIIS: error= 5.62D-06 at cycle  26 NSaved=  20.
 NSaved=20 IEnMin=20 EnMin= -2673.96737729318     IErMin=20 ErrMin= 5.62D-06
 ErrMax= 5.62D-06  0.00D+00 EMaxC= 1.00D-01 BMatC= 1.39D-08 BMatP= 4.29D-08
 IDIUse=1 WtCom= 1.00D+00 WtEn= 0.00D+00
 Coeff-Com:  0.235D-05-0.111D-04-0.111D-03 0.166D-03 0.624D-03 0.474D-03
 Coeff-Com: -0.136D-02-0.118D-02 0.658D-03 0.309D-02 0.159D-02-0.551D-02
 Coeff-Com: -0.240D-01 0.152D-01 0.112D+00-0.734D-01-0.141D+00-0.227D+00
 Coeff-Com:  0.226D+00 0.111D+01
 Coeff:      0.235D-05-0.111D-04-0.111D-03 0.166D-03 0.624D-03 0.474D-03
 Coeff:     -0.136D-02-0.118D-02 0.658D-03 0.309D-02 0.159D-02-0.551D-02
 Coeff:     -0.240D-01 0.152D-01 0.112D+00-0.734D-01-0.141D+00-0.227D+00
 Coeff:      0.226D+00 0.111D+01
 Gap=     0.112 Goal=   None    Shift=    0.000
 Gap=     0.042 Goal=   None    Shift=    0.000
 RMSDP=4.78D-07 MaxDP=4.22D-05 DE=-1.00D-08 OVMax= 1.09D-04

 Cycle  27  Pass 1  IDiag  1:
 RMSU=  1.62D-07    CP:  1.00D+00  3.00D+00  1.59D+00  1.15D+00  2.58D+00
                    CP:  1.74D+00
 E= -2673.96737729860     Delta-E=       -0.000000005421 Rises=F Damp=F
 DIIS: error= 1.19D-06 at cycle  27 NSaved=  20.
 NSaved=20 IEnMin=20 EnMin= -2673.96737729860     IErMin=20 ErrMin= 1.19D-06
 ErrMax= 1.19D-06  0.00D+00 EMaxC= 1.00D-01 BMatC= 1.28D-09 BMatP= 1.39D-08
 IDIUse=1 WtCom= 1.00D+00 WtEn= 0.00D+00
 Coeff-Com: -0.349D-05-0.314D-04 0.403D-04 0.178D-03 0.162D-03-0.329D-03
 Coeff-Com: -0.364D-03 0.154D-03 0.898D-03 0.831D-03-0.945D-03-0.778D-02
 Coeff-Com:  0.668D-02 0.321D-01-0.250D-01-0.606D-01-0.170D+00-0.117D+00
 Coeff-Com:  0.659D+00 0.682D+00
 Coeff:     -0.349D-05-0.314D-04 0.403D-04 0.178D-03 0.162D-03-0.329D-03
 Coeff:     -0.364D-03 0.154D-03 0.898D-03 0.831D-03-0.945D-03-0.778D-02
 Coeff:      0.668D-02 0.321D-01-0.250D-01-0.606D-01-0.170D+00-0.117D+00
 Coeff:      0.659D+00 0.682D+00
 Gap=     0.112 Goal=   None    Shift=    0.000
 Gap=     0.042 Goal=   None    Shift=    0.000
 RMSDP=2.43D-07 MaxDP=1.35D-05 DE=-5.42D-09 OVMax= 5.46D-05

 Cycle  28  Pass 1  IDiag  1:
 RMSU=  1.13D-07    CP:  1.00D+00  3.00D+00  1.60D+00  1.18D+00  3.00D+00
                    CP:  2.03D+00  1.12D+00
 E= -2673.96737729939     Delta-E=       -0.000000000791 Rises=F Damp=F
 DIIS: error= 3.31D-07 at cycle  28 NSaved=  20.
 NSaved=20 IEnMin=20 EnMin= -2673.96737729939     IErMin=20 ErrMin= 3.31D-07
 ErrMax= 3.31D-07  0.00D+00 EMaxC= 1.00D-01 BMatC= 2.07D-10 BMatP= 1.28D-09
 IDIUse=1 WtCom= 1.00D+00 WtEn= 0.00D+00
 Coeff-Com:  0.110D-04-0.278D-04-0.847D-04-0.713D-04 0.200D-03 0.144D-03
 Coeff-Com: -0.329D-05-0.276D-03-0.172D-03 0.605D-03 0.155D-02 0.892D-03
 Coeff-Com: -0.581D-02 0.372D-02 0.472D-03-0.279D-01-0.970D-01 0.288D-01
 Coeff-Com:  0.359D+00 0.736D+00
 Coeff:      0.110D-04-0.278D-04-0.847D-04-0.713D-04 0.200D-03 0.144D-03
 Coeff:     -0.329D-05-0.276D-03-0.172D-03 0.605D-03 0.155D-02 0.892D-03
 Coeff:     -0.581D-02 0.372D-02 0.472D-03-0.279D-01-0.970D-01 0.288D-01
 Coeff:      0.359D+00 0.736D+00
 Gap=     0.112 Goal=   None    Shift=    0.000
 Gap=     0.042 Goal=   None    Shift=    0.000
 RMSDP=7.28D-08 MaxDP=3.97D-06 DE=-7.91D-10 OVMax= 1.37D-05

 Cycle  29  Pass 1  IDiag  1:
 RMSU=  5.78D-08    CP:  1.00D+00  3.00D+00  1.61D+00  1.20D+00  3.00D+00
                    CP:  2.12D+00  1.16D+00  8.01D-01
 E= -2673.96737729955     Delta-E=       -0.000000000155 Rises=F Damp=F
 DIIS: error= 1.48D-07 at cycle  29 NSaved=  20.
 NSaved=20 IEnMin=20 EnMin= -2673.96737729955     IErMin=20 ErrMin= 1.48D-07
 ErrMax= 1.48D-07  0.00D+00 EMaxC= 1.00D-01 BMatC= 5.26D-11 BMatP= 2.07D-10
 IDIUse=1 WtCom= 1.00D+00 WtEn= 0.00D+00
 Coeff-Com: -0.292D-04-0.679D-04-0.786D-04 0.127D-03 0.116D-03 0.892D-04
 Coeff-Com: -0.791D-04-0.623D-03-0.600D-03 0.143D-02 0.224D-02 0.963D-03
 Coeff-Com: -0.217D-02-0.543D-03 0.148D-01-0.133D-02-0.102D+00 0.345D-01
 Coeff-Com:  0.280D+00 0.773D+00
 Coeff:     -0.292D-04-0.679D-04-0.786D-04 0.127D-03 0.116D-03 0.892D-04
 Coeff:     -0.791D-04-0.623D-03-0.600D-03 0.143D-02 0.224D-02 0.963D-03
 Coeff:     -0.217D-02-0.543D-03 0.148D-01-0.133D-02-0.102D+00 0.345D-01
 Coeff:      0.280D+00 0.773D+00
 Gap=     0.112 Goal=   None    Shift=    0.000
 Gap=     0.042 Goal=   None    Shift=    0.000
 RMSDP=3.80D-08 MaxDP=2.00D-06 DE=-1.55D-10 OVMax= 5.75D-06

 Cycle  30  Pass 1  IDiag  1:
 RMSU=  2.27D-08    CP:  1.00D+00  3.00D+00  1.61D+00  1.21D+00  3.00D+00
                    CP:  2.15D+00  1.18D+00  7.33D-01  1.43D+00
 E= -2673.96737729960     Delta-E=       -0.000000000047 Rises=F Damp=F
 DIIS: error= 1.20D-07 at cycle  30 NSaved=  20.
 NSaved=20 IEnMin=20 EnMin= -2673.96737729960     IErMin=20 ErrMin= 1.20D-07
 ErrMax= 1.20D-07  0.00D+00 EMaxC= 1.00D-01 BMatC= 1.75D-11 BMatP= 5.26D-11
 IDIUse=1 WtCom= 1.00D+00 WtEn= 0.00D+00
 Coeff-Com:  0.101D-05-0.212D-04 0.123D-04 0.102D-04-0.119D-04-0.614D-04
 Coeff-Com: -0.332D-03-0.411D-03 0.731D-03 0.698D-03 0.255D-03-0.234D-02
 Coeff-Com:  0.178D-02 0.254D-01 0.429D-01-0.875D-01-0.159D+00-0.232D+00
[...]
 0.00015883,0.00059647,-0.00032274,0.00012865,-0.00244115,0.00619481,0.
 00255271,-0.00858867,0.00158862,-0.00011575,-0.11365322,-0.09102691,0.
 01563986,-0.00246914,0.00212801,0.00291289,-0.00012970,-0.00034074,0.0
 0050577,0.00003676,-0.00006669,-0.00013851,0.00004842,-0.00018270,-0.0
 0020781,0.00004213,0.00026972,-0.00004601,0.00052048,0.00015465,0.0003
 0116,0.00001597,-0.00000487,-0.00002019,-0.00001613,-0.00000875,0.0000
 0923,-0.00000790,-0.00000827,-0.00000379,-0.00000821,0.00000809,-0.000
 00129,-0.00000656,0.00001059,-0.00001579,0.00001547,-0.00001258,-0.000
 07328,-0.00002022,0.00003104,0.00000519,-0.00002896,0.00000054,-0.0000
 4997,0.00027126,-0.00081784,-0.00016371,-0.00038080,-0.00006817,-0.000
 01836,0.00208465,-0.00390539,-0.00085858,0.12496061,0.08307583,-0.0000
 1928,0.00000798,0.00001772,0.00001065,-0.00007078,-0.00000145,0.000131
 79,0.00017246,0.00001883,0.00011296,0.00007238,0.00005664,-0.00006882,
 0.00024419,0.00003544,0.00125989,-0.00135493,-0.00179306,0.00023855,0.
 00070680,-0.00263214,0.00111582,-0.00015643,0.00073000,-0.00043488,0.0
 0004461,-0.00038561,0.00004607,-0.00006803,0.00046452,-0.00021555,-0.0
 0022328,0.00006445,-0.00115634,-0.00046674,0.00021292,-0.00190924,0.00
 048844,-0.00360701,-0.00045629,-0.00005034,-0.00117433,0.00043467,0.00
 222274,-0.00438933,0.02717078,0.01207915,0.00044280,0.02558057,0.01602
 738,-0.05917209,-0.02198814,-0.01014998,0.00751850,-0.00002266,-0.0001
 6450,-0.00050482,-0.00007535,0.00009374,0.00008113,-0.00005464,-0.0000
 0066,0.00004503,-0.00006179,-0.00020015,0.00000433,-0.00008974,0.00008
 063,-0.00008325,-0.00002966,-0.00031103,0.00001443,0.00000135,0.000003
 51,-0.00000953,-0.00000413,0.00000103,-0.00000101,-0.00000057,0.000000
 19,-0.00000085,-0.00000597,0.00000349,-0.00002333,-0.00000123,-0.00001
 903,-0.00003434,0.00001489,0.00002161,-0.00000471,-0.00027509,0.000037
 03,-0.00028833,0.00008560,-0.00015428,0.00005240,0.00113981,0.00057673
 ,-0.00009537,0.00003830,-0.00097259,0.00105075,-0.03036883,-0.01847877
 ,0.06328159,0.00000538,-0.00000100,-0.00000477,0.00005823,0.00004646,0
 .00000646,-0.00013661,0.00022283,0.00004863,0.00000867,-0.00001550,-0.
 00002745,0.00010871,0.00003614,0.00009198,-0.00022111,0.00059012,0.000
 09503,-0.00538433,0.00114881,-0.00142282,0.00058279,-0.00110733,0.0004
 7831,-0.00029337,0.00014648,-0.00002529,0.00006896,0.00003323,0.000060
 85,-0.00004039,0.00002545,-0.00002382,-0.00004578,-0.00001930,-0.00005
 211,0.00000149,0.00002728,0.00016701,-0.00005917,-0.00000199,-0.000106
 67,0.00007209,0.00002436,0.00002323,-0.00001458,-0.00002600,0.00005629
 ,0.00001705,0.00002490,-0.00003217,-0.00027819,-0.00016144,-0.00012676
 ,-0.00870699,-0.03055189,0.00262053,0.00343607,0.00128921,0.00121633,-
 0.09517059,-0.09850292,0.00591136,0.01115129,0.01883799,-0.00188384,-0
 .00211515,0.00249918,-0.00217368,0.00063323,0.00034997,0.00005285,0.00
 000153,0.00000045,-0.00000239,0.00000082,0.00000241,0.00000489,-0.0000
 0070,0.00000174,0.00000048,0.00000814,-0.00000379,0.00001419,0.0000022
 8,0.00001904,-0.00001804,-0.00001578,-0.00001211,-0.00000025,-0.000000
 10,-0.00000294,-0.00000087,-0.00000330,-0.00000217,0.00000938,-0.00000
 056,0.00000202,0.00000220,-0.00000151,-0.00000478,0.00000492,-0.000002
 08,0.00000754,-0.00001746,0.09557837,-0.00009394,-0.00000186,-0.000009
 57,0.00004228,-0.00019644,0.00003516,0.00030429,-0.00003443,-0.0000774
 0,0.00000699,0.00006357,0.00000784,-0.00011660,-0.00004665,-0.00006055
 ,0.00018567,0.00083916,-0.00000790,-0.00074895,0.00050034,-0.00000834,
 -0.00003687,-0.00009804,-0.00014985,0.00008916,-0.00004543,0.00024916,
 0.00002001,0.00007660,-0.00015734,0.00003833,0.00002108,-0.00001610,0.
 00001467,-0.00000777,0.00006134,-0.00002654,0.00000882,-0.00003476,0.0
 0003232,0.00000179,0.00006095,-0.00004682,-0.00001707,-0.00000075,0.00
 000884,0.00000945,-0.00002955,-0.00002918,-0.00001218,0.00002911,-0.00
 002044,-0.00001210,-0.00004962,0.00194253,-0.00250523,0.00191377,0.000
 99961,0.00125292,-0.00042335,-0.10033079,-0.29779515,0.02628930,-0.011
 10737,-0.01666943,0.00178209,0.00361104,-0.00060923,0.00220394,-0.0007
 3792,-0.00060610,-0.00004896,0.00000835,0.00000975,-0.00000094,0.00000
 788,0.00000772,-0.00000103,0.00000583,-0.00000657,0.00000103,-0.000006
 89,-0.00000920,-0.00000723,-0.00001341,-0.00000234,0.00000689,-0.00000
 663,-0.00000040,-0.00000315,-0.00000515,-0.00000492,0.00000451,-0.0000
 0527,-0.00000374,0.00000202,-0.00000132,-0.00000187,0.00000517,0.00000
 406,-0.00000276,0.00001061,0.00000902,-0.00000833,-0.00001399,0.105755
 11,0.31505125,0.00002426,-0.00000330,0.00002556,-0.00006984,0.00004256
 ,-0.00006166,0.00061044,0.00043346,-0.00054204,-0.00053535,0.00029381,
 0.00002740,0.00005720,-0.00064223,-0.00024809,-0.00066804,0.00075631,-
 0.00069431,-0.00115774,-0.00035513,0.00286259,0.00009187,-0.00029885,0
 .00012939,0.00002499,-0.00004682,-0.00004551,-0.00004014,-0.00003074,-
 0.00000476,-0.00003958,-0.00004932,-0.00000349,-0.00002320,0.00001061,
 -0.00006029,0.00002522,0.00006718,0.00007438,-0.00001635,-0.00002074,-
 0.00006384,0.00005943,0.00003165,0.00001489,-0.00004529,-0.00004442,0.
 00005312,0.00003061,-0.00004015,-0.00011560,-0.00019857,0.00007333,0.0
 0012030,-0.00093346,-0.00331124,0.00529550,0.00063018,-0.00058923,-0.0
 0290732,0.00582809,0.02782578,-0.04096128,0.00301220,0.00520835,0.0040
 7491,-0.00215103,0.00256067,0.00832332,0.00040060,-0.00039873,0.000324
 29,-0.00000925,0.00000569,-0.00000670,-0.00000969,0.,-0.00000379,-0.00
 000393,0.00000229,-0.00000437,-0.00000117,-0.00000456,-0.00004220,0.00
 000314,0.00001884,0.00003242,-0.00000689,0.00000310,0.00000462,-0.0000
 0338,0.00000452,-0.00000201,0.00000109,-0.00001085,0.00000033,-0.00000
 085,0.00000395,0.00000074,-0.00000097,0.00000460,-0.00000627,-0.000031
 01,0.00003571,0.00001598,-0.00577607,-0.03046598,0.02950363,-0.0001694
 1,-0.00003622,-0.00003022,0.00020010,-0.00011796,0.00002392,-0.0000547
 5,-0.00018421,0.00005035,0.00022938,-0.00001089,0.00004259,-0.00066686
 ,0.00037945,-0.00009708,0.00097087,-0.00236845,-0.00028414,0.00050634,
 0.00003789,0.00015873,-0.00024673,-0.00003266,-0.00001617,0.00013687,-
 0.00003974,0.00026081,0.00000146,0.00003656,-0.00024169,0.00006377,0.0
 0003127,0.00000233,0.00001540,-0.00000870,0.00009099,-0.00004811,0.000
 00090,-0.00006974,0.00004821,0.00000276,0.00009863,-0.00008041,-0.0000
 3311,-0.00000785,0.00002253,0.00002774,-0.00006303,-0.00002592,-0.0000
 1999,0.00007948,0.00001937,-0.00000215,-0.00009419,0.00189246,0.002301
 46,-0.00155243,-0.00143298,0.00049360,-0.00038837,-0.01426814,-0.00495
 579,-0.00252535,-0.32346139,-0.03557283,-0.03884758,-0.00913767,0.0011
 4560,-0.00207438,0.00076320,0.00198954,0.00026615,0.00002004,-0.000001
 52,-0.00001294,0.00001650,0.00000500,0.00002327,0.00001801,0.00000352,
 0.00000379,0.00003489,-0.00001790,-0.00001144,-0.00003069,-0.00018481,
 0.00001437,-0.00000342,-0.00000316,-0.00000724,-0.00000649,-0.00000650
 ,0.00000678,-0.00000757,-0.00000317,0.00000211,-0.00000349,-0.00000395
 ,0.00000782,0.00000346,-0.00000123,0.00001910,-0.00000105,-0.00000861,
 -0.00003049,0.00088973,0.00031401,0.00101085,0.34316651,-0.00011655,-0
 .00003617,-0.00000749,0.00009526,-0.00000736,0.00003214,0.00031410,0.0
 0018105,-0.00002240,-0.00012201,0.00012958,-0.00003333,-0.00148135,0.0
 0023592,-0.00016793,-0.00040266,-0.00484955,0.00089679,0.00072916,-0.0
 0051297,0.00006448,0.00004654,0.00009612,-0.00007067,-0.00010763,-0.00
 003224,-0.00003694,0.00002917,0.00004406,0.00008009,-0.00001279,-0.000
 01434,-0.00001555,-0.00000653,0.00000942,-0.00003273,0.00001758,0.0000
 1344,0.00001324,-0.00001917,-0.00000473,-0.00004081,0.00002774,0.00000
 939,0.00000104,-0.00000578,0.00000397,0.00000810,0.00001061,0.00002530
 ,-0.00000149,0.00002294,0.00002548,0.00002441,0.00054263,-0.00316039,0
 .00207476,0.00151729,-0.00021104,0.00035201,0.02601272,0.00775073,0.00
 371649,-0.03547530,-0.06276582,-0.00251342,-0.02796415,0.00034051,-0.0
 0360255,-0.00151654,0.00125051,-0.00058469,0.00001370,-0.00000641,-0.0
 0004118,0.00000111,0.00000134,0.00004007,0.00002176,0.00002337,-0.0000
 0038,0.00006325,-0.00001031,0.00001560,-0.00014415,-0.00041018,-0.0000
 0213,0.00000056,-0.00000218,0.00000280,0.00000304,0.00000295,-0.000002
 93,0.00000425,-0.00000026,-0.00000185,0.00000036,-0.00000050,-0.000002
 64,-0.00000284,0.00000126,-0.00000439,-0.00000557,-0.00002291,-0.00000
 023,-0.00044505,0.00084950,-0.00106723,0.03747244,0.06158247,-0.000019
 77,0.00000529,0.00004936,-0.00000721,-0.00000867,0.00011512,0.00007006
 ,-0.00002014,-0.00019167,0.00002907,-0.00003113,-0.00001528,0.00012794
 ,0.00017168,0.00003663,0.00036587,0.00038365,0.00400014,-0.00010408,-0
 .00051228,-0.00076304,-0.00003616,-0.00018765,-0.00063889,0.00000614,-
 0.00001735,0.00007891,-0.00003583,0.00012772,0.00005593,0.00002301,0.0
 0002174,-0.00000904,0.00002059,-0.00001115,0.00004277,-0.00002248,0.00
 002445,-0.00005837,0.00002699,-0.00000164,0.00003918,-0.00001666,-0.00
 000257,-0.00001059,-0.00000035,-0.00000935,0.00000510,0.00000418,-0.00
 000525,-0.00003044,0.00009884,0.00007182,0.00007253,-0.00124006,0.0033
 0799,0.00938486,0.00026600,-0.00055607,-0.00094094,-0.00748369,0.00007
 176,0.00566732,-0.03862614,-0.00273199,-0.04569735,0.00111361,0.000228
 18,0.00433383,0.00065453,-0.00017530,-0.00226522,0.00001488,0.00000323
 ,-0.00001468,-0.00000820,-0.00000525,-0.00002062,0.00000102,-0.0000030
 4,-0.00000906,-0.00000779,0.00000195,0.00004644,-0.00004023,0.00008283
 ,-0.00001629,-0.00000342,0.00000246,-0.00000225,-0.00000229,-0.0000021
 4,0.00000232,-0.00000144,-0.00000197,-0.00000392,-0.00000022,0.0000010
 2,0.00000186,0.00000417,0.00000221,-0.00000621,0.00001119,0.00000454,0
 .00002169,0.00114073,-0.00106145,-0.00538157,0.04385126,0.00091747,0.0
 3233333,-0.00120336,0.00193577,-0.00036641,-0.00049570,0.00038556,0.00
 036772,-0.00817396,0.00070488,-0.00183675,0.00097549,-0.00234883,-0.00
 028332,0.00071195,0.00011614,0.00016053,0.00048596,0.00328161,-0.00100
 582,-0.00048139,-0.00075202,0.00004305,-0.00030595,0.00015538,-0.00015
 479,0.00003836,-0.00004947,0.00027136,0.00001816,0.00007427,-0.0001813
 7,0.00005369,0.00001131,-0.00001844,0.00000914,-0.00000635,0.00007384,
 -0.00005493,-0.00000700,-0.00005852,0.00003428,0.00000066,0.00006339,-
 0.00005648,-0.00002421,-0.00000448,0.00001888,0.00002733,-0.00005285,0
 .00000690,-0.00001750,0.00006891,0.00003443,0.00002561,-0.00010442,0.0
 0017563,-0.00026255,0.00009257,-0.00000325,0.00018635,-0.00004285,0.00
 018379,0.00039081,-0.00006321,0.00080548,-0.00242409,0.00090329,-0.015
 71274,-0.00393429,-0.00206711,-0.32697595,-0.04914925,-0.03380830,-0.0
 0029718,0.00108552,-0.00063636,-0.00021523,0.00092332,0.00037561,0.000
 68034,0.00054867,0.00008885,-0.00044996,0.00015707,-0.00011528,-0.0001
 0930,0.00000171,0.00007277,-0.00000721,-0.00000433,-0.00000417,-0.0000
 0536,-0.00000250,0.00000580,-0.00000472,-0.00000358,0.00000070,-0.0000
 0367,-0.00000286,0.00000640,0.00000213,0.00000114,0.00001508,-0.000005
 08,-0.00000914,-0.00001683,-0.00001706,0.00002435,-0.00004405,0.000548
 42,0.00092967,-0.00003063,0.34978311,-0.00045747,-0.00219776,0.0001710
 7,0.00212905,0.00170793,-0.00033114,-0.02975287,0.00290457,-0.00371402
 ,-0.00057250,-0.00522249,0.00105830,0.00032391,-0.00079740,0.00010404,
 0.00187942,-0.00375813,0.00125748,0.00082918,0.00054200,-0.00003959,0.
 00019204,-0.00022566,0.00012812,0.00005455,0.00002977,-0.00012114,-0.0
 0003698,-0.00003696,0.00006206,-0.00002353,0.00001207,0.00002720,0.000
 00685,0.00000544,-0.00002491,0.00002142,0.00000292,0.00002606,-0.00000
 728,0.00000499,-0.00002157,0.00002410,0.00001083,0.00000110,-0.0000225
 2,-0.00001348,0.00001517,0.00000432,-0.00000793,-0.00004610,-0.0000197
 0,-0.00000811,0.00003608,0.00037783,0.00026262,-0.00001063,-0.00015785
 ,-0.00006584,-0.00001719,-0.00044553,0.00015649,-0.00011503,0.00202176
 ,0.00088405,-0.00015334,0.02384859,0.00694140,0.00275668,-0.04792024,-
 0.06593641,-0.00248292,0.00095663,-0.00111275,-0.00027637,0.00065104,-
 0.00075310,0.00067690,0.00011607,0.00020014,-0.00005342,-0.00146354,-0
 .00007873,-0.00022416,0.00002228,0.00002001,-0.00008247,0.00000599,0.0
 0000134,-0.00000051,0.00000126,-0.00000322,-0.00000163,-0.00000043,-0.
 00000024,-0.00000044,-0.00000052,-0.00000048,0.00000047,0.00000113,0.0
 0000137,-0.00000331,0.00000632,0.00000435,0.00000495,-0.00002321,0.000
 02307,0.00001434,-0.00066676,-0.00047586,-0.00001606,0.04806390,0.0669
 6170,-0.00002581,0.00046355,-0.00036396,0.00014410,-0.00040377,-0.0034
 0811,0.00127553,-0.00003357,0.00514563,-0.00038391,0.00078345,0.005007
 41,0.00007409,0.00036651,-0.00036901,-0.00118651,0.00107058,0.00499417
 ,-0.00038449,0.00008651,0.00052404,0.00023397,0.00014876,-0.00009135,-
 0.00006115,-0.00003876,-0.00009090,-0.00001459,-0.00000483,0.00008026,
 -0.00006688,-0.00000769,0.00000374,-0.00003252,0.00000776,-0.00009295,
 0.00009644,0.00000433,0.00006234,-0.00003466,0.00000226,-0.00006224,0.
 00006258,0.00002813,0.00000409,-0.00004508,-0.00002341,0.00006203,0.00
 002177,0.00000980,-0.00009707,-0.00007584,-0.00002032,0.00009028,0.000
 09651,-0.00018922,0.00004859,-0.00005234,0.00013427,-0.00004519,-0.000
 12063,0.00012183,-0.00010939,0.00032833,-0.00115488,-0.00363141,-0.004
 60330,-0.00091262,0.00217245,-0.03366847,-0.00246393,-0.03680664,0.000
 67584,-0.00084685,0.00010697,-0.00091733,0.00131638,-0.00034494,0.0001
 3033,0.00000404,-0.00040531,0.00011131,0.00004330,0.00016960,0.0001129
 6,-0.00008885,-0.00063254,-0.00000155,-0.00001272,-0.00000019,-0.00000
 013,-0.00000157,-0.00000259,-0.00000214,0.00000124,0.00000043,0.000002
 04,-0.00000231,-0.00000082,0.00000130,-0.00000307,-0.00001317,0.000004
 70,-0.00001599,0.00000367,-0.00004303,0.00005274,0.00023351,0.00009631
 ,0.00019037,0.00021497,0.03824720,0.00138456,0.02764945,0.00007976,-0.
 00000310,-0.00001173,0.00005299,0.00010243,0.00001483,-0.00089623,-0.0
 0103702,-0.00005537,0.00020041,-0.00036837,0.00010128,0.00021059,-0.00
 022270,0.00016031,-0.00180208,0.00128101,0.00003963,-0.00068559,-0.003
 54113,-0.00271886,0.00166975,-0.00148170,-0.00239997,-0.00695641,-0.01
 371400,0.01850115,-0.03528784,-0.04837303,-0.01871512,0.00175500,0.000
 85145,-0.00089713,0.00001869,-0.00040919,0.00209465,-0.00052429,0.0001
 8949,-0.00129818,0.00003921,-0.00019579,0.00132332,-0.00083584,-0.0002
 6364,-0.00057168,0.00031122,0.00033750,-0.00051727,0.00019168,0.000120
 11,0.00026403,-0.00066787,-0.00089511,-0.00001810,-0.02509979,0.021434
 34,-0.01845855,-0.04428584,-0.03834226,-0.04447228,0.00279615,-0.00073
 852,0.00147489,-0.00061943,0.00258702,-0.00043146,0.00026436,-0.001753
 20,0.00034771,-0.00039942,0.00176891,-0.00027218,-0.00000333,-0.000014
 08,0.00001860,0.00000262,-0.00001380,-0.00000797,0.00000110,-0.0000057
 0,0.00000082,0.00003314,-0.00002293,0.00000308,0.00001843,-0.00008467,
 -0.00006756,-0.00006585,-0.00006510,-0.00003158,0.00001539,-0.00002268
 ,-0.00000307,-0.00000242,0.00000054,0.00002408,-0.00001330,-0.00002378
 ,-0.00001450,0.00000999,0.00001667,-0.00002948,-0.00002451,-0.00009084
 ,-0.00007874,-0.00011748,-0.00009028,-0.00004434,0.00007757,-0.0000478
 1,-0.00014342,0.00001235,0.00003330,0.00000507,0.11052709,0.00006595,0
 .00000737,0.00001606,-0.00010793,0.00000854,-0.00001497,0.00007141,-0.
 00004793,-0.00001537,0.00025064,-0.00010078,0.00003010,0.00008585,0.00
 035118,0.00001325,0.00009354,-0.00198705,-0.00113767,0.00449172,-0.000
 37641,-0.00105404,-0.00594355,-0.00619640,-0.00345159,-0.01425891,-0.0
 2706211,0.03203118,-0.04259891,-0.08246171,-0.03342446,0.00125084,0.00
 515555,-0.00257189,0.00042786,-0.00047396,0.00219201,-0.00040962,0.000
 43983,-0.00194043,0.00013862,-0.00042203,0.00176894,-0.00100986,-0.000
 24199,-0.00094935,0.00053629,0.00014364,-0.00055475,0.00012262,-0.0000
 5362,-0.00013652,-0.00140368,0.00142382,0.00192917,0.00251216,0.006837
 09,0.00534002,-0.02888288,-0.02071043,-0.03525966,0.00239782,-0.000975
 18,0.00133911,-0.00022063,0.00076331,-0.00035322,-0.00029409,-0.000343
 92,0.00004877,-0.00018127,-0.00007843,0.00008098,-0.00000354,-0.000008
 14,-0.00000200,-0.00000367,-0.00000380,0.00000244,-0.00000437,0.000013
 01,-0.00000296,0.00000365,-0.00000029,0.00002119,-0.00002076,-0.000070
 78,0.00006715,-0.00034084,-0.00005146,0.00001263,0.00031834,-0.0003481
 2,-0.00027980,0.00005936,0.00000660,0.00000067,-0.00002029,0.00002859,
 -0.00003837,-0.00002981,0.00005546,-0.00005834,0.00001405,-0.00000627,
 -0.00003330,-0.00020931,-0.00001776,-0.00001720,0.00003856,-0.00005317
 ,-0.00006955,-0.00003305,0.00001750,0.00000400,0.08309767,0.12684027,0
 .00010195,-0.00001130,0.00004829,0.00000618,0.00024786,-0.00004008,-0.
 00087391,-0.00116805,0.00005376,0.00026766,-0.00024585,-0.00011227,-0.
 00002982,-0.00041862,0.00008161,-0.00123936,0.00186776,0.00158409,-0.0
 0648456,-0.00541881,-0.00379329,0.00306628,0.00105833,-0.00153190,0.00
 635720,0.01251219,-0.00060556,-0.01191630,-0.02774559,-0.00712776,0.00
 133305,0.00137195,-0.00119210,0.00022405,-0.00019634,0.00051487,-0.000
 41149,-0.00013253,-0.00013955,0.00002491,0.00013805,-0.00005412,-0.000
 04822,-0.00005950,0.00013634,0.00014548,0.00007960,-0.00010206,-0.0000
 3797,-0.00005293,0.00034854,0.00041634,-0.00121366,-0.00213884,-0.0242
 0402,0.02142743,-0.01722523,-0.03674710,-0.03880955,-0.05437753,0.0032
 5160,-0.00160528,0.00466643,-0.00006065,0.00222080,-0.00054008,0.00024
 391,-0.00190923,0.00039156,-0.00016290,0.00182741,-0.00035838,-0.00000
 277,-0.00001116,0.00000606,-0.00000064,-0.00002743,-0.00001789,-0.0000
 0137,-0.00000069,0.00000311,0.00001542,-0.00001019,0.00001882,0.000040
 12,0.00009998,0.00002824,-0.00011948,-0.00007935,0.00002196,-0.0000027
 7,-0.00002975,-0.00002640,-0.00004711,-0.00000666,0.00002115,-0.000008
 02,-0.00000055,0.00003980,0.00001886,0.00000562,0.00004179,-0.00001509
 ,0.00008151,0.00006773,-0.00026814,-0.00008779,0.00003822,0.00024471,-
 0.00017689,-0.00042686,0.00003889,0.00001142,-0.00000585,0.06688508,0.
 03646777,0.08170337\\0.00000505,0.00000125,0.00000152,-0.00000063,-0.0
 0000413,-0.00000026,0.00000276,0.00000527,-0.00000094,-0.00000535,0.00
 000253,-0.00000064,-0.00000347,-0.00000167,0.00000045,0.00001326,0.000
 00341,-0.00000114,-0.00001780,-0.00003309,0.00000459,0.00001575,0.0000
 0519,0.00000362,0.00001588,-0.00000292,-0.00003748,-0.00001483,0.00000
 259,0.00004417,-0.00001168,-0.00000578,0.00001410,-0.00000523,-0.00000
 047,-0.00001462,0.00000859,0.00000568,0.00000894,-0.00000101,0.0000008
 9,-0.00000213,0.00000045,-0.00000133,0.00000144,0.00000054,0.00000038,
 0.00000364,-0.00000038,0.00000260,-0.00000717,-0.00000940,-0.00000568,
 0.00000233,0.00000138,0.00001831,-0.00000140,-0.00000153,0.00001133,0.
 00000563,0.00000520,-0.00000085,0.00000114,0.00000140,-0.00000019,-0.0
 0000325,-0.00001082,0.00000642,-0.00000289,0.00000140,-0.00000476,-0.0
 0000037,-0.00000055,0.00000026,-0.00000063,-0.00000019,0.00000036,-0.0
 0000032,-0.00000017,0.00000022,0.00000007,0.00000290,-0.00000071,0.000
 00101,0.00000017,0.00000255,0.00000166,0.00000228,-0.00000012,-0.00000
 301,0.00000165,-0.00000067,0.00000307,0.00000011,0.00000049,-0.0000018
 4,0.00000240,0.00000177,0.00000030,0.00000032,-0.00000019,-0.00000080,
 0.00000084,-0.00000026,0.00000149,-0.00000425,0.00000126,0.00000242,-0
 .00000086,-0.00000404,0.00000063,-0.00000033,0.00000026,-0.00000081,0.
 00000615,-0.00000617,-0.00002253\\\@
 The archive entry for this job was punched.


 The juvenile sea squirt wanders through the sea searching
 for a suitable rock or hunk of coral to cling to and make
 its home for life.  For this task it has a rudimentary
 nervous system.  When it finds its spot and takes root, it
 doesn't need its brain any more so it eats it.
 It's rather like getting tenure.

                               -- source unknown
 Job cpu time:       0 days  4 hours 10 minutes 46.6 seconds.
 Elapsed time:       0 days  0 hours  7 minutes 53.0 seconds.
 File lengths (MBytes):  RWF=   1521 Int=      0 D2E=      0 Chk=     19 Scr=      2
 Normal termination of Gaussian 16 at Fri Mar  8 01:09:05 2024.
