 Entering Gaussian System, Link 0=g16
 Initial command:
 /public/software/apps/Gaussian/g16/l1.exe "/tmp/Gau-17393.inp" -scrdir="/tmp/"
 Entering Link 1 = /public/software/apps/Gaussian/g16/l1.exe PID=     17425.
  
 Copyright (c) 1988-2019, Gaussian, Inc.  All Rights Reserved.
  
 This is part of the Gaussian(R) 16 program.  It is based on
 the Gaussian(R) 09 system (copyright 2009, Gaussian, Inc.),
 the Gaussian(R) 03 system (copyright 2003, Gaussian, Inc.),
 the Gaussian(R) 98 system (copyright 1998, Gaussian, Inc.),
 the Gaussian(R) 94 system (copyright 1995, Gaussian, Inc.),
 the Gaussian 92(TM) system (copyright 1992, Gaussian, Inc.),
 the Gaussian 90(TM) system (copyright 1990, Gaussian, Inc.),
 the Gaussian 88(TM) system (copyright 1988, Gaussian, Inc.),
 the Gaussian 86(TM) system (copyright 1986, Carnegie Mellon
 University), and the Gaussian 82(TM) system (copyright 1983,
 Carnegie Mellon University). Gaussian is a federally registered
 trademark of Gaussian, Inc.
  
 This software contains proprietary and confidential information,
 including trade secrets, belonging to Gaussian, Inc.
  
 This software is provided under written license and may be
 used, copied, transmitted, or stored only in accord with that
 written license.
  
 The following legend is applicable only to US Government
 contracts under FAR:
  
                    RESTRICTED RIGHTS LEGEND
  
 Use, reproduction and disclosure by the US Government is
 subject to restrictions as set forth in subparagraphs (a)
 and (c) of the Commercial Computer Software - Restricted
 Rights clause in FAR 52.227-19.
  
 Gaussian, Inc.
 340 Quinnipiac St., Bldg. 40, Wallingford CT 06492
  
  
 ---------------------------------------------------------------
 Warning -- This program may not be used in any manner that
 competes with the business of Gaussian, Inc. or will provide
 assistance to any competitor of Gaussian, Inc.  The licensee
 of this program is prohibited from giving any competitor of
 Gaussian, Inc. access to this program.  By using this program,
 the user acknowledges that Gaussian, Inc. is engaged in the
 business of creating and licensing software in the field of
 computational chemistry and represents and warrants to the
 licensee that it is not a competitor of Gaussian, Inc. and that
 it will not use this program in any manner prohibited above.
 ---------------------------------------------------------------
  

 Cite this work as:
 Gaussian 16, Revision C.01,
 M. J. Frisch, G. W. Trucks, H. B. Schlegel, G. E. Scuseria, 
 M. A. Robb, J. R. Cheeseman, G. Scalmani, V. Barone, 
 G. A. Petersson, H. Nakatsuji, X. Li, M. Caricato, A. V. Marenich, 
 J. Bloino, B. G. Janesko, R. Gomperts, B. Mennucci, H. P. Hratchian, 
 J. V. Ortiz, A. F. Izmaylov, J. L. Sonnenberg, D. Williams-Young, 
 F. Ding, F. Lipparini, F. Egidi, J. Goings, B. Peng, A. Petrone, 
 T. Henderson, D. Ranasinghe, V. G. Zakrzewski, J. Gao, N. Rega, 
 G. Zheng, W. Liang, M. Hada, M. Ehara, K. Toyota, R. Fukuda, 
 J. Hasegawa, M. Ishida, T. Nakajima, Y. Honda, O. Kitao, H. Nakai, 
 T. Vreven, K. Throssell, J. A. Montgomery, Jr., J. E. Peralta, 
 F. Ogliaro, M. J. Bearpark, J. J. Heyd, E. N. Brothers, K. N. Kudin, 
 V. N. Staroverov, T. A. Keith, R. Kobayashi, J. Normand, 
 K. Raghavachari, A. P. Rendell, J. C. Burant, S. S. Iyengar, 
 J. Tomasi, M. Cossi, J. M. Millam, M. Klene, C. Adamo, R. Cammi, 
 J. W. Ochterski, R. L. Martin, K. Morokuma, O. Farkas, 
 J. B. Foresman, and D. J. Fox, Gaussian, Inc., Wallingford CT, 2019.
 
 ******************************************
 Gaussian 16:  ES64L-G16RevC.01  3-Jul-2019
                16-May-2024 
 ******************************************
 %nprocshared=32
 Will use up to   32 processors via shared memory.
 %mem=100GB
 ------------------------------------------
 #p opt freq b3lyp/def2svpp em=gd3bj nosymm
 ------------------------------------------
 1/18=20,19=15,26=3,38=1/1,3;
 2/9=110,12=2,15=1,17=6,18=5,40=1/2;
 3/5=43,7=202,11=2,25=1,30=1,71=1,74=-5,124=41/1,2,3;
 4//1;
 5/5=2,38=5/2;
 6/7=2,8=2,9=2,10=2,28=1/1;
 7/30=1/1,2,3,16;
 1/18=20,19=15,26=3/3(2);
 2/9=110,15=1/2;
 99//99;
 2/9=110,15=1/2;
 3/5=43,7=202,11=2,25=1,30=1,71=1,74=-5,124=41/1,2,3;
 4/5=5,16=3,69=1/1;
 5/5=2,38=5/2;
 7/30=1/1,2,3,16;
 1/18=20,19=15,26=3/3(-5);
 2/9=110,15=1/2;
 6/7=2,8=2,9=2,10=2,19=2,28=1/1;
 99/9=1/99;
 Leave Link    1 at Thu May 16 18:25:44 2024, MaxMem= 13421772800 cpu:               0.4 elap:               0.0
 (Enter /public/software/apps/Gaussian/g16/l101.exe)
 ------------------
 $$$$Title####0????
 ------------------
 Symbolic Z-matrix:
 Charge =  0 Multiplicity = 2
 C                     3.95059  -2.2068   -2.47964 
 O                     4.82004  -1.48478  -1.63475 
 C                     4.35965  -1.53739  -0.2982 
 C                     3.35738  -0.43848  -0.038 
 C                     3.79942   0.88939   0.00477 
 C                     2.89923   1.93608   0.23831 
 C                     3.36411   3.25948   0.30538 
 C                     2.47565   4.30592   0.55609 
 C                     1.11955   4.04245   0.74677 
 C                     0.64076   2.73208   0.68039 
 C                     1.5192    1.65964   0.413 
 C                     1.0625    0.31995   0.32488 
 C                    -0.37945  -0.02566   0.45276 
 C                    -0.80697  -0.7179    1.60084 
 O                     0.1258   -1.0929    2.56514 
 C                    -2.16312  -1.03731   1.78093 
 C                    -2.6229   -1.74795   3.0304 
 O                    -2.47649  -0.91142   4.16184 
 C                    -3.61792  -0.09632   4.31679 
 C                    -3.09749  -0.66578   0.80605 
 C                    -2.68912  -0.00547  -0.35945 
 C                    -3.63472   0.3375   -1.33937 
 C                    -3.23274   0.97826  -2.51202 
 C                    -1.8867    1.27757  -2.72023 
 C                    -0.93403   0.94588  -1.75426 
 C                    -1.32012   0.31127  -0.55369 
 C                     1.98887  -0.72019   0.12294 
 O                     1.53959  -2.03822   0.08541 
 H                     4.31872  -2.11942  -3.52232 
 H                     3.94196  -3.28766  -2.21667 
 H                     2.91965  -1.79056  -2.45331 
 H                     5.23308  -1.37358   0.3683 
 H                     3.96983  -2.54256  -0.01499 
 H                     4.85355   1.10362  -0.13402 
 H                     4.4154    3.4839    0.1685 
 H                     2.84049   5.3236    0.60861 
 H                     0.43586   4.85692   0.94884 
 H                    -0.41607   2.5683    0.84421 
 H                    -1.98171  -2.64244   3.17916 
 H                    -3.65901  -2.14788   2.92151 
 H                    -3.79473   0.53345   3.41704 
 H                    -3.45043   0.5864    5.17481 
 H                    -4.51745  -0.70932   4.5457 
 H                    -4.14584  -0.90082   0.9529 
 H                    -4.68411   0.10564  -1.20036 
 H                    -3.96619   1.23808  -3.2644 
 H                    -1.57915   1.76734  -3.6352 
 H                     0.10113   1.18552  -1.95813 
 Cu                    0.73082  -2.75874   1.72206 
 
 ITRead=  0  0  0  0  0  0  0  0  0  0  0  0  0  0  0  0  0  0  0  0
 ITRead=  0  0  0  0  0  0  0  0  0  0  0  0  0  0  0  0  0  0  0  0
 ITRead=  0  0  0  0  0  0  0  0  0
 MicOpt= -1 -1 -1 -1 -1 -1 -1 -1 -1 -1 -1 -1 -1 -1 -1 -1 -1 -1 -1 -1
 MicOpt= -1 -1 -1 -1 -1 -1 -1 -1 -1 -1 -1 -1 -1 -1 -1 -1 -1 -1 -1 -1
 MicOpt= -1 -1 -1 -1 -1 -1 -1 -1 -1
 NAtoms=     49 NQM=       49 NQMF=       0 NMMI=      0 NMMIF=      0
                NMic=       0 NMicF=      0.
                    Isotopes and Nuclear Properties:
 (Nuclear quadrupole moments (NQMom) in fm**2, nuclear magnetic moments (NMagM)
  in nuclear magnetons)

  Atom         1           2           3           4           5           6           7           8           9          10
 IAtWgt=          12          16          12          12          12          12          12          12          12          12
 AtmWgt=  12.0000000  15.9949146  12.0000000  12.0000000  12.0000000  12.0000000  12.0000000  12.0000000  12.0000000  12.0000000
 NucSpn=           0           0           0           0           0           0           0           0           0           0
 AtZEff=  -0.0000000  -0.0000000  -0.0000000  -0.0000000  -0.0000000  -0.0000000  -0.0000000  -0.0000000  -0.0000000  -0.0000000
 NQMom=    0.0000000   0.0000000   0.0000000   0.0000000   0.0000000   0.0000000   0.0000000   0.0000000   0.0000000   0.0000000
 NMagM=    0.0000000   0.0000000   0.0000000   0.0000000   0.0000000   0.0000000   0.0000000   0.0000000   0.0000000   0.0000000
 AtZNuc=   6.0000000   8.0000000   6.0000000   6.0000000   6.0000000   6.0000000   6.0000000   6.0000000   6.0000000   6.0000000

  Atom        11          12          13          14          15          16          17          18          19          20
 IAtWgt=          12          12          12          12          16          12          12          16          12          12
 AtmWgt=  12.0000000  12.0000000  12.0000000  12.0000000  15.9949146  12.0000000  12.0000000  15.9949146  12.0000000  12.0000000
 NucSpn=           0           0           0           0           0           0           0           0           0           0
 AtZEff=  -0.0000000  -0.0000000  -0.0000000  -0.0000000  -0.0000000  -0.0000000  -0.0000000  -0.0000000  -0.0000000  -0.0000000
 NQMom=    0.0000000   0.0000000   0.0000000   0.0000000   0.0000000   0.0000000   0.0000000   0.0000000   0.0000000   0.0000000
 NMagM=    0.0000000   0.0000000   0.0000000   0.0000000   0.0000000   0.0000000   0.0000000   0.0000000   0.0000000   0.0000000
 AtZNuc=   6.0000000   6.0000000   6.0000000   6.0000000   8.0000000   6.0000000   6.0000000   8.0000000   6.0000000   6.0000000

  Atom        21          22          23          24          25          26          27          28          29          30
 IAtWgt=          12          12          12          12          12          12          12          16           1           1
 AtmWgt=  12.0000000  12.0000000  12.0000000  12.0000000  12.0000000  12.0000000  12.0000000  15.9949146   1.0078250   1.0078250
 NucSpn=           0           0           0           0           0           0           0           0           1           1
 AtZEff=  -0.0000000  -0.0000000  -0.0000000  -0.0000000  -0.0000000  -0.0000000  -0.0000000  -0.0000000  -0.0000000  -0.0000000
 NQMom=    0.0000000   0.0000000   0.0000000   0.0000000   0.0000000   0.0000000   0.0000000   0.0000000   0.0000000   0.0000000
 NMagM=    0.0000000   0.0000000   0.0000000   0.0000000   0.0000000   0.0000000   0.0000000   0.0000000   2.7928460   2.7928460
 AtZNuc=   6.0000000   6.0000000   6.0000000   6.0000000   6.0000000   6.0000000   6.0000000   8.0000000   1.0000000   1.0000000

  Atom        31          32          33          34          35          36          37          38          39          40
 IAtWgt=           1           1           1           1           1           1           1           1           1           1
 AtmWgt=   1.0078250   1.0078250   1.0078250   1.0078250   1.0078250   1.0078250   1.0078250   1.0078250   1.0078250   1.0078250
 NucSpn=           1           1           1           1           1           1           1           1           1           1
 AtZEff=  -0.0000000  -0.0000000  -0.0000000  -0.0000000  -0.0000000  -0.0000000  -0.0000000  -0.0000000  -0.0000000  -0.0000000
 NQMom=    0.0000000   0.0000000   0.0000000   0.0000000   0.0000000   0.0000000   0.0000000   0.0000000   0.0000000   0.0000000
 NMagM=    2.7928460   2.7928460   2.7928460   2.7928460   2.7928460   2.7928460   2.7928460   2.7928460   2.7928460   2.7928460
 AtZNuc=   1.0000000   1.0000000   1.0000000   1.0000000   1.0000000   1.0000000   1.0000000   1.0000000   1.0000000   1.0000000

  Atom        41          42          43          44          45          46          47          48          49
 IAtWgt=           1           1           1           1           1           1           1           1          63
 AtmWgt=   1.0078250   1.0078250   1.0078250   1.0078250   1.0078250   1.0078250   1.0078250   1.0078250  62.9295992
 NucSpn=           1           1           1           1           1           1           1           1           3
 AtZEff=  -0.0000000  -0.0000000  -0.0000000  -0.0000000  -0.0000000  -0.0000000  -0.0000000  -0.0000000  -0.0000000
 NQMom=    0.0000000   0.0000000   0.0000000   0.0000000   0.0000000   0.0000000   0.0000000   0.0000000 -22.0000000
 NMagM=    2.7928460   2.7928460   2.7928460   2.7928460   2.7928460   2.7928460   2.7928460   2.7928460   2.2233000
 AtZNuc=   1.0000000   1.0000000   1.0000000   1.0000000   1.0000000   1.0000000   1.0000000   1.0000000  29.0000000
 Leave Link  101 at Thu May 16 18:25:44 2024, MaxMem= 13421772800 cpu:               5.7 elap:               0.2
 (Enter /public/software/apps/Gaussian/g16/l103.exe)

 GradGradGradGradGradGradGradGradGradGradGradGradGradGradGradGradGradGrad
 Berny optimization.
 Initialization pass.
                           ----------------------------
                           !    Initial Parameters    !
                           ! (Angstroms and Degrees)  !
 --------------------------                            --------------------------
 ! Name  Definition              Value          Derivative Info.                !
 --------------------------------------------------------------------------------
 ! R1    R(1,2)                  1.4111         estimate D2E/DX2                !
 ! R2    R(1,29)                 1.1092         estimate D2E/DX2                !
 ! R3    R(1,30)                 1.1124         estimate D2E/DX2                !
 ! R4    R(1,31)                 1.1121         estimate D2E/DX2                !
 ! R5    R(2,3)                  1.4146         estimate D2E/DX2                !
 ! R6    R(3,4)                  1.5099         estimate D2E/DX2                !
 ! R7    R(3,32)                 1.1108         estimate D2E/DX2                !
 ! R8    R(3,33)                 1.1147         estimate D2E/DX2                !
 ! R9    R(4,5)                  1.4002         estimate D2E/DX2                !
 ! R10   R(4,27)                 1.4064         estimate D2E/DX2                !
 ! R11   R(5,6)                  1.4002         estimate D2E/DX2                !
 ! R12   R(5,34)                 1.0846         estimate D2E/DX2                !
 ! R13   R(6,7)                  1.4043         estimate D2E/DX2                !
 ! R14   R(6,11)                 1.4182         estimate D2E/DX2                !
 ! R15   R(7,8)                  1.3954         estimate D2E/DX2                !
 ! R16   R(7,35)                 1.0837         estimate D2E/DX2                !
 ! R17   R(8,9)                  1.3946         estimate D2E/DX2                !
 ! R18   R(8,36)                 1.0824         estimate D2E/DX2                !
 ! R19   R(9,10)                 1.3967         estimate D2E/DX2                !
 ! R20   R(9,37)                 1.0824         estimate D2E/DX2                !
 ! R21   R(10,11)                1.4118         estimate D2E/DX2                !
 ! R22   R(10,38)                1.0819         estimate D2E/DX2                !
 ! R23   R(11,12)                1.4181         estimate D2E/DX2                !
 ! R24   R(12,13)                1.4883         estimate D2E/DX2                !
 ! R25   R(12,27)                1.4074         estimate D2E/DX2                !
 ! R26   R(13,14)                1.4071         estimate D2E/DX2                !
 ! R27   R(13,26)                1.4182         estimate D2E/DX2                !
 ! R28   R(14,15)                1.393          estimate D2E/DX2                !
 ! R29   R(14,16)                1.4048         estimate D2E/DX2                !
 ! R30   R(15,49)                1.9626         estimate D2E/DX2                !
 ! R31   R(16,17)                1.5092         estimate D2E/DX2                !
 ! R32   R(16,20)                1.4005         estimate D2E/DX2                !
 ! R33   R(17,18)                1.4147         estimate D2E/DX2                !
 ! R34   R(17,39)                1.1106         estimate D2E/DX2                !
 ! R35   R(17,40)                1.1159         estimate D2E/DX2                !
 ! R36   R(18,19)                1.4111         estimate D2E/DX2                !
 ! R37   R(19,41)                1.1124         estimate D2E/DX2                !
 ! R38   R(19,42)                1.1092         estimate D2E/DX2                !
 ! R39   R(19,43)                1.1123         estimate D2E/DX2                !
 ! R40   R(20,21)                1.4004         estimate D2E/DX2                !
 ! R41   R(20,44)                1.0844         estimate D2E/DX2                !
 ! R42   R(21,22)                1.4043         estimate D2E/DX2                !
 ! R43   R(21,26)                1.4185         estimate D2E/DX2                !
 ! R44   R(22,23)                1.3954         estimate D2E/DX2                !
 ! R45   R(22,45)                1.0837         estimate D2E/DX2                !
 ! R46   R(23,24)                1.3945         estimate D2E/DX2                !
 ! R47   R(23,46)                1.0824         estimate D2E/DX2                !
 ! R48   R(24,25)                1.3967         estimate D2E/DX2                !
 ! R49   R(24,47)                1.0824         estimate D2E/DX2                !
 ! R50   R(25,26)                1.4118         estimate D2E/DX2                !
 ! R51   R(25,48)                1.0819         estimate D2E/DX2                !
 ! R52   R(27,28)                1.393          estimate D2E/DX2                !
 ! R53   R(28,49)                1.9626         estimate D2E/DX2                !
 ! A1    A(2,1,29)             108.545          estimate D2E/DX2                !
 ! A2    A(2,1,30)             111.1252         estimate D2E/DX2                !
 ! A3    A(2,1,31)             111.4389         estimate D2E/DX2                !
 ! A4    A(29,1,30)            107.5374         estimate D2E/DX2                !
 ! A5    A(29,1,31)            107.4838         estimate D2E/DX2                !
 ! A6    A(30,1,31)            110.54           estimate D2E/DX2                !
 ! A7    A(1,2,3)              110.2524         estimate D2E/DX2                !
 ! A8    A(2,3,4)              110.5967         estimate D2E/DX2                !
 ! A9    A(2,3,32)             107.7888         estimate D2E/DX2                !
 ! A10   A(2,3,33)             112.7933         estimate D2E/DX2                !
 ! A11   A(4,3,32)             108.1318         estimate D2E/DX2                !
 ! A12   A(4,3,33)             112.3569         estimate D2E/DX2                !
 ! A13   A(32,3,33)            104.8035         estimate D2E/DX2                !
 ! A14   A(3,4,5)              119.0727         estimate D2E/DX2                !
 ! A15   A(3,4,27)             121.3208         estimate D2E/DX2                !
 ! A16   A(5,4,27)             119.5808         estimate D2E/DX2                !
 ! A17   A(4,5,6)              120.7351         estimate D2E/DX2                !
 ! A18   A(4,5,34)             119.357          estimate D2E/DX2                !
 ! A19   A(6,5,34)             119.9043         estimate D2E/DX2                !
 ! A20   A(5,6,7)              119.9751         estimate D2E/DX2                !
 ! A21   A(5,6,11)             120.0288         estimate D2E/DX2                !
 ! A22   A(7,6,11)             119.9955         estimate D2E/DX2                !
 ! A23   A(6,7,8)              120.2994         estimate D2E/DX2                !
 ! A24   A(6,7,35)             120.6835         estimate D2E/DX2                !
 ! A25   A(8,7,35)             119.0166         estimate D2E/DX2                !
 ! A26   A(7,8,9)              120.1339         estimate D2E/DX2                !
 ! A27   A(7,8,36)             119.9459         estimate D2E/DX2                !
 ! A28   A(9,8,36)             119.9193         estimate D2E/DX2                !
 ! A29   A(8,9,10)             120.2721         estimate D2E/DX2                !
 ! A30   A(8,9,37)             119.8402         estimate D2E/DX2                !
 ! A31   A(10,9,37)            119.8876         estimate D2E/DX2                !
 ! A32   A(9,10,11)            120.5552         estimate D2E/DX2                !
 ! A33   A(9,10,38)            118.0138         estimate D2E/DX2                !
 ! A34   A(11,10,38)           121.4303         estimate D2E/DX2                !
 ! A35   A(6,11,10)            118.7314         estimate D2E/DX2                !
 ! A36   A(6,11,12)            119.3307         estimate D2E/DX2                !
 ! A37   A(10,11,12)           121.9362         estimate D2E/DX2                !
 ! A38   A(11,12,13)           121.7392         estimate D2E/DX2                !
 ! A39   A(11,12,27)           119.6764         estimate D2E/DX2                !
 ! A40   A(13,12,27)           118.582          estimate D2E/DX2                !
 ! A41   A(12,13,14)           118.6008         estimate D2E/DX2                !
 ! A42   A(12,13,26)           121.7678         estimate D2E/DX2                !
 ! A43   A(14,13,26)           119.6278         estimate D2E/DX2                !
 ! A44   A(13,14,15)           119.5892         estimate D2E/DX2                !
 ! A45   A(13,14,16)           120.6459         estimate D2E/DX2                !
 ! A46   A(15,14,16)           119.7646         estimate D2E/DX2                !
 ! A47   A(14,15,49)            97.9055         estimate D2E/DX2                !
 ! A48   A(14,16,17)           120.4838         estimate D2E/DX2                !
 ! A49   A(14,16,20)           119.6357         estimate D2E/DX2                !
 ! A50   A(17,16,20)           119.865          estimate D2E/DX2                !
 ! A51   A(16,17,18)           110.6204         estimate D2E/DX2                !
 ! A52   A(16,17,39)           108.3166         estimate D2E/DX2                !
 ! A53   A(16,17,40)           111.7671         estimate D2E/DX2                !
 ! A54   A(18,17,39)           108.0217         estimate D2E/DX2                !
 ! A55   A(18,17,40)           112.7088         estimate D2E/DX2                !
 ! A56   A(39,17,40)           105.0982         estimate D2E/DX2                !
 ! A57   A(17,18,19)           110.2224         estimate D2E/DX2                !
 ! A58   A(18,19,41)           111.516          estimate D2E/DX2                !
 ! A59   A(18,19,42)           108.562          estimate D2E/DX2                !
 ! A60   A(18,19,43)           111.0022         estimate D2E/DX2                !
 ! A61   A(41,19,42)           107.5303         estimate D2E/DX2                !
 ! A62   A(41,19,43)           110.4815         estimate D2E/DX2                !
 ! A63   A(42,19,43)           107.5849         estimate D2E/DX2                !
 ! A64   A(16,20,21)           120.6537         estimate D2E/DX2                !
 ! A65   A(16,20,44)           119.553          estimate D2E/DX2                !
 ! A66   A(21,20,44)           119.7908         estimate D2E/DX2                !
 ! A67   A(20,21,22)           119.9703         estimate D2E/DX2                !
 ! A68   A(20,21,26)           120.0443         estimate D2E/DX2                !
 ! A69   A(22,21,26)           119.9847         estimate D2E/DX2                !
 ! A70   A(21,22,23)           120.3025         estimate D2E/DX2                !
 ! A71   A(21,22,45)           120.6837         estimate D2E/DX2                !
 ! A72   A(23,22,45)           119.0132         estimate D2E/DX2                !
 ! A73   A(22,23,24)           120.137          estimate D2E/DX2                !
 ! A74   A(22,23,46)           119.9442         estimate D2E/DX2                !
 ! A75   A(24,23,46)           119.9177         estimate D2E/DX2                !
 ! A76   A(23,24,25)           120.2743         estimate D2E/DX2                !
 ! A77   A(23,24,47)           119.8393         estimate D2E/DX2                !
 ! A78   A(25,24,47)           119.8863         estimate D2E/DX2                !
 ! A79   A(24,25,26)           120.5547         estimate D2E/DX2                !
 ! A80   A(24,25,48)           118.0146         estimate D2E/DX2                !
 ! A81   A(26,25,48)           121.43           estimate D2E/DX2                !
 ! A82   A(13,26,21)           119.334          estimate D2E/DX2                !
 ! A83   A(13,26,25)           121.9304         estimate D2E/DX2                !
 ! A84   A(21,26,25)           118.7336         estimate D2E/DX2                !
 ! A85   A(4,27,12)            120.5867         estimate D2E/DX2                !
 ! A86   A(4,27,28)            120.0174         estimate D2E/DX2                !
 ! A87   A(12,27,28)           119.3958         estimate D2E/DX2                !
 ! A88   A(27,28,49)           117.2454         estimate D2E/DX2                !
 ! A89   A(15,49,28)           100.0            estimate D2E/DX2                !
 ! D1    D(29,1,2,3)           178.1722         estimate D2E/DX2                !
 ! D2    D(30,1,2,3)           -63.771          estimate D2E/DX2                !
 ! D3    D(31,1,2,3)            59.9963         estimate D2E/DX2                !
 ! D4    D(1,2,3,4)            -86.3968         estimate D2E/DX2                !
 ! D5    D(1,2,3,32)           155.5866         estimate D2E/DX2                !
 ! D6    D(1,2,3,33)            40.3795         estimate D2E/DX2                !
 ! D7    D(2,3,4,5)            -69.9786         estimate D2E/DX2                !
 ! D8    D(2,3,4,27)           108.171          estimate D2E/DX2                !
 ! D9    D(32,3,4,5)            47.8281         estimate D2E/DX2                !
 ! D10   D(32,3,4,27)         -134.0223         estimate D2E/DX2                !
 ! D11   D(33,3,4,5)           163.0034         estimate D2E/DX2                !
 ! D12   D(33,3,4,27)          -18.8469         estimate D2E/DX2                !
 ! D13   D(3,4,5,6)            179.7498         estimate D2E/DX2                !
 ! D14   D(3,4,5,34)            -0.9427         estimate D2E/DX2                !
 ! D15   D(27,4,5,6)             1.5674         estimate D2E/DX2                !
 ! D16   D(27,4,5,34)         -179.1251         estimate D2E/DX2                !
 ! D17   D(3,4,27,12)         -178.0801         estimate D2E/DX2                !
 ! D18   D(3,4,27,28)            2.0243         estimate D2E/DX2                !
 ! D19   D(5,4,27,12)            0.0603         estimate D2E/DX2                !
 ! D20   D(5,4,27,28)         -179.8353         estimate D2E/DX2                !
 ! D21   D(4,5,6,7)            178.6863         estimate D2E/DX2                !
 ! D22   D(4,5,6,11)            -1.0355         estimate D2E/DX2                !
 ! D23   D(34,5,6,7)            -0.6173         estimate D2E/DX2                !
 ! D24   D(34,5,6,11)          179.6609         estimate D2E/DX2                !
 ! D25   D(5,6,7,8)           -179.1166         estimate D2E/DX2                !
 ! D26   D(5,6,7,35)             0.5945         estimate D2E/DX2                !
 ! D27   D(11,6,7,8)             0.6053         estimate D2E/DX2                !
 ! D28   D(11,6,7,35)         -179.6836         estimate D2E/DX2                !
 ! D29   D(5,6,11,10)          178.4266         estimate D2E/DX2                !
 ! D30   D(5,6,11,12)           -1.1074         estimate D2E/DX2                !
 ! D31   D(7,6,11,10)           -1.2951         estimate D2E/DX2                !
 ! D32   D(7,6,11,12)          179.1708         estimate D2E/DX2                !
 ! D33   D(6,7,8,9)              0.242          estimate D2E/DX2                !
 ! D34   D(6,7,8,36)           179.8736         estimate D2E/DX2                !
 ! D35   D(35,7,8,9)          -179.4739         estimate D2E/DX2                !
 ! D36   D(35,7,8,36)            0.1577         estimate D2E/DX2                !
 ! D37   D(7,8,9,10)            -0.3784         estimate D2E/DX2                !
 ! D38   D(7,8,9,37)           179.5089         estimate D2E/DX2                !
 ! D39   D(36,8,9,10)          179.99           estimate D2E/DX2                !
 ! D40   D(36,8,9,37)           -0.1227         estimate D2E/DX2                !
 ! D41   D(8,9,10,11)           -0.339          estimate D2E/DX2                !
 ! D42   D(8,9,10,38)          179.3728         estimate D2E/DX2                !
 ! D43   D(37,9,10,11)         179.7737         estimate D2E/DX2                !
 ! D44   D(37,9,10,38)          -0.5144         estimate D2E/DX2                !
 ! D45   D(9,10,11,6)            1.1667         estimate D2E/DX2                !
 ! D46   D(9,10,11,12)        -179.312          estimate D2E/DX2                !
 ! D47   D(38,10,11,6)        -178.5351         estimate D2E/DX2                !
 ! D48   D(38,10,11,12)          0.9862         estimate D2E/DX2                !
 ! D49   D(6,11,12,13)        -177.8647         estimate D2E/DX2                !
 ! D50   D(6,11,12,27)           2.6992         estimate D2E/DX2                !
 ! D51   D(10,11,12,13)          2.6168         estimate D2E/DX2                !
 ! D52   D(10,11,12,27)       -176.8193         estimate D2E/DX2                !
 ! D53   D(11,12,13,14)       -110.3829         estimate D2E/DX2                !
 ! D54   D(11,12,13,26)         70.3041         estimate D2E/DX2                !
 ! D55   D(27,12,13,14)         69.0592         estimate D2E/DX2                !
 ! D56   D(27,12,13,26)       -110.2538         estimate D2E/DX2                !
 ! D57   D(11,12,27,4)          -2.1935         estimate D2E/DX2                !
 ! D58   D(11,12,27,28)        177.7027         estimate D2E/DX2                !
 ! D59   D(13,12,27,4)         178.3526         estimate D2E/DX2                !
 ! D60   D(13,12,27,28)         -1.7512         estimate D2E/DX2                !
 ! D61   D(12,13,14,15)         -1.7432         estimate D2E/DX2                !
 ! D62   D(12,13,14,16)        178.4553         estimate D2E/DX2                !
 ! D63   D(26,13,14,15)        177.5848         estimate D2E/DX2                !
 ! D64   D(26,13,14,16)         -2.2166         estimate D2E/DX2                !
 ! D65   D(12,13,26,21)       -178.0127         estimate D2E/DX2                !
 ! D66   D(12,13,26,25)          2.5041         estimate D2E/DX2                !
 ! D67   D(14,13,26,21)          2.6812         estimate D2E/DX2                !
 ! D68   D(14,13,26,25)       -176.802          estimate D2E/DX2                !
 ! D69   D(13,14,15,49)        -83.7013         estimate D2E/DX2                !
 ! D70   D(16,14,15,49)         96.1019         estimate D2E/DX2                !
 ! D71   D(13,14,16,17)       -178.3958         estimate D2E/DX2                !
 ! D72   D(13,14,16,20)          0.1685         estimate D2E/DX2                !
 ! D73   D(15,14,16,17)          1.8031         estimate D2E/DX2                !
 ! D74   D(15,14,16,20)       -179.6326         estimate D2E/DX2                !
 ! D75   D(14,15,49,28)         64.233          estimate D2E/DX2                !
 ! D76   D(14,16,17,18)         67.36           estimate D2E/DX2                !
 ! D77   D(14,16,17,39)        -50.8537         estimate D2E/DX2                !
 ! D78   D(14,16,17,40)       -166.1708         estimate D2E/DX2                !
 ! D79   D(20,16,17,18)       -111.2011         estimate D2E/DX2                !
 ! D80   D(20,16,17,39)        130.5853         estimate D2E/DX2                !
 ! D81   D(20,16,17,40)         15.2682         estimate D2E/DX2                !
 ! D82   D(14,16,20,21)          1.4128         estimate D2E/DX2                !
 ! D83   D(14,16,20,44)       -179.1536         estimate D2E/DX2                !
 ! D84   D(17,16,20,21)        179.9861         estimate D2E/DX2                !
 ! D85   D(17,16,20,44)         -0.5803         estimate D2E/DX2                !
 ! D86   D(16,17,18,19)         86.3194         estimate D2E/DX2                !
 ! D87   D(39,17,18,19)       -155.2873         estimate D2E/DX2                !
 ! D88   D(40,17,18,19)        -39.624          estimate D2E/DX2                !
 ! D89   D(17,18,19,41)        -58.5596         estimate D2E/DX2                !
 ! D90   D(17,18,19,42)       -176.8488         estimate D2E/DX2                !
 ! D91   D(17,18,19,43)         65.098          estimate D2E/DX2                !
 ! D92   D(16,20,21,22)        178.7725         estimate D2E/DX2                !
 ! D93   D(16,20,21,26)         -0.9195         estimate D2E/DX2                !
 ! D94   D(44,20,21,22)         -0.6598         estimate D2E/DX2                !
 ! D95   D(44,20,21,26)        179.6482         estimate D2E/DX2                !
 ! D96   D(20,21,22,23)       -179.0713         estimate D2E/DX2                !
 ! D97   D(20,21,22,45)          0.631          estimate D2E/DX2                !
 ! D98   D(26,21,22,23)          0.6209         estimate D2E/DX2                !
 ! D99   D(26,21,22,45)       -179.6768         estimate D2E/DX2                !
 ! D100  D(20,21,26,13)         -1.1359         estimate D2E/DX2                !
 ! D101  D(20,21,26,25)        178.364          estimate D2E/DX2                !
 ! D102  D(22,21,26,13)        179.1722         estimate D2E/DX2                !
 ! D103  D(22,21,26,25)         -1.328          estimate D2E/DX2                !
 ! D104  D(21,22,23,24)          0.2489         estimate D2E/DX2                !
 ! D105  D(21,22,23,46)        179.8697         estimate D2E/DX2                !
 ! D106  D(45,22,23,24)       -179.4584         estimate D2E/DX2                !
 ! D107  D(45,22,23,46)          0.1624         estimate D2E/DX2                !
 ! D108  D(22,23,24,25)         -0.3902         estimate D2E/DX2                !
 ! D109  D(22,23,24,47)        179.4959         estimate D2E/DX2                !
 ! D110  D(46,23,24,25)        179.9889         estimate D2E/DX2                !
 ! D111  D(46,23,24,47)         -0.125          estimate D2E/DX2                !
 ! D112  D(23,24,25,26)         -0.3452         estimate D2E/DX2                !
 ! D113  D(23,24,25,48)        179.3639         estimate D2E/DX2                !
 ! D114  D(47,24,25,26)        179.7689         estimate D2E/DX2                !
 ! D115  D(47,24,25,48)         -0.5221         estimate D2E/DX2                !
 ! D116  D(24,25,26,13)       -179.3187         estimate D2E/DX2                !
 ! D117  D(24,25,26,21)          1.195          estimate D2E/DX2                !
 ! D118  D(48,25,26,13)          0.9823         estimate D2E/DX2                !
 ! D119  D(48,25,26,21)       -178.504          estimate D2E/DX2                !
 ! D120  D(4,27,28,49)         116.2858         estimate D2E/DX2                !
 ! D121  D(12,27,28,49)        -63.611          estimate D2E/DX2                !
 ! D122  D(27,28,49,15)         24.8087         estimate D2E/DX2                !
 --------------------------------------------------------------------------------
 Trust Radius=3.00D-01 FncErr=1.00D-07 GrdErr=1.00D-06 EigMax=2.50D+02 EigMin=1.00D-04
 Number of steps in this run=    274 maximum allowed number of steps=    294.
 GradGradGradGradGradGradGradGradGradGradGradGradGradGradGradGradGradGrad

 Leave Link  103 at Thu May 16 18:25:44 2024, MaxMem= 13421772800 cpu:               0.6 elap:               0.0
 (Enter /public/software/apps/Gaussian/g16/l202.exe)
                          Input orientation:                          
 ---------------------------------------------------------------------
 Center     Atomic      Atomic             Coordinates (Angstroms)
 Number     Number       Type             X           Y           Z
 ---------------------------------------------------------------------
      1          6           0        3.950593   -2.206798   -2.479639
      2          8           0        4.820042   -1.484780   -1.634748
      3          6           0        4.359646   -1.537394   -0.298201
      4          6           0        3.357379   -0.438481   -0.037998
      5          6           0        3.799419    0.889394    0.004766
      6          6           0        2.899229    1.936075    0.238311
      7          6           0        3.364108    3.259477    0.305381
      8          6           0        2.475647    4.305916    0.556088
      9          6           0        1.119551    4.042447    0.746774
     10          6           0        0.640757    2.732075    0.680388
     11          6           0        1.519204    1.659638    0.412996
     12          6           0        1.062500    0.319952    0.324881
     13          6           0       -0.379450   -0.025660    0.452762
     14          6           0       -0.806968   -0.717904    1.600838
     15          8           0        0.125800   -1.092897    2.565142
     16          6           0       -2.163119   -1.037310    1.780932
     17          6           0       -2.622903   -1.747952    3.030399
     18          8           0       -2.476489   -0.911418    4.161836
     19          6           0       -3.617918   -0.096324    4.316791
     20          6           0       -3.097494   -0.665782    0.806045
     21          6           0       -2.689124   -0.005471   -0.359448
     22          6           0       -3.634721    0.337503   -1.339372
     23          6           0       -3.232737    0.978256   -2.512015
     24          6           0       -1.886696    1.277573   -2.720225
     25          6           0       -0.934029    0.945879   -1.754263
     26          6           0       -1.320118    0.311269   -0.553688
     27          6           0        1.988871   -0.720189    0.122942
     28          8           0        1.539590   -2.038216    0.085407
     29          1           0        4.318722   -2.119424   -3.522323
     30          1           0        3.941956   -3.287661   -2.216670
     31          1           0        2.919648   -1.790563   -2.453308
     32          1           0        5.233076   -1.373584    0.368303
     33          1           0        3.969831   -2.542563   -0.014992
     34          1           0        4.853553    1.103624   -0.134018
     35          1           0        4.415395    3.483901    0.168496
     36          1           0        2.840491    5.323600    0.608613
     37          1           0        0.435856    4.856923    0.948843
     38          1           0       -0.416068    2.568296    0.844209
     39          1           0       -1.981708   -2.642438    3.179163
     40          1           0       -3.659007   -2.147881    2.921508
     41          1           0       -3.794725    0.533445    3.417036
     42          1           0       -3.450428    0.586402    5.174811
     43          1           0       -4.517448   -0.709321    4.545698
     44          1           0       -4.145842   -0.900816    0.952902
     45          1           0       -4.684112    0.105639   -1.200358
     46          1           0       -3.966194    1.238075   -3.264403
     47          1           0       -1.579147    1.767342   -3.635202
     48          1           0        0.101127    1.185518   -1.958128
     49         29           0        0.730823   -2.758741    1.722057
 ---------------------------------------------------------------------
                    Distance matrix (angstroms):
                    1          2          3          4          5
     1  C    0.000000
     2  O    1.411061   0.000000
     3  C    2.318210   1.414599   0.000000
     4  C    3.072533   2.404940   1.509919   0.000000
     5  C    3.972597   3.060454   2.508973   1.400171   0.000000
     6  C    5.065177   4.347427   3.806002   2.434084   1.400152
     7  C    6.162829   5.328397   4.936130   3.713872   2.428407
     8  C    7.335295   6.620280   6.198672   4.862067   3.705260
     9  C    7.581398   7.065092   6.536422   5.069759   4.204047
    10  C    6.732997   6.372452   5.745967   4.236572   3.718748
    11  C    5.406322   4.997615   4.335311   2.825666   2.441169
    12  C    4.752986   4.606118   3.835249   2.444048   2.813799
    13  C    5.666181   5.789771   5.030737   3.791458   4.301275
    14  C    6.442165   6.536081   5.565233   4.483932   5.133191
    15  O    6.428035   6.310987   5.130474   4.200917   4.896987
    16  C    7.543053   7.786632   6.864353   5.843201   6.512973
    17  C    8.589640   8.788076   7.738211   6.847886   7.573392
    18  O    9.332448   9.336407   8.186362   7.203908   7.740231
    19  C   10.388836  10.418627   9.328256   8.230190   8.636092
    20  C    7.927546   8.325599   7.588676   6.513790   7.115338
    21  C    7.309370   7.759015   7.213577   6.070505   6.560078
    22  C    8.081501   8.653957   8.277027   7.154382   7.574809
    23  C    7.857853   8.466605   8.299021   7.180357   7.469491
    24  C    6.802401   7.334111   7.266844   6.135104   6.317291
    25  C    5.858761   6.247537   6.025758   4.824749   5.050040
    26  C    6.150638   6.488147   5.978507   4.765190   5.182254
    27  C    3.582148   3.419006   2.542786   1.406441   2.425450
    28  O    3.524318   3.745209   2.889757   2.424611   3.699220
    29  H    1.109208   2.053542   3.276491   3.986260   4.665085
    30  H    1.112426   2.088073   2.630289   3.634029   4.733168
    31  H    1.112112   2.091660   2.604261   2.802402   3.741429
    32  H    3.232612   2.048213   1.110829   2.134886   2.703442
    33  H    2.487487   2.113143   1.114687   2.191526   3.436242
    34  H    4.156461   2.992181   2.691817   2.150778   1.084599
    35  H    6.293863   5.301247   5.043245   4.067815   2.671648
    36  H    8.214409   7.436755   7.085435   5.821242   4.576719
    37  H    8.602559   8.131004   7.605165   6.127843   5.286409
    38  H    7.274422   7.070325   6.400721   4.904885   4.614510
    39  H    8.209995   8.412949   7.316143   6.611611   7.481448
    40  H    9.331767   9.648494   8.662449   7.804511   8.565077
    41  H   10.112846  10.188619   9.197017   8.002155   8.333145
    42  H   11.007619  10.911488   9.770447   8.635392   8.909627
    43  H   11.104302  11.224436  10.146520   9.115729   9.609695
    44  H    8.890455   9.350081   8.620546   7.582477   8.199450
    45  H    9.030064   9.646091   9.235963   8.143263   8.604469
    46  H    8.669401   9.341716   9.263973   8.176506   8.432899
    47  H    6.907035   7.451693   7.571401   6.494214   6.553559
    48  H    5.157341   5.431687   5.320206   4.114298   4.197381
    49  Cu   5.322200   5.441767   4.329144   3.921759   5.066977
                    6          7          8          9         10
     6  C    0.000000
     7  C    1.404281   0.000000
     8  C    2.428281   1.395440   0.000000
     9  C    2.804031   2.417831   1.394551   0.000000
    10  C    2.435107   2.799183   2.420588   1.396684   0.000000
    11  C    1.418239   2.444327   2.817454   2.439039   1.411839
    12  C    2.448044   3.733442   4.235369   3.746761   2.474387
    13  C    3.826765   4.982778   5.188912   4.345451   2.949193
    14  C    4.757729   5.907253   6.091456   5.205943   3.852985
    15  O    4.720246   5.876761   6.221355   5.537667   4.295101
    16  C    6.070261   7.154709   7.181118   6.135905   4.825058
    17  C    7.201510   8.267065   8.292572   7.262894   6.020355
    18  O    7.238826   8.147465   8.046468   7.009631   5.925601
    19  C    7.952223   8.723617   8.405602   7.233122   6.273721
    20  C    6.561453   7.576980   7.472627   6.320949   5.053290
    21  C    5.946142   6.909667   6.789781   5.667043   4.434357
    22  C    6.909198   7.760590   7.528457   6.378222   5.300294
    23  C    6.788425   7.527287   7.285069   6.241104   5.317074
    24  C    5.664948   6.375984   6.239802   5.357437   4.479706
    25  C    4.432235   5.298004   5.315398   4.478963   3.405580
    26  C    4.590223   5.601063   5.621089   4.643800   3.350862
    27  C    2.810302   4.214535   5.068165   4.881351   3.747837
    28  O    4.203211   5.607388   6.430066   6.130930   4.890560
    29  H    5.710026   6.670471   7.830412   8.150370   7.397787
    30  H    5.865290   7.039863   8.215879   8.395145   7.451717
    31  H    4.597071   5.771552   6.813271   6.892378   5.955472
    32  H    4.051862   4.996224   6.316280   6.811587   6.167919
    33  H    4.611784   5.842363   7.032808   7.215729   6.275993
    34  H    2.156614   2.656919   4.047883   4.832727   4.589418
    35  H    2.167810   1.083655   2.142092   3.392487   3.882675
    36  H    3.408211   2.150983   1.082382   2.149901   3.399998
    37  H    3.886440   3.397137   2.149096   1.082424   2.151518
    38  H    3.428995   3.880438   3.385905   2.130901   1.081915
    39  H    7.309921   8.465753   8.661880   7.760284   6.481249
    40  H    8.178551   9.241633   9.213072   8.116911   6.879285
    41  H    7.541928   8.268164   7.857107   6.602538   5.656564
    42  H    8.155292   8.791734   8.383660   7.241303   6.445273
    43  H    8.975455   9.790330   9.485408   8.293786   7.306908
    44  H    7.628343   8.609685   8.432772   7.225144   6.015288
    45  H    7.932675   8.774269   8.484667   7.278206   6.228130
    46  H    7.738879   8.400164   8.093523   7.058247   6.246392
    47  H    5.923548   6.495416   6.360238   5.626792   4.948030
    48  H    3.635527   4.480159   4.657951   4.063954   3.105609
    49  Cu   5.380036   6.720127   7.369754   6.881747   5.589476
                   11         12         13         14         15
    11  C    0.000000
    12  C    1.418133   0.000000
    13  C    2.539035   1.488295   0.000000
    14  C    3.531961   2.490004   1.407143   0.000000
    15  O    3.761616   2.809327   2.420004   1.393039   0.000000
    16  C    4.764901   3.790364   2.443143   1.404849   2.420171
    17  C    5.968209   5.017793   3.826694   2.530269   2.863726
    18  O    6.052247   5.363109   4.351939   3.063243   3.058476
    19  C    6.686781   6.165626   5.042161   3.957803   4.251689
    20  C    5.184204   4.302179   2.814663   2.425061   3.696819
    21  C    4.591218   3.827387   2.448405   2.809412   4.202323
    22  C    5.601944   4.983365   3.733687   4.213657   5.606496
    23  C    5.621469   5.189451   4.235445   5.067235   6.430161
    24  C    4.643620   4.345971   3.746739   4.880505   6.132240
    25  C    3.350346   2.949704   2.474349   3.747135   4.892556
    26  C    3.288514   2.539454   1.418210   2.442233   3.713416
    27  C    2.443009   1.407422   2.489999   3.162420   3.094234
    28  O    3.712392   2.417834   2.805004   3.089675   3.006911
    29  H    6.132320   5.599510   6.500613   7.381310   7.462679
    30  H    6.104149   5.269309   6.036644   6.612813   6.499674
    31  H    4.699024   3.952418   4.737528   5.610202   5.785945
    32  H    4.795339   4.501517   5.772736   6.199290   5.566790
    33  H    4.883364   4.094152   5.046765   5.362658   4.851309
    34  H    3.424363   3.898309   5.385528   6.194287   5.870419
    35  H    3.431565   4.612693   5.948812   6.854184   6.715029
    36  H    3.899831   5.317730   6.245550   7.126587   7.236642
    37  H    3.418100   4.622350   4.974981   5.748774   6.173242
    38  H    2.181028   2.740605   2.623581   3.394761   4.081613
    39  H    6.198058   5.117605   4.104634   2.752264   2.686948
    40  H    6.899544   5.926660   4.621041   3.452989   3.945219
    41  H    6.207287   5.761913   4.556712   3.713643   4.329114
    42  H    6.965914   6.630184   5.665975   4.632751   4.734958
    43  H    7.689757   7.071812   5.860251   4.737081   5.062557
    44  H    6.240206   5.386233   3.898942   3.406077   4.569807
    45  H    6.595374   5.949440   4.613042   4.853573   6.225009
    46  H    6.617444   6.246093   5.317807   6.121857   7.494094
    47  H    5.098950   4.975489   4.622292   5.847121   7.037903
    48  H    2.803206   2.624037   2.740492   4.136894   5.064756
    49  Cu   4.675175   3.397125   3.211471   2.558224   1.962621
                   16         17         18         19         20
    16  C    0.000000
    17  C    1.509166   0.000000
    18  O    2.404736   1.414700   0.000000
    19  C    3.071234   2.317916   1.411116   0.000000
    20  C    1.400534   2.518746   3.421596   3.594504   0.000000
    21  C    2.433639   3.812045   4.616055   4.768451   1.400411
    22  C    3.713761   4.946493   5.758871   5.672801   2.428581
    23  C    4.861685   6.206646   6.977325   6.923560   3.705492
    24  C    5.069074   6.539532   7.245847   7.375928   4.204431
    25  C    4.235718   5.744738   6.389754   6.719162   3.719302
    26  C    2.824848   4.333973   5.006828   5.400702   2.441837
    27  C    4.482022   5.547798   6.024008   7.029485   5.132319
    28  O    4.193647   5.107209   5.832310   6.948053   4.889319
    29  H    8.444510   9.553131  10.328624  11.337323   8.709082
    30  H    7.636546   8.543993   9.355656  10.489158   8.097216
    31  H    6.658130   7.796969   8.582035   9.562659   6.935021
    32  H    7.537394   8.303211   8.604759   9.775584   8.372037
    33  H    6.565379   7.305474   7.852488   9.073167   7.358226
    34  H    7.581841   8.604790   8.731797   9.644449   8.199614
    35  H    8.143595   9.224989   9.097453   9.724221   8.606384
    36  H    8.177507   9.258540   8.931468   9.210712   8.436311
    37  H    6.495308   7.570552   7.216567   7.232621   6.557837
    38  H    4.114612   5.317851   5.230716   5.423179   4.201281
    39  H    2.136445   1.110571   2.051069   3.233277   3.283875
    40  H    2.184482   1.115935   2.113197   2.481409   2.643312
    41  H    2.793966   2.593728   2.092869   1.112398   2.956611
    42  H    3.976433   3.276051   2.053811   1.109219   4.558360
    43  H    3.646145   2.638974   2.086554   1.112348   4.000396
    44  H    2.153011   2.711637   3.617196   3.498808   1.084362
    45  H    4.068148   5.058032   5.887370   5.622854   2.671722
    46  H    5.820985   7.095444   7.873282   7.705610   4.576883
    47  H    6.127120   7.607691   8.293056   8.418078   5.286790
    48  H    4.903911   6.396170   6.963850   7.406013   4.615099
    49  Cu   3.367743   3.739108   4.433055   5.721246   4.458202
                   21         22         23         24         25
    21  C    0.000000
    22  C    1.404292   0.000000
    23  C    2.428328   1.395438   0.000000
    24  C    2.804168   2.417866   1.394550   0.000000
    25  C    2.435351   2.799284   2.420598   1.396667   0.000000
    26  C    1.418531   2.444458   2.817451   2.438983   1.411798
    27  C    4.756801   5.906087   6.090394   5.205254   3.852665
    28  O    4.712958   5.869202   6.214564   5.532220   4.290454
    29  H    7.973862   8.605755   8.224407   7.119702   6.333523
    30  H    7.628451   8.444969   8.352335   7.420789   6.473941
    31  H    6.247330   6.980635   6.746973   5.708384   4.777824
    32  H    8.072336   9.191398   9.246479   8.201146   6.922310
    33  H    7.134225   8.238809   8.396921   7.497375   6.264354
    34  H    7.627115   8.607591   8.429631   7.221474   6.012170
    35  H    7.932757   8.773702   8.482766   7.275228   6.225343
    36  H    7.740335   8.401439   8.093481   7.056755   6.244568
    37  H    5.926213   6.498514   6.362403   5.627438   4.947690
    38  H    3.638661   4.483770   4.661126   4.066190   3.106860
    39  H    4.469430   5.659475   6.860321   7.083664   6.189696
    40  H    4.036740   4.932831   6.283121   6.834030   6.233754
    41  H    3.971727   4.763130   5.972213   6.469952   5.924189
    42  H    5.617644   6.521541   7.699885   8.078030   7.380620
    43  H    5.281915   6.042276   7.369512   7.978862   7.434385
    44  H    2.155443   2.655033   4.046025   4.831250   4.588547
    45  H    2.167822   1.083655   2.142054   3.392486   3.882774
    46  H    3.408237   2.150965   1.082383   2.149884   3.399989
    47  H    3.886577   3.397155   2.149085   1.082425   2.151490
    48  H    3.429247   3.880535   3.385912   2.130893   1.081913
    49  Cu   4.858930   6.165797   6.899443   6.548061   5.346096
                   26         27         28         29         30
    26  C    0.000000
    27  C    3.531450   0.000000
    28  O    3.755856   1.393003   0.000000
    29  H    6.820380   4.546869   4.554765   0.000000
    30  H    6.588416   3.985002   3.554157   1.792055   0.000000
    31  H    5.099203   2.940937   2.900167   1.791187   1.828227
    32  H    6.828847   3.318432   3.763456   4.065623   3.465944
    33  H    6.034742   2.695232   2.484053   3.549950   2.324507
    34  H    6.238442   3.405690   4.571833   4.706877   4.944879
    35  H    6.594183   4.854325   6.226631   6.710346   7.194944
    36  H    6.617029   6.122787   7.494159   8.639931   9.129582
    37  H    5.099413   5.847918   7.036099   9.150814   9.415278
    38  H    2.804567   4.137402   5.061653   7.966151   7.915402
    39  H    4.805857   5.366659   4.726092   9.212973   8.038726
    40  H    4.857449   6.462879   5.922914  10.255142   9.245248
    41  H    4.683982   6.772934   6.794712  11.000929  10.305131
    42  H    6.117975   7.537542   7.595455  11.971689  11.148529
    43  H    6.104774   7.867215   7.638578  12.048205  11.132788
    44  H    3.423986   6.193235   5.862624   9.652020   9.008645
    45  H    3.431752   6.852869   6.706994   9.559992   9.325043
    46  H    3.899829   7.125427   7.229728   8.943107   9.171634
    47  H    3.418036   5.748235   6.168608   7.064315   7.618915
    48  H    2.180986   3.395018   4.078930   5.581886   5.901537
    49  Cu   4.337088   2.880199   1.962622   6.386334   5.109276
                   31         32         33         34         35
    31  H    0.000000
    32  H    3.672507   0.000000
    33  H    2.759307   1.763297   0.000000
    34  H    4.182752   2.555958   3.753640   0.000000
    35  H    6.077095   4.929877   6.045698   2.439101   0.000000
    36  H    7.745511   7.115791   7.971249   4.734144   2.461406
    37  H    7.869747   7.884768   8.256534   5.897108   4.281456
    38  H    6.403145   6.904906   6.789346   5.556177   4.963663
    39  H    7.514899   7.846275   6.755251   8.469412   9.355163
    40  H    8.502648   9.283724   8.184007   9.611046  10.222133
    41  H    9.216548   9.717650   9.029339   9.366312   9.309365
    42  H   10.218416  10.116685   9.580434   9.869513   9.763701
    43  H   10.269643  10.628480   9.807883  10.630248  10.795309
    44  H    7.893989   9.409005   8.336444   9.283765   9.650690
    45  H    7.936160  10.148863   9.127365   9.648840   9.802420
    46  H    7.566065  10.229559   9.371894   9.359772   9.331643
    47  H    5.856169   8.502932   7.903946   7.353804   7.304056
    48  H    4.128719   6.188553   5.713251   5.091133   5.330854
    49  Cu   4.812691   4.901183   3.681745   5.946409   7.413515
                   36         37         38         39         40
    36  H    0.000000
    37  H    2.473017   0.000000
    38  H    4.272281   2.444286   0.000000
    39  H    9.660181   8.188978   5.920725   0.000000
    40  H   10.169365   8.350245   6.088855   1.767570   0.000000
    41  H    8.652105   6.533166   4.709074   3.664676   2.730106
    42  H    9.103124   7.155373   5.647066   4.070032   3.549251
    43  H   10.297380   8.273793   6.423793   3.469054   2.333317
    44  H    9.363265   7.358229   5.094876   3.559910   2.380670
    45  H    9.333764   7.308067   5.334898   5.833963   4.808219
    46  H    8.833048   7.086998   5.590490   7.779210   7.058651
    47  H    7.084500   5.883810   4.696744   8.126733   7.914874
    48  H    5.587128   4.694863   3.167437   6.736706   7.004356
    49  Cu   8.427022   7.660496   5.519357   3.081316   4.591562
                   41         42         43         44         45
    41  H    0.000000
    42  H    1.791959   0.000000
    43  H    1.827751   1.792544   0.000000
    44  H    2.872689   4.529893   3.617035   0.000000
    45  H    4.721690   6.511213   5.805954   2.437050   0.000000
    46  H    6.720679   8.480037   8.068080   4.732102   2.461321
    47  H    7.494354   9.083647   9.038506   5.895565   4.281417
    48  H    6.670476   7.990701   8.198866   5.555505   4.963755
    49  Cu   5.847395   6.371370   6.302176   5.274974   6.787246
                   46         47         48         49
    46  H    0.000000
    47  H    2.472976   0.000000
    48  H    4.272261   2.444262   0.000000
    49  Cu   7.931033   7.383875   5.431156   0.000000
 Symmetry turned off by external request.
 Stoichiometry    C24H20CuO4(2)
 Framework group  C1[X(C24H20CuO4)]
 Deg. of freedom   141
 Full point group                 C1      NOp   1
 Rotational constants (GHZ):           0.1818217           0.1271050           0.1067551
 Leave Link  202 at Thu May 16 18:25:44 2024, MaxMem= 13421772800 cpu:               0.3 elap:               0.0
 (Enter /public/software/apps/Gaussian/g16/l301.exe)
 Standard basis: def2SVPP (5D, 7F)
 Ernie: Thresh=  0.10000D-02 Tol=  0.10000D-05 Strict=F.
   456 basis functions,   851 primitive gaussians,   486 cartesian basis functions
   113 alpha electrons      112 beta electrons
       nuclear repulsion energy      3243.8259410290 Hartrees.
 IExCor=  402 DFT=T Ex+Corr=B3LYP ExCW=0 ScaHFX=  0.200000
 ScaDFX=  0.800000  0.720000  1.000000  0.810000 ScalE2=  1.000000  1.000000
 IRadAn=      5 IRanWt=     -1 IRanGd=            0 ICorTp=0 IEmpDi=141
 NAtoms=   49 NActive=   49 NUniq=   49 SFac= 1.00D+00 NAtFMM=   60 NAOKFM=F Big=F
 Integral buffers will be    131072 words long.
 Raffenetti 2 integral format.
 Two-electron integral symmetry is turned off.
 R6Disp:  Grimme-D3(BJ) Dispersion energy=       -0.1257751131 Hartrees.
 Nuclear repulsion after empirical dispersion term =     3243.7001659159 Hartrees.
 Leave Link  301 at Thu May 16 18:25:44 2024, MaxMem= 13421772800 cpu:               0.5 elap:               0.0
 (Enter /public/software/apps/Gaussian/g16/l302.exe)
 NPDir=0 NMtPBC=     1 NCelOv=     1 NCel=       1 NClECP=     1 NCelD=      1
         NCelK=      1 NCelE2=     1 NClLst=     1 CellRange=     0.0.
 One-electron integrals computed using PRISM.
   1 Symmetry operations used in ECPInt.
 ECPInt:  NShTT=   23871 NPrTT=   99254 LenC2=   21508 LenP2D=   57548.
 LDataN:  DoStor=T MaxTD1= 4 Len=   56
 NBasis=   456 RedAO= T EigKep=  1.65D-04  NBF=   456
 NBsUse=   456 1.00D-06 EigRej= -1.00D+00 NBFU=   456
 Precomputing XC quadrature grid using
 IXCGrd= 4 IRadAn=           5 IRanWt=          -1 IRanGd=           0 AccXCQ= 0.00D+00.
 Generated NRdTot=       0 NPtTot=           0 NUsed=           0 NTot=          32
 NSgBfM=   482   482   482   482   482 MxSgAt=    49 MxSgA2=    49.
 Leave Link  302 at Thu May 16 18:25:44 2024, MaxMem= 13421772800 cpu:              11.6 elap:               0.4
 (Enter /public/software/apps/Gaussian/g16/l303.exe)
 DipDrv:  MaxL=1.
 Leave Link  303 at Thu May 16 18:25:44 2024, MaxMem= 13421772800 cpu:               3.4 elap:               0.1
 (Enter /public/software/apps/Gaussian/g16/l401.exe)
 ExpMin= 3.30D-02 ExpMax= 7.64D+04 ExpMxC= 1.15D+04 IAcc=3 IRadAn=         5 AccDes= 0.00D+00
 Harris functional with IExCor=  402 and IRadAn=       5 diagonalized for initial guess.
 HarFok:  IExCor=  402 AccDes= 0.00D+00 IRadAn=         5 IDoV= 1 UseB2=F ITyADJ=14
 ICtDFT=  3500011 ScaDFX=  1.000000  1.000000  1.000000  1.000000
 FoFCou: FMM=F IPFlag=           0 FMFlag=      100000 FMFlg1=           0
         NFxFlg=           0 DoJE=T BraDBF=F KetDBF=T FulRan=T
         wScrn=  0.000000 ICntrl=       500 IOpCl=  0 I1Cent=   200000004 NGrid=           0
         NMat0=    1 NMatS0=      1 NMatT0=    0 NMatD0=    1 NMtDS0=    0 NMtDT0=    0
 Symmetry not used in FoFCou.
 Harris En= -2867.18855233993    
 JPrj=0 DoOrth=F DoCkMO=F.
 Initial guess <Sx>= 0.0000 <Sy>= 0.0000 <Sz>= 0.5000 <S**2>= 0.7500 S= 0.5000
 Leave Link  401 at Thu May 16 18:25:46 2024, MaxMem= 13421772800 cpu:              34.4 elap:               1.1
 (Enter /public/software/apps/Gaussian/g16/l502.exe)
 Two-electron integral symmetry not used.
 UHF open shell SCF:
 Using DIIS extrapolation, IDIIS=  1040.
 NGot= 13421772800 LenX= 13421279614 LenY= 13421042932
 Requested convergence on RMS density matrix=1.00D-08 within 128 cycles.
 Requested convergence on MAX density matrix=1.00D-06.
 Requested convergence on             energy=1.00D-06.
 No special actions if energy rises.
 Fock matrices will be formed incrementally for  20 cycles.

 Cycle   1  Pass 1  IDiag  1:
 FoFJK:  IHMeth= 1 ICntrl=       0 DoSepK=F KAlg= 0 I1Cent=           0 FoldK=F
 IRaf= 830000000 NMat=       1 IRICut=       1 DoRegI=T DoRafI=F ISym2E= 0 IDoP0=0 IntGTp=1.
 FoFCou: FMM=F IPFlag=           0 FMFlag=      100000 FMFlg1=           0
         NFxFlg=           0 DoJE=F BraDBF=F KetDBF=F FulRan=T
         wScrn=  0.000000 ICntrl=         0 IOpCl=  1 I1Cent=           0 NGrid=           0
         NMat0=    1 NMatS0=      1 NMatT0=    0 NMatD0=    1 NMtDS0=    0 NMtDT0=    0
 Symmetry not used in FoFCou.
 E= -2852.37036905393    
 DIIS: error= 4.17D-01 at cycle   1 NSaved=   1.
 NSaved= 1 IEnMin= 1 EnMin= -2852.37036905393     IErMin= 1 ErrMin= 4.17D-01
 ErrMax= 4.17D-01  0.00D+00 EMaxC= 1.00D-01 BMatC= 5.89D+01 BMatP= 5.89D+01
 IDIUse=3 WtCom= 0.00D+00 WtEn= 1.00D+00
 Coeff-Com:  0.100D+01
 Coeff-En:   0.100D+01
 Coeff:      0.100D+01
 Gap=     0.419 Goal=   None    Shift=    0.000
 Gap=    -0.420 Goal=   None    Shift=    0.000
 GapD=   -0.420 DampG=0.250 DampE=0.125 DampFc=0.1250 IDamp=-1.
 Damping current iteration by 1.25D-01
 RMSDP=9.18D-02 MaxDP=1.08D+01              OVMax= 9.88D-01

 Cycle   2  Pass 1  IDiag  1:
 RMSU=  1.15D-02    CP:  1.02D+00
 E= -2857.11986742455     Delta-E=       -4.749498370616 Rises=F Damp=T
 DIIS: error= 2.80D-01 at cycle   2 NSaved=   2.
 NSaved= 2 IEnMin= 2 EnMin= -2857.11986742455     IErMin= 2 ErrMin= 2.80D-01
 ErrMax= 2.80D-01  0.00D+00 EMaxC= 1.00D-01 BMatC= 2.21D+01 BMatP= 5.89D+01
 IDIUse=3 WtCom= 0.00D+00 WtEn= 1.00D+00
 Coeff-Com: -0.114D+01 0.214D+01
 Coeff-En:   0.000D+00 0.100D+01
 Coeff:      0.000D+00 0.100D+01
 Gap=    -0.072 Goal=   None    Shift=    0.000
 Gap=    -0.064 Goal=   None    Shift=    0.000
 RMSDP=2.06D-02 MaxDP=3.21D+00 DE=-4.75D+00 OVMax= 9.56D-01

 Cycle   3  Pass 1  IDiag  1:
 RMSU=  2.04D-02    CP:  9.54D-01  1.22D+00
 E= -2841.49004660449     Delta-E=       15.629820820054 Rises=F Damp=F
 DIIS: error= 2.46D-01 at cycle   3 NSaved=   3.
 NSaved= 3 IEnMin= 2 EnMin= -2857.11986742455     IErMin= 3 ErrMin= 2.46D-01
 ErrMax= 2.46D-01  0.00D+00 EMaxC= 1.00D-01 BMatC= 7.11D+01 BMatP= 2.21D+01
 IDIUse=2 WtCom= 0.00D+00 WtEn= 1.00D+00
 EnCoef did   100 forward-backward iterations
 Coeff-En:   0.578D+00 0.204D-01 0.402D+00
 Coeff:      0.578D+00 0.204D-01 0.402D+00
 Gap=    -0.099 Goal=   None    Shift=    0.000
 Gap=     0.048 Goal=   None    Shift=    0.000
 RMSDP=2.27D-02 MaxDP=2.21D+00 DE= 1.56D+01 OVMax= 8.44D-01

 Cycle   4  Pass 1  IDiag  1:
 RMSU=  9.75D-03    CP:  9.02D-01  1.89D-01  1.80D-01
 E= -2856.91866045191     Delta-E=      -15.428613847421 Rises=F Damp=F
 DIIS: error= 1.86D-01 at cycle   4 NSaved=   4.
 NSaved= 4 IEnMin= 2 EnMin= -2857.11986742455     IErMin= 4 ErrMin= 1.86D-01
 ErrMax= 1.86D-01  0.00D+00 EMaxC= 1.00D-01 BMatC= 2.86D+01 BMatP= 2.21D+01
 IDIUse=2 WtCom= 0.00D+00 WtEn= 1.00D+00
 EnCoef did   100 forward-backward iterations
 Coeff-En:   0.433D+00 0.140D-01 0.177D+00 0.377D+00
 Coeff:      0.433D+00 0.140D-01 0.177D+00 0.377D+00
 Gap=     0.187 Goal=   None    Shift=    0.000
 Gap=     0.237 Goal=   None    Shift=    0.000
 RMSDP=1.20D-02 MaxDP=1.26D+00 DE=-1.54D+01 OVMax= 8.16D-01

 Cycle   5  Pass 1  IDiag  1:
 RMSU=  8.57D-03    CP:  8.95D-01  5.64D-02  1.53D-01  1.50D-01
 E= -2855.39686441651     Delta-E=        1.521796035408 Rises=F Damp=F
 DIIS: error= 1.52D-01 at cycle   5 NSaved=   5.
 NSaved= 5 IEnMin= 2 EnMin= -2857.11986742455     IErMin= 5 ErrMin= 1.52D-01
 ErrMax= 1.52D-01  0.00D+00 EMaxC= 1.00D-01 BMatC= 3.05D+01 BMatP= 2.21D+01
 IDIUse=2 WtCom= 0.00D+00 WtEn= 1.00D+00
 EnCoef did   100 forward-backward iterations
 Coeff-En:   0.251D+00 0.753D-02 0.000D+00 0.433D+00 0.309D+00
 Coeff:      0.251D+00 0.753D-02 0.000D+00 0.433D+00 0.309D+00
 Gap=    -0.040 Goal=   None    Shift=    0.000
 Gap=    -0.009 Goal=   None    Shift=    0.000
 RMSDP=8.32D-03 MaxDP=3.38D-01 DE= 1.52D+00 OVMax= 7.76D-01

 Cycle   6  Pass 1  IDiag  1:
 RMSU=  5.51D-03    CP:  8.93D-01  6.90D-02  1.15D-01  3.24D-01  3.06D-01
 E= -2863.22323327596     Delta-E=       -7.826368859458 Rises=F Damp=F
 DIIS: error= 7.62D-02 at cycle   6 NSaved=   6.
 NSaved= 6 IEnMin= 6 EnMin= -2863.22323327596     IErMin= 6 ErrMin= 7.62D-02
 ErrMax= 7.62D-02  0.00D+00 EMaxC= 1.00D-01 BMatC= 8.80D+00 BMatP= 2.21D+01
 IDIUse=3 WtCom= 2.38D-01 WtEn= 7.62D-01
 EnCoef did   100 forward-backward iterations
 Coeff-Com: -0.448D+00 0.918D+00-0.184D-01 0.924D-01 0.219D+00 0.237D+00
 Coeff-En:   0.207D+00 0.460D-02 0.000D+00 0.238D+00 0.177D+00 0.373D+00
 Coeff:      0.513D-01 0.222D+00-0.437D-02 0.203D+00 0.187D+00 0.341D+00
 Gap=     0.302 Goal=   None    Shift=    0.000
 Gap=     0.250 Goal=   None    Shift=    0.000
 RMSDP=6.63D-03 MaxDP=9.44D-01 DE=-7.83D+00 OVMax= 5.41D-01

 Cycle   7  Pass 1  IDiag  1:
 RMSU=  4.91D-03    CP:  8.91D-01  5.65D-03  6.69D-02  3.03D-01  3.37D-01
                    CP:  2.25D-01
 E= -2865.73507617229     Delta-E=       -2.511842896325 Rises=F Damp=F
 DIIS: error= 7.80D-02 at cycle   7 NSaved=   7.
 NSaved= 7 IEnMin= 7 EnMin= -2865.73507617229     IErMin= 6 ErrMin= 7.62D-02
 ErrMax= 7.80D-02  0.00D+00 EMaxC= 1.00D-01 BMatC= 5.12D+00 BMatP= 8.80D+00
 IDIUse=3 WtCom= 2.38D-01 WtEn= 7.62D-01
 EnCoef did     3 forward-backward iterations
 Coeff-Com: -0.257D+00 0.530D+00-0.194D-01-0.450D-01 0.790D-02 0.290D+00
 Coeff-Com:  0.494D+00
 Coeff-En:   0.717D-01 0.000D+00 0.000D+00 0.000D+00 0.000D+00 0.290D+00
 Coeff-En:   0.638D+00
 Coeff:     -0.670D-02 0.126D+00-0.463D-02-0.107D-01 0.188D-02 0.290D+00
 Coeff:      0.604D+00
 Gap=     0.280 Goal=   None    Shift=    0.000
 Gap=    -0.057 Goal=   None    Shift=    0.000
 RMSDP=4.29D-03 MaxDP=3.83D-01 DE=-2.51D+00 OVMax= 5.90D-01

 Cycle   8  Pass 1  IDiag  1:
 RMSU=  3.13D-03    CP:  8.91D-01 -7.05D-04  3.90D-02  2.67D-01  1.99D-01
                    CP:  4.15D-01  5.16D-01
 E= -2866.41563214874     Delta-E=       -0.680555976456 Rises=F Damp=F
 DIIS: error= 6.50D-02 at cycle   8 NSaved=   8.
 NSaved= 8 IEnMin= 8 EnMin= -2866.41563214874     IErMin= 8 ErrMin= 6.50D-02
 ErrMax= 6.50D-02  0.00D+00 EMaxC= 1.00D-01 BMatC= 2.43D+00 BMatP= 5.12D+00
 IDIUse=3 WtCom= 3.50D-01 WtEn= 6.50D-01
 EnCoef did     4 forward-backward iterations
 Coeff-Com: -0.802D-01 0.143D+00 0.389D-02-0.339D-01 0.193D-01 0.156D+00
 Coeff-Com:  0.364D+00 0.428D+00
 Coeff-En:   0.000D+00 0.000D+00 0.000D+00 0.000D+00 0.000D+00 0.813D-01
 Coeff-En:   0.340D+00 0.578D+00
 Coeff:     -0.281D-01 0.500D-01 0.136D-02-0.119D-01 0.677D-02 0.108D+00
 Coeff:      0.349D+00 0.526D+00
 Gap=     0.273 Goal=   None    Shift=    0.000
 Gap=     0.011 Goal=   None    Shift=    0.000
 RMSDP=3.17D-03 MaxDP=3.12D-01 DE=-6.81D-01 OVMax= 4.01D-01

 Cycle   9  Pass 1  IDiag  1:
 RMSU=  2.07D-03    CP:  8.91D-01  6.41D-03  6.81D-02  2.46D-01  3.13D-01
                    CP:  4.47D-01  6.20D-01  3.53D-01
 E= -2866.70776283257     Delta-E=       -0.292130683826 Rises=F Damp=F
 DIIS: error= 3.79D-02 at cycle   9 NSaved=   9.
 NSaved= 9 IEnMin= 9 EnMin= -2866.70776283257     IErMin= 9 ErrMin= 3.79D-02
 ErrMax= 3.79D-02  0.00D+00 EMaxC= 1.00D-01 BMatC= 1.09D+00 BMatP= 2.43D+00
 IDIUse=3 WtCom= 6.21D-01 WtEn= 3.79D-01
 Coeff-Com: -0.217D-01 0.304D-01 0.357D-02-0.117D-01-0.500D-02 0.189D-01
 Coeff-Com:  0.888D-01 0.395D+00 0.502D+00
 Coeff-En:   0.000D+00 0.000D+00 0.000D+00 0.000D+00 0.000D+00 0.000D+00
 Coeff-En:   0.000D+00 0.366D+00 0.634D+00
 Coeff:     -0.135D-01 0.189D-01 0.222D-02-0.729D-02-0.310D-02 0.117D-01
 Coeff:      0.552D-01 0.384D+00 0.552D+00
 Gap=     0.078 Goal=   None    Shift=    0.000
 Gap=    -0.032 Goal=   None    Shift=    0.000
 RMSDP=2.19D-03 MaxDP=1.79D-01 DE=-2.92D-01 OVMax= 5.70D-01

 Cycle  10  Pass 1  IDiag  1:
 RMSU=  1.52D-03    CP:  8.89D-01  8.94D-04  5.80D-02  2.63D-01  2.74D-01
                    CP:  4.50D-01  5.44D-01  6.49D-01  4.45D-01
 E= -2866.85799689056     Delta-E=       -0.150234057990 Rises=F Damp=F
 DIIS: error= 1.59D-02 at cycle  10 NSaved=  10.
 NSaved=10 IEnMin=10 EnMin= -2866.85799689056     IErMin=10 ErrMin= 1.59D-02
 ErrMax= 1.59D-02  0.00D+00 EMaxC= 1.00D-01 BMatC= 4.24D-01 BMatP= 1.09D+00
 IDIUse=3 WtCom= 8.41D-01 WtEn= 1.59D-01
 EnCoef did     9 forward-backward iterations
 Coeff-Com: -0.220D-01 0.404D-01 0.167D-02-0.185D-01-0.622D-02-0.298D-01
 Coeff-Com:  0.823D-02 0.239D+00 0.449D+00 0.339D+00
 Coeff-En:   0.000D+00 0.000D+00 0.000D+00 0.000D+00 0.000D+00 0.000D+00
 Coeff-En:   0.000D+00 0.868D-01 0.333D+00 0.580D+00
 Coeff:     -0.185D-01 0.340D-01 0.140D-02-0.156D-01-0.523D-02-0.251D-01
 Coeff:      0.692D-02 0.215D+00 0.430D+00 0.377D+00
 Gap=     0.112 Goal=   None    Shift=    0.000
 Gap=     0.013 Goal=   None    Shift=    0.000
 RMSDP=1.32D-03 MaxDP=7.35D-02 DE=-1.50D-01 OVMax= 4.75D-01

 Cycle  11  Pass 1  IDiag  1:
 RMSU=  8.75D-04    CP:  8.90D-01  1.74D-03  5.78D-02  2.46D-01  2.71D-01
                    CP:  4.27D-01  5.60D-01  6.48D-01  7.12D-01  4.82D-01
 E= -2866.95191470119     Delta-E=       -0.093917810625 Rises=F Damp=F
 DIIS: error= 1.94D-03 at cycle  11 NSaved=  11.
 NSaved=11 IEnMin=11 EnMin= -2866.95191470119     IErMin=11 ErrMin= 1.94D-03
 ErrMax= 1.94D-03  0.00D+00 EMaxC= 1.00D-01 BMatC= 2.19D-02 BMatP= 4.24D-01
 IDIUse=3 WtCom= 9.81D-01 WtEn= 1.94D-02
 Coeff-Com: -0.214D-02 0.845D-02-0.168D-03-0.929D-02-0.344D-02-0.124D-01
 Coeff-Com:  0.102D-01 0.343D-01 0.839D-01 0.182D+00 0.709D+00
 Coeff-En:   0.000D+00 0.000D+00 0.000D+00 0.000D+00 0.000D+00 0.000D+00
 Coeff-En:   0.000D+00 0.000D+00 0.000D+00 0.872D-02 0.991D+00
 Coeff:     -0.210D-02 0.828D-02-0.165D-03-0.911D-02-0.338D-02-0.122D-01
 Coeff:      0.999D-02 0.337D-01 0.823D-01 0.178D+00 0.714D+00
 Gap=     0.107 Goal=   None    Shift=    0.000
 Gap=     0.031 Goal=   None    Shift=    0.000
 RMSDP=5.65D-04 MaxDP=3.47D-02 DE=-9.39D-02 OVMax= 1.43D-01

 Cycle  12  Pass 1  IDiag  1:
 RMSU=  4.39D-04    CP:  8.90D-01  1.98D-03  5.82D-02  2.51D-01  2.71D-01
                    CP:  4.23D-01  5.66D-01  6.23D-01  6.60D-01  6.69D-01
                    CP:  8.18D-01
 E= -2866.95269595264     Delta-E=       -0.000781251457 Rises=F Damp=F
 DIIS: error= 4.02D-03 at cycle  12 NSaved=  12.
 NSaved=12 IEnMin=12 EnMin= -2866.95269595264     IErMin=11 ErrMin= 1.94D-03
 ErrMax= 4.02D-03  0.00D+00 EMaxC= 1.00D-01 BMatC= 2.70D-02 BMatP= 2.19D-02
 IDIUse=3 WtCom= 9.81D-01 WtEn= 1.94D-02
 Coeff-Com:  0.281D-02-0.197D-02-0.170D-03-0.504D-02-0.906D-03-0.435D-02
 Coeff-Com:  0.160D-01 0.121D-01-0.131D-01 0.211D-01 0.530D+00 0.444D+00
 Coeff-En:   0.000D+00 0.000D+00 0.000D+00 0.000D+00 0.000D+00 0.000D+00
 Coeff-En:   0.000D+00 0.000D+00 0.000D+00 0.000D+00 0.473D+00 0.527D+00
 Coeff:      0.276D-02-0.193D-02-0.167D-03-0.494D-02-0.888D-03-0.426D-02
 Coeff:      0.157D-01 0.119D-01-0.128D-01 0.207D-01 0.529D+00 0.445D+00
 Gap=     0.112 Goal=   None    Shift=    0.000
 Gap=     0.038 Goal=   None    Shift=    0.000
 RMSDP=3.11D-04 MaxDP=1.30D-02 DE=-7.81D-04 OVMax= 6.02D-02

 Cycle  13  Pass 1  IDiag  1:
 RMSU=  2.19D-04    CP:  8.91D-01  2.04D-03  5.75D-02  2.49D-01  2.69D-01
                    CP:  4.15D-01  5.72D-01  6.36D-01  6.42D-01  6.19D-01
                    CP:  9.85D-01  7.26D-01
 E= -2866.95975730300     Delta-E=       -0.007061350359 Rises=F Damp=F
 DIIS: error= 8.35D-04 at cycle  13 NSaved=  13.
 NSaved=13 IEnMin=13 EnMin= -2866.95975730300     IErMin=13 ErrMin= 8.35D-04
 ErrMax= 8.35D-04  0.00D+00 EMaxC= 1.00D-01 BMatC= 3.19D-03 BMatP= 2.19D-02
 IDIUse=3 WtCom= 9.92D-01 WtEn= 8.35D-03
 Coeff-Com:  0.150D-02-0.222D-02-0.890D-05-0.102D-02 0.141D-02-0.159D-03
 Coeff-Com:  0.110D-01 0.870D-02-0.192D-01-0.449D-01 0.206D+00 0.286D+00
 Coeff-Com:  0.553D+00
 Coeff-En:   0.000D+00 0.000D+00 0.000D+00 0.000D+00 0.000D+00 0.000D+00
 Coeff-En:   0.000D+00 0.000D+00 0.000D+00 0.000D+00 0.000D+00 0.000D+00
 Coeff-En:   0.100D+01
 Coeff:      0.149D-02-0.220D-02-0.883D-05-0.102D-02 0.140D-02-0.158D-03
 Coeff:      0.109D-01 0.863D-02-0.191D-01-0.445D-01 0.204D+00 0.283D+00
 Coeff:      0.557D+00
 Gap=     0.112 Goal=   None    Shift=    0.000
 Gap=     0.039 Goal=   None    Shift=    0.000
 RMSDP=1.37D-04 MaxDP=7.23D-03 DE=-7.06D-03 OVMax= 2.60D-02

 Cycle  14  Pass 1  IDiag  1:
 RMSU=  1.04D-04    CP:  8.91D-01  1.36D-03  5.73D-02  2.48D-01  2.69D-01
                    CP:  4.14D-01  5.69D-01  6.42D-01  6.27D-01  5.98D-01
                    CP:  1.01D+00  8.87D-01  9.48D-01
 E= -2866.96084085268     Delta-E=       -0.001083549677 Rises=F Damp=F
 DIIS: error= 6.48D-04 at cycle  14 NSaved=  14.
 NSaved=14 IEnMin=14 EnMin= -2866.96084085268     IErMin=14 ErrMin= 6.48D-04
 ErrMax= 6.48D-04  0.00D+00 EMaxC= 1.00D-01 BMatC= 1.00D-03 BMatP= 3.19D-03
 IDIUse=3 WtCom= 9.94D-01 WtEn= 6.48D-03
 Coeff-Com:  0.646D-03-0.139D-02 0.501D-04 0.429D-03 0.649D-03-0.520D-04
 Coeff-Com:  0.272D-02-0.287D-02 0.219D-02-0.293D-01 0.456D-02 0.342D-01
 Coeff-Com:  0.273D+00 0.715D+00
 Coeff-En:   0.000D+00 0.000D+00 0.000D+00 0.000D+00 0.000D+00 0.000D+00
 Coeff-En:   0.000D+00 0.000D+00 0.000D+00 0.000D+00 0.000D+00 0.000D+00
 Coeff-En:   0.000D+00 0.100D+01
 Coeff:      0.642D-03-0.138D-02 0.498D-04 0.426D-03 0.645D-03-0.516D-04
 Coeff:      0.270D-02-0.285D-02 0.218D-02-0.291D-01 0.453D-02 0.340D-01
 Coeff:      0.271D+00 0.717D+00
 Gap=     0.113 Goal=   None    Shift=    0.000
 Gap=     0.040 Goal=   None    Shift=    0.000
 RMSDP=9.02D-05 MaxDP=6.83D-03 DE=-1.08D-03 OVMax= 1.76D-02

 Cycle  15  Pass 1  IDiag  1:
 RMSU=  4.71D-05    CP:  8.91D-01  1.59D-03  5.74D-02  2.48D-01  2.69D-01
                    CP:  4.13D-01  5.70D-01  6.41D-01  6.22D-01  5.92D-01
                    CP:  1.04D+00  9.51D-01  1.21D+00  1.27D+00
 E= -2866.96126676146     Delta-E=       -0.000425908781 Rises=F Damp=F
 DIIS: error= 7.10D-04 at cycle  15 NSaved=  15.
 NSaved=15 IEnMin=15 EnMin= -2866.96126676146     IErMin=14 ErrMin= 6.48D-04
 ErrMax= 7.10D-04  0.00D+00 EMaxC= 1.00D-01 BMatC= 3.72D-04 BMatP= 1.00D-03
 IDIUse=3 WtCom= 9.94D-01 WtEn= 6.48D-03
 Coeff-Com: -0.367D-03 0.498D-03-0.666D-04 0.677D-03-0.699D-04 0.251D-03
 Coeff-Com:  0.132D-03-0.797D-02 0.863D-02-0.356D-02-0.380D-01-0.496D-01
 Coeff-Com: -0.108D-03 0.389D+00 0.700D+00
 Coeff-En:   0.000D+00 0.000D+00 0.000D+00 0.000D+00 0.000D+00 0.000D+00
 Coeff-En:   0.000D+00 0.000D+00 0.000D+00 0.000D+00 0.000D+00 0.000D+00
 Coeff-En:   0.000D+00 0.000D+00 0.100D+01
 Coeff:     -0.365D-03 0.494D-03-0.661D-04 0.672D-03-0.695D-04 0.250D-03
 Coeff:      0.131D-03-0.792D-02 0.857D-02-0.354D-02-0.378D-01-0.492D-01
 Coeff:     -0.107D-03 0.387D+00 0.702D+00
 Gap=     0.112 Goal=   None    Shift=    0.000
 Gap=     0.040 Goal=   None    Shift=    0.000
 RMSDP=6.88D-05 MaxDP=5.35D-03 DE=-4.26D-04 OVMax= 1.28D-02

 Cycle  16  Pass 1  IDiag  1:
 RMSU=  3.09D-05    CP:  8.91D-01  1.49D-03  5.76D-02  2.48D-01  2.70D-01
                    CP:  4.13D-01  5.69D-01  6.37D-01  6.20D-01  5.93D-01
                    CP:  1.05D+00  1.02D+00  1.36D+00  1.63D+00  1.24D+00
 E= -2866.96148828012     Delta-E=       -0.000221518659 Rises=F Damp=F
 DIIS: error= 2.07D-04 at cycle  16 NSaved=  16.
 NSaved=16 IEnMin=16 EnMin= -2866.96148828012     IErMin=16 ErrMin= 2.07D-04
 ErrMax= 2.07D-04  0.00D+00 EMaxC= 1.00D-01 BMatC= 5.78D-05 BMatP= 3.72D-04
 IDIUse=3 WtCom= 9.98D-01 WtEn= 2.07D-03
 Coeff-Com: -0.250D-03 0.414D-03-0.150D-04 0.279D-03-0.368D-03 0.163D-03
 Coeff-Com: -0.496D-03-0.302D-02 0.340D-02 0.307D-02-0.270D-01-0.262D-01
 Coeff-Com: -0.372D-01-0.839D-02 0.324D+00 0.772D+00
 Coeff-En:   0.000D+00 0.000D+00 0.000D+00 0.000D+00 0.000D+00 0.000D+00
 Coeff-En:   0.000D+00 0.000D+00 0.000D+00 0.000D+00 0.000D+00 0.000D+00
 Coeff-En:   0.000D+00 0.000D+00 0.000D+00 0.100D+01
 Coeff:     -0.250D-03 0.413D-03-0.150D-04 0.278D-03-0.367D-03 0.162D-03
 Coeff:     -0.495D-03-0.302D-02 0.340D-02 0.306D-02-0.269D-01-0.262D-01
 Coeff:     -0.372D-01-0.837D-02 0.323D+00 0.772D+00
 Gap=     0.113 Goal=   None    Shift=    0.000
 Gap=     0.040 Goal=   None    Shift=    0.000
 RMSDP=5.24D-05 MaxDP=4.41D-03 DE=-2.22D-04 OVMax= 1.20D-02

 Cycle  17  Pass 1  IDiag  1:
 RMSU=  1.83D-05    CP:  8.91D-01  1.67D-03  5.76D-02  2.49D-01  2.70D-01
                    CP:  4.13D-01  5.69D-01  6.37D-01  6.17D-01  5.92D-01
                    CP:  1.06D+00  1.06D+00  1.48D+00  1.88D+00  1.70D+00
                    CP:  1.39D+00
 E= -2866.96157639332     Delta-E=       -0.000088113198 Rises=F Damp=F
 DIIS: error= 1.93D-04 at cycle  17 NSaved=  17.
 NSaved=17 IEnMin=17 EnMin= -2866.96157639332     IErMin=17 ErrMin= 1.93D-04
 ErrMax= 1.93D-04  0.00D+00 EMaxC= 1.00D-01 BMatC= 4.69D-05 BMatP= 5.78D-05
 IDIUse=3 WtCom= 9.98D-01 WtEn= 1.93D-03
 Coeff-Com: -0.118D-03 0.250D-03-0.109D-04-0.120D-03-0.166D-03 0.120D-03
 Coeff-Com: -0.587D-03 0.212D-02-0.390D-03 0.220D-02-0.146D-01-0.104D-02
 Coeff-Com:  0.235D-02-0.120D+00-0.329D-01 0.456D+00 0.707D+00
 Coeff-En:   0.000D+00 0.000D+00 0.000D+00 0.000D+00 0.000D+00 0.000D+00
 Coeff-En:   0.000D+00 0.000D+00 0.000D+00 0.000D+00 0.000D+00 0.000D+00
 Coeff-En:   0.000D+00 0.000D+00 0.000D+00 0.000D+00 0.100D+01
 Coeff:     -0.117D-03 0.249D-03-0.109D-04-0.120D-03-0.166D-03 0.119D-03
 Coeff:     -0.586D-03 0.212D-02-0.390D-03 0.220D-02-0.146D-01-0.104D-02
 Coeff:      0.234D-02-0.120D+00-0.328D-01 0.455D+00 0.708D+00
 Gap=     0.113 Goal=   None    Shift=    0.000
 Gap=     0.040 Goal=   None    Shift=    0.000
 RMSDP=3.81D-05 MaxDP=2.58D-03 DE=-8.81D-05 OVMax= 9.06D-03

 Cycle  18  Pass 1  IDiag  1:
 RMSU=  1.05D-05    CP:  8.91D-01  1.57D-03  5.76D-02  2.49D-01  2.70D-01
                    CP:  4.13D-01  5.68D-01  6.37D-01  6.13D-01  5.93D-01
                    CP:  1.05D+00  1.09D+00  1.55D+00  2.07D+00  1.99D+00
                    CP:  1.94D+00  1.24D+00
 E= -2866.96162055948     Delta-E=       -0.000044166159 Rises=F Damp=F
 DIIS: error= 2.95D-04 at cycle  18 NSaved=  18.
 NSaved=18 IEnMin=18 EnMin= -2866.96162055948     IErMin=17 ErrMin= 1.93D-04
 ErrMax= 2.95D-04  0.00D+00 EMaxC= 1.00D-01 BMatC= 3.79D-05 BMatP= 4.69D-05
 IDIUse=3 WtCom= 9.98D-01 WtEn= 1.93D-03
 Coeff-Com:  0.355D-03-0.547D-03 0.369D-05-0.210D-03-0.421D-04 0.143D-03
 Coeff-Com: -0.358D-03 0.202D-02-0.228D-04-0.253D-02-0.195D-01-0.760D-02
 Coeff-Com:  0.269D-01 0.300D-01 0.991D-02-0.165D+00 0.176D+00 0.951D+00
 Coeff-En:   0.000D+00 0.000D+00 0.000D+00 0.000D+00 0.000D+00 0.000D+00
 Coeff-En:   0.000D+00 0.000D+00 0.000D+00 0.000D+00 0.000D+00 0.000D+00
 Coeff-En:   0.000D+00 0.000D+00 0.000D+00 0.000D+00 0.000D+00 0.100D+01
 Coeff:      0.354D-03-0.545D-03 0.368D-05-0.209D-03-0.420D-04 0.143D-03
 Coeff:     -0.357D-03 0.202D-02-0.227D-04-0.252D-02-0.195D-01-0.758D-02
 Coeff:      0.269D-01 0.300D-01 0.989D-02-0.165D+00 0.176D+00 0.951D+00
 Gap=     0.113 Goal=   None    Shift=    0.000
 Gap=     0.041 Goal=   None    Shift=    0.000
 RMSDP=2.46D-05 MaxDP=1.55D-03 DE=-4.42D-05 OVMax= 6.37D-03

 Cycle  19  Pass 1  IDiag  1:
 RMSU=  8.11D-06    CP:  8.91D-01  1.58D-03  5.76D-02  2.49D-01  2.70D-01
                    CP:  4.14D-01  5.67D-01  6.38D-01  6.10D-01  5.92D-01
                    CP:  1.05D+00  1.10D+00  1.60D+00  2.16D+00  2.19D+00
                    CP:  2.18D+00  1.65D+00  1.40D+00
 E= -2866.96164420209     Delta-E=       -0.000023642612 Rises=F Damp=F
 DIIS: error= 5.96D-05 at cycle  19 NSaved=  19.
 NSaved=19 IEnMin=19 EnMin= -2866.96164420209     IErMin=19 ErrMin= 5.96D-05
 ErrMax= 5.96D-05  0.00D+00 EMaxC= 1.00D-01 BMatC= 5.68D-06 BMatP= 3.79D-05
[...]
 111,-0.00000087,0.00001576,-0.00000685,0.00052674,0.00010133,0.0003901
 1,-0.00232851,0.00574291,0.00437185,0.00912269,0.00141326,0.00952962,0
 .03771098,-0.05583896,0.05482225,-0.00454003,0.00501265,-0.00442822,-0
 .00172967,0.00439672,0.00186068,-0.00024087,-0.00056192,-0.00028373,-0
 .00009737,0.00025266,0.00011439,-0.00001002,-0.00028538,-0.00001716,0.
 00000468,-0.00000003,-0.00000661,-0.00000559,0.,0.00000406,-0.00000300
 ,0.00000121,0.00000568,0.00000394,0.00000044,-0.00000514,-0.00000322,-
 0.00000221,-0.00000209,0.00000306,0.00000324,0.00000233,0.00000303,0.0
 0000051,0.00000045,-0.00000081,0.00000152,-0.00000186,-0.00000296,-0.0
 0000160,-0.00000601,-0.00000404,0.00001269,-0.00000156,0.00000517,-0.0
 0001940,0.00003049,-0.00000267,0.00000639,-0.00000705,-0.00000356,-0.0
 0000776,-0.00000399,0.00000016,-0.00000047,0.00000128,0.00000120,-0.00
 000175,-0.00000035,-0.00004771,0.00012189,0.00003059,0.00056129,-0.003
 64759,-0.00216820,-0.03965803,0.04652083,0.00000599,-0.00000698,-0.000
 00838,-0.00001441,0.00001224,0.00002618,0.00002439,-0.00001595,-0.0000
 2643,0.00005150,0.00001888,0.00001912,0.00002290,-0.00006448,-0.000017
 14,-0.00000945,0.00005304,0.00000582,0.00004119,-0.00007035,-0.0000187
 3,-0.00004761,-0.00000237,0.00001227,-0.00001025,0.00002459,0.00000906
 ,-0.00002028,-0.00000263,-0.00000699,-0.00000146,-0.00004484,0.0000111
 5,-0.00010215,0.00005998,0.00003213,0.00000332,-0.00038792,0.00022355,
 0.00023230,0.00015386,-0.00015511,0.00002243,-0.00005567,0.00008173,0.
 00020210,0.00005970,-0.00051373,-0.00014701,0.00001347,0.00009764,0.00
 006197,-0.00007222,-0.00012633,-0.00006201,0.00005286,0.00000409,-0.00
 117900,0.00004851,-0.00028974,0.00302852,0.00448847,-0.00137777,-0.018
 99840,0.00548827,-0.01486576,-0.13117563,0.05491398,-0.20830978,0.0041
 2900,-0.00046734,0.00608372,0.00076310,0.00172333,0.00180011,0.0006198
 6,-0.00012534,-0.00012556,0.00005164,-0.00007992,-0.00004308,-0.000037
 06,0.00012544,0.00005412,-0.00000354,-0.00000011,0.00000620,0.00000233
 ,-0.00000250,-0.00000148,-0.00000179,0.00000613,-0.00000374,-0.0000076
 4,-0.00000117,0.00000272,0.00000406,0.00000009,0.00000082,-0.00000619,
 -0.00000358,-0.00000179,-0.00000560,-0.00000142,0.00000002,-0.00000312
 ,-0.00000538,-0.00000109,0.00000421,-0.00000935,-0.00000690,0.00000495
 ,0.00001032,0.00000411,0.00001555,0.00001487,-0.00003955,0.00001120,-0
 .00000136,-0.00000137,0.00000404,-0.00000134,0.00000591,0.00000231,-0.
 00000589,-0.00000925,0.00001564,-0.00000002,0.00000362,0.00003640,0.00
 005849,0.00001859,0.00048919,-0.00209944,0.00034867,0.14205001,-0.0623
 7790,0.21689447,-0.00004910,0.00001819,-0.00000549,0.00003326,-0.00001
 204,0.00002406,-0.00001645,0.00000491,-0.00002153,-0.00004633,0.000006
 41,0.00000086,-0.00003527,0.00005906,0.00001910,0.00002852,-0.00005217
 ,-0.00001083,-0.00004250,0.00004531,0.00002026,0.00004272,-0.00000332,
 -0.00000388,-0.00000477,-0.00002845,-0.00000193,0.00003270,0.00001759,
 0.00000020,-0.00004273,-0.00000693,0.00000415,0.00025306,-0.00006905,-
 0.00000404,0.00078654,0.00036798,-0.00052127,-0.00001236,0.00002219,0.
 00009632,-0.00017183,0.00022801,-0.00026501,-0.00027526,-0.00001420,-0
 .00007586,-0.00000179,-0.00003123,0.00000698,0.00000963,0.00000609,-0.
 00000857,-0.00000616,0.00000509,-0.00000085,0.00013902,-0.00006625,0.0
 0043385,-0.00058412,0.00039894,-0.00087582,-0.00537617,-0.00126500,-0.
 00070077,-0.00527351,-0.01287920,0.02700164,-0.09136759,-0.04210012,0.
 07992049,0.01080740,0.00883153,-0.01839764,-0.00237646,-0.00024340,-0.
 00330510,-0.00011714,0.00006786,0.00005379,0.00002581,-0.00013633,-0.0
 0006785,0.00000042,0.00000590,-0.00000115,0.00000718,-0.00000939,0.000
 00592,0.00001934,-0.00000670,-0.00000829,0.00000457,0.00000489,0.00000
 151,-0.00000603,-0.00000211,0.00000370,0.00000038,0.00000224,0.0000005
 3,0.00000001,-0.00000165,-0.00000284,-0.00000028,0.00000227,-0.0000008
 2,-0.00000435,0.00000647,0.00000260,-0.00001565,0.00001225,0.00001363,
 -0.00000853,-0.00000080,0.00000264,0.00000671,0.00000268,-0.00000476,-
 0.00000288,0.00000053,0.00000214,0.00000190,-0.00000028,0.00000042,0.0
 0000235,0.00000036,-0.00000171,0.00003409,0.00002341,-0.00006620,-0.00
 039280,-0.00062813,0.00122243,0.00127216,0.00076923,-0.00026979,0.0918
 3263,0.00009284,0.00000262,0.00005893,-0.00005141,-0.00004110,-0.00014
 813,-0.00006380,0.00003123,0.00011475,-0.00012735,-0.00003667,-0.00004
 019,-0.00005732,0.00016089,0.00003306,0.00008997,-0.00008610,-0.000028
 65,-0.00005876,0.00011676,0.00003040,0.00008122,-0.00001552,-0.0000136
 7,-0.00000740,-0.00004660,0.00001586,0.00000377,0.00004629,0.00000979,
 -0.00004695,0.00000127,-0.00011826,0.00017674,0.00010931,0.00009696,0.
 00003553,0.00022919,-0.00013372,-0.00003066,-0.00076182,0.00034665,-0.
 00017940,0.00013045,-0.00018638,0.00007919,0.00005139,0.00007121,-0.00
 000579,0.00006344,-0.00000506,0.00000178,-0.00002000,0.00001791,0.0000
 0058,0.00000795,-0.00000612,0.00010347,-0.00064089,-0.00028866,0.00017
 507,-0.00034112,-0.00054855,-0.00162451,0.00457206,0.00151300,-0.00045
 724,0.00126308,0.00487069,-0.04218672,-0.08891866,0.10409695,-0.003153
 14,0.00137325,0.00567946,-0.00006050,0.00710404,0.00321627,-0.00016615
 ,0.00015699,0.00017272,0.00005923,-0.00032391,-0.00017899,0.00001747,-
 0.00000599,-0.00001950,-0.00001436,0.00001025,0.00000151,-0.00002059,0
 .00001562,0.00002948,0.00000741,-0.00000049,-0.00001405,-0.00000259,0.
 00000293,-0.00000811,0.00000953,0.00000788,0.00000847,0.00000747,0.000
 00105,0.00000120,-0.00000148,0.00000270,-0.00000338,-0.00000481,0.0000
 0002,-0.00000802,-0.00001114,0.00000786,-0.00001738,0.00001413,-0.0000
 0804,-0.00000765,-0.00000283,-0.00000069,0.00000430,0.00000035,-0.0000
 0102,0.00000475,0.00000070,0.00000037,-0.00000122,-0.00000157,-0.00000
 192,0.00000016,-0.00000785,0.00004528,0.00001505,-0.00002989,0.0000913
 9,0.00028251,0.00041327,-0.00247615,-0.00142972,0.04611524,0.08214723,
 -0.00006097,0.00000799,-0.00004355,0.00001462,0.00002731,0.00012883,0.
 00006670,-0.00003400,-0.00011456,0.00019301,0.00006129,0.00005233,0.00
 006687,-0.00025266,-0.00003562,-0.00006940,0.00020664,0.00005260,0.000
 12905,-0.00024459,-0.00006340,-0.00018577,-0.00001218,0.00005087,0.000
 02559,0.00006243,0.00002792,-0.00005923,-0.00003463,0.00003322,0.00005
 690,0.00000451,0.00007626,-0.00043928,0.00036541,0.00004387,0.00054956
 ,0.00014399,-0.00011772,-0.00025253,-0.00005793,-0.00071128,0.00027054
 ,-0.00009300,0.00027345,0.00016411,0.00011457,0.00002278,0.00002138,0.
 00004164,0.00000332,-0.00000325,-0.00001258,0.00000501,0.00000074,-0.0
 0000356,-0.00000005,0.00010735,-0.00018711,-0.00029098,-0.00046495,-0.
 00052075,0.00048131,0.00028792,0.00157625,0.00185582,-0.00167657,0.000
 73556,0.00116803,0.07959118,0.10401345,-0.25377895,0.00983953,0.009839
 91,-0.01524201,-0.00421400,0.00303038,-0.00013681,0.00029822,-0.000491
 37,-0.00027648,-0.00005635,0.00060724,0.00016328,-0.00001395,0.0000050
 4,0.00001935,0.00001705,-0.00002128,-0.00000016,0.00001797,0.00000070,
 -0.00002640,-0.00001605,-0.00000163,0.00001273,0.00001063,-0.00000468,
 0.00000660,-0.00001806,-0.00000996,-0.00001200,-0.00001597,-0.00000334
 ,-0.00000654,-0.00000544,-0.00001124,-0.00000909,0.00001309,-0.0000222
 5,-0.00002297,0.00001535,-0.00000799,-0.00001665,0.00001163,-0.0000025
 4,-0.00000391,-0.00000288,0.00000231,-0.00000154,-0.00000013,-0.000000
 49,-0.00000111,-0.00000136,0.00000016,0.00000018,0.00000035,0.00000136
 ,0.00000081,0.00001522,0.00001882,-0.00001151,-0.00013172,0.00008396,-
 0.00002934,0.00054258,-0.00130057,0.00005905,-0.08495988,-0.11538461,0
 .26618448,0.00002366,-0.00000419,0.00004315,-0.00001608,-0.00002820,-0
 .00004890,-0.00003743,0.00001612,0.00003671,-0.00008399,-0.00003669,0.
 00007222,-0.00012498,0.00016262,0.00012579,0.00040514,-0.00003973,-0.0
 0017602,-0.00007250,0.00001670,0.00008340,0.00006176,0.00003614,-0.000
 01651,-0.00000830,0.00007106,0.00000152,-0.00020871,0.00027653,-0.0000
 0120,-0.00065849,-0.00025385,-0.00186572,-0.00023507,0.00029990,-0.001
 65021,-0.00072109,0.00062070,-0.00094077,-0.00010079,-0.00010405,0.000
 43153,-0.00008020,0.00008806,-0.00024189,-0.00005555,-0.00002138,0.000
 03061,0.00001089,-0.00001744,-0.00005749,-0.00000263,0.00002022,0.0000
 3962,0.00000747,-0.00001237,0.00000178,-0.00042410,0.00004341,-0.00013
 054,0.00106505,-0.00111288,0.00112727,0.00080393,0.00017435,0.00009462
 ,0.00008278,0.00022437,-0.00373081,-0.01397637,-0.00431447,0.00413398,
 -0.32649884,-0.05811767,0.03021924,-0.00611744,-0.00158094,0.00035127,
 -0.00010588,0.00012762,-0.00049261,0.00007056,-0.00030790,0.00005410,0
 .00001270,-0.00000891,-0.00001170,0.00000867,-0.00001259,0.00000078,0.
 00004307,-0.00001601,-0.00001031,0.00000846,0.00000144,-0.00000665,-0.
 00000546,-0.00000212,0.00000054,0.00000412,0.00000767,0.00001454,-0.00
 000128,-0.00000018,-0.00000469,-0.00000536,0.00000214,0.00000796,-0.00
 001075,0.00000436,0.00000746,-0.00005999,-0.00000859,0.00008013,-0.000
 00352,-0.00000635,0.00002011,0.00000595,0.00000375,0.00000296,-0.00000
 242,-0.00000116,-0.00000395,-0.00000045,0.00000123,0.00000333,0.000000
 45,0.00000193,-0.00000261,-0.00001664,-0.00010666,0.00007873,-0.000106
 69,0.00014196,0.00009268,-0.00060940,-0.00029114,0.00019479,0.00083091
 ,0.00087050,0.00034610,0.34689699,0.00046825,-0.00015875,0.00012341,-0
 .00020428,-0.00011078,-0.00032433,-0.00012895,0.00007188,0.00021515,-0
 .00031263,-0.00018637,-0.00011947,-0.00023967,0.00064313,0.00019818,0.
 00025903,-0.00036878,-0.00011015,-0.00014593,0.00034315,0.00010983,0.0
 0028078,-0.00009579,-0.00006777,-0.00005978,-0.00024741,0.00005767,-0.
 00003653,0.00013315,-0.00012650,-0.00034208,0.00009334,-0.00091276,0.0
 0109408,-0.00036448,0.00042825,0.00126506,-0.00126057,-0.00182081,-0.0
 0045888,-0.00071140,0.00071389,-0.00025699,0.00035473,-0.00076331,-0.0
 0019863,-0.00023889,-0.00002268,-0.00006848,0.00001619,0.00006944,0.00
 007014,-0.00006294,-0.00004748,-0.00005892,0.00006966,0.00000770,-0.00
 069469,-0.00008163,0.00026073,-0.00021490,0.00319679,0.00363814,0.0001
 2392,-0.00057044,0.00010458,-0.00015442,0.00625656,0.00377467,0.007741
 15,0.00626076,0.00027436,-0.05828415,-0.05210113,0.01308587,-0.0130150
 7,0.00120906,0.00069380,-0.00031282,0.00124441,0.00091038,-0.00009151,
 -0.00161982,-0.00026183,-0.00002804,0.00003565,-0.00000784,-0.00004638
 ,0.00004741,0.00001093,-0.00011591,0.00012293,0.00001889,0.00000672,0.
 00000454,-0.00003179,-0.00000860,-0.00000767,-0.00001930,0.00001373,0.
 00000398,0.00000649,0.00001286,0.00000060,0.00000386,0.00000125,0.0000
 0888,-0.00000677,-0.00001652,0.00001335,-0.00002024,0.00002123,0.00003
 273,0.00000120,-0.00002293,-0.00001705,0.00000944,0.00002711,-0.000002
 91,-0.00001529,0.00000215,0.00000002,0.00000988,0.00000351,-0.00000583
 ,-0.00001204,0.00001647,-0.00000623,0.00000294,-0.00008873,0.00003895,
 0.00023028,0.00010301,-0.00083508,-0.00039517,0.00031814,0.00012291,0.
 00002058,0.00057048,-0.00404445,-0.00218616,0.06318757,0.04253270,0.00
 019693,-0.00001601,0.00001554,-0.00010576,-0.00001410,-0.00012030,0.00
 003268,0.00004369,0.00007722,0.00048505,0.00012283,0.00025055,0.000378
 82,-0.00060430,-0.00021056,-0.00025246,0.00046301,0.00015517,0.0003727
 5,-0.00069373,-0.00019279,-0.00049244,0.00004055,0.00007317,-0.0000425
 4,0.00020725,0.00010616,-0.00019147,-0.00012128,-0.00002916,-0.0006581
 8,-0.00107713,-0.00126269,-0.00175947,0.00159250,-0.00075414,-0.000592
 62,-0.00212499,0.00151236,-0.00000497,0.00048212,-0.00173559,0.0008880
 0,-0.00067932,0.00153544,0.00090549,0.00019511,0.00014924,0.00007977,0
 .00005160,-0.00010188,-0.00009659,0.00003286,0.00006597,0.00007717,-0.
 00006130,-0.00002317,0.00120958,0.00064376,-0.00059287,0.00000126,0.00
 315209,-0.00265849,-0.00008125,0.00055115,-0.00189025,-0.00338850,0.00
 352925,-0.00154387,-0.02351515,-0.00421172,0.00690160,0.02866843,0.013
 04439,-0.05789313,0.02613932,0.00517802,0.00151887,0.00050721,-0.00048
 287,-0.00076114,-0.00023240,0.00098093,0.00040934,-0.00000141,-0.00002
 249,0.00000303,-0.00002937,0.00000796,-0.00000999,-0.00006562,0.000039
 09,0.00003091,-0.00001558,-0.00002113,-0.00000615,0.00003013,-0.000009
 81,-0.00001686,0.00000183,-0.00001172,-0.00002704,0.00000249,0.0000123
 4,0.00000298,0.00001151,0.00000969,0.00000961,0.00002070,-0.00000312,-
 0.00001502,0.00009936,-0.00010283,-0.00010490,0.00004018,0.00001716,-0
 .00001128,-0.00005648,-0.00000179,0.00001813,-0.00000292,-0.00000863,-
 0.00000812,-0.00000308,0.00000641,0.00001526,-0.00002280,0.00000282,-0
 .00000264,0.00011536,0.00016742,-0.00034460,0.00006207,-0.00038149,-0.
 00007135,-0.00106199,-0.00020933,0.00013668,0.00076046,-0.00212061,0.0
 0019205,-0.02830179,-0.01759918,0.05716660,0.00034345,0.00014892,0.000
 11279,-0.00016474,0.00018643,-0.00052934,0.00001290,-0.00056113,0.0005
 6583,0.00138105,0.00006476,-0.00015555,0.00012017,-0.00201800,-0.00052
 878,-0.00044908,0.00154318,0.00030770,0.00059019,-0.00166179,-0.000393
 25,-0.00108283,0.00034615,0.00025336,0.00011927,0.00049541,-0.00009433
 ,-0.00024817,-0.00003586,0.00009820,-0.00013875,-0.00074676,0.00054717
 ,-0.00150370,0.00389172,-0.00054771,0.00014853,-0.00214945,0.00751628,
 -0.02328145,0.01689026,-0.01873096,-0.02648497,0.03492307,0.03593823,0
 .00443936,-0.00043020,0.00028100,-0.00050833,0.00085471,0.00015689,0.0
 0034769,-0.00067275,-0.00003815,-0.00023176,0.00038762,-0.00007883,-0.
 00071731,0.00165754,-0.00398026,0.00071682,-0.00118187,0.00278594,-0.0
 0037291,0.00128079,-0.00311187,-0.00156254,-0.00079270,0.00130263,0.00
 056588,-0.00021649,0.00079479,-0.00029784,-0.00021757,0.00013658,-0.00
 193525,0.00056965,-0.00112932,-0.00205634,-0.01282220,0.00123373,-0.00
 997800,0.00093082,0.03213417,-0.00004302,-0.00002883,-0.00001236,-0.00
 003380,-0.00007951,0.00001417,-0.00005512,0.00003833,-0.00007389,-0.00
 005543,0.00004285,-0.00001570,-0.00032506,0.00034705,0.00008578,-0.000
 03408,-0.00006461,0.00001350,-0.00003697,-0.00001399,0.00001028,0.0000
 0074,-0.00001995,0.00003453,0.00004550,-0.00002727,-0.00001067,0.00009
 232,-0.00010701,0.00002466,-0.00023958,-0.00047983,0.00048139,0.000198
 06,-0.00015702,-0.00003557,0.00003241,-0.00009566,0.00002619,0.0000261
 1,-0.00006929,-0.00002550,0.00008467,-0.00004662,0.00002281,0.00004794
 ,0.00010415,0.00011746,-0.00004427,-0.00000615,-0.00001127,-0.00001610
 ,-0.00001202,0.00000753,0.00005878,0.00001876,-0.00002552,0.00000786,0
 .00001979,-0.00011173,0.06251769,0.00003074,0.00006203,-0.00000458,-0.
 00007622,-0.00004580,-0.00034094,-0.00019436,0.00007641,0.00055456,0.0
 0246920,0.00193554,-0.00058582,0.00120835,-0.00328544,-0.00055369,-0.0
 0004478,0.00228375,0.00036112,0.00074408,-0.00271793,-0.00063657,-0.00
 177170,0.00055234,0.00045063,0.00020462,0.00087461,0.00035046,-0.00054
 082,0.00007127,-0.00028793,-0.00098030,-0.00250835,0.00023554,-0.00144
 143,0.00282211,0.00431970,-0.00078389,-0.00061750,-0.00626505,0.024436
 42,-0.01709478,0.01648334,0.03186802,-0.03879431,-0.03297155,-0.004982
 16,0.00139757,-0.00207511,0.00054204,0.00057236,-0.00050939,-0.0006448
 4,0.00000070,0.00015338,0.00036001,-0.00041550,-0.00014117,-0.00019582
 ,-0.00154072,0.00271190,-0.00113608,0.00046879,-0.00165572,0.00054853,
 -0.00072051,0.00195994,0.00080598,0.00052529,-0.00101857,-0.00022502,-
 0.00012284,-0.00065739,-0.00002176,0.00048001,-0.00039367,0.00282653,-
 0.00040542,0.00164270,-0.00958045,-0.02570663,0.01119048,-0.00297842,0
 .00506172,0.01614275,0.00009234,0.00000964,-0.00006942,-0.00007172,0.0
 0011911,-0.00000150,0.00004025,-0.00017214,0.00001170,0.00007780,0.000
 04668,-0.00003619,-0.00018646,0.00033597,0.00004942,0.00006272,0.00014
 038,0.00008429,-0.00002055,-0.00000917,-0.00004095,-0.00002605,0.00003
 051,-0.00004474,0.00005743,0.00000167,0.00002345,-0.00000466,-0.000040
 19,-0.00017361,0.00036216,0.00024033,-0.00010002,-0.00028747,0.0000116
 6,0.00008871,-0.00002088,0.00000243,0.00000075,0.00001691,0.00002298,0
 .00004699,-0.00015334,0.00004574,-0.00002736,-0.00029415,0.00000256,-0
 .00027498,-0.00002562,0.00002679,0.00004128,-0.00000450,0.00008741,-0.
 00001191,-0.00003836,0.00001837,-0.00004984,0.00000510,0.00024092,0.00
 000489,-0.04002743,0.07562956,0.00033903,0.00045951,0.00003875,-0.0002
 8826,-0.00029922,0.00003665,0.00021238,0.00027411,-0.00046517,-0.00482
 630,-0.00480677,0.00093346,-0.00166522,0.00400758,0.00070989,-0.000014
 83,-0.00304953,-0.00052220,-0.00081162,0.00313014,0.00066445,0.0018281
 8,-0.00081383,-0.00052165,-0.00009682,-0.00083578,-0.00030584,0.000505
 25,-0.00050111,-0.00000307,0.00181903,0.00282946,-0.00055760,0.0017746
 6,-0.00817371,-0.00209071,-0.00104082,0.00427939,-0.00181491,-0.002102
 24,0.00188019,0.00588869,0.02600225,-0.02939204,-0.02323520,-0.0020171
 9,0.00008742,-0.00058674,-0.00000410,-0.00013911,0.00041003,0.00000397
 ,-0.00003101,-0.00039755,-0.00002469,-0.00004724,0.00006678,0.00006968
 ,-0.00023695,0.00074052,0.00004628,0.00030962,-0.00065133,-0.00006405,
 -0.00025074,0.00039647,0.00013055,0.00007595,-0.00013631,0.00001077,0.
 00015578,0.00003277,0.00001734,-0.00017364,-0.00024965,0.00008178,0.00
 005049,-0.00036855,0.00912655,0.03397889,-0.00569398,0.02603879,0.0063
 4540,-0.08651714,-0.00013197,-0.00008418,0.00008902,0.00009090,-0.0003
 2742,0.00002049,-0.00004480,0.00012628,0.00001111,-0.00024516,-0.00024
 059,0.00011694,0.00067717,-0.00051403,-0.00002494,-0.00012443,-0.00030
 763,-0.00003579,0.00002084,0.00001400,0.00004523,0.00002931,-0.0000225
 8,0.00003918,-0.00005466,-0.00002332,0.00002284,0.00000114,0.00004968,
 0.00016218,0.00014923,0.00015679,-0.00002778,-0.00006296,0.00007103,-0
 .00005758,0.00001336,0.00006344,-0.00000580,0.00001641,-0.00001126,-0.
 00004306,-0.00002268,-0.00000197,-0.00000036,-0.00001742,0.00004810,-0
 .00000570,0.00002586,-0.00000590,-0.00001028,0.00001090,-0.00003226,0.
 00000815,-0.00001579,0.00001857,0.00003847,-0.00000253,-0.00010967,0.0
 0004209,-0.05536305,-0.00798030,0.11381475\\-0.00000395,-0.00000300,-0
 .00000492,0.00000177,-0.00000221,-0.00000131,-0.00000057,0.00000603,0.
 00000601,-0.00000555,-0.00000453,-0.00000400,0.00000206,-0.00000226,-0
 .00000056,0.00000454,0.00000233,0.00000016,0.00000066,-0.00000475,-0.0
 0000072,-0.00000460,-0.00000047,0.00000015,0.00000394,0.00000338,0.000
 00037,0.00000200,-0.00000565,-0.00000035,-0.00000551,0.00000387,-0.000
 00072,-0.00000747,0.00000226,0.00000009,0.00000160,-0.00000302,0.00000
 232,0.00000363,0.00000176,0.00000312,-0.00000803,0.00000382,0.00000123
 ,0.00000246,-0.00000244,0.00000554,0.00000172,-0.00000807,-0.00001262,
 -0.00000207,0.00000711,0.00000545,0.00000183,0.00000130,0.00000395,0.0
 0000173,0.00000108,-0.00000162,-0.00000527,-0.00000019,0.00000281,0.00
 000146,0.00000017,0.00000062,0.00000146,0.00000114,0.00000028,-0.00000
 276,0.,-0.00000111,-0.00000128,-0.00000208,0.00000454,0.00000410,0.000
 00252,-0.00000667,0.00000760,-0.00001181,0.00000457,0.00000199,0.00001
 088,-0.00000787,-0.00000170,-0.00000021,-0.00000147,0.00000016,0.00000
 149,0.00000036,0.00000013,0.00000077,0.00000020,-0.00000070,-0.0000001
 9,-0.00000008,0.00000050,-0.00000173,-0.00000142,-0.00000033,-0.000000
 08,-0.00000057,0.00000035,0.00000071,-0.00000053,0.00000182,-0.0000002
 0,0.00000016,-0.00000011,-0.00000049,-0.00000011,-0.00000016,0.0000002
 7,-0.00000002,-0.00000017,-0.00000017,0.00000016,0.00000115,0.00000151
 ,0.00000048,0.00000002,-0.00000012,0.00000020,-0.00000020,0.00000277,0
 .00000057,0.00000083,-0.00000036,0.00000111,-0.00000045,0.00000044,0.0
 0000069,-0.00000075,0.00000075,0.00000029,-0.00000118,-0.00000007,0.00
 000055,0.00000033,0.00000052,0.00000039,0.00000026,0.00000091,-0.00000
 022,0.00000269,-0.00000364,0.00000053\\\@
 The archive entry for this job was punched.


 WE DON'T KNOW ONE MILLIONTH OF ONE PERCENT ABOUT
 ANYTHING.
                                     T. A. EDISON.
 Job cpu time:       0 days  8 hours 13 minutes 29.6 seconds.
 Elapsed time:       0 days  0 hours 15 minutes 29.5 seconds.
 File lengths (MBytes):  RWF=   2478 Int=      0 D2E=      0 Chk=     26 Scr=      1
 Normal termination of Gaussian 16 at Thu May 16 19:02:42 2024.
