 Entering Gaussian System, Link 0=g16
 Initial command:
 /public/software/apps/Gaussian/g16/l1.exe "/tmp/Gau-16357.inp" -scrdir="/tmp/"
 Entering Link 1 = /public/software/apps/Gaussian/g16/l1.exe PID=     16358.
  
 Copyright (c) 1988-2019, Gaussian, Inc.  All Rights Reserved.
  
 This is part of the Gaussian(R) 16 program.  It is based on
 the Gaussian(R) 09 system (copyright 2009, Gaussian, Inc.),
 the Gaussian(R) 03 system (copyright 2003, Gaussian, Inc.),
 the Gaussian(R) 98 system (copyright 1998, Gaussian, Inc.),
 the Gaussian(R) 94 system (copyright 1995, Gaussian, Inc.),
 the Gaussian 92(TM) system (copyright 1992, Gaussian, Inc.),
 the Gaussian 90(TM) system (copyright 1990, Gaussian, Inc.),
 the Gaussian 88(TM) system (copyright 1988, Gaussian, Inc.),
 the Gaussian 86(TM) system (copyright 1986, Carnegie Mellon
 University), and the Gaussian 82(TM) system (copyright 1983,
 Carnegie Mellon University). Gaussian is a federally registered
 trademark of Gaussian, Inc.
  
 This software contains proprietary and confidential information,
 including trade secrets, belonging to Gaussian, Inc.
  
 This software is provided under written license and may be
 used, copied, transmitted, or stored only in accord with that
 written license.
  
 The following legend is applicable only to US Government
 contracts under FAR:
  
                    RESTRICTED RIGHTS LEGEND
  
 Use, reproduction and disclosure by the US Government is
 subject to restrictions as set forth in subparagraphs (a)
 and (c) of the Commercial Computer Software - Restricted
 Rights clause in FAR 52.227-19.
  
 Gaussian, Inc.
 340 Quinnipiac St., Bldg. 40, Wallingford CT 06492
  
  
 ---------------------------------------------------------------
 Warning -- This program may not be used in any manner that
 competes with the business of Gaussian, Inc. or will provide
 assistance to any competitor of Gaussian, Inc.  The licensee
 of this program is prohibited from giving any competitor of
 Gaussian, Inc. access to this program.  By using this program,
 the user acknowledges that Gaussian, Inc. is engaged in the
 business of creating and licensing software in the field of
 computational chemistry and represents and warrants to the
 licensee that it is not a competitor of Gaussian, Inc. and that
 it will not use this program in any manner prohibited above.
 ---------------------------------------------------------------
  

 Cite this work as:
 Gaussian 16, Revision C.01,
 M. J. Frisch, G. W. Trucks, H. B. Schlegel, G. E. Scuseria, 
 M. A. Robb, J. R. Cheeseman, G. Scalmani, V. Barone, 
 G. A. Petersson, H. Nakatsuji, X. Li, M. Caricato, A. V. Marenich, 
 J. Bloino, B. G. Janesko, R. Gomperts, B. Mennucci, H. P. Hratchian, 
 J. V. Ortiz, A. F. Izmaylov, J. L. Sonnenberg, D. Williams-Young, 
 F. Ding, F. Lipparini, F. Egidi, J. Goings, B. Peng, A. Petrone, 
 T. Henderson, D. Ranasinghe, V. G. Zakrzewski, J. Gao, N. Rega, 
 G. Zheng, W. Liang, M. Hada, M. Ehara, K. Toyota, R. Fukuda, 
 J. Hasegawa, M. Ishida, T. Nakajima, Y. Honda, O. Kitao, H. Nakai, 
 T. Vreven, K. Throssell, J. A. Montgomery, Jr., J. E. Peralta, 
 F. Ogliaro, M. J. Bearpark, J. J. Heyd, E. N. Brothers, K. N. Kudin, 
 V. N. Staroverov, T. A. Keith, R. Kobayashi, J. Normand, 
 K. Raghavachari, A. P. Rendell, J. C. Burant, S. S. Iyengar, 
 J. Tomasi, M. Cossi, J. M. Millam, M. Klene, C. Adamo, R. Cammi, 
 J. W. Ochterski, R. L. Martin, K. Morokuma, O. Farkas, 
 J. B. Foresman, and D. J. Fox, Gaussian, Inc., Wallingford CT, 2019.
 
 ******************************************
 Gaussian 16:  ES64L-G16RevC.01  3-Jul-2019
                16-May-2024 
 ******************************************
 %nprocshared=32
 Will use up to   32 processors via shared memory.
 %mem=100GB
 ------------------------------------------
 #p opt freq b3lyp/def2svpp em=gd3bj nosymm
 ------------------------------------------
 1/18=20,19=15,26=3,38=1/1,3;
 2/9=110,12=2,15=1,17=6,18=5,40=1/2;
 3/5=43,7=202,11=2,25=1,30=1,71=1,74=-5,124=41/1,2,3;
 4//1;
 5/5=2,38=5/2;
 6/7=2,8=2,9=2,10=2,28=1/1;
 7/30=1/1,2,3,16;
 1/18=20,19=15,26=3/3(2);
 2/9=110,15=1/2;
 99//99;
 2/9=110,15=1/2;
 3/5=43,7=202,11=2,25=1,30=1,71=1,74=-5,124=41/1,2,3;
 4/5=5,16=3,69=1/1;
 5/5=2,38=5/2;
 7/30=1/1,2,3,16;
 1/18=20,19=15,26=3/3(-5);
 2/9=110,15=1/2;
 6/7=2,8=2,9=2,10=2,19=2,28=1/1;
 99/9=1/99;
 Leave Link    1 at Thu May 16 18:25:16 2024, MaxMem= 13421772800 cpu:               0.9 elap:               0.0
 (Enter /public/software/apps/Gaussian/g16/l101.exe)
 ------------------
 $$$$Title####0????
 ------------------
 Symbolic Z-matrix:
 Charge =  0 Multiplicity = 2
 C                     3.19758  -4.52805   1.33784 
 N                     3.08385  -3.06762   1.19907 
 C                     4.11649  -2.41297   2.02151 
 C                     3.22004  -2.68273  -0.22108 
 C                     2.73056  -1.27123  -0.4392 
 C                     3.64441  -0.25309  -0.74002 
 C                     3.21221   1.06876  -0.9045 
 C                     4.14365   2.08133  -1.18582 
 C                     3.72334   3.40393  -1.33173 
 C                     2.3744    3.72926  -1.19296 
 C                     1.43512   2.73394  -0.91404 
 C                     1.83577   1.38721  -0.77683 
 C                     0.90588   0.35249  -0.50199 
 C                    -0.55297   0.62075  -0.38283 
 C                    -1.15414   0.51975   0.88578 
 O                    -0.38057   0.14216   1.98111 
 C                    -2.52545   0.78561   1.05133 
 C                    -3.1927    0.66261   2.40099 
 N                    -4.03733  -0.54874   2.45556 
 C                    -4.95884  -0.46781   3.60004 
 C                    -3.2094   -1.76189   2.57616 
 C                    -3.3015    1.1311   -0.0619 
 C                    -2.72881   1.21062  -1.337 
 C                    -3.52602   1.54231  -2.44444 
 C                    -2.96671   1.60386  -3.72137 
 C                    -1.6119    1.32988  -3.90616 
 C                    -0.8052    0.99919  -2.81501 
 C                    -1.34658   0.94572  -1.51219 
 C                     1.36558  -0.96382  -0.31196 
 O                     0.45779  -1.96976   0.01221 
 H                     3.09108  -4.82329   2.4041 
 H                     2.37801  -5.02979   0.77972 
 H                     4.17634  -4.89486   0.95482 
 H                     4.00534  -1.30907   1.97508 
 H                     5.14027  -2.68982   1.68394 
 H                     3.99792  -2.70281   3.08786 
 H                     4.27267  -2.80368  -0.56656 
 H                     2.603    -3.34992  -0.86428 
 H                     4.69879  -0.48984  -0.82942 
 H                     5.19737   1.85032  -1.2889 
 H                     4.44643   4.17997  -1.54725 
 H                     2.05475   4.75791  -1.29949 
 H                     0.40008   3.02868  -0.80302 
 H                    -2.45098   0.66996   3.23115 
 H                    -3.81796   1.5732    2.54266 
 H                    -4.40297  -0.37215   4.55979 
 H                    -5.63664   0.40519   3.48433 
 H                    -5.60213  -1.37329   3.64172 
 H                    -2.57049  -1.72875   3.48688 
 H                    -3.85555  -2.665     2.62229 
 H                    -2.56189  -1.87835   1.68176 
 H                    -4.36067   1.32514   0.06819 
 H                    -4.5826    1.75005  -2.32283 
 H                    -3.58676   1.85886  -4.57112 
 H                    -1.1847    1.37128  -4.89986 
 H                     0.2382    0.78269  -3.0018 
 Cu                    0.18561  -1.73639   1.94159 
 
 ITRead=  0  0  0  0  0  0  0  0  0  0  0  0  0  0  0  0  0  0  0  0
 ITRead=  0  0  0  0  0  0  0  0  0  0  0  0  0  0  0  0  0  0  0  0
 ITRead=  0  0  0  0  0  0  0  0  0  0  0  0  0  0  0  0  0
 MicOpt= -1 -1 -1 -1 -1 -1 -1 -1 -1 -1 -1 -1 -1 -1 -1 -1 -1 -1 -1 -1
 MicOpt= -1 -1 -1 -1 -1 -1 -1 -1 -1 -1 -1 -1 -1 -1 -1 -1 -1 -1 -1 -1
 MicOpt= -1 -1 -1 -1 -1 -1 -1 -1 -1 -1 -1 -1 -1 -1 -1 -1 -1
 NAtoms=     57 NQM=       57 NQMF=       0 NMMI=      0 NMMIF=      0
                NMic=       0 NMicF=      0.
                    Isotopes and Nuclear Properties:
 (Nuclear quadrupole moments (NQMom) in fm**2, nuclear magnetic moments (NMagM)
  in nuclear magnetons)

  Atom         1           2           3           4           5           6           7           8           9          10
 IAtWgt=          12          14          12          12          12          12          12          12          12          12
 AtmWgt=  12.0000000  14.0030740  12.0000000  12.0000000  12.0000000  12.0000000  12.0000000  12.0000000  12.0000000  12.0000000
 NucSpn=           0           2           0           0           0           0           0           0           0           0
 AtZEff=  -0.0000000  -0.0000000  -0.0000000  -0.0000000  -0.0000000  -0.0000000  -0.0000000  -0.0000000  -0.0000000  -0.0000000
 NQMom=    0.0000000   2.0440000   0.0000000   0.0000000   0.0000000   0.0000000   0.0000000   0.0000000   0.0000000   0.0000000
 NMagM=    0.0000000   0.4037610   0.0000000   0.0000000   0.0000000   0.0000000   0.0000000   0.0000000   0.0000000   0.0000000
 AtZNuc=   6.0000000   7.0000000   6.0000000   6.0000000   6.0000000   6.0000000   6.0000000   6.0000000   6.0000000   6.0000000

  Atom        11          12          13          14          15          16          17          18          19          20
 IAtWgt=          12          12          12          12          12          16          12          12          14          12
 AtmWgt=  12.0000000  12.0000000  12.0000000  12.0000000  12.0000000  15.9949146  12.0000000  12.0000000  14.0030740  12.0000000
 NucSpn=           0           0           0           0           0           0           0           0           2           0
 AtZEff=  -0.0000000  -0.0000000  -0.0000000  -0.0000000  -0.0000000  -0.0000000  -0.0000000  -0.0000000  -0.0000000  -0.0000000
 NQMom=    0.0000000   0.0000000   0.0000000   0.0000000   0.0000000   0.0000000   0.0000000   0.0000000   2.0440000   0.0000000
 NMagM=    0.0000000   0.0000000   0.0000000   0.0000000   0.0000000   0.0000000   0.0000000   0.0000000   0.4037610   0.0000000
 AtZNuc=   6.0000000   6.0000000   6.0000000   6.0000000   6.0000000   8.0000000   6.0000000   6.0000000   7.0000000   6.0000000

  Atom        21          22          23          24          25          26          27          28          29          30
 IAtWgt=          12          12          12          12          12          12          12          12          12          16
 AtmWgt=  12.0000000  12.0000000  12.0000000  12.0000000  12.0000000  12.0000000  12.0000000  12.0000000  12.0000000  15.9949146
 NucSpn=           0           0           0           0           0           0           0           0           0           0
 AtZEff=  -0.0000000  -0.0000000  -0.0000000  -0.0000000  -0.0000000  -0.0000000  -0.0000000  -0.0000000  -0.0000000  -0.0000000
 NQMom=    0.0000000   0.0000000   0.0000000   0.0000000   0.0000000   0.0000000   0.0000000   0.0000000   0.0000000   0.0000000
 NMagM=    0.0000000   0.0000000   0.0000000   0.0000000   0.0000000   0.0000000   0.0000000   0.0000000   0.0000000   0.0000000
 AtZNuc=   6.0000000   6.0000000   6.0000000   6.0000000   6.0000000   6.0000000   6.0000000   6.0000000   6.0000000   8.0000000

  Atom        31          32          33          34          35          36          37          38          39          40
 IAtWgt=           1           1           1           1           1           1           1           1           1           1
 AtmWgt=   1.0078250   1.0078250   1.0078250   1.0078250   1.0078250   1.0078250   1.0078250   1.0078250   1.0078250   1.0078250
 NucSpn=           1           1           1           1           1           1           1           1           1           1
 AtZEff=  -0.0000000  -0.0000000  -0.0000000  -0.0000000  -0.0000000  -0.0000000  -0.0000000  -0.0000000  -0.0000000  -0.0000000
 NQMom=    0.0000000   0.0000000   0.0000000   0.0000000   0.0000000   0.0000000   0.0000000   0.0000000   0.0000000   0.0000000
 NMagM=    2.7928460   2.7928460   2.7928460   2.7928460   2.7928460   2.7928460   2.7928460   2.7928460   2.7928460   2.7928460
 AtZNuc=   1.0000000   1.0000000   1.0000000   1.0000000   1.0000000   1.0000000   1.0000000   1.0000000   1.0000000   1.0000000

  Atom        41          42          43          44          45          46          47          48          49          50
 IAtWgt=           1           1           1           1           1           1           1           1           1           1
 AtmWgt=   1.0078250   1.0078250   1.0078250   1.0078250   1.0078250   1.0078250   1.0078250   1.0078250   1.0078250   1.0078250
 NucSpn=           1           1           1           1           1           1           1           1           1           1
 AtZEff=  -0.0000000  -0.0000000  -0.0000000  -0.0000000  -0.0000000  -0.0000000  -0.0000000  -0.0000000  -0.0000000  -0.0000000
 NQMom=    0.0000000   0.0000000   0.0000000   0.0000000   0.0000000   0.0000000   0.0000000   0.0000000   0.0000000   0.0000000
 NMagM=    2.7928460   2.7928460   2.7928460   2.7928460   2.7928460   2.7928460   2.7928460   2.7928460   2.7928460   2.7928460
 AtZNuc=   1.0000000   1.0000000   1.0000000   1.0000000   1.0000000   1.0000000   1.0000000   1.0000000   1.0000000   1.0000000

  Atom        51          52          53          54          55          56          57
 IAtWgt=           1           1           1           1           1           1          63
 AtmWgt=   1.0078250   1.0078250   1.0078250   1.0078250   1.0078250   1.0078250  62.9295992
 NucSpn=           1           1           1           1           1           1           3
 AtZEff=  -0.0000000  -0.0000000  -0.0000000  -0.0000000  -0.0000000  -0.0000000  -0.0000000
 NQMom=    0.0000000   0.0000000   0.0000000   0.0000000   0.0000000   0.0000000 -22.0000000
 NMagM=    2.7928460   2.7928460   2.7928460   2.7928460   2.7928460   2.7928460   2.2233000
 AtZNuc=   1.0000000   1.0000000   1.0000000   1.0000000   1.0000000   1.0000000  29.0000000
 Leave Link  101 at Thu May 16 18:25:16 2024, MaxMem= 13421772800 cpu:               3.4 elap:               0.1
 (Enter /public/software/apps/Gaussian/g16/l103.exe)

 GradGradGradGradGradGradGradGradGradGradGradGradGradGradGradGradGradGrad
 Berny optimization.
 Initialization pass.
                           ----------------------------
                           !    Initial Parameters    !
                           ! (Angstroms and Degrees)  !
 --------------------------                            --------------------------
 ! Name  Definition              Value          Derivative Info.                !
 --------------------------------------------------------------------------------
 ! R1    R(1,2)                  1.4714         estimate D2E/DX2                !
 ! R2    R(1,31)                 1.1115         estimate D2E/DX2                !
 ! R3    R(1,32)                 1.1113         estimate D2E/DX2                !
 ! R4    R(1,33)                 1.1132         estimate D2E/DX2                !
 ! R5    R(2,3)                  1.4735         estimate D2E/DX2                !
 ! R6    R(2,4)                  1.4777         estimate D2E/DX2                !
 ! R7    R(3,34)                 1.1104         estimate D2E/DX2                !
 ! R8    R(3,35)                 1.113          estimate D2E/DX2                !
 ! R9    R(3,36)                 1.1114         estimate D2E/DX2                !
 ! R10   R(4,5)                  1.5098         estimate D2E/DX2                !
 ! R11   R(4,37)                 1.1145         estimate D2E/DX2                !
 ! R12   R(4,38)                 1.1134         estimate D2E/DX2                !
 ! R13   R(5,6)                  1.4008         estimate D2E/DX2                !
 ! R14   R(5,29)                 1.4049         estimate D2E/DX2                !
 ! R15   R(6,7)                  1.4004         estimate D2E/DX2                !
 ! R16   R(6,39)                 1.0843         estimate D2E/DX2                !
 ! R17   R(7,8)                  1.4043         estimate D2E/DX2                !
 ! R18   R(7,12)                 1.4185         estimate D2E/DX2                !
 ! R19   R(8,9)                  1.3954         estimate D2E/DX2                !
 ! R20   R(8,40)                 1.0837         estimate D2E/DX2                !
 ! R21   R(9,10)                 1.3945         estimate D2E/DX2                !
 ! R22   R(9,41)                 1.0824         estimate D2E/DX2                !
 ! R23   R(10,11)                1.3967         estimate D2E/DX2                !
 ! R24   R(10,42)                1.0824         estimate D2E/DX2                !
 ! R25   R(11,12)                1.4118         estimate D2E/DX2                !
 ! R26   R(11,43)                1.0819         estimate D2E/DX2                !
 ! R27   R(12,13)                1.4181         estimate D2E/DX2                !
 ! R28   R(13,14)                1.4881         estimate D2E/DX2                !
 ! R29   R(13,29)                1.4072         estimate D2E/DX2                !
 ! R30   R(14,15)                1.4075         estimate D2E/DX2                !
 ! R31   R(14,28)                1.4181         estimate D2E/DX2                !
 ! R32   R(15,16)                1.3931         estimate D2E/DX2                !
 ! R33   R(15,17)                1.4066         estimate D2E/DX2                !
 ! R34   R(16,57)                1.9624         estimate D2E/DX2                !
 ! R35   R(17,18)                1.5106         estimate D2E/DX2                !
 ! R36   R(17,22)                1.4003         estimate D2E/DX2                !
 ! R37   R(18,19)                1.4778         estimate D2E/DX2                !
 ! R38   R(18,44)                1.1133         estimate D2E/DX2                !
 ! R39   R(18,45)                1.1136         estimate D2E/DX2                !
 ! R40   R(19,20)                1.4716         estimate D2E/DX2                !
 ! R41   R(19,21)                1.4737         estimate D2E/DX2                !
 ! R42   R(20,46)                1.1132         estimate D2E/DX2                !
 ! R43   R(20,47)                1.1113         estimate D2E/DX2                !
 ! R44   R(20,48)                1.1115         estimate D2E/DX2                !
 ! R45   R(21,49)                1.113          estimate D2E/DX2                !
 ! R46   R(21,50)                1.1114         estimate D2E/DX2                !
 ! R47   R(21,51)                1.1103         estimate D2E/DX2                !
 ! R48   R(22,23)                1.4001         estimate D2E/DX2                !
 ! R49   R(22,52)                1.0846         estimate D2E/DX2                !
 ! R50   R(23,24)                1.4043         estimate D2E/DX2                !
 ! R51   R(23,28)                1.4183         estimate D2E/DX2                !
 ! R52   R(24,25)                1.3954         estimate D2E/DX2                !
 ! R53   R(24,53)                1.0837         estimate D2E/DX2                !
 ! R54   R(25,26)                1.3945         estimate D2E/DX2                !
 ! R55   R(25,54)                1.0824         estimate D2E/DX2                !
 ! R56   R(26,27)                1.3967         estimate D2E/DX2                !
 ! R57   R(26,55)                1.0824         estimate D2E/DX2                !
 ! R58   R(27,28)                1.4118         estimate D2E/DX2                !
 ! R59   R(27,56)                1.0819         estimate D2E/DX2                !
 ! R60   R(29,30)                1.3932         estimate D2E/DX2                !
 ! R61   R(30,57)                1.9624         estimate D2E/DX2                !
 ! A1    A(2,1,31)             110.2855         estimate D2E/DX2                !
 ! A2    A(2,1,32)             110.1061         estimate D2E/DX2                !
 ! A3    A(2,1,33)             111.2577         estimate D2E/DX2                !
 ! A4    A(31,1,32)            106.9297         estimate D2E/DX2                !
 ! A5    A(31,1,33)            109.0738         estimate D2E/DX2                !
 ! A6    A(32,1,33)            109.0786         estimate D2E/DX2                !
 ! A7    A(1,2,3)              109.5212         estimate D2E/DX2                !
 ! A8    A(1,2,4)              110.0013         estimate D2E/DX2                !
 ! A9    A(3,2,4)              110.8608         estimate D2E/DX2                !
 ! A10   A(2,3,34)             110.3755         estimate D2E/DX2                !
 ! A11   A(2,3,35)             111.3967         estimate D2E/DX2                !
 ! A12   A(2,3,36)             110.175          estimate D2E/DX2                !
 ! A13   A(34,3,35)            109.067          estimate D2E/DX2                !
 ! A14   A(34,3,36)            106.7799         estimate D2E/DX2                !
 ! A15   A(35,3,36)            108.9219         estimate D2E/DX2                !
 ! A16   A(2,4,5)              110.639          estimate D2E/DX2                !
 ! A17   A(2,4,37)             110.8988         estimate D2E/DX2                !
 ! A18   A(2,4,38)             110.3682         estimate D2E/DX2                !
 ! A19   A(5,4,37)             111.2778         estimate D2E/DX2                !
 ! A20   A(5,4,38)             107.2831         estimate D2E/DX2                !
 ! A21   A(37,4,38)            106.221          estimate D2E/DX2                !
 ! A22   A(4,5,6)              119.9359         estimate D2E/DX2                !
 ! A23   A(4,5,29)             120.4284         estimate D2E/DX2                !
 ! A24   A(6,5,29)             119.6191         estimate D2E/DX2                !
 ! A25   A(5,6,7)              120.6599         estimate D2E/DX2                !
 ! A26   A(5,6,39)             119.562          estimate D2E/DX2                !
 ! A27   A(7,6,39)             119.7699         estimate D2E/DX2                !
 ! A28   A(6,7,8)              119.9624         estimate D2E/DX2                !
 ! A29   A(6,7,12)             120.0524         estimate D2E/DX2                !
 ! A30   A(8,7,12)             119.9834         estimate D2E/DX2                !
 ! A31   A(7,8,9)              120.3041         estimate D2E/DX2                !
 ! A32   A(7,8,40)             120.6838         estimate D2E/DX2                !
 ! A33   A(9,8,40)             119.0116         estimate D2E/DX2                !
 ! A34   A(8,9,10)             120.1367         estimate D2E/DX2                !
 ! A35   A(8,9,41)             119.9443         estimate D2E/DX2                !
 ! A36   A(10,9,41)            119.918          estimate D2E/DX2                !
 ! A37   A(9,10,11)            120.2745         estimate D2E/DX2                !
 ! A38   A(9,10,42)            119.8384         estimate D2E/DX2                !
 ! A39   A(11,10,42)           119.8869         estimate D2E/DX2                !
 ! A40   A(10,11,12)           120.5549         estimate D2E/DX2                !
 ! A41   A(10,11,43)           118.017          estimate D2E/DX2                !
 ! A42   A(12,11,43)           121.4274         estimate D2E/DX2                !
 ! A43   A(7,12,11)            118.7363         estimate D2E/DX2                !
 ! A44   A(7,12,13)            119.3353         estimate D2E/DX2                !
 ! A45   A(11,12,13)           121.9248         estimate D2E/DX2                !
 ! A46   A(12,13,14)           121.7925         estimate D2E/DX2                !
 ! A47   A(12,13,29)           119.6379         estimate D2E/DX2                !
 ! A48   A(14,13,29)           118.5604         estimate D2E/DX2                !
 ! A49   A(13,14,15)           118.5531         estimate D2E/DX2                !
 ! A50   A(13,14,28)           121.7485         estimate D2E/DX2                !
 ! A51   A(15,14,28)           119.6859         estimate D2E/DX2                !
 ! A52   A(14,15,16)           119.4029         estimate D2E/DX2                !
 ! A53   A(14,15,17)           120.5922         estimate D2E/DX2                !
 ! A54   A(16,15,17)           120.0028         estimate D2E/DX2                !
 ! A55   A(15,16,57)           113.8183         estimate D2E/DX2                !
 ! A56   A(15,17,18)           121.3583         estimate D2E/DX2                !
 ! A57   A(15,17,22)           119.5612         estimate D2E/DX2                !
 ! A58   A(18,17,22)           119.05           estimate D2E/DX2                !
 ! A59   A(17,18,19)           110.6222         estimate D2E/DX2                !
 ! A60   A(17,18,44)           111.8029         estimate D2E/DX2                !
 ! A61   A(17,18,45)           107.1622         estimate D2E/DX2                !
 ! A62   A(19,18,44)           111.0195         estimate D2E/DX2                !
 ! A63   A(19,18,45)           110.1608         estimate D2E/DX2                !
 ! A64   A(44,18,45)           105.8915         estimate D2E/DX2                !
 ! A65   A(18,19,20)           109.9717         estimate D2E/DX2                !
 ! A66   A(18,19,21)           110.8984         estimate D2E/DX2                !
 ! A67   A(20,19,21)           109.4769         estimate D2E/DX2                !
 ! A68   A(19,20,46)           111.2565         estimate D2E/DX2                !
 ! A69   A(19,20,47)           110.1304         estimate D2E/DX2                !
 ! A70   A(19,20,48)           110.2904         estimate D2E/DX2                !
 ! A71   A(46,20,47)           109.0758         estimate D2E/DX2                !
 ! A72   A(46,20,48)           109.0671         estimate D2E/DX2                !
 ! A73   A(47,20,48)           106.9102         estimate D2E/DX2                !
 ! A74   A(19,21,49)           111.405          estimate D2E/DX2                !
 ! A75   A(19,21,50)           110.2239         estimate D2E/DX2                !
 ! A76   A(19,21,51)           110.3682         estimate D2E/DX2                !
 ! A77   A(49,21,50)           108.904          estimate D2E/DX2                !
 ! A78   A(49,21,51)           109.1177         estimate D2E/DX2                !
 ! A79   A(50,21,51)           106.6934         estimate D2E/DX2                !
 ! A80   A(17,22,23)           120.7537         estimate D2E/DX2                !
 ! A81   A(17,22,52)           119.3393         estimate D2E/DX2                !
 ! A82   A(23,22,52)           119.9018         estimate D2E/DX2                !
 ! A83   A(22,23,24)           119.9628         estimate D2E/DX2                !
 ! A84   A(22,23,28)           120.036          estimate D2E/DX2                !
 ! A85   A(24,23,28)           119.9992         estimate D2E/DX2                !
 ! A86   A(23,24,25)           120.3005         estimate D2E/DX2                !
 ! A87   A(23,24,53)           120.6835         estimate D2E/DX2                !
 ! A88   A(25,24,53)           119.0155         estimate D2E/DX2                !
 ! A89   A(24,25,26)           120.1324         estimate D2E/DX2                !
 ! A90   A(24,25,54)           119.9464         estimate D2E/DX2                !
 ! A91   A(26,25,54)           119.9202         estimate D2E/DX2                !
 ! A92   A(25,26,27)           120.273          estimate D2E/DX2                !
 ! A93   A(25,26,55)           119.8388         estimate D2E/DX2                !
 ! A94   A(27,26,55)           119.888          estimate D2E/DX2                !
 ! A95   A(26,27,28)           120.5579         estimate D2E/DX2                !
 ! A96   A(26,27,56)           118.0043         estimate D2E/DX2                !
 ! A97   A(28,27,56)           121.4371         estimate D2E/DX2                !
 ! A98   A(14,28,23)           119.3315         estimate D2E/DX2                !
 ! A99   A(14,28,27)           121.9378         estimate D2E/DX2                !
 ! A100  A(23,28,27)           118.7265         estimate D2E/DX2                !
 ! A101  A(5,29,13)            120.6534         estimate D2E/DX2                !
 ! A102  A(5,29,30)            119.744          estimate D2E/DX2                !
 ! A103  A(13,29,30)           119.6018         estimate D2E/DX2                !
 ! A104  A(29,30,57)           103.4898         estimate D2E/DX2                !
 ! A105  A(16,57,30)           100.0            estimate D2E/DX2                !
 ! D1    D(31,1,2,3)            58.1803         estimate D2E/DX2                !
 ! D2    D(31,1,2,4)          -179.7387         estimate D2E/DX2                !
 ! D3    D(32,1,2,3)           175.9494         estimate D2E/DX2                !
 ! D4    D(32,1,2,4)           -61.9696         estimate D2E/DX2                !
 ! D5    D(33,1,2,3)           -62.9928         estimate D2E/DX2                !
 ! D6    D(33,1,2,4)            59.0882         estimate D2E/DX2                !
 ! D7    D(1,2,3,34)          -176.6301         estimate D2E/DX2                !
 ! D8    D(1,2,3,35)            62.0508         estimate D2E/DX2                !
 ! D9    D(1,2,3,36)           -58.948          estimate D2E/DX2                !
 ! D10   D(4,2,3,34)            61.8049         estimate D2E/DX2                !
 ! D11   D(4,2,3,35)           -59.5142         estimate D2E/DX2                !
 ! D12   D(4,2,3,36)           179.487          estimate D2E/DX2                !
 ! D13   D(1,2,4,5)            164.1724         estimate D2E/DX2                !
 ! D14   D(1,2,4,37)           -71.8473         estimate D2E/DX2                !
 ! D15   D(1,2,4,38)            45.5862         estimate D2E/DX2                !
 ! D16   D(3,2,4,5)            -74.5448         estimate D2E/DX2                !
 ! D17   D(3,2,4,37)            49.4354         estimate D2E/DX2                !
 ! D18   D(3,2,4,38)           166.869          estimate D2E/DX2                !
 ! D19   D(2,4,5,6)            110.1935         estimate D2E/DX2                !
 ! D20   D(2,4,5,29)           -68.3193         estimate D2E/DX2                !
 ! D21   D(37,4,5,6)           -13.5689         estimate D2E/DX2                !
 ! D22   D(37,4,5,29)          167.9182         estimate D2E/DX2                !
 ! D23   D(38,4,5,6)          -129.3621         estimate D2E/DX2                !
 ! D24   D(38,4,5,29)           52.125          estimate D2E/DX2                !
 ! D25   D(4,5,6,7)           -178.0155         estimate D2E/DX2                !
 ! D26   D(4,5,6,39)             0.9408         estimate D2E/DX2                !
 ! D27   D(29,5,6,7)             0.5094         estimate D2E/DX2                !
 ! D28   D(29,5,6,39)          179.4658         estimate D2E/DX2                !
 ! D29   D(4,5,29,13)          179.4052         estimate D2E/DX2                !
 ! D30   D(4,5,29,30)           -0.2655         estimate D2E/DX2                !
 ! D31   D(6,5,29,13)            0.8877         estimate D2E/DX2                !
 ! D32   D(6,5,29,30)         -178.783          estimate D2E/DX2                !
 ! D33   D(5,6,7,8)            179.0336         estimate D2E/DX2                !
 ! D34   D(5,6,7,12)            -0.4743         estimate D2E/DX2                !
 ! D35   D(39,6,7,8)             0.0794         estimate D2E/DX2                !
 ! D36   D(39,6,7,12)         -179.4284         estimate D2E/DX2                !
 ! D37   D(6,7,8,9)           -179.061          estimate D2E/DX2                !
 ! D38   D(6,7,8,40)             0.6912         estimate D2E/DX2                !
 ! D39   D(12,7,8,9)             0.4471         estimate D2E/DX2                !
 ! D40   D(12,7,8,40)         -179.8006         estimate D2E/DX2                !
 ! D41   D(6,7,12,11)          178.389          estimate D2E/DX2                !
 ! D42   D(6,7,12,13)           -0.9368         estimate D2E/DX2                !
 ! D43   D(8,7,12,11)           -1.1188         estimate D2E/DX2                !
 ! D44   D(8,7,12,13)          179.5554         estimate D2E/DX2                !
 ! D45   D(7,8,9,10)             0.2832         estimate D2E/DX2                !
 ! D46   D(7,8,9,41)           179.9202         estimate D2E/DX2                !
 ! D47   D(40,8,9,10)         -179.4732         estimate D2E/DX2                !
 ! D48   D(40,8,9,41)            0.1638         estimate D2E/DX2                !
 ! D49   D(8,9,10,11)           -0.323          estimate D2E/DX2                !
 ! D50   D(8,9,10,42)          179.5239         estimate D2E/DX2                !
 ! D51   D(41,9,10,11)        -179.9601         estimate D2E/DX2                !
 ! D52   D(41,9,10,42)          -0.1132         estimate D2E/DX2                !
 ! D53   D(9,10,11,12)          -0.3734         estimate D2E/DX2                !
 ! D54   D(9,10,11,43)         179.3368         estimate D2E/DX2                !
 ! D55   D(42,10,11,12)        179.7798         estimate D2E/DX2                !
 ! D56   D(42,10,11,43)         -0.5101         estimate D2E/DX2                !
 ! D57   D(10,11,12,7)           1.0856         estimate D2E/DX2                !
 ! D58   D(10,11,12,13)       -179.6069         estimate D2E/DX2                !
 ! D59   D(43,11,12,7)        -178.6145         estimate D2E/DX2                !
 ! D60   D(43,11,12,13)          0.693          estimate D2E/DX2                !
 ! D61   D(7,12,13,14)        -178.8175         estimate D2E/DX2                !
 ! D62   D(7,12,13,29)           2.3027         estimate D2E/DX2                !
 ! D63   D(11,12,13,14)          1.8791         estimate D2E/DX2                !
 ! D64   D(11,12,13,29)       -177.0008         estimate D2E/DX2                !
 ! D65   D(12,13,14,15)       -109.9984         estimate D2E/DX2                !
 ! D66   D(12,13,14,28)         71.2934         estimate D2E/DX2                !
 ! D67   D(29,13,14,15)         68.8931         estimate D2E/DX2                !
 ! D68   D(29,13,14,28)       -109.815          estimate D2E/DX2                !
 ! D69   D(12,13,29,5)          -2.2961         estimate D2E/DX2                !
 ! D70   D(12,13,29,30)        177.375          estimate D2E/DX2                !
 ! D71   D(14,13,29,5)         178.7879         estimate D2E/DX2                !
 ! D72   D(14,13,29,30)         -1.541          estimate D2E/DX2                !
 ! D73   D(13,14,15,16)         -1.5698         estimate D2E/DX2                !
 ! D74   D(13,14,15,17)        178.9481         estimate D2E/DX2                !
 ! D75   D(28,14,15,16)        177.1657         estimate D2E/DX2                !
 ! D76   D(28,14,15,17)         -2.3163         estimate D2E/DX2                !
 ! D77   D(13,14,28,23)       -179.0974         estimate D2E/DX2                !
 ! D78   D(13,14,28,27)          1.657          estimate D2E/DX2                !
 ! D79   D(15,14,28,23)          2.2087         estimate D2E/DX2                !
 ! D80   D(15,14,28,27)       -177.0368         estimate D2E/DX2                !
 ! D81   D(14,15,16,57)        -70.1251         estimate D2E/DX2                !
 ! D82   D(17,15,16,57)        109.3601         estimate D2E/DX2                !
 ! D83   D(14,15,17,18)        179.08           estimate D2E/DX2                !
 ! D84   D(14,15,17,22)          1.1092         estimate D2E/DX2                !
 ! D85   D(16,15,17,18)         -0.399          estimate D2E/DX2                !
 ! D86   D(16,15,17,22)       -178.3697         estimate D2E/DX2                !
 ! D87   D(15,16,57,30)         35.4528         estimate D2E/DX2                !
 ! D88   D(15,17,18,19)       -106.2281         estimate D2E/DX2                !
 ! D89   D(15,17,18,44)         18.0569         estimate D2E/DX2                !
 ! D90   D(15,17,18,45)        133.6639         estimate D2E/DX2                !
 ! D91   D(22,17,18,19)         71.7528         estimate D2E/DX2                !
 ! D92   D(22,17,18,44)       -163.9622         estimate D2E/DX2                !
 ! D93   D(22,17,18,45)        -48.3552         estimate D2E/DX2                !
 ! D94   D(15,17,22,23)          0.1989         estimate D2E/DX2                !
 ! D95   D(15,17,22,52)        179.3594         estimate D2E/DX2                !
 ! D96   D(18,17,22,23)       -177.8189         estimate D2E/DX2                !
 ! D97   D(18,17,22,52)          1.3416         estimate D2E/DX2                !
 ! D98   D(17,18,19,20)       -164.2669         estimate D2E/DX2                !
 ! D99   D(17,18,19,21)         74.501          estimate D2E/DX2                !
 ! D100  D(44,18,19,20)         71.0013         estimate D2E/DX2                !
 ! D101  D(44,18,19,21)        -50.2308         estimate D2E/DX2                !
 ! D102  D(45,18,19,20)        -45.9711         estimate D2E/DX2                !
 ! D103  D(45,18,19,21)       -167.2032         estimate D2E/DX2                !
 ! D104  D(18,19,20,46)        -59.2507         estimate D2E/DX2                !
 ! D105  D(18,19,20,47)         61.8192         estimate D2E/DX2                !
 ! D106  D(18,19,20,48)        179.5821         estimate D2E/DX2                !
 ! D107  D(21,19,20,46)         62.8292         estimate D2E/DX2                !
 ! D108  D(21,19,20,47)       -176.1009         estimate D2E/DX2                !
 ! D109  D(21,19,20,48)        -58.338          estimate D2E/DX2                !
 ! D110  D(18,19,21,49)         58.6513         estimate D2E/DX2                !
 ! D111  D(18,19,21,50)        179.6663         estimate D2E/DX2                !
 ! D112  D(18,19,21,51)        -62.7325         estimate D2E/DX2                !
 ! D113  D(20,19,21,49)        -62.8716         estimate D2E/DX2                !
 ! D114  D(20,19,21,50)         58.1433         estimate D2E/DX2                !
 ! D115  D(20,19,21,51)        175.7445         estimate D2E/DX2                !
 ! D116  D(17,22,23,24)        179.2064         estimate D2E/DX2                !
 ! D117  D(17,22,23,28)         -0.279          estimate D2E/DX2                !
 ! D118  D(52,22,23,24)          0.0506         estimate D2E/DX2                !
 ! D119  D(52,22,23,28)       -179.4348         estimate D2E/DX2                !
 ! D120  D(22,23,24,25)       -179.0335         estimate D2E/DX2                !
 ! D121  D(22,23,24,53)          0.7186         estimate D2E/DX2                !
 ! D122  D(28,23,24,25)          0.4521         estimate D2E/DX2                !
 ! D123  D(28,23,24,53)       -179.7959         estimate D2E/DX2                !
 ! D124  D(22,23,28,14)         -0.928          estimate D2E/DX2                !
 ! D125  D(22,23,28,27)        178.3419         estimate D2E/DX2                !
 ! D126  D(24,23,28,14)        179.5868         estimate D2E/DX2                !
 ! D127  D(24,23,28,27)         -1.1432         estimate D2E/DX2                !
 ! D128  D(23,24,25,26)          0.2942         estimate D2E/DX2                !
 ! D129  D(23,24,25,54)        179.922          estimate D2E/DX2                !
 ! D130  D(53,24,25,26)       -179.462          estimate D2E/DX2                !
 ! D131  D(53,24,25,54)          0.1658         estimate D2E/DX2                !
 ! D132  D(24,25,26,27)         -0.3294         estimate D2E/DX2                !
 ! D133  D(24,25,26,55)        179.5116         estimate D2E/DX2                !
 ! D134  D(54,25,26,27)       -179.9574         estimate D2E/DX2                !
 ! D135  D(54,25,26,55)         -0.1164         estimate D2E/DX2                !
 ! D136  D(25,26,27,28)         -0.3872         estimate D2E/DX2                !
 ! D137  D(25,26,27,56)        179.3213         estimate D2E/DX2                !
 ! D138  D(55,26,27,28)        179.7718         estimate D2E/DX2                !
 ! D139  D(55,26,27,56)         -0.5196         estimate D2E/DX2                !
 ! D140  D(26,27,28,14)       -179.6354         estimate D2E/DX2                !
 ! D141  D(26,27,28,23)          1.1146         estimate D2E/DX2                !
 ! D142  D(56,27,28,14)          0.6662         estimate D2E/DX2                !
 ! D143  D(56,27,28,23)       -178.5838         estimate D2E/DX2                !
 ! D144  D(5,29,30,57)          99.1375         estimate D2E/DX2                !
 ! D145  D(13,29,30,57)        -80.5367         estimate D2E/DX2                !
 ! D146  D(29,30,57,16)         55.7472         estimate D2E/DX2                !
 --------------------------------------------------------------------------------
 Trust Radius=3.00D-01 FncErr=1.00D-07 GrdErr=1.00D-06 EigMax=2.50D+02 EigMin=1.00D-04
 Number of steps in this run=    322 maximum allowed number of steps=    342.
 GradGradGradGradGradGradGradGradGradGradGradGradGradGradGradGradGradGrad

 Leave Link  103 at Thu May 16 18:25:16 2024, MaxMem= 13421772800 cpu:               0.7 elap:               0.0
 (Enter /public/software/apps/Gaussian/g16/l202.exe)
 Symmetry turned off by external request.
 Stoichiometry    C26H26CuN2O2(2)
 Framework group  C1[X(C26H26CuN2O2)]
 Deg. of freedom   165
 Full point group                 C1      NOp   1
                          Input orientation:                          
 ---------------------------------------------------------------------
 Center     Atomic      Atomic             Coordinates (Angstroms)
 Number     Number       Type             X           Y           Z
 ---------------------------------------------------------------------
      1          6           0        3.197579   -4.528053    1.337835
      2          7           0        3.083848   -3.067623    1.199071
      3          6           0        4.116491   -2.412965    2.021511
      4          6           0        3.220039   -2.682729   -0.221079
      5          6           0        2.730558   -1.271234   -0.439199
      6          6           0        3.644410   -0.253086   -0.740021
      7          6           0        3.212208    1.068759   -0.904500
      8          6           0        4.143650    2.081334   -1.185820
      9          6           0        3.723342    3.403931   -1.331731
     10          6           0        2.374397    3.729263   -1.192964
     11          6           0        1.435116    2.733943   -0.914042
     12          6           0        1.835773    1.387210   -0.776830
     13          6           0        0.905883    0.352489   -0.501987
     14          6           0       -0.552970    0.620751   -0.382830
     15          6           0       -1.154140    0.519751    0.885780
     16          8           0       -0.380565    0.142156    1.981106
     17          6           0       -2.525446    0.785611    1.051331
     18          6           0       -3.192698    0.662610    2.400991
     19          7           0       -4.037332   -0.548737    2.455558
     20          6           0       -4.958840   -0.467814    3.600043
     21          6           0       -3.209395   -1.761894    2.576162
     22          6           0       -3.301501    1.131097   -0.061896
     23          6           0       -2.728814    1.210620   -1.337001
     24          6           0       -3.526019    1.542310   -2.444440
     25          6           0       -2.966709    1.603858   -3.721371
     26          6           0       -1.611903    1.329881   -3.906163
     27          6           0       -0.805203    0.999187   -2.815008
     28          6           0       -1.346577    0.945724   -1.512188
     29          6           0        1.365577   -0.963819   -0.311964
     30          8           0        0.457792   -1.969756    0.012210
     31          1           0        3.091075   -4.823287    2.404101
     32          1           0        2.378006   -5.029792    0.779719
     33          1           0        4.176337   -4.894864    0.954824
     34          1           0        4.005343   -1.309068    1.975081
     35          1           0        5.140269   -2.689822    1.683941
     36          1           0        3.997917   -2.702809    3.087860
     37          1           0        4.272667   -2.803676   -0.566562
     38          1           0        2.602995   -3.349915   -0.864281
     39          1           0        4.698788   -0.489844   -0.829422
     40          1           0        5.197367    1.850324   -1.288896
     41          1           0        4.446431    4.179974   -1.547252
     42          1           0        2.054752    4.757913   -1.299493
     43          1           0        0.400076    3.028685   -0.803016
     44          1           0       -2.450979    0.669960    3.231148
     45          1           0       -3.817958    1.573200    2.542655
     46          1           0       -4.402971   -0.372147    4.559789
     47          1           0       -5.636641    0.405186    3.484332
     48          1           0       -5.602125   -1.373286    3.641717
     49          1           0       -2.570485   -1.728745    3.486881
     50          1           0       -3.855546   -2.664999    2.622291
     51          1           0       -2.561894   -1.878350    1.681756
     52          1           0       -4.360673    1.325141    0.068194
     53          1           0       -4.582604    1.750047   -2.322829
     54          1           0       -3.586758    1.858859   -4.571115
     55          1           0       -1.184703    1.371284   -4.899858
     56          1           0        0.238199    0.782693   -3.001797
     57         29           0        0.185613   -1.736390    1.941591
 ---------------------------------------------------------------------
 Rotational constants (GHZ):           0.1572967           0.1267978           0.0845475
 Leave Link  202 at Thu May 16 18:25:16 2024, MaxMem= 13421772800 cpu:               1.1 elap:               0.1
 (Enter /public/software/apps/Gaussian/g16/l301.exe)
 Standard basis: def2SVPP (5D, 7F)
 Ernie: Thresh=  0.10000D-02 Tol=  0.10000D-05 Strict=F.
   496 basis functions,   925 primitive gaussians,   528 cartesian basis functions
   121 alpha electrons      120 beta electrons
       nuclear repulsion energy      3640.8517150830 Hartrees.
 IExCor=  402 DFT=T Ex+Corr=B3LYP ExCW=0 ScaHFX=  0.200000
 ScaDFX=  0.800000  0.720000  1.000000  0.810000 ScalE2=  1.000000  1.000000
 IRadAn=      5 IRanWt=     -1 IRanGd=            0 ICorTp=0 IEmpDi=141
 NAtoms=   57 NActive=   57 NUniq=   57 SFac= 1.00D+00 NAtFMM=   60 NAOKFM=F Big=F
 Integral buffers will be    131072 words long.
 Raffenetti 2 integral format.
 Two-electron integral symmetry is turned off.
 R6Disp:  Grimme-D3(BJ) Dispersion energy=       -0.1464378852 Hartrees.
 Nuclear repulsion after empirical dispersion term =     3640.7052771979 Hartrees.
 Leave Link  301 at Thu May 16 18:25:16 2024, MaxMem= 13421772800 cpu:               1.3 elap:               0.0
 (Enter /public/software/apps/Gaussian/g16/l302.exe)
 NPDir=0 NMtPBC=     1 NCelOv=     1 NCel=       1 NClECP=     1 NCelD=      1
         NCelK=      1 NCelE2=     1 NClLst=     1 CellRange=     0.0.
 One-electron integrals computed using PRISM.
   1 Symmetry operations used in ECPInt.
 ECPInt:  NShTT=   29403 NPrTT=  121786 LenC2=   26198 LenP2D=   69374.
 LDataN:  DoStor=T MaxTD1= 4 Len=   56
 NBasis=   496 RedAO= T EigKep=  1.64D-04  NBF=   496
 NBsUse=   496 1.00D-06 EigRej= -1.00D+00 NBFU=   496
 Precomputing XC quadrature grid using
 IXCGrd= 4 IRadAn=           5 IRanWt=          -1 IRanGd=           0 AccXCQ= 0.00D+00.
 Generated NRdTot=       0 NPtTot=           0 NUsed=           0 NTot=          32
 NSgBfM=   522   522   522   522   522 MxSgAt=    57 MxSgA2=    57.
 Leave Link  302 at Thu May 16 18:25:17 2024, MaxMem= 13421772800 cpu:              15.9 elap:               0.5
 (Enter /public/software/apps/Gaussian/g16/l303.exe)
 DipDrv:  MaxL=1.
 Leave Link  303 at Thu May 16 18:25:17 2024, MaxMem= 13421772800 cpu:               2.4 elap:               0.1
 (Enter /public/software/apps/Gaussian/g16/l401.exe)
 ExpMin= 3.30D-02 ExpMax= 7.64D+04 ExpMxC= 1.15D+04 IAcc=3 IRadAn=         5 AccDes= 0.00D+00
 Harris functional with IExCor=  402 and IRadAn=       5 diagonalized for initial guess.
 HarFok:  IExCor=  402 AccDes= 0.00D+00 IRadAn=         5 IDoV= 1 UseB2=F ITyADJ=14
 ICtDFT=  3500011 ScaDFX=  1.000000  1.000000  1.000000  1.000000
 FoFCou: FMM=F IPFlag=           0 FMFlag=      100000 FMFlg1=           0
         NFxFlg=           0 DoJE=T BraDBF=F KetDBF=T FulRan=T
         wScrn=  0.000000 ICntrl=       500 IOpCl=  0 I1Cent=   200000004 NGrid=           0
         NMat0=    1 NMatS0=      1 NMatT0=    0 NMatD0=    1 NMtDS0=    0 NMtDT0=    0
 Symmetry not used in FoFCou.
 Harris En= -2906.03744789223    
 JPrj=0 DoOrth=F DoCkMO=F.
 Initial guess <Sx>= 0.0000 <Sy>= 0.0000 <Sz>= 0.5000 <S**2>= 0.7500 S= 0.5000
 Leave Link  401 at Thu May 16 18:25:18 2024, MaxMem= 13421772800 cpu:              41.0 elap:               1.3
 (Enter /public/software/apps/Gaussian/g16/l502.exe)
 Two-electron integral symmetry not used.
 UHF open shell SCF:
 Using DIIS extrapolation, IDIIS=  1040.
 NGot= 13421772800 LenX= 13421192452 LenY= 13420913140
 Requested convergence on RMS density matrix=1.00D-08 within 128 cycles.
 Requested convergence on MAX density matrix=1.00D-06.
 Requested convergence on             energy=1.00D-06.
 No special actions if energy rises.
 Fock matrices will be formed incrementally for  20 cycles.

 Cycle   1  Pass 1  IDiag  1:
 FoFJK:  IHMeth= 1 ICntrl=       0 DoSepK=F KAlg= 0 I1Cent=           0 FoldK=F
 IRaf= 820000000 NMat=       1 IRICut=       1 DoRegI=T DoRafI=F ISym2E= 0 IDoP0=0 IntGTp=1.
 FoFCou: FMM=F IPFlag=           0 FMFlag=      100000 FMFlg1=           0
         NFxFlg=           0 DoJE=F BraDBF=F KetDBF=F FulRan=T
         wScrn=  0.000000 ICntrl=         0 IOpCl=  1 I1Cent=           0 NGrid=           0
         NMat0=    1 NMatS0=      1 NMatT0=    0 NMatD0=    1 NMtDS0=    0 NMtDT0=    0
 Symmetry not used in FoFCou.
 E= -2891.90797062116    
 DIIS: error= 4.00D-01 at cycle   1 NSaved=   1.
 NSaved= 1 IEnMin= 1 EnMin= -2891.90797062116     IErMin= 1 ErrMin= 4.00D-01
 ErrMax= 4.00D-01  0.00D+00 EMaxC= 1.00D-01 BMatC= 5.41D+01 BMatP= 5.41D+01
 IDIUse=3 WtCom= 0.00D+00 WtEn= 1.00D+00
 Coeff-Com:  0.100D+01
 Coeff-En:   0.100D+01
 Coeff:      0.100D+01
 Gap=     0.193 Goal=   None    Shift=    0.000
 Gap=    -0.180 Goal=   None    Shift=    0.000
 GapD=   -0.180 DampG=0.250 DampE=0.125 DampFc=0.1250 IDamp=-1.
 Damping current iteration by 1.25D-01
 RMSDP=9.06D-02 MaxDP=1.38D+01              OVMax= 9.88D-01

 Cycle   2  Pass 1  IDiag  1:
 RMSU=  1.13D-02    CP:  1.01D+00
 E= -2895.78525715920     Delta-E=       -3.877286538045 Rises=F Damp=T
 DIIS: error= 2.66D-01 at cycle   2 NSaved=   2.
 NSaved= 2 IEnMin= 2 EnMin= -2895.78525715920     IErMin= 2 ErrMin= 2.66D-01
 ErrMax= 2.66D-01  0.00D+00 EMaxC= 1.00D-01 BMatC= 2.00D+01 BMatP= 5.41D+01
 IDIUse=3 WtCom= 0.00D+00 WtEn= 1.00D+00
 Coeff-Com: -0.971D+00 0.197D+01
 Coeff-En:   0.000D+00 0.100D+01
 Coeff:      0.000D+00 0.100D+01
 Gap=    -0.219 Goal=   None    Shift=    0.000
 Gap=    -0.057 Goal=   None    Shift=    0.000
 RMSDP=1.85D-02 MaxDP=3.06D+00 DE=-3.88D+00 OVMax= 9.90D-01

 Cycle   3  Pass 1  IDiag  1:
 RMSU=  1.83D-02    CP:  9.40D-01  8.23D-01
 E= -2887.17446995029     Delta-E=        8.610787208915 Rises=F Damp=F
 DIIS: error= 2.23D-01 at cycle   3 NSaved=   3.
 NSaved= 3 IEnMin= 2 EnMin= -2895.78525715920     IErMin= 3 ErrMin= 2.23D-01
 ErrMax= 2.23D-01  0.00D+00 EMaxC= 1.00D-01 BMatC= 5.06D+01 BMatP= 2.00D+01
 IDIUse=2 WtCom= 0.00D+00 WtEn= 1.00D+00
 EnCoef did    11 forward-backward iterations
 Coeff-En:   0.509D+00 0.551D-01 0.436D+00
 Coeff:      0.509D+00 0.551D-01 0.436D+00
 Gap=     0.229 Goal=   None    Shift=    0.000
 Gap=    -0.077 Goal=   None    Shift=    0.000
 RMSDP=3.54D-02 MaxDP=3.96D+00 DE= 8.61D+00 OVMax= 9.73D-01

 Cycle   4  Pass 1  IDiag  1:
 RMSU=  3.06D-02    CP:  9.04D-01  9.90D-01  2.69D-02
 E= -2836.29445952407     Delta-E=       50.880010426219 Rises=F Damp=F
 DIIS: error= 1.65D-01 at cycle   4 NSaved=   4.
 NSaved= 4 IEnMin= 2 EnMin= -2895.78525715920     IErMin= 4 ErrMin= 1.65D-01
 ErrMax= 1.65D-01  0.00D+00 EMaxC= 1.00D-01 BMatC= 1.36D+02 BMatP= 2.00D+01
 IDIUse=2 WtCom= 0.00D+00 WtEn= 1.00D+00
 EnCoef did   100 forward-backward iterations
 Coeff-En:   0.507D+00 0.180D-01 0.387D+00 0.878D-01
 Coeff:      0.507D+00 0.180D-01 0.387D+00 0.878D-01
 Gap=    -0.425 Goal=   None    Shift=    0.000
 Gap=     0.398 Goal=   None    Shift=    0.000
 RMSDP=3.13D-02 MaxDP=3.98D+00 DE= 5.09D+01 OVMax= 9.26D-01

 Cycle   5  Pass 1  IDiag  1:
 RMSU=  6.72D-03    CP:  8.85D-01  1.18D-01  1.67D-01  5.56D-02
 E= -2901.93743390608     Delta-E=      -65.642974382015 Rises=F Damp=F
 DIIS: error= 1.48D-01 at cycle   5 NSaved=   5.
 NSaved= 5 IEnMin= 5 EnMin= -2901.93743390608     IErMin= 5 ErrMin= 1.48D-01
 ErrMax= 1.48D-01  0.00D+00 EMaxC= 1.00D-01 BMatC= 1.41D+01 BMatP= 2.00D+01
 IDIUse=3 WtCom= 0.00D+00 WtEn= 1.00D+00
 EnCoef did   100 forward-backward iterations
 Coeff-Com: -0.373D+00 0.929D+00 0.134D+00-0.600D-01 0.369D+00
 Coeff-En:   0.293D+00 0.623D-02 0.199D-01 0.000D+00 0.681D+00
 Coeff:      0.293D+00 0.623D-02 0.199D-01 0.000D+00 0.681D+00
 Gap=    -0.178 Goal=   None    Shift=    0.000
 Gap=     0.145 Goal=   None    Shift=    0.000
 RMSDP=1.45D-02 MaxDP=1.61D+00 DE=-6.56D+01 OVMax= 9.86D-01

 Cycle   6  Pass 1  IDiag  1:
 RMSU=  1.37D-02    CP:  8.93D-01  6.02D-02  1.66D-01  2.50D-02  3.12D-01
 E= -2885.40556086221     Delta-E=       16.531873043878 Rises=F Damp=F
 DIIS: error= 1.10D-01 at cycle   6 NSaved=   6.
 NSaved= 6 IEnMin= 5 EnMin= -2901.93743390608     IErMin= 6 ErrMin= 1.10D-01
 ErrMax= 1.10D-01  0.00D+00 EMaxC= 1.00D-01 BMatC= 4.40D+01 BMatP= 1.41D+01
 IDIUse=2 WtCom= 0.00D+00 WtEn= 1.00D+00
 EnCoef did   100 forward-backward iterations
 Coeff-En:   0.230D+00 0.932D-03 0.317D-02 0.000D+00 0.647D+00 0.118D+00
 Coeff:      0.230D+00 0.932D-03 0.317D-02 0.000D+00 0.647D+00 0.118D+00
 Gap=     0.234 Goal=   None    Shift=    0.000
 Gap=    -0.190 Goal=   None    Shift=    0.000
 RMSDP=1.32D-02 MaxDP=1.66D+00 DE= 1.65D+01 OVMax= 9.67D-01

 Cycle   7  Pass 1  IDiag  1:
 RMSU=  4.91D-03    CP:  9.00D-01  2.91D-02  1.21D-01  1.90D-02  4.29D-01
                    CP:  1.08D-01
 E= -2904.13917172305     Delta-E=      -18.733610860846 Rises=F Damp=F
 DIIS: error= 4.79D-02 at cycle   7 NSaved=   7.
 NSaved= 7 IEnMin= 7 EnMin= -2904.13917172305     IErMin= 7 ErrMin= 4.79D-02
 ErrMax= 4.79D-02  0.00D+00 EMaxC= 1.00D-01 BMatC= 4.52D+00 BMatP= 1.41D+01
 IDIUse=3 WtCom= 5.21D-01 WtEn= 4.79D-01
 EnCoef did     5 forward-backward iterations
 Coeff-Com: -0.185D+00 0.453D+00-0.364D-01-0.101D-01 0.235D+00 0.609D-01
 Coeff-Com:  0.483D+00
 Coeff-En:   0.146D+00 0.000D+00 0.000D+00 0.000D+00 0.338D+00 0.000D+00
 Coeff-En:   0.516D+00
 Coeff:     -0.262D-01 0.236D+00-0.189D-01-0.526D-02 0.284D+00 0.317D-01
 Coeff:      0.499D+00
 Gap=    -0.247 Goal=   None    Shift=    0.000
 Gap=    -0.299 Goal=   None    Shift=    0.000
 RMSDP=5.60D-03 MaxDP=6.63D-01 DE=-1.87D+01 OVMax= 7.28D-01

 Cycle   8  Pass 1  IDiag  1:
 RMSU=  4.88D-03    CP:  8.94D-01  9.50D-03  7.66D-02  3.61D-02  3.88D-01
                    CP:  8.83D-02  4.84D-01
 E= -2902.67716047116     Delta-E=        1.462011251890 Rises=F Damp=F
 DIIS: error= 5.80D-02 at cycle   8 NSaved=   8.
 NSaved= 8 IEnMin= 7 EnMin= -2904.13917172305     IErMin= 7 ErrMin= 4.79D-02
 ErrMax= 5.80D-02  0.00D+00 EMaxC= 1.00D-01 BMatC= 9.25D+00 BMatP= 4.52D+00
 IDIUse=2 WtCom= 0.00D+00 WtEn= 1.00D+00
 EnCoef did     6 forward-backward iterations
 Coeff-En:   0.970D-01 0.000D+00 0.000D+00 0.000D+00 0.268D+00 0.000D+00
 Coeff-En:   0.417D+00 0.218D+00
 Coeff:      0.970D-01 0.000D+00 0.000D+00 0.000D+00 0.268D+00 0.000D+00
 Coeff:      0.417D+00 0.218D+00
 Gap=    -0.135 Goal=   None    Shift=    0.000
 Gap=    -0.071 Goal=   None    Shift=    0.000
 RMSDP=4.65D-03 MaxDP=4.61D-01 DE= 1.46D+00 OVMax= 5.74D-01

 Cycle   9  Pass 1  IDiag  1:
 RMSU=  2.88D-03    CP:  8.96D-01  1.35D-02  4.28D-02  2.71D-02  4.82D-01
                    CP:  3.65D-02  4.23D-01  2.95D-01
 E= -2905.22938503761     Delta-E=       -2.552224566450 Rises=F Damp=F
 DIIS: error= 9.09D-02 at cycle   9 NSaved=   9.
 NSaved= 9 IEnMin= 9 EnMin= -2905.22938503761     IErMin= 7 ErrMin= 4.79D-02
 ErrMax= 9.09D-02  0.00D+00 EMaxC= 1.00D-01 BMatC= 3.35D+00 BMatP= 4.52D+00
 IDIUse=3 WtCom= 5.21D-01 WtEn= 4.79D-01
 EnCoef did     2 forward-backward iterations
 Coeff-Com: -0.559D-01 0.924D-01-0.108D-01-0.921D-02 0.135D+00 0.143D-03
 Coeff-Com:  0.344D+00 0.143D+00 0.362D+00
 Coeff-En:   0.000D+00 0.000D+00 0.000D+00 0.000D+00 0.260D-01 0.000D+00
 Coeff-En:   0.269D+00 0.777D-01 0.627D+00
 Coeff:     -0.291D-01 0.481D-01-0.563D-02-0.479D-02 0.828D-01 0.743D-04
 Coeff:      0.308D+00 0.112D+00 0.489D+00
 Gap=     0.256 Goal=   None    Shift=    0.000
 Gap=     0.118 Goal=   None    Shift=    0.000
 RMSDP=2.83D-03 MaxDP=4.79D-01 DE=-2.55D+00 OVMax= 2.71D-01

 Cycle  10  Pass 1  IDiag  1:
 RMSU=  2.19D-03    CP:  8.90D-01  9.80D-03  7.40D-02  2.61D-02  5.27D-01
                    CP:  5.91D-02  5.36D-01  3.10D-01  4.70D-01
 E= -2905.58802374080     Delta-E=       -0.358638703186 Rises=F Damp=F
 DIIS: error= 6.15D-02 at cycle  10 NSaved=  10.
 NSaved=10 IEnMin=10 EnMin= -2905.58802374080     IErMin= 7 ErrMin= 4.79D-02
 ErrMax= 6.15D-02  0.00D+00 EMaxC= 1.00D-01 BMatC= 1.41D+00 BMatP= 3.35D+00
 IDIUse=3 WtCom= 5.21D-01 WtEn= 4.79D-01
 EnCoef did     3 forward-backward iterations
 Coeff-Com: -0.123D-01 0.133D-01-0.565D-02-0.447D-02-0.367D-01 0.249D-02
 Coeff-Com:  0.158D+00-0.420D-01 0.343D+00 0.585D+00
 Coeff-En:   0.000D+00 0.000D+00 0.000D+00 0.000D+00 0.000D+00 0.000D+00
 Coeff-En:   0.636D-01 0.000D+00 0.329D+00 0.607D+00
 Coeff:     -0.642D-02 0.691D-02-0.294D-02-0.233D-02-0.191D-01 0.130D-02
 Coeff:      0.113D+00-0.219D-01 0.336D+00 0.595D+00
 Gap=     0.124 Goal=   None    Shift=    0.000
 Gap=     0.022 Goal=   None    Shift=    0.000
 RMSDP=1.83D-03 MaxDP=2.78D-01 DE=-3.59D-01 OVMax= 4.19D-01

 Cycle  11  Pass 1  IDiag  1:
 RMSU=  1.23D-03    CP:  8.94D-01  6.01D-03  6.59D-02  2.11D-02  4.55D-01
                    CP:  6.85D-02  5.88D-01  2.23D-01  6.94D-01  5.77D-01
 E= -2905.79776779626     Delta-E=       -0.209744055464 Rises=F Damp=F
 DIIS: error= 2.19D-02 at cycle  11 NSaved=  11.
 NSaved=11 IEnMin=11 EnMin= -2905.79776779626     IErMin=11 ErrMin= 2.19D-02
 ErrMax= 2.19D-02  0.00D+00 EMaxC= 1.00D-01 BMatC= 2.50D-01 BMatP= 1.41D+00
 IDIUse=3 WtCom= 7.81D-01 WtEn= 2.19D-01
 Coeff-Com: -0.244D-01 0.351D-01-0.345D-02-0.807D-03-0.274D-02 0.140D-02
 Coeff-Com:  0.349D-01-0.186D-01 0.918D-01 0.341D+00 0.546D+00
 Coeff-En:   0.000D+00 0.000D+00 0.000D+00 0.000D+00 0.000D+00 0.000D+00
 Coeff-En:   0.000D+00 0.000D+00 0.000D+00 0.222D+00 0.778D+00
 Coeff:     -0.191D-01 0.274D-01-0.270D-02-0.630D-03-0.214D-02 0.109D-02
 Coeff:      0.272D-01-0.146D-01 0.717D-01 0.315D+00 0.597D+00
 Gap=     0.122 Goal=   None    Shift=    0.000
 Gap=     0.029 Goal=   None    Shift=    0.000
 RMSDP=1.11D-03 MaxDP=1.36D-01 DE=-2.10D-01 OVMax= 2.23D-01

 Cycle  12  Pass 1  IDiag  1:
 RMSU=  7.16D-04    CP:  8.89D-01  3.98D-03  6.62D-02  2.21D-02  4.90D-01
                    CP:  6.39D-02  5.38D-01  2.45D-01  6.03D-01  7.55D-01
                    CP:  5.15D-01
 E= -2905.82854088876     Delta-E=       -0.030773092498 Rises=F Damp=F
 DIIS: error= 1.14D-02 at cycle  12 NSaved=  12.
 NSaved=12 IEnMin=12 EnMin= -2905.82854088876     IErMin=12 ErrMin= 1.14D-02
 ErrMax= 1.14D-02  0.00D+00 EMaxC= 1.00D-01 BMatC= 9.85D-02 BMatP= 2.50D-01
 IDIUse=3 WtCom= 8.86D-01 WtEn= 1.14D-01
 Coeff-Com: -0.115D-01 0.177D-01-0.145D-02 0.410D-03 0.380D-03-0.272D-02
 Coeff-Com: -0.655D-02 0.821D-03-0.820D-02 0.745D-01 0.466D+00 0.471D+00
 Coeff-En:   0.000D+00 0.000D+00 0.000D+00 0.000D+00 0.000D+00 0.000D+00
 Coeff-En:   0.000D+00 0.000D+00 0.000D+00 0.000D+00 0.344D+00 0.656D+00
 Coeff:     -0.102D-01 0.156D-01-0.129D-02 0.363D-03 0.336D-03-0.241D-02
 Coeff:     -0.580D-02 0.727D-03-0.726D-02 0.660D-01 0.452D+00 0.492D+00
 Gap=     0.118 Goal=   None    Shift=    0.000
 Gap=     0.038 Goal=   None    Shift=    0.000
 RMSDP=5.39D-04 MaxDP=3.68D-02 DE=-3.08D-02 OVMax= 1.10D-01

 Cycle  13  Pass 1  IDiag  1:
 RMSU=  2.28D-04    CP:  8.91D-01  4.94D-03  6.72D-02  2.16D-02  4.80D-01
                    CP:  6.44D-02  5.61D-01  2.31D-01  6.27D-01  7.22D-01
                    CP:  7.63D-01  5.35D-01
 E= -2905.84732535993     Delta-E=       -0.018784471172 Rises=F Damp=F
 DIIS: error= 4.14D-03 at cycle  13 NSaved=  13.
 NSaved=13 IEnMin=13 EnMin= -2905.84732535993     IErMin=13 ErrMin= 4.14D-03
 ErrMax= 4.14D-03  0.00D+00 EMaxC= 1.00D-01 BMatC= 1.19D-02 BMatP= 9.85D-02
 IDIUse=3 WtCom= 9.59D-01 WtEn= 4.14D-02
 Coeff-Com: -0.679D-02 0.115D-01-0.594D-03 0.316D-03-0.226D-02-0.112D-02
 Coeff-Com: -0.659D-02 0.149D-02 0.581D-02-0.113D-01 0.164D+00 0.300D+00
 Coeff-Com:  0.546D+00
 Coeff-En:   0.000D+00 0.000D+00 0.000D+00 0.000D+00 0.000D+00 0.000D+00
 Coeff-En:   0.000D+00 0.000D+00 0.000D+00 0.000D+00 0.000D+00 0.321D-01
 Coeff-En:   0.968D+00
 Coeff:     -0.651D-02 0.110D-01-0.570D-03 0.303D-03-0.217D-02-0.108D-02
 Coeff:     -0.631D-02 0.142D-02 0.557D-02-0.108D-01 0.157D+00 0.289D+00
 Coeff:      0.563D+00
 Gap=     0.116 Goal=   None    Shift=    0.000
 Gap=     0.040 Goal=   None    Shift=    0.000
 RMSDP=1.81D-04 MaxDP=1.32D-02 DE=-1.88D-02 OVMax= 2.93D-02

 Cycle  14  Pass 1  IDiag  1:
 RMSU=  1.27D-04    CP:  8.91D-01  4.62D-03  6.61D-02  2.18D-02  4.81D-01
                    CP:  6.40D-02  5.52D-01  2.34D-01  6.35D-01  7.15D-01
                    CP:  7.24D-01  6.58D-01  7.48D-01
 E= -2905.84911887025     Delta-E=       -0.001793510313 Rises=F Damp=F
 DIIS: error= 2.98D-03 at cycle  14 NSaved=  14.
 NSaved=14 IEnMin=14 EnMin= -2905.84911887025     IErMin=14 ErrMin= 2.98D-03
 ErrMax= 2.98D-03  0.00D+00 EMaxC= 1.00D-01 BMatC= 4.33D-03 BMatP= 1.19D-02
 IDIUse=3 WtCom= 9.70D-01 WtEn= 2.98D-02
 Coeff-Com: -0.349D-02 0.609D-02-0.283D-03 0.874D-04-0.286D-02-0.455D-03
 Coeff-Com: -0.237D-02 0.492D-03 0.180D-01-0.206D-01 0.311D-01 0.114D+00
 Coeff-Com:  0.382D+00 0.478D+00
 Coeff-En:   0.000D+00 0.000D+00 0.000D+00 0.000D+00 0.000D+00 0.000D+00
 Coeff-En:   0.000D+00 0.000D+00 0.000D+00 0.000D+00 0.000D+00 0.000D+00
 Coeff-En:   0.685D-01 0.932D+00
 Coeff:     -0.339D-02 0.591D-02-0.275D-03 0.848D-04-0.277D-02-0.442D-03
 Coeff:     -0.229D-02 0.477D-03 0.175D-01-0.200D-01 0.301D-01 0.110D+00
 Coeff:      0.373D+00 0.492D+00
 Gap=     0.118 Goal=   None    Shift=    0.000
 Gap=     0.041 Goal=   None    Shift=    0.000
 RMSDP=8.18D-05 MaxDP=6.50D-03 DE=-1.79D-03 OVMax= 1.02D-02

 Cycle  15  Pass 1  IDiag  1:
 RMSU=  6.17D-05    CP:  8.91D-01  4.61D-03  6.56D-02  2.18D-02  4.81D-01
                    CP:  6.34D-02  5.52D-01  2.34D-01  6.39D-01  7.11D-01
                    CP:  7.09D-01  6.50D-01  9.17D-01  8.07D-01
 E= -2905.84980640477     Delta-E=       -0.000687534530 Rises=F Damp=F
 DIIS: error= 1.88D-03 at cycle  15 NSaved=  15.
 NSaved=15 IEnMin=15 EnMin= -2905.84980640477     IErMin=15 ErrMin= 1.88D-03
 ErrMax= 1.88D-03  0.00D+00 EMaxC= 1.00D-01 BMatC= 1.40D-03 BMatP= 4.33D-03
 IDIUse=3 WtCom= 9.81D-01 WtEn= 1.88D-02
 Coeff-Com: -0.617D-03 0.882D-03 0.117D-04 0.699D-04-0.953D-03 0.115D-03
 Coeff-Com: -0.862D-03 0.456D-03 0.132D-01-0.142D-01 0.244D-02-0.682D-03
 Coeff-Com:  0.344D-01 0.229D+00 0.737D+00
 Coeff-En:   0.000D+00 0.000D+00 0.000D+00 0.000D+00 0.000D+00 0.000D+00
 Coeff-En:   0.000D+00 0.000D+00 0.000D+00 0.000D+00 0.000D+00 0.000D+00
 Coeff-En:   0.000D+00 0.000D+00 0.100D+01
 Coeff:     -0.605D-03 0.866D-03 0.115D-04 0.685D-04-0.935D-03 0.113D-03
 Coeff:     -0.845D-03 0.447D-03 0.130D-01-0.140D-01 0.240D-02-0.669D-03
 Coeff:      0.337D-01 0.225D+00 0.742D+00
 Gap=     0.118 Goal=   None    Shift=    0.000
 Gap=     0.042 Goal=   None    Shift=    0.000
 RMSDP=7.06D-05 MaxDP=5.79D-03 DE=-6.88D-04 OVMax= 2.64D-02

 Cycle  16  Pass 1  IDiag  1:
 RMSU=  3.90D-05    CP:  8.91D-01  4.65D-03  6.53D-02  2.18D-02  4.80D-01
                    CP:  6.32D-02  5.50D-01  2.33D-01  6.46D-01  6.95D-01
                    CP:  7.12D-01  6.50D-01  9.73D-01  1.10D+00  9.81D-01
 E= -2905.85007745171     Delta-E=       -0.000271046933 Rises=F Damp=F
 DIIS: error= 5.71D-04 at cycle  16 NSaved=  16.
 NSaved=16 IEnMin=16 EnMin= -2905.85007745171     IErMin=16 ErrMin= 5.71D-04
 ErrMax= 5.71D-04  0.00D+00 EMaxC= 1.00D-01 BMatC= 2.80D-04 BMatP= 1.40D-03
 IDIUse=3 WtCom= 9.94D-01 WtEn= 5.71D-03
 Coeff-Com:  0.188D-03-0.208D-03 0.500D-04-0.130D-04-0.858D-03 0.339D-04
 Coeff-Com: -0.764D-04 0.495D-03 0.178D-02 0.559D-03 0.890D-03-0.361D-01
 Coeff-Com: -0.146D+00-0.796D-01 0.616D+00 0.642D+00
 Coeff-En:   0.000D+00 0.000D+00 0.000D+00 0.000D+00 0.000D+00 0.000D+00
 Coeff-En:   0.000D+00 0.000D+00 0.000D+00 0.000D+00 0.000D+00 0.000D+00
 Coeff-En:   0.000D+00 0.000D+00 0.000D+00 0.100D+01
 Coeff:      0.187D-03-0.206D-03 0.498D-04-0.129D-04-0.853D-03 0.337D-04
 Coeff:     -0.760D-04 0.492D-03 0.177D-02 0.556D-03 0.885D-03-0.359D-01
 Coeff:     -0.145D+00-0.791D-01 0.613D+00 0.644D+00
 Gap=     0.119 Goal=   None    Shift=    0.000
 Gap=     0.043 Goal=   None    Shift=    0.000
 RMSDP=4.23D-05 MaxDP=3.96D-03 DE=-2.71D-04 OVMax= 1.25D-02

 Cycle  17  Pass 1  IDiag  1:
 RMSU=  2.36D-05    CP:  8.91D-01  4.62D-03  6.51D-02  2.17D-02  4.79D-01
                    CP:  6.31D-02  5.51D-01  2.33D-01  6.47D-01  6.94D-01
                    CP:  7.12D-01  6.51D-01  1.04D+00  1.24D+00  1.40D+00
                    CP:  1.07D+00
 E= -2905.85017301023     Delta-E=       -0.000095558527 Rises=F Damp=F
 DIIS: error= 7.99D-05 at cycle  17 NSaved=  17.
 NSaved=17 IEnMin=17 EnMin= -2905.85017301023     IErMin=17 ErrMin= 7.99D-05
 ErrMax= 7.99D-05  0.00D+00 EMaxC= 1.00D-01 BMatC= 3.11D-05 BMatP= 2.80D-04
 IDIUse=1 WtCom= 1.00D+00 WtEn= 0.00D+00
 Coeff-Com:  0.197D-03-0.198D-03-0.468D-05-0.305D-05-0.626D-03 0.118D-04
 Coeff-Com:  0.189D-03 0.329D-03-0.131D-02 0.355D-02 0.790D-03-0.174D-01
 Coeff-Com: -0.886D-01-0.939D-01 0.257D+00 0.254D+00 0.685D+00
 Coeff:      0.197D-03-0.198D-03-0.468D-05-0.305D-05-0.626D-03 0.118D-04
 Coeff:      0.189D-03 0.329D-03-0.131D-02 0.355D-02 0.790D-03-0.174D-01
 Coeff:     -0.886D-01-0.939D-01 0.257D+00 0.254D+00 0.685D+00
 Gap=     0.120 Goal=   None    Shift=    0.000
 Gap=     0.043 Goal=   None    Shift=    0.000
 RMSDP=2.30D-05 MaxDP=1.57D-03 DE=-9.56D-05 OVMax= 8.66D-03

 Cycle  18  Pass 1  IDiag  1:
 RMSU=  9.88D-06    CP:  8.91D-01  4.62D-03  6.51D-02  2.17D-02  4.79D-01
                    CP:  6.31D-02  5.51D-01  2.32D-01  6.47D-01  6.94D-01
                    CP:  7.12D-01  6.51D-01  1.06D+00  1.33D+00  1.57D+00
                    CP:  1.32D+00  1.26D+00
 E= -2905.85019374870     Delta-E=       -0.000020738461 Rises=F Damp=F
 DIIS: error= 7.44D-05 at cycle  18 NSaved=  18.
 NSaved=18 IEnMin=18 EnMin= -2905.85019374870     IErMin=18 ErrMin= 7.44D-05
 ErrMax= 7.44D-05  0.00D+00 EMaxC= 1.00D-01 BMatC= 1.90D-05 BMatP= 3.11D-05
 IDIUse=1 WtCom= 1.00D+00 WtEn= 0.00D+00
 Coeff-Com: -0.447D-05 0.685D-04-0.247D-04 0.430D-05-0.245D-03 0.529D-04
 Coeff-Com:  0.234D-03 0.156D-03-0.154D-02 0.282D-02 0.104D-03 0.663D-02
 Coeff-Com:  0.518D-02-0.353D-01-0.649D-01-0.221D+00 0.404D+00 0.904D+00
 Coeff:     -0.447D-05 0.685D-04-0.247D-04 0.430D-05-0.245D-03 0.529D-04
 Coeff:      0.234D-03 0.156D-03-0.154D-02 0.282D-02 0.104D-03 0.663D-02
 Coeff:      0.518D-02-0.353D-01-0.649D-01-0.221D+00 0.404D+00 0.904D+00
 Gap=     0.120 Goal=   None    Shift=    0.000
 Gap=     0.043 Goal=   None    Shift=    0.000
 RMSDP=2.74D-05 MaxDP=2.07D-03 DE=-2.07D-05 OVMax= 1.09D-02

 Cycle  19  Pass 1  IDiag  1:
 RMSU=  7.51D-06    CP:  8.91D-01  4.61D-03  6.51D-02  2.17D-02  4.78D-01
                    CP:  6.31D-02  5.51D-01  2.32D-01  6.47D-01  6.93D-01
                    CP:  7.11D-01  6.51D-01  1.10D+00  1.43D+00  1.78D+00
                    CP:  1.58D+00  1.81D+00  1.31D+00
 E= -2905.85021284224     Delta-E=       -0.000019093547 Rises=F Damp=F
 DIIS: error= 5.33D-05 at cycle  19 NSaved=  19.
 NSaved=19 IEnMin=19 EnMin= -2905.85021284224     IErMin=19 ErrMin= 5.33D-05
 ErrMax= 5.33D-05  0.00D+00 EMaxC= 1.00D-01 BMatC= 1.08D-05 BMatP= 1.90D-05
 IDIUse=1 WtCom= 1.00D+00 WtEn= 0.00D+00
 Coeff-Com: -0.169D-03 0.298D-03 0.330D-05 0.413D-05-0.237D-03 0.919D-05
 Coeff-Com:  0.127D-03 0.106D-03-0.519D-03 0.130D-02-0.331D-03 0.106D-01
 Coeff-Com:  0.307D-01 0.797D-02-0.102D+00-0.270D+00-0.118D+00 0.549D+00
 Coeff-Com:  0.891D+00
 Coeff:     -0.169D-03 0.298D-03 0.330D-05 0.413D-05-0.237D-03 0.919D-05
 Coeff:      0.127D-03 0.106D-03-0.519D-03 0.130D-02-0.331D-03 0.106D-01
 Coeff:      0.307D-01 0.797D-02-0.102D+00-0.270D+00-0.118D+00 0.549D+00
 Coeff:      0.891D+00
 Gap=     0.120 Goal=   None    Shift=    0.000
 Gap=     0.043 Goal=   None    Shift=    0.000
 RMSDP=2.41D-05 MaxDP=1.79D-03 DE=-1.91D-05 OVMax= 9.64D-03

 Cycle  20  Pass 1  IDiag  1:
 RMSU=  4.08D-06    CP:  8.91D-01  4.62D-03  6.51D-02  2.17D-02  4.78D-01
                    CP:  6.31D-02  5.52D-01  2.32D-01  6.47D-01  6.93D-01
                    CP:  7.10D-01  6.51D-01  1.13D+00  1.52D+00  1.94D+00
                    CP:  1.84D+00  2.29D+00  1.95D+00  1.40D+00
 E= -2905.85022321746     Delta-E=       -0.000010375221 Rises=F Damp=F
 DIIS: error= 3.16D-05 at cycle  20 NSaved=  20.
 NSaved=20 IEnMin=20 EnMin= -2905.85022321746     IErMin=20 ErrMin= 3.16D-05
 ErrMax= 3.16D-05  0.00D+00 EMaxC= 1.00D-01 BMatC= 3.63D-06 BMatP= 1.08D-05
 IDIUse=1 WtCom= 1.00D+00 WtEn= 0.00D+00
 Coeff-Com: -0.163D-03 0.284D-03 0.912D-06 0.396D-05-0.171D-03 0.490D-05
 Coeff-Com:  0.520D-04 0.590D-04 0.607D-04 0.334D-03-0.157D-03 0.503D-02
 Coeff-Com:  0.170D-01 0.124D-01-0.401D-01-0.149D+00-0.237D+00 0.137D+00
 Coeff-Com:  0.577D+00 0.678D+00
 Coeff:     -0.163D-03 0.284D-03 0.912D-06 0.396D-05-0.171D-03 0.490D-05
 Coeff:      0.520D-04 0.590D-04 0.607D-04 0.334D-03-0.157D-03 0.503D-02
 Coeff:      0.170D-01 0.124D-01-0.401D-01-0.149D+00-0.237D+00 0.137D+00
 Coeff:      0.577D+00 0.678D+00
 Gap=     0.121 Goal=   None    Shift=    0.000
 Gap=     0.043 Goal=   None    Shift=    0.000
 RMSDP=1.47D-05 MaxDP=1.03D-03 DE=-1.04D-05 OVMax= 5.50D-03

 Cycle  21  Pass 1  IDiag  1:
 Restarting incremental Fock formation.
 E= -2905.85022676747     Delta-E=       -0.000003550003 Rises=F Damp=F
 DIIS: error= 4.75D-05 at cycle  21 NSaved=  20.
 NSaved=20 IEnMin=20 EnMin= -2905.85022676747     IErMin=19 ErrMin= 3.16D-05
 ErrMax= 4.75D-05  0.00D+00 EMaxC= 1.00D-01 BMatC= 1.34D-06 BMatP= 3.63D-06
 IDIUse=1 WtCom= 1.00D+00 WtEn= 0.00D+00
 Coeff-Com: -0.654D-04 0.117D-03-0.564D-05-0.413D-04-0.581D-05-0.403D-04
 Coeff-Com:  0.313D-04 0.200D-03-0.889D-04 0.156D-02-0.194D-02-0.918D-02
 Coeff-Com: -0.556D-02 0.356D-01 0.285D-01-0.233D-01-0.974D-01-0.208D+00
 Coeff-Com:  0.204D+00 0.108D+01
 Coeff:     -0.654D-04 0.117D-03-0.564D-05-0.413D-04-0.581D-05-0.403D-04
 Coeff:      0.313D-04 0.200D-03-0.889D-04 0.156D-02-0.194D-02-0.918D-02
 Coeff:     -0.556D-02 0.356D-01 0.285D-01-0.233D-01-0.974D-01-0.208D+00
 Coeff:      0.204D+00 0.108D+01
 Gap=     0.121 Goal=   None    Shift=    0.000
 Gap=     0.043 Goal=   None    Shift=    0.000
 RMSDP=8.98D-06 MaxDP=6.21D-04 DE=-3.55D-06 OVMax= 3.43D-03

 Cycle  22  Pass 1  IDiag  1:
 RMSU=  8.98D-06    CP:  1.00D+00
 E= -2905.85022805265     Delta-E=       -0.000001285181 Rises=F Damp=F
 DIIS: error= 2.85D-05 at cycle  22 NSaved=  20.
 NSaved=20 IEnMin=20 EnMin= -2905.85022805265     IErMin=20 ErrMin= 2.85D-05
 ErrMax= 2.85D-05  0.00D+00 EMaxC= 1.00D-01 BMatC= 5.30D-07 BMatP= 1.34D-06
 IDIUse=1 WtCom= 1.00D+00 WtEn= 0.00D+00
 Coeff-Com:  0.225D-04-0.408D-04-0.147D-05 0.121D-04-0.410D-04 0.941D-05
 Coeff-Com:  0.165D-03-0.346D-04 0.108D-02-0.270D-02-0.108D-01-0.959D-02
 Coeff-Com:  0.322D-01 0.517D-01 0.875D-01-0.489D-01-0.307D+00-0.170D+00
 Coeff-Com:  0.630D+00 0.745D+00
 Coeff:      0.225D-04-0.408D-04-0.147D-05 0.121D-04-0.410D-04 0.941D-05
 Coeff:      0.165D-03-0.346D-04 0.108D-02-0.270D-02-0.108D-01-0.959D-02
 Coeff:      0.322D-01 0.517D-01 0.875D-01-0.489D-01-0.307D+00-0.170D+00
 Coeff:      0.630D+00 0.745D+00
 Gap=     0.121 Goal=   None    Shift=    0.000
 Gap=     0.043 Goal=   None    Shift=    0.000
 RMSDP=2.68D-06 MaxDP=1.79D-04 DE=-1.29D-06 OVMax= 8.68D-04

 Cycle  23  Pass 1  IDiag  1:
 RMSU=  1.76D-06    CP:  1.00D+00  1.23D+00
 E= -2905.85022839335     Delta-E=       -0.000000340699 Rises=F Damp=F
 DIIS: error= 1.03D-05 at cycle  23 NSaved=  20.
 NSaved=20 IEnMin=20 EnMin= -2905.85022839335     IErMin=20 ErrMin= 1.03D-05
 ErrMax= 1.03D-05  0.00D+00 EMaxC= 1.00D-01 BMatC= 1.30D-07 BMatP= 5.30D-07
 IDIUse=1 WtCom= 1.00D+00 WtEn= 0.00D+00
 Coeff-Com:  0.218D-04-0.409D-04 0.739D-05-0.187D-04 0.760D-05 0.222D-04
 Coeff-Com:  0.685D-04 0.461D-03-0.649D-03-0.308D-02-0.387D-02 0.886D-02
 Coeff-Com:  0.285D-01 0.468D-01-0.285D-01-0.111D+00-0.135D+00 0.497D-01
 Coeff-Com:  0.385D+00 0.763D+00
 Coeff:      0.218D-04-0.409D-04 0.739D-05-0.187D-04 0.760D-05 0.222D-04
 Coeff:      0.685D-04 0.461D-03-0.649D-03-0.308D-02-0.387D-02 0.886D-02
 Coeff:      0.285D-01 0.468D-01-0.285D-01-0.111D+00-0.135D+00 0.497D-01
 Coeff:      0.385D+00 0.763D+00
 Gap=     0.121 Goal=   None    Shift=    0.000
 Gap=     0.043 Goal=   None    Shift=    0.000
 RMSDP=2.31D-06 MaxDP=1.48D-04 DE=-3.41D-07 OVMax= 8.57D-04

 Cycle  24  Pass 1  IDiag  1:
 RMSU=  7.39D-07    CP:  1.00D+00  1.46D+00  1.24D+00
 E= -2905.85022853482     Delta-E=       -0.000000141475 Rises=F Damp=F
 DIIS: error= 1.12D-05 at cycle  24 NSaved=  20.
 NSaved=20 IEnMin=20 EnMin= -2905.85022853482     IErMin=19 ErrMin= 1.03D-05
 ErrMax= 1.12D-05  0.00D+00 EMaxC= 1.00D-01 BMatC= 7.59D-08 BMatP= 1.30D-07
 IDIUse=1 WtCom= 1.00D+00 WtEn= 0.00D+00
 Coeff-Com: -0.351D-06-0.511D-05 0.101D-05 0.338D-05-0.296D-04 0.497D-04
 Coeff-Com: -0.778D-04 0.304D-03 0.108D-02 0.338D-03-0.187D-02 0.641D-02
 Coeff-Com:  0.499D-02-0.150D-01-0.749D-03-0.397D-01-0.105D+00 0.514D-01
 Coeff-Com:  0.387D+00 0.711D+00
 Coeff:     -0.351D-06-0.511D-05 0.101D-05 0.338D-05-0.296D-04 0.497D-04
 Coeff:     -0.778D-04 0.304D-03 0.108D-02 0.338D-03-0.187D-02 0.641D-02
 Coeff:      0.499D-02-0.150D-01-0.749D-03-0.397D-01-0.105D+00 0.514D-01
 Coeff:      0.387D+00 0.711D+00
 Gap=     0.121 Goal=   None    Shift=    0.000
 Gap=     0.043 Goal=   None    Shift=    0.000
 RMSDP=1.52D-06 MaxDP=8.69D-05 DE=-1.41D-07 OVMax= 5.55D-04

 Cycle  25  Pass 1  IDiag  1:
 RMSU=  4.55D-07    CP:  1.00D+00  1.62D+00  1.38D+00  1.16D+00
 E= -2905.85022859217     Delta-E=       -0.000000057350 Rises=F Damp=F
 DIIS: error= 1.81D-06 at cycle  25 NSaved=  20.
 NSaved=20 IEnMin=20 EnMin= -2905.85022859217     IErMin=20 ErrMin= 1.81D-06
 ErrMax= 1.81D-06  0.00D+00 EMaxC= 1.00D-01 BMatC= 1.21D-08 BMatP= 7.59D-08
 IDIUse=1 WtCom= 1.00D+00 WtEn= 0.00D+00
 Coeff-Com: -0.504D-05 0.902D-05-0.560D-05-0.204D-04 0.178D-05-0.278D-03
 Coeff-Com:  0.106D-03 0.583D-03 0.715D-03-0.141D-02-0.465D-02-0.871D-02
 Coeff-Com:  0.284D-02 0.245D-01 0.134D-01-0.550D-01-0.843D-01-0.133D+00
 Coeff-Com:  0.276D+00 0.969D+00
 Coeff:     -0.504D-05 0.902D-05-0.560D-05-0.204D-04 0.178D-05-0.278D-03
 Coeff:      0.106D-03 0.583D-03 0.715D-03-0.141D-02-0.465D-02-0.871D-02
 Coeff:      0.284D-02 0.245D-01 0.134D-01-0.550D-01-0.843D-01-0.133D+00
 Coeff:      0.276D+00 0.969D+00
 Gap=     0.121 Goal=   None    Shift=    0.000
 Gap=     0.043 Goal=   None    Shift=    0.000
 RMSDP=1.05D-06 MaxDP=5.73D-05 DE=-5.74D-08 OVMax= 3.52D-04

 Cycle  26  Pass 1  IDiag  1:
 RMSU=  3.49D-07    CP:  1.00D+00  1.73D+00  1.49D+00  1.46D+00  1.48D+00
 E= -2905.85022861338     Delta-E=       -0.000000021210 Rises=F Damp=F
 DIIS: error= 1.87D-06 at cycle  26 NSaved=  20.
 NSaved=20 IEnMin=20 EnMin= -2905.85022861338     IErMin=19 ErrMin= 1.81D-06
 ErrMax= 1.87D-06  0.00D+00 EMaxC= 1.00D-01 BMatC= 7.06D-09 BMatP= 1.21D-08
 IDIUse=1 WtCom= 1.00D+00 WtEn= 0.00D+00
 Coeff-Com:  0.834D-05-0.451D-05-0.508D-06-0.367D-04-0.185D-03 0.127D-03
 Coeff-Com:  0.413D-03 0.626D-03-0.139D-02-0.100D-01-0.983D-02 0.172D-01
 Coeff-Com:  0.344D-01 0.302D-01-0.819D-02-0.929D-01-0.264D+00-0.141D+00
 Coeff-Com:  0.629D+00 0.815D+00
 Coeff:      0.834D-05-0.451D-05-0.508D-06-0.367D-04-0.185D-03 0.127D-03
 Coeff:      0.413D-03 0.626D-03-0.139D-02-0.100D-01-0.983D-02 0.172D-01
 Coeff:      0.344D-01 0.302D-01-0.819D-02-0.929D-01-0.264D+00-0.141D+00
 Coeff:      0.629D+00 0.815D+00
 Gap=     0.121 Goal=   None    Shift=    0.000
 Gap=     0.043 Goal=   None    Shift=    0.000
 RMSDP=4.37D-07 MaxDP=3.39D-05 DE=-2.12D-08 OVMax= 8.89D-05

 Cycle  27  Pass 1  IDiag  1:
 RMSU=  2.24D-07    CP:  1.00D+00  1.72D+00  1.61D+00  1.73D+00  1.86D+00
                    CP:  1.43D+00
 E= -2905.85022862083     Delta-E=       -0.000000007447 Rises=F Damp=F
 DIIS: error= 1.11D-06 at cycle  27 NSaved=  20.
 NSaved=20 IEnMin=20 EnMin= -2905.85022862083     IErMin=20 ErrMin= 1.11D-06
 ErrMax= 1.11D-06  0.00D+00 EMaxC= 1.00D-01 BMatC= 1.86D-09 BMatP= 7.06D-09
 IDIUse=1 WtCom= 1.00D+00 WtEn= 0.00D+00
 Coeff-Com:  0.242D-05 0.168D-05-0.246D-04-0.441D-04 0.981D-04 0.143D-03
 Coeff-Com:  0.237D-03-0.683D-03-0.505D-02-0.462D-02 0.928D-02 0.187D-01
 Coeff-Com:  0.125D-01-0.266D-03-0.346D-01-0.939D-01-0.126D+00 0.868D-01
 Coeff-Com:  0.441D+00 0.696D+00
 Coeff:      0.242D-05 0.168D-05-0.246D-04-0.441D-04 0.981D-04 0.143D-03
 Coeff:      0.237D-03-0.683D-03-0.505D-02-0.462D-02 0.928D-02 0.187D-01
 Coeff:      0.125D-01-0.266D-03-0.346D-01-0.939D-01-0.126D+00 0.868D-01
 Coeff:      0.441D+00 0.696D+00
 Gap=     0.121 Goal=   None    Shift=    0.000
 Gap=     0.043 Goal=   None    Shift=    0.000
 RMSDP=1.68D-07 MaxDP=1.31D-05 DE=-7.45D-09 OVMax= 3.59D-05

 Cycle  28  Pass 1  IDiag  1:
 RMSU=  1.02D-07    CP:  1.00D+00  1.72D+00  1.65D+00  1.82D+00  1.93D+00
                    CP:  1.65D+00  1.24D+00
 E= -2905.85022862192     Delta-E=       -0.000000001090 Rises=F Damp=F
 DIIS: error= 5.29D-07 at cycle  28 NSaved=  20.
 NSaved=20 IEnMin=20 EnMin= -2905.85022862192     IErMin=20 ErrMin= 5.29D-07
 ErrMax= 5.29D-07  0.00D+00 EMaxC= 1.00D-01 BMatC= 9.88D-10 BMatP= 1.86D-09
 IDIUse=1 WtCom= 1.00D+00 WtEn= 0.00D+00
 Coeff-Com:  0.118D-05 0.586D-06 0.175D-04 0.331D-04-0.553D-04-0.101D-04
 Coeff-Com: -0.213D-03-0.885D-03-0.476D-03 0.117D-02 0.111D-02-0.175D-02
 Coeff-Com:  0.416D-02 0.826D-05-0.497D-02-0.561D-01-0.766D-01 0.105D+00
 Coeff-Com:  0.399D+00 0.631D+00
 Coeff:      0.118D-05 0.586D-06 0.175D-04 0.331D-04-0.553D-04-0.101D-04
 Coeff:     -0.213D-03-0.885D-03-0.476D-03 0.117D-02 0.111D-02-0.175D-02
 Coeff:      0.416D-02 0.826D-05-0.497D-02-0.561D-01-0.766D-01 0.105D+00
 Coeff:      0.399D+00 0.631D+00
 Gap=     0.121 Goal=   None    Shift=    0.000
 Gap=     0.043 Goal=   None    Shift=    0.000
 RMSDP=2.71D-07 MaxDP=2.00D-05 DE=-1.09D-09 OVMax= 1.02D-04

 Cycle  29  Pass 1  IDiag  1:
 RMSU=  7.18D-08    CP:  1.00D+00  1.75D+00  1.65D+00  1.82D+00  2.03D+00
                    CP:  1.75D+00  1.25D+00  1.02D+00
 E= -2905.85022862251     Delta-E=       -0.000000000595 Rises=F Damp=F
 DIIS: error= 7.22D-07 at cycle  29 NSaved=  20.
 NSaved=20 IEnMin=20 EnMin= -2905.85022862251     IErMin=19 ErrMin= 5.29D-07
 ErrMax= 7.22D-07  0.00D+00 EMaxC= 1.00D-01 BMatC= 2.78D-10 BMatP= 9.88D-10
 IDIUse=1 WtCom= 1.00D+00 WtEn= 0.00D+00
 Coeff-Com:  0.764D-05 0.746D-05-0.209D-04-0.124D-03-0.112D-03 0.318D-03
 Coeff-Com:  0.896D-03 0.117D-02-0.119D-02-0.385D-02-0.400D-02 0.315D-02
 Coeff-Com:  0.916D-02 0.190D-01-0.304D-02-0.608D-01-0.397D-01 0.410D-01
 Coeff-Com:  0.277D+00 0.761D+00
 Coeff:      0.764D-05 0.746D-05-0.209D-04-0.124D-03-0.112D-03 0.318D-03
 Coeff:      0.896D-03 0.117D-02-0.119D-02-0.385D-02-0.400D-02 0.315D-02
 Coeff:      0.916D-02 0.190D-01-0.304D-02-0.608D-01-0.397D-01 0.410D-01
 Coeff:      0.277D+00 0.761D+00
 Gap=     0.121 Goal=   None    Shift=    0.000
 Gap=     0.043 Goal=   None    Shift=    0.000
 RMSDP=4.54D-08 MaxDP=2.49D-06 DE=-5.95D-10 OVMax= 8.63D-06

 Cycle  30  Pass 1  IDiag  1:
 RMSU=  3.39D-08    CP:  1.00D+00  1.75D+00  1.65D+00  1.83D+00  2.05D+00
[...]
 3,-0.00000713,-0.00001458,0.00001985,0.00001253,0.00001994,0.00001258,
 -0.00005305,-0.00000894,0.00003767,0.00025347,-0.00002264,-0.00001265,
 0.00073926,-0.00000962,-0.00047990,-0.00007526,-0.00009939,-0.00003368
 ,-0.00005495,0.00012478,-0.00026085,-0.00025234,0.00007946,-0.00007230
 ,0.00000501,-0.00000111,0.00000245,-0.00000190,-0.00000863,0.00000989,
 0.00000500,0.00000223,-0.00000569,-0.00000403,0.00001035,0.00000173,0.
 00012423,-0.00029636,0.00033606,-0.00051801,0.00019524,-0.00086091,-0.
 00498208,0.00251944,0.00027557,-0.00488505,-0.00449376,0.02910688,-0.0
 8899486,-0.00658411,0.08852719,0.01042810,0.00274214,-0.01979345,-0.00
 204075,0.00314243,-0.00223524,-0.00009297,0.00003461,0.00002253,-0.000
 07600,-0.00004864,-0.00006241,-0.00000050,-0.00000088,0.00000241,-0.00
 000099,0.00000235,-0.00000126,0.00000408,-0.00000419,-0.00000001,-0.00
 000074,-0.00000114,-0.00000293,0.00000813,-0.00000125,0.00000032,-0.00
 000029,-0.00000027,0.00000053,0.00000569,0.00000005,0.00000168,-0.0000
 0521,0.00000098,0.00000178,0.00000441,0.00000023,-0.00000189,0.0000014
 4,-0.00000279,-0.00000202,-0.00000021,0.00000050,-0.00000311,-0.000002
 25,-0.00000397,-0.00000719,0.00000811,0.00001760,-0.00001297,-0.000004
 71,-0.00000314,0.00000902,0.00000468,0.00000049,-0.00000841,0.00000064
 ,-0.00000100,0.00000294,0.00000008,0.00000067,-0.00000074,-0.00000033,
 -0.00000169,-0.00000006,0.00000445,-0.00000034,-0.00000117,0.00000069,
 -0.00000186,-0.00000016,0.00000331,-0.00000241,0.,0.00003455,0.0000248
 5,-0.00006362,-0.00039610,-0.00018404,0.00134588,0.00110732,-0.0008563
 2,-0.00079768,0.08897807,0.00000169,0.00001919,-0.00000280,0.00001682,
 -0.00000962,0.00001238,-0.00000237,-0.00000611,-0.00000560,-0.00001080
 ,0.00001714,-0.00000140,-0.00004885,-0.00000653,-0.00001734,0.00000983
 ,0.00008206,-0.00001629,0.00007797,-0.00004920,0.00001047,0.00000249,0
 .00002112,-0.00000882,0.00000679,-0.00000939,0.00000131,0.00000656,0.0
 0000798,0.00000831,-0.00004500,0.00003926,0.00000005,-0.00005710,-0.00
 005412,-0.00003736,0.00019857,0.00017883,0.00004772,-0.00026849,0.0001
 6867,0.00020944,-0.00015805,-0.00059287,0.00014189,-0.00000297,-0.0000
 0125,-0.00003827,0.00009841,0.00005395,0.00001425,0.00002296,0.0000211
 6,0.00001496,-0.00001266,0.00000084,-0.00000863,0.00000318,-0.00000054
 ,-0.00000370,0.00000212,0.00000814,0.00000647,-0.00015442,-0.00062125,
 -0.00026137,0.00016022,-0.00065664,-0.00002086,0.00231258,0.00445255,0
 .00080652,0.00209464,0.00392971,-0.00609227,-0.00635832,-0.04371550,0.
 03586730,-0.00389399,0.00293792,0.00948200,0.00315288,0.00723853,0.002
 69599,-0.00003398,0.00006170,0.00004672,-0.00009912,-0.00008192,-0.000
 06126,-0.00000036,-0.00000103,0.00000094,-0.00000206,0.00000189,-0.000
 00015,0.00000377,-0.00000399,0.00000087,-0.00000125,-0.00000053,-0.000
 00120,0.00000641,-0.00000106,0.00000060,-0.00000028,0.00000024,-0.0000
 0079,0.00000621,-0.00000076,0.00000263,-0.00000629,-0.00000204,0.00000
 559,0.00000599,0.00000058,0.00000062,0.00000512,-0.00000206,0.00000182
 ,0.00000030,0.00000129,-0.00000077,-0.00000809,-0.00001163,-0.00000645
 ,0.00000031,-0.00000158,-0.00002104,-0.00001781,-0.00000479,0.00000565
 ,0.00000246,0.00000401,0.00000026,-0.00000050,0.00000048,0.00000002,0.
 00000086,-0.00000018,0.00000044,-0.00000128,-0.00000259,0.00000167,-0.
 00000044,-0.00000012,-0.00000206,-0.00000039,-0.00000535,0.00000052,0.
 00000568,0.00000387,0.00000125,-0.00001292,0.00004740,0.00003490,0.000
 17777,0.00028691,-0.00024747,-0.00107768,-0.00260811,-0.00060172,0.005
 20889,0.03338665,0.00000010,-0.00005999,0.00001485,-0.00007802,0.00001
 434,-0.00005008,0.00001726,0.00003045,0.00002528,0.00002645,-0.0000365
 6,-0.00000355,0.00010197,-0.00003121,0.00000687,-0.00006120,-0.0001674
 6,0.00004512,-0.00004167,0.00012788,-0.00005295,0.00002173,-0.00014012
 ,0.00003620,-0.00012376,0.00002323,0.00001972,0.00004484,0.00005031,0.
 00001717,-0.00004391,-0.00005964,0.00004024,0.00012796,0.00010570,-0.0
 0003858,-0.00024078,0.00019300,0.00003753,0.00069495,-0.00001546,-0.00
 024704,-0.00025798,-0.00010977,-0.00053066,0.00010834,-0.00000048,0.00
 016101,0.00007093,0.00007560,-0.00001889,0.00000274,-0.00001217,0.0000
 2713,0.00002693,0.00001891,-0.00002642,-0.00001327,-0.00000482,0.00001
 773,-0.00000438,-0.00000733,0.00001054,0.00002765,-0.00014696,-0.00009
 403,-0.00043760,-0.00015889,0.00061669,0.00151482,0.00042843,0.0014466
 5,-0.00085298,0.00145390,-0.00246810,0.08815697,0.03598591,-0.29845151
 ,0.00973813,0.00220251,-0.01695031,-0.00330651,0.00283920,-0.00044475,
 0.00012384,-0.00014395,-0.00009594,0.00020808,0.00018858,0.00013528,0.
 00000194,0.00000207,-0.00000534,0.00000483,-0.00000799,0.00000196,-0.0
 0001271,0.00001299,-0.00000101,0.00000330,0.00000232,0.00000692,-0.000
 02529,0.00000384,-0.00000320,0.00000093,0.00000084,-0.00000060,-0.0000
 2199,0.00000440,-0.00000898,0.00002039,-0.00000800,-0.00000507,-0.0000
 1817,-0.00000234,0.00000207,-0.00001179,0.00000108,-0.00000132,-0.0000
 1036,-0.00000892,-0.00000572,-0.00000685,-0.00003681,-0.00001534,0.000
 01904,0.00001343,-0.00002797,0.00000283,0.00000716,-0.00000970,0.00000
 505,0.00000123,-0.00000159,-0.00000160,0.00000224,-0.00000783,0.000001
 93,-0.00000376,-0.00000149,0.00000080,0.00000465,-0.00000119,-0.000005
 02,-0.00000162,0.00000564,0.00000349,0.00000390,-0.00000441,-0.0000121
 9,0.00000177,-0.00000521,0.00001655,0.00000033,-0.00000812,-0.00005702
 ,0.00012365,-0.00022170,0.00014336,-0.00081815,0.00051767,-0.09520121,
 -0.04064773,0.31587124,0.00000011,0.00002363,-0.00000460,0.00003596,-0
 .00000410,0.00002853,-0.00000293,-0.00001566,-0.00000898,-0.00001346,0
 .00001830,-0.00001585,-0.00016498,0.00000180,0.00006779,0.00000002,0.0
 0023399,-0.00007175,0.00039425,-0.00017573,-0.00002808,-0.00010351,-0.
 00002863,0.00003906,-0.00005701,0.00006968,0.00000372,0.00011609,0.000
 12003,-0.00010137,-0.00047926,-0.00034489,-0.00072707,-0.00119608,-0.0
 0031997,-0.00161420,-0.00010026,0.00013183,-0.00101366,-0.00039307,-0.
 00017695,-0.00130823,-0.00022399,-0.00009577,0.00040727,0.00002101,0.0
 0002967,-0.00019890,0.00007219,-0.00006685,0.00003115,0.00002383,0.000
 02971,-0.00003576,-0.00000152,-0.00002197,0.00002386,0.00000293,-0.000
 00528,-0.00001635,-0.00002534,0.00002019,-0.00000672,-0.00042635,0.000
 22379,-0.00021230,0.00133257,0.00052604,0.00181740,0.00071389,-0.00029
 112,-0.00016135,0.00029006,0.00256616,-0.00303033,-0.01366742,0.003314
 01,0.00655149,-0.31405767,0.05634093,0.06288206,-0.00607949,0.00207723
 ,0.00121644,0.00005423,-0.00003958,-0.00007771,-0.00016672,-0.00018374
 ,-0.00000725,-0.00000022,-0.00000155,0.00000267,-0.00000293,0.00000419
 ,-0.00000060,0.00000396,-0.00000390,0.00000064,-0.00000029,0.00000011,
 -0.00000332,0.00001008,0.00000064,0.00000199,0.00000078,-0.00000140,0.
 00000081,0.00000908,-0.00000454,0.00000466,-0.00000876,0.00000209,0.00
 000630,0.00001031,0.00000104,0.00000065,0.00000509,0.00000298,0.000009
 67,-0.00000267,0.00000717,0.00001227,0.00000243,0.00001193,-0.00000096
 ,-0.00018490,0.00004989,0.00007883,-0.00001236,-0.00001239,0.00002773,
 0.00000062,-0.00000870,0.00000502,0.00000284,-0.00000063,0.00000585,0.
 00000156,0.00000109,-0.00000092,-0.00000268,-0.00000399,0.00000348,0.0
 0001408,-0.00000342,0.00000660,0.00000146,-0.00000597,0.00000519,0.000
 00483,0.00000511,0.00000309,-0.00003547,-0.00000325,0.00012018,-0.0001
 4192,-0.00021287,-0.00001777,-0.00065772,0.00010101,0.00031499,0.00066
 170,-0.00132610,-0.00037662,0.33443653,0.00000185,-0.00001620,0.000009
 76,-0.00003319,-0.00001558,0.00001454,0.00001120,0.00001572,0.00001275
 ,0.00000676,0.00002209,-0.00004352,0.00007259,-0.00009325,-0.00001360,
 0.00001415,0.00000536,0.00005566,-0.00010293,0.00005845,0.00000038,0.0
 0010203,-0.00009712,-0.00003373,-0.00012608,-0.00001911,0.00000626,-0.
 00000382,-0.00011052,0.00010453,-0.00039493,-0.00016652,-0.00017946,0.
 00016919,0.00030405,-0.00000371,0.00021620,-0.00003586,0.00058003,-0.0
 0022757,-0.00215278,-0.00048664,-0.00023442,-0.00030585,-0.00014111,0.
 00008306,0.00005200,0.00009985,0.00009127,-0.00013963,0.00000040,0.000
 01165,0.00004002,0.00001963,0.00001567,-0.00000339,-0.00002315,-0.0000
 0793,-0.00000248,0.00000800,-0.00001872,0.00000912,-0.00000120,-0.0002
 0127,0.00009053,-0.00011679,0.00098305,0.00406990,0.00190012,-0.000381
 76,-0.00036435,-0.00031249,0.00196736,0.00673868,0.00337233,0.01010971
 ,0.00255968,-0.00240202,0.05558628,-0.04872851,-0.00853023,-0.00400755
 ,0.00423091,0.00108508,0.00026414,0.00029629,0.00014315,-0.00020454,-0
 .00027826,0.00004634,0.00000099,-0.00000231,0.00000098,-0.00000019,-0.
 00000213,-0.00000057,-0.00000593,0.00000604,0.00000038,0.00000276,0.00
 000262,-0.00000581,-0.00001154,0.00000432,-0.00000144,0.00000096,-0.00
 000265,0.00000305,-0.00000499,-0.00000162,0.00000500,0.00000203,-0.000
 01380,0.00001555,0.00000655,-0.00001751,-0.00000585,0.00000663,-0.0000
 0486,0.00001754,0.00002005,-0.00000310,-0.00000721,-0.00000907,-0.0000
 2664,-0.00002300,0.00012104,-0.00018313,-0.00025811,-0.00000009,-0.000
 00314,0.00000462,0.00000551,-0.00000365,0.00000291,-0.00000034,0.00000
 125,-0.00000413,0.00000306,-0.00000251,-0.00000168,-0.00000058,0.00000
 051,-0.00000011,0.00000919,-0.00000390,0.00000535,0.00000233,-0.000001
 84,0.00000373,0.00000144,0.00000464,0.00000073,-0.00000487,0.00016981,
 0.00008730,-0.00022142,-0.00096044,-0.00025737,0.00044760,0.00017695,-
 0.00006709,-0.00150407,-0.00453445,-0.00126789,-0.06258407,0.03934439,
 0.00002248,-0.00002379,0.00001102,-0.00009803,-0.00006293,-0.00008304,
 -0.00001550,0.00004224,0.00001562,0.00003884,-0.00001076,0.00001707,0.
 00015955,-0.00001468,-0.00001643,0.00007900,-0.00050562,0.00004460,-0.
 00027984,0.00026242,-0.00001834,0.00007332,-0.00029576,0.00003913,-0.0
 0018982,0.00005265,-0.00002538,0.00003152,0.00013063,0.00004070,-0.000
 35404,-0.00033008,-0.00012034,-0.00076433,-0.00032684,-0.00086492,-0.0
 0120531,0.00110041,-0.00033884,0.00004326,-0.00099285,0.00148035,-0.00
 003480,-0.00013575,-0.00088708,0.00024094,-0.00014596,0.00105517,0.000
 67330,-0.00005997,0.00009252,0.00001950,0.00000738,0.00001456,-0.00003
 537,0.00003358,-0.00001023,0.00001200,0.00000133,-0.00002651,0.0000621
 4,-0.00005402,0.00004842,0.00146991,-0.00011794,-0.00042360,0.00033923
 ,0.00180411,-0.00437521,-0.00026463,0.00025827,-0.00147290,-0.00222709
 ,0.00283412,-0.00228778,-0.02289890,0.00493604,0.00892515,0.06151453,-
 0.00820564,-0.07142251,0.02834738,-0.00564827,-0.00205679,0.00043128,0
 .00010962,-0.00036670,0.00029811,0.00007223,0.00030865,-0.00000491,0.0
 0000482,-0.00001114,0.00000207,-0.00000693,0.00000633,0.00000396,-0.00
 000479,0.00000049,-0.00000661,-0.00000493,0.00000345,-0.00001577,-0.00
 000905,-0.00000767,-0.00001141,0.00000384,-0.00000467,-0.00000999,-0.0
 0000663,-0.00001085,0.00002485,-0.00002699,0.00001135,0.00000105,-0.00
 001299,0.00003301,0.00001462,0.00000600,0.00001710,0.00002400,0.000007
 89,0.00000351,0.00001580,0.00000854,-0.00000523,0.00003939,-0.00020361
 ,-0.00015979,0.00003032,0.00000787,-0.00005706,-0.00003275,0.00000772,
 0.00001386,0.00000204,0.00000165,0.00000333,-0.00000267,0.00000339,0.0
 0000354,-0.00000452,-0.00000679,0.00000282,-0.00004930,0.00001215,-0.0
 0003345,-0.00002770,-0.00000716,-0.00000772,-0.00000191,0.00002555,0.0
 0001385,0.00014997,0.00009629,-0.00041267,-0.00001854,-0.00022093,0.00
 003331,-0.00103672,0.00023208,0.00023061,0.00015672,-0.00135541,0.0008
 2115,-0.06465831,0.00669423,0.07237347,0.00183481,0.00514890,-0.002420
 55,-0.03337881,0.01417914,-0.00074316,-0.01032628,0.00019537,-0.004047
 30,-0.00678152,0.00223314,0.00857830,-0.00313094,-0.00059962,0.0021112
 4,-0.00071772,-0.00112367,-0.00038882,-0.00105186,0.00026860,0.0000987
 1,0.00011502,0.00018721,-0.00005841,-0.00032460,-0.00029607,0.00007774
 ,0.00001125,0.00019495,-0.00018283,0.00007906,-0.00056211,0.00024057,0
 .00183050,0.00155380,-0.00072164,-0.00360806,-0.00124473,-0.00048167,0
 .00083848,-0.00034305,0.00913340,-0.01928067,0.01571062,-0.01966905,-0
 .03197643,0.04659372,0.01226946,0.00577001,-0.00116831,0.00031333,-0.0
 0007191,0.00077749,-0.00076342,0.00213077,-0.00099557,0.00012007,-0.00
 048504,-0.00063435,0.00062168,-0.00340513,0.00153230,-0.00135726,-0.00
 100393,0.00116446,-0.00420614,0.00102810,-0.00104760,0.00315492,-0.000
 57459,0.00085078,-0.00339161,-0.00149487,-0.00004951,0.00177290,0.0006
 5833,-0.00028283,0.00071154,-0.00042962,-0.00016727,0.00029993,-0.0018
 1071,0.00132200,-0.00123705,0.00913806,0.00208267,0.00213955,-0.005768
 12,-0.00263540,-0.00215605,0.00013388,-0.00028785,0.00061390,0.0000223
 5,-0.00083718,-0.00025275,0.00018361,-0.00199477,0.00065100,-0.0010198
 6,0.00037937,0.00016407,-0.00003499,-0.00005110,0.00003948,-0.00022009
 ,0.00041625,0.00025471,0.00072410,-0.00009533,-0.00066733,0.00049380,-
 0.00011922,-0.00042969,-0.00011230,-0.00008279,-0.00005687,-0.00005985
 ,-0.00001668,0.00003971,0.00001605,0.00002808,0.00003847,-0.00000978,-
 0.00001706,-0.00000291,-0.00001804,0.00000467,0.00004058,-0.00032011,-
 0.00001843,0.00052618,0.00022599,-0.00022025,0.00013380,-0.00003745,0.
 00010871,-0.00020123,0.00018430,-0.00013855,-0.00018279,-0.00002446,0.
 00008201,0.00005427,0.00085707,-0.00105794,0.00224700,0.00098434,-0.00
 010803,0.00010824,-0.00127721,0.00014861,-0.00089808,-0.00002570,0.000
 09070,-0.00000995,-0.00004598,0.00001971,-0.00002156,-0.00002881,-0.00
 000605,0.00001067,0.00005260,0.00001010,-0.00001522,-0.00001350,-0.000
 04441,-0.00007233,0.10155645,0.00641843,-0.00701425,0.00086776,0.02054
 805,-0.02470373,0.00072742,-0.00031345,0.00301638,0.00179895,0.0031468
 2,0.00048466,-0.00392040,-0.00154387,0.00053822,-0.00018656,0.00055949
 ,-0.00007141,0.00028682,0.00054902,0.00007776,-0.00017459,-0.00020661,
 -0.00072556,0.00009689,-0.00028106,0.00044659,-0.00004198,0.00025642,0
 .00015617,0.00003798,-0.00025717,0.00000175,-0.00017901,-0.00071115,-0
 .00082609,0.00001447,0.00187517,-0.00219417,0.00299961,-0.00254031,0.0
 0133414,-0.00750352,0.01808005,-0.01502229,0.02268040,0.04273685,-0.07
 079370,-0.01962175,-0.00689014,0.00191156,-0.00241892,0.00087441,0.001
 36198,-0.00025150,0.00101495,-0.00136943,0.00030815,0.00002318,-0.0003
 0192,0.00011880,-0.00154879,0.00081468,-0.00134195,-0.00012651,-0.0009
 2164,0.00371317,-0.00131390,0.00085035,-0.00246345,0.00058230,-0.00073
 089,0.00278005,0.00106074,0.00007780,-0.00152860,-0.00040993,0.0000912
 6,-0.00057516,0.00022261,0.00026730,-0.00063407,0.00258386,-0.00126241
 ,0.00133758,-0.00275242,0.00209440,0.00552435,-0.00183171,-0.00286259,
 -0.01333404,0.00039525,-0.00021844,0.00017504,0.00058780,-0.00101956,-
 0.00029498,-0.00012794,-0.00111441,0.00033504,-0.00112010,-0.00019716,
 0.00005416,-0.00103006,-0.00064459,-0.00085380,0.00001157,0.00024743,-
 0.00036307,-0.00039999,-0.00006645,0.00065005,-0.00007893,-0.00040398,
 -0.00025014,0.00011588,0.00006851,0.00005976,0.00004565,0.00001070,-0.
 00001400,0.00000648,0.00001329,-0.00001718,0.00001649,0.00001754,0.000
 01486,0.00000234,-0.00002674,-0.00001696,0.00008649,-0.00030808,-0.000
 81179,-0.00038515,-0.00014016,-0.00016654,-0.00002434,0.00009723,-0.00
 003756,0.00007665,-0.00002229,-0.00007060,-0.00007429,-0.00006016,0.00
 002422,0.00136732,-0.00018113,0.00089458,0.00006995,-0.00017021,0.0001
 9665,-0.00003845,0.00031926,0.00005541,-0.00027011,0.00013345,-0.00025
 456,-0.00000288,0.00001473,0.00002408,0.00001663,0.00003863,-0.0000252
 9,-0.00004273,0.00001315,-0.00002584,0.00002878,0.00009376,0.00004003,
 -0.07903766,0.11878075,-0.00176530,0.00074020,0.00101361,0.00582817,-0
 .00377304,-0.01386481,-0.00402783,0.00229239,0.00092947,0.00856964,-0.
 00409257,-0.00160810,-0.00378102,-0.00109552,-0.00176502,-0.00017065,0
 .00400818,-0.00106396,-0.00233741,-0.00284711,0.00089025,0.00132674,0.
 00367636,-0.00057266,0.00131318,-0.00219109,0.00024876,-0.00069084,-0.
 00078017,0.00013154,0.00035540,-0.00088002,0.00023511,0.00363766,0.001
 07059,-0.00160366,-0.00422333,-0.00721121,0.00054096,0.00127181,-0.001
 29770,0.00297070,-0.00810191,0.01070943,-0.00865559,0.00647410,-0.0164
 4360,-0.00408749,0.00266923,-0.00003498,0.00009769,0.00026081,-0.00037
 575,0.00032758,-0.00053862,0.00078211,-0.00039061,0.00020778,-0.000116
 17,-0.00005807,0.00145780,-0.00067334,0.00154960,0.00007659,0.00059369
 ,-0.00214995,0.00137906,-0.00041381,0.00146895,-0.00019093,0.00044240,
 -0.00254231,-0.00113640,0.00004962,0.00104317,0.00024032,0.00002044,0.
 00053948,-0.00092324,-0.00024995,0.00069398,-0.00166490,0.00176130,-0.
 00208326,0.02820334,0.03393240,-0.02147142,-0.02716661,-0.02858043,-0.
 04505631,-0.00042121,0.00039597,-0.00023073,0.00011385,-0.00056082,0.0
 0001544,-0.00039958,0.00088712,-0.00000011,0.00018702,0.00012741,0.000
 02346,-0.00132966,-0.00027138,-0.00048928,-0.00073982,0.00028865,-0.00
 029135,-0.00033668,-0.00025259,-0.00155174,0.00050929,-0.00093227,-0.0
 0046430,-0.00026022,-0.00027548,-0.00006130,0.00003122,0.00003279,-0.0
 0002456,0.00003296,-0.00004251,0.00001164,-0.00005406,-0.00001950,0.00
 000970,0.00000919,-0.00010212,0.00006793,-0.00003590,0.00003608,0.0001
 4271,0.00000732,-0.00000518,0.00006297,-0.00005656,-0.00000754,0.00001
 366,0.00000149,0.00000479,-0.00004451,-0.00006588,-0.00004379,0.000019
 09,-0.00083088,0.00008137,-0.00051343,-0.00014805,0.00001855,-0.000304
 17,-0.00075904,0.00022547,-0.00045383,-0.00003971,-0.00005255,0.000036
 89,-0.00006966,-0.00001997,-0.00000876,-0.00003296,-0.00002158,-0.0000
 2791,0.00004510,0.00003719,-0.00007604,0.00001956,-0.00011226,-0.00015
 728,-0.00192978,0.01156152,0.09858821\\-0.00000108,-0.00000331,0.00000
 483,0.00000990,-0.00000786,-0.00001098,0.00000070,0.00000569,0.0000048
 8,0.00000570,0.00001130,0.00000813,-0.00002161,0.00000094,0.00000016,0
 .00000197,0.00000221,-0.00000172,-0.00000359,-0.00000133,0.00000184,-0
 .00000047,0.00000928,-0.00000172,0.00000451,-0.00000776,0.00000130,-0.
 00000522,-0.00000253,0.00000037,0.00000533,0.00000303,0.00000223,0.000
 00979,0.00000484,-0.00000264,-0.00000066,-0.00001539,0.00000462,0.0000
 0186,-0.00000395,-0.00000298,0.00000129,-0.00000085,0.00002658,-0.0000
 1478,0.00000311,-0.00003912,0.00001043,-0.00000405,-0.00000241,-0.0000
 0305,0.00000121,-0.00000099,-0.00000694,0.00000172,0.00000346,-0.00000
 193,-0.00000154,-0.00000267,-0.00000455,-0.00000397,-0.00000785,-0.000
 00320,0.00000239,0.00000025,0.00000441,-0.00000206,0.00000079,-0.00000
 127,0.00000078,-0.00000146,0.00000193,-0.00000022,0.00000227,-0.000000
 14,-0.00000011,0.00000144,-0.00000080,-0.00000350,-0.00000234,-0.00000
 564,0.00000649,-0.00000457,0.00000875,-0.00000131,0.00000002,0.0000025
 0,0.00001852,0.00000604,-0.00000031,-0.00000064,-0.00000073,0.00000078
 ,-0.00000099,0.00000026,-0.00000044,0.00000078,-0.00000019,0.00000025,
 -0.00000130,0.00000195,-0.00000045,-0.00000001,-0.00000105,-0.00000010
 ,-0.00000093,-0.00000052,-0.00000310,-0.00000228,0.00000279,-0.0000044
 3,0.00000002,-0.00000304,-0.00000089,-0.00000162,0.,0.00000057,-0.0000
 0161,0.00000151,-0.00000018,0.00000096,0.00000003,0.00000010,0.0000005
 8,0.00000042,0.00000232,0.00000188,0.00000136,0.00000075,-0.00000125,-
 0.00000126,0.00000333,0.00000026,0.00000100,-0.00000064,-0.00000004,0.
 00000018,-0.00000015,-0.00000033,-0.00000051,0.00000038,0.00000066,-0.
 00000009,0.00000329,0.00000020,0.00000444,0.00000209,0.00000153,0.0000
 0107,-0.00000142,0.00000056,0.00000040,-0.00000036,-0.00000090,-0.0000
 0053,0.00000037,-0.00000018,-0.00000045,0.00000033,-0.00000005,-0.0000
 0098,0.00000063,0.00000034,-0.00000075,-0.00000279,-0.00000033,-0.0000
 0106,0.00000593,-0.00000704,0.00000798\\\@
 The archive entry for this job was punched.


 LIVE PURE, SPEAK TRUE, RIGHT WRONG, FOLLOW THE KING...
 ELSE, WHEREFORE BORN......
           IDYLLS OF THE KING, TENNYSON
 Job cpu time:       0 days 11 hours 21 minutes 41.0 seconds.
 Elapsed time:       0 days  0 hours 21 minutes 23.6 seconds.
 File lengths (MBytes):  RWF=   3400 Int=      0 D2E=      0 Chk=     30 Scr=      1
 Normal termination of Gaussian 16 at Thu May 16 19:19:30 2024.
