 Entering Gaussian System, Link 0=g16
 Initial command:
 /public/software/apps/Gaussian/g16/l1.exe "/tmp/Gau-98437.inp" -scrdir="/tmp/"
 Entering Link 1 = /public/software/apps/Gaussian/g16/l1.exe PID=     98438.
  
 Copyright (c) 1988-2019, Gaussian, Inc.  All Rights Reserved.
  
 This is part of the Gaussian(R) 16 program.  It is based on
 the Gaussian(R) 09 system (copyright 2009, Gaussian, Inc.),
 the Gaussian(R) 03 system (copyright 2003, Gaussian, Inc.),
 the Gaussian(R) 98 system (copyright 1998, Gaussian, Inc.),
 the Gaussian(R) 94 system (copyright 1995, Gaussian, Inc.),
 the Gaussian 92(TM) system (copyright 1992, Gaussian, Inc.),
 the Gaussian 90(TM) system (copyright 1990, Gaussian, Inc.),
 the Gaussian 88(TM) system (copyright 1988, Gaussian, Inc.),
 the Gaussian 86(TM) system (copyright 1986, Carnegie Mellon
 University), and the Gaussian 82(TM) system (copyright 1983,
 Carnegie Mellon University). Gaussian is a federally registered
 trademark of Gaussian, Inc.
  
 This software contains proprietary and confidential information,
 including trade secrets, belonging to Gaussian, Inc.
  
 This software is provided under written license and may be
 used, copied, transmitted, or stored only in accord with that
 written license.
  
 The following legend is applicable only to US Government
 contracts under FAR:
  
                    RESTRICTED RIGHTS LEGEND
  
 Use, reproduction and disclosure by the US Government is
 subject to restrictions as set forth in subparagraphs (a)
 and (c) of the Commercial Computer Software - Restricted
 Rights clause in FAR 52.227-19.
  
 Gaussian, Inc.
 340 Quinnipiac St., Bldg. 40, Wallingford CT 06492
  
  
 ---------------------------------------------------------------
 Warning -- This program may not be used in any manner that
 competes with the business of Gaussian, Inc. or will provide
 assistance to any competitor of Gaussian, Inc.  The licensee
 of this program is prohibited from giving any competitor of
 Gaussian, Inc. access to this program.  By using this program,
 the user acknowledges that Gaussian, Inc. is engaged in the
 business of creating and licensing software in the field of
 computational chemistry and represents and warrants to the
 licensee that it is not a competitor of Gaussian, Inc. and that
 it will not use this program in any manner prohibited above.
 ---------------------------------------------------------------
  

 Cite this work as:
 Gaussian 16, Revision C.01,
 M. J. Frisch, G. W. Trucks, H. B. Schlegel, G. E. Scuseria, 
 M. A. Robb, J. R. Cheeseman, G. Scalmani, V. Barone, 
 G. A. Petersson, H. Nakatsuji, X. Li, M. Caricato, A. V. Marenich, 
 J. Bloino, B. G. Janesko, R. Gomperts, B. Mennucci, H. P. Hratchian, 
 J. V. Ortiz, A. F. Izmaylov, J. L. Sonnenberg, D. Williams-Young, 
 F. Ding, F. Lipparini, F. Egidi, J. Goings, B. Peng, A. Petrone, 
 T. Henderson, D. Ranasinghe, V. G. Zakrzewski, J. Gao, N. Rega, 
 G. Zheng, W. Liang, M. Hada, M. Ehara, K. Toyota, R. Fukuda, 
 J. Hasegawa, M. Ishida, T. Nakajima, Y. Honda, O. Kitao, H. Nakai, 
 T. Vreven, K. Throssell, J. A. Montgomery, Jr., J. E. Peralta, 
 F. Ogliaro, M. J. Bearpark, J. J. Heyd, E. N. Brothers, K. N. Kudin, 
 V. N. Staroverov, T. A. Keith, R. Kobayashi, J. Normand, 
 K. Raghavachari, A. P. Rendell, J. C. Burant, S. S. Iyengar, 
 J. Tomasi, M. Cossi, J. M. Millam, M. Klene, C. Adamo, R. Cammi, 
 J. W. Ochterski, R. L. Martin, K. Morokuma, O. Farkas, 
 J. B. Foresman, and D. J. Fox, Gaussian, Inc., Wallingford CT, 2019.
 
 ******************************************
 Gaussian 16:  ES64L-G16RevC.01  3-Jul-2019
                16-May-2024 
 ******************************************
 %nprocshared=32
 Will use up to   32 processors via shared memory.
 %mem=100GB
 ------------------------------------------
 #p opt freq b3lyp/def2svpp em=gd3bj nosymm
 ------------------------------------------
 1/18=20,19=15,26=3,38=1/1,3;
 2/9=110,12=2,15=1,17=6,18=5,40=1/2;
 3/5=43,7=202,11=2,25=1,30=1,71=1,74=-5,124=41/1,2,3;
 4//1;
 5/5=2,38=5/2;
 6/7=2,8=2,9=2,10=2,28=1/1;
 7/30=1/1,2,3,16;
 1/18=20,19=15,26=3/3(2);
 2/9=110,15=1/2;
 99//99;
 2/9=110,15=1/2;
 3/5=43,7=202,11=2,25=1,30=1,71=1,74=-5,124=41/1,2,3;
 4/5=5,16=3,69=1/1;
 5/5=2,38=5/2;
 7/30=1/1,2,3,16;
 1/18=20,19=15,26=3/3(-5);
 2/9=110,15=1/2;
 6/7=2,8=2,9=2,10=2,19=2,28=1/1;
 99/9=1/99;
 Leave Link    1 at Thu May 16 18:30:01 2024, MaxMem= 13421772800 cpu:               1.6 elap:               0.1
 (Enter /public/software/apps/Gaussian/g16/l101.exe)
 ------------------
 $$$$Title####0????
 ------------------
 Symbolic Z-matrix:
 Charge =  0 Multiplicity = 2
 O                     2.88159   5.23051  -1.32716 
 C                     3.21879   4.10377  -1.77867 
 C                     2.58944   2.86505  -1.28397 
 C                     1.59865   2.9033   -0.29185 
 C                     1.00863   1.72417   0.16788 
 C                     1.39081   0.47467  -0.3615 
 C                     0.79995  -0.73987   0.07766 
 C                    -0.29457  -0.76327   1.08552 
 C                    -0.02551  -1.29022   2.36242 
 O                     1.23084  -1.8104    2.65656 
 C                    -1.0146   -1.30225   3.34693 
 C                    -2.28732  -0.80396   3.07498 
 C                    -2.59286  -0.30167   1.80316 
 C                    -3.88323   0.17859   1.52897 
 C                    -4.19895   0.6616    0.25833 
 C                    -3.23492   0.66455  -0.74966 
 C                    -1.94576   0.19187  -0.49325 
 C                    -1.59886  -0.28665   0.78858 
 C                     1.26866  -1.96238  -0.43807 
 O                     0.73968  -3.16565   0.01785 
 C                     2.27141  -1.98388  -1.4082 
 C                     2.83143  -0.79452  -1.87042 
 C                     2.40608   0.43624  -1.35213 
 C                     2.99056   1.62863  -1.80743 
 H                     3.98419   4.05434  -2.54276 
 H                     1.27928   3.84707   0.13257 
 H                     0.25695   1.80127   0.94218 
 H                    -0.79502  -1.70229   4.32873 
 H                    -3.03776  -0.82279   3.85653 
 H                    -4.64851   0.1762    2.2962 
 H                    -5.19605   1.02905   0.05257 
 H                    -3.48801   1.0327   -1.73559 
 H                    -1.23023   0.20035  -1.30465 
 H                     2.61954  -2.92919  -1.80493 
 H                     3.60745  -0.83777  -2.62557 
 H                     3.76272   1.59521  -2.56841 
 Cu                    1.39912  -3.57762   1.81979 
 
 ITRead=  0  0  0  0  0  0  0  0  0  0  0  0  0  0  0  0  0  0  0  0
 ITRead=  0  0  0  0  0  0  0  0  0  0  0  0  0  0  0  0  0
 MicOpt= -1 -1 -1 -1 -1 -1 -1 -1 -1 -1 -1 -1 -1 -1 -1 -1 -1 -1 -1 -1
 MicOpt= -1 -1 -1 -1 -1 -1 -1 -1 -1 -1 -1 -1 -1 -1 -1 -1 -1
 NAtoms=     37 NQM=       37 NQMF=       0 NMMI=      0 NMMIF=      0
                NMic=       0 NMicF=      0.
                    Isotopes and Nuclear Properties:
 (Nuclear quadrupole moments (NQMom) in fm**2, nuclear magnetic moments (NMagM)
  in nuclear magnetons)

  Atom         1           2           3           4           5           6           7           8           9          10
 IAtWgt=          16          12          12          12          12          12          12          12          12          16
 AtmWgt=  15.9949146  12.0000000  12.0000000  12.0000000  12.0000000  12.0000000  12.0000000  12.0000000  12.0000000  15.9949146
 NucSpn=           0           0           0           0           0           0           0           0           0           0
 AtZEff=  -0.0000000  -0.0000000  -0.0000000  -0.0000000  -0.0000000  -0.0000000  -0.0000000  -0.0000000  -0.0000000  -0.0000000
 NQMom=    0.0000000   0.0000000   0.0000000   0.0000000   0.0000000   0.0000000   0.0000000   0.0000000   0.0000000   0.0000000
 NMagM=    0.0000000   0.0000000   0.0000000   0.0000000   0.0000000   0.0000000   0.0000000   0.0000000   0.0000000   0.0000000
 AtZNuc=   8.0000000   6.0000000   6.0000000   6.0000000   6.0000000   6.0000000   6.0000000   6.0000000   6.0000000   8.0000000

  Atom        11          12          13          14          15          16          17          18          19          20
 IAtWgt=          12          12          12          12          12          12          12          12          12          16
 AtmWgt=  12.0000000  12.0000000  12.0000000  12.0000000  12.0000000  12.0000000  12.0000000  12.0000000  12.0000000  15.9949146
 NucSpn=           0           0           0           0           0           0           0           0           0           0
 AtZEff=  -0.0000000  -0.0000000  -0.0000000  -0.0000000  -0.0000000  -0.0000000  -0.0000000  -0.0000000  -0.0000000  -0.0000000
 NQMom=    0.0000000   0.0000000   0.0000000   0.0000000   0.0000000   0.0000000   0.0000000   0.0000000   0.0000000   0.0000000
 NMagM=    0.0000000   0.0000000   0.0000000   0.0000000   0.0000000   0.0000000   0.0000000   0.0000000   0.0000000   0.0000000
 AtZNuc=   6.0000000   6.0000000   6.0000000   6.0000000   6.0000000   6.0000000   6.0000000   6.0000000   6.0000000   8.0000000

  Atom        21          22          23          24          25          26          27          28          29          30
 IAtWgt=          12          12          12          12           1           1           1           1           1           1
 AtmWgt=  12.0000000  12.0000000  12.0000000  12.0000000   1.0078250   1.0078250   1.0078250   1.0078250   1.0078250   1.0078250
 NucSpn=           0           0           0           0           1           1           1           1           1           1
 AtZEff=  -0.0000000  -0.0000000  -0.0000000  -0.0000000  -0.0000000  -0.0000000  -0.0000000  -0.0000000  -0.0000000  -0.0000000
 NQMom=    0.0000000   0.0000000   0.0000000   0.0000000   0.0000000   0.0000000   0.0000000   0.0000000   0.0000000   0.0000000
 NMagM=    0.0000000   0.0000000   0.0000000   0.0000000   2.7928460   2.7928460   2.7928460   2.7928460   2.7928460   2.7928460
 AtZNuc=   6.0000000   6.0000000   6.0000000   6.0000000   1.0000000   1.0000000   1.0000000   1.0000000   1.0000000   1.0000000

  Atom        31          32          33          34          35          36          37
 IAtWgt=           1           1           1           1           1           1          63
 AtmWgt=   1.0078250   1.0078250   1.0078250   1.0078250   1.0078250   1.0078250  62.9295992
 NucSpn=           1           1           1           1           1           1           3
 AtZEff=  -0.0000000  -0.0000000  -0.0000000  -0.0000000  -0.0000000  -0.0000000  -0.0000000
 NQMom=    0.0000000   0.0000000   0.0000000   0.0000000   0.0000000   0.0000000 -22.0000000
 NMagM=    2.7928460   2.7928460   2.7928460   2.7928460   2.7928460   2.7928460   2.2233000
 AtZNuc=   1.0000000   1.0000000   1.0000000   1.0000000   1.0000000   1.0000000  29.0000000
 Leave Link  101 at Thu May 16 18:30:01 2024, MaxMem= 13421772800 cpu:               3.3 elap:               0.1
 (Enter /public/software/apps/Gaussian/g16/l103.exe)

 GradGradGradGradGradGradGradGradGradGradGradGradGradGradGradGradGradGrad
 Berny optimization.
 Initialization pass.
                           ----------------------------
                           !    Initial Parameters    !
                           ! (Angstroms and Degrees)  !
 --------------------------                            --------------------------
 ! Name  Definition              Value          Derivative Info.                !
 --------------------------------------------------------------------------------
 ! R1    R(1,2)                  1.2598         estimate D2E/DX2                !
 ! R2    R(2,3)                  1.4749         estimate D2E/DX2                !
 ! R3    R(2,25)                 1.0826         estimate D2E/DX2                !
 ! R4    R(3,4)                  1.4027         estimate D2E/DX2                !
 ! R5    R(3,24)                 1.4013         estimate D2E/DX2                !
 ! R6    R(4,5)                  1.3964         estimate D2E/DX2                !
 ! R7    R(4,26)                 1.083          estimate D2E/DX2                !
 ! R8    R(5,6)                  1.4098         estimate D2E/DX2                !
 ! R9    R(5,27)                 1.0819         estimate D2E/DX2                !
 ! R10   R(6,7)                  1.4202         estimate D2E/DX2                !
 ! R11   R(6,23)                 1.419          estimate D2E/DX2                !
 ! R12   R(7,8)                  1.4881         estimate D2E/DX2                !
 ! R13   R(7,19)                 1.4072         estimate D2E/DX2                !
 ! R14   R(8,9)                  1.4073         estimate D2E/DX2                !
 ! R15   R(8,18)                 1.42           estimate D2E/DX2                !
 ! R16   R(9,10)                 1.3912         estimate D2E/DX2                !
 ! R17   R(9,11)                 1.3956         estimate D2E/DX2                !
 ! R18   R(10,37)                1.9625         estimate D2E/DX2                !
 ! R19   R(11,12)                1.3936         estimate D2E/DX2                !
 ! R20   R(11,28)                1.0827         estimate D2E/DX2                !
 ! R21   R(12,13)                1.4011         estimate D2E/DX2                !
 ! R22   R(12,29)                1.0837         estimate D2E/DX2                !
 ! R23   R(13,14)                1.4039         estimate D2E/DX2                !
 ! R24   R(13,18)                1.4204         estimate D2E/DX2                !
 ! R25   R(14,15)                1.3955         estimate D2E/DX2                !
 ! R26   R(14,30)                1.0836         estimate D2E/DX2                !
 ! R27   R(15,16)                1.3948         estimate D2E/DX2                !
 ! R28   R(15,31)                1.0824         estimate D2E/DX2                !
 ! R29   R(16,17)                1.3968         estimate D2E/DX2                !
 ! R30   R(16,32)                1.0824         estimate D2E/DX2                !
 ! R31   R(17,18)                1.4115         estimate D2E/DX2                !
 ! R32   R(17,33)                1.0819         estimate D2E/DX2                !
 ! R33   R(19,20)                1.3912         estimate D2E/DX2                !
 ! R34   R(19,21)                1.3954         estimate D2E/DX2                !
 ! R35   R(20,37)                1.9625         estimate D2E/DX2                !
 ! R36   R(21,22)                1.3935         estimate D2E/DX2                !
 ! R37   R(21,34)                1.0827         estimate D2E/DX2                !
 ! R38   R(22,23)                1.4015         estimate D2E/DX2                !
 ! R39   R(22,35)                1.0837         estimate D2E/DX2                !
 ! R40   R(23,24)                1.4038         estimate D2E/DX2                !
 ! R41   R(24,36)                1.0846         estimate D2E/DX2                !
 ! A1    A(1,2,3)              121.1138         estimate D2E/DX2                !
 ! A2    A(1,2,25)             118.8822         estimate D2E/DX2                !
 ! A3    A(3,2,25)             120.0039         estimate D2E/DX2                !
 ! A4    A(2,3,4)              121.0488         estimate D2E/DX2                !
 ! A5    A(2,3,24)             119.5786         estimate D2E/DX2                !
 ! A6    A(4,3,24)             119.3719         estimate D2E/DX2                !
 ! A7    A(3,4,5)              120.5516         estimate D2E/DX2                !
 ! A8    A(3,4,26)             120.615          estimate D2E/DX2                !
 ! A9    A(5,4,26)             118.8332         estimate D2E/DX2                !
 ! A10   A(4,5,6)              120.6803         estimate D2E/DX2                !
 ! A11   A(4,5,27)             117.9709         estimate D2E/DX2                !
 ! A12   A(6,5,27)             121.3482         estimate D2E/DX2                !
 ! A13   A(5,6,7)              121.9409         estimate D2E/DX2                !
 ! A14   A(5,6,23)             118.6916         estimate D2E/DX2                !
 ! A15   A(7,6,23)             119.3643         estimate D2E/DX2                !
 ! A16   A(6,7,8)              121.9297         estimate D2E/DX2                !
 ! A17   A(6,7,19)             119.409          estimate D2E/DX2                !
 ! A18   A(8,7,19)             118.6565         estimate D2E/DX2                !
 ! A19   A(7,8,9)              118.6724         estimate D2E/DX2                !
 ! A20   A(7,8,18)             121.9157         estimate D2E/DX2                !
 ! A21   A(9,8,18)             119.4069         estimate D2E/DX2                !
 ! A22   A(8,9,10)             120.2972         estimate D2E/DX2                !
 ! A23   A(8,9,11)             120.5173         estimate D2E/DX2                !
 ! A24   A(10,9,11)            119.1851         estimate D2E/DX2                !
 ! A25   A(9,10,37)            108.9036         estimate D2E/DX2                !
 ! A26   A(9,11,12)            120.4313         estimate D2E/DX2                !
 ! A27   A(9,11,28)            119.9446         estimate D2E/DX2                !
 ! A28   A(12,11,28)           119.624          estimate D2E/DX2                !
 ! A29   A(11,12,13)           120.2962         estimate D2E/DX2                !
 ! A30   A(11,12,29)           119.0445         estimate D2E/DX2                !
 ! A31   A(13,12,29)           120.6548         estimate D2E/DX2                !
 ! A32   A(12,13,14)           120.0229         estimate D2E/DX2                !
 ! A33   A(12,13,18)           119.9701         estimate D2E/DX2                !
 ! A34   A(14,13,18)           120.0057         estimate D2E/DX2                !
 ! A35   A(13,14,15)           120.2763         estimate D2E/DX2                !
 ! A36   A(13,14,30)           120.6689         estimate D2E/DX2                !
 ! A37   A(15,14,30)           119.0542         estimate D2E/DX2                !
 ! A38   A(14,15,16)           120.1574         estimate D2E/DX2                !
 ! A39   A(14,15,31)           119.9334         estimate D2E/DX2                !
 ! A40   A(16,15,31)           119.9081         estimate D2E/DX2                !
 ! A41   A(15,16,17)           120.2996         estimate D2E/DX2                !
 ! A42   A(15,16,32)           119.8264         estimate D2E/DX2                !
 ! A43   A(17,16,32)           119.8738         estimate D2E/DX2                !
 ! A44   A(16,17,18)           120.5466         estimate D2E/DX2                !
 ! A45   A(16,17,33)           118.0395         estimate D2E/DX2                !
 ! A46   A(18,17,33)           121.4132         estimate D2E/DX2                !
 ! A47   A(8,18,13)            119.3294         estimate D2E/DX2                !
 ! A48   A(8,18,17)            121.9656         estimate D2E/DX2                !
 ! A49   A(13,18,17)           118.7018         estimate D2E/DX2                !
 ! A50   A(7,19,20)            120.3072         estimate D2E/DX2                !
 ! A51   A(7,19,21)            120.5002         estimate D2E/DX2                !
 ! A52   A(20,19,21)           119.1922         estimate D2E/DX2                !
 ! A53   A(19,20,37)           110.7742         estimate D2E/DX2                !
 ! A54   A(19,21,22)           120.4144         estimate D2E/DX2                !
 ! A55   A(19,21,34)           119.9522         estimate D2E/DX2                !
 ! A56   A(22,21,34)           119.6333         estimate D2E/DX2                !
 ! A57   A(21,22,23)           120.3237         estimate D2E/DX2                !
 ! A58   A(21,22,35)           119.0037         estimate D2E/DX2                !
 ! A59   A(23,22,35)           120.6681         estimate D2E/DX2                !
 ! A60   A(6,23,22)            119.939          estimate D2E/DX2                !
 ! A61   A(6,23,24)            120.0862         estimate D2E/DX2                !
 ! A62   A(22,23,24)           119.9735         estimate D2E/DX2                !
 ! A63   A(3,24,23)            120.605          estimate D2E/DX2                !
 ! A64   A(3,24,36)            119.5414         estimate D2E/DX2                !
 ! A65   A(23,24,36)           119.8532         estimate D2E/DX2                !
 ! A66   A(10,37,20)           100.0001         estimate D2E/DX2                !
 ! D1    D(1,2,3,4)             -0.2109         estimate D2E/DX2                !
 ! D2    D(1,2,3,24)          -179.9058         estimate D2E/DX2                !
 ! D3    D(25,2,3,4)           179.807          estimate D2E/DX2                !
 ! D4    D(25,2,3,24)            0.1122         estimate D2E/DX2                !
 ! D5    D(2,3,4,5)            179.9279         estimate D2E/DX2                !
 ! D6    D(2,3,4,26)            -0.2035         estimate D2E/DX2                !
 ! D7    D(24,3,4,5)            -0.3767         estimate D2E/DX2                !
 ! D8    D(24,3,4,26)          179.492          estimate D2E/DX2                !
 ! D9    D(2,3,24,23)          179.9939         estimate D2E/DX2                !
 ! D10   D(2,3,24,36)            0.2397         estimate D2E/DX2                !
 ! D11   D(4,3,24,23)            0.2939         estimate D2E/DX2                !
 ! D12   D(4,3,24,36)         -179.4603         estimate D2E/DX2                !
 ! D13   D(3,4,5,6)             -0.4005         estimate D2E/DX2                !
 ! D14   D(3,4,5,27)           179.3072         estimate D2E/DX2                !
 ! D15   D(26,4,5,6)           179.7285         estimate D2E/DX2                !
 ! D16   D(26,4,5,27)           -0.5638         estimate D2E/DX2                !
 ! D17   D(4,5,6,7)           -179.4214         estimate D2E/DX2                !
 ! D18   D(4,5,6,23)             1.2352         estimate D2E/DX2                !
 ! D19   D(27,5,6,7)             0.8809         estimate D2E/DX2                !
 ! D20   D(27,5,6,23)         -178.4625         estimate D2E/DX2                !
 ! D21   D(5,6,7,8)              2.3771         estimate D2E/DX2                !
 ! D22   D(5,6,7,19)          -176.8183         estimate D2E/DX2                !
 ! D23   D(23,6,7,8)          -178.2838         estimate D2E/DX2                !
 ! D24   D(23,6,7,19)            2.5208         estimate D2E/DX2                !
 ! D25   D(5,6,23,22)          178.2931         estimate D2E/DX2                !
 ! D26   D(5,6,23,24)           -1.3098         estimate D2E/DX2                !
 ! D27   D(7,6,23,22)           -1.0676         estimate D2E/DX2                !
 ! D28   D(7,6,23,24)          179.3295         estimate D2E/DX2                !
 ! D29   D(6,7,8,9)           -111.0506         estimate D2E/DX2                !
 ! D30   D(6,7,8,18)            69.7647         estimate D2E/DX2                !
 ! D31   D(19,7,8,9)            68.1506         estimate D2E/DX2                !
 ! D32   D(19,7,8,18)         -111.0341         estimate D2E/DX2                !
 ! D33   D(6,7,19,20)          177.464          estimate D2E/DX2                !
 ! D34   D(6,7,19,21)           -2.3121         estimate D2E/DX2                !
 ! D35   D(8,7,19,20)           -1.7578         estimate D2E/DX2                !
 ! D36   D(8,7,19,21)          178.4661         estimate D2E/DX2                !
 ! D37   D(7,8,9,10)            -1.736          estimate D2E/DX2                !
 ! D38   D(7,8,9,11)           178.4908         estimate D2E/DX2                !
 ! D39   D(18,8,9,10)          177.4696         estimate D2E/DX2                !
 ! D40   D(18,8,9,11)           -2.3036         estimate D2E/DX2                !
 ! D41   D(7,8,18,13)         -178.3221         estimate D2E/DX2                !
 ! D42   D(7,8,18,17)            2.3336         estimate D2E/DX2                !
 ! D43   D(9,8,18,13)            2.4991         estimate D2E/DX2                !
 ! D44   D(9,8,18,17)         -176.8452         estimate D2E/DX2                !
 ! D45   D(8,9,10,37)          -76.0632         estimate D2E/DX2                !
 ! D46   D(11,9,10,37)         103.7131         estimate D2E/DX2                !
 ! D47   D(8,9,11,12)            0.6199         estimate D2E/DX2                !
 ! D48   D(8,9,11,28)         -179.4862         estimate D2E/DX2                !
 ! D49   D(10,9,11,12)        -179.1559         estimate D2E/DX2                !
 ! D50   D(10,9,11,28)           0.7381         estimate D2E/DX2                !
 ! D51   D(9,10,37,20)          47.2607         estimate D2E/DX2                !
 ! D52   D(9,11,12,13)           0.8682         estimate D2E/DX2                !
 ! D53   D(9,11,12,29)        -179.8987         estimate D2E/DX2                !
 ! D54   D(28,11,12,13)       -179.0261         estimate D2E/DX2                !
 ! D55   D(28,11,12,29)          0.207          estimate D2E/DX2                !
 ! D56   D(11,12,13,14)        178.9496         estimate D2E/DX2                !
 ! D57   D(11,12,13,18)         -0.6382         estimate D2E/DX2                !
 ! D58   D(29,12,13,14)         -0.271          estimate D2E/DX2                !
 ! D59   D(29,12,13,18)       -179.8588         estimate D2E/DX2                !
 ! D60   D(12,13,14,15)       -179.0441         estimate D2E/DX2                !
 ! D61   D(12,13,14,30)          0.6828         estimate D2E/DX2                !
 ! D62   D(18,13,14,15)          0.5436         estimate D2E/DX2                !
 ! D63   D(18,13,14,30)       -179.7295         estimate D2E/DX2                !
 ! D64   D(12,13,18,8)          -1.05           estimate D2E/DX2                !
 ! D65   D(12,13,18,17)        178.3158         estimate D2E/DX2                !
 ! D66   D(14,13,18,8)         179.3621         estimate D2E/DX2                !
 ! D67   D(14,13,18,17)         -1.2721         estimate D2E/DX2                !
 ! D68   D(13,14,15,16)          0.2865         estimate D2E/DX2                !
 ! D69   D(13,14,15,31)        179.8989         estimate D2E/DX2                !
 ! D70   D(30,14,15,16)       -179.4447         estimate D2E/DX2                !
 ! D71   D(30,14,15,31)          0.1677         estimate D2E/DX2                !
 ! D72   D(14,15,16,17)         -0.3675         estimate D2E/DX2                !
 ! D73   D(14,15,16,32)        179.4872         estimate D2E/DX2                !
 ! D74   D(31,15,16,17)       -179.9801         estimate D2E/DX2                !
 ! D75   D(31,15,16,32)         -0.1253         estimate D2E/DX2                !
 ! D76   D(15,16,17,18)         -0.3893         estimate D2E/DX2                !
 ! D77   D(15,16,17,33)        179.3104         estimate D2E/DX2                !
 ! D78   D(32,16,17,18)        179.756          estimate D2E/DX2                !
 ! D79   D(32,16,17,33)         -0.5443         estimate D2E/DX2                !
 ! D80   D(16,17,18,8)        -179.4531         estimate D2E/DX2                !
 ! D81   D(16,17,18,13)          1.1986         estimate D2E/DX2                !
 ! D82   D(33,17,18,8)           0.8575         estimate D2E/DX2                !
 ! D83   D(33,17,18,13)       -178.4908         estimate D2E/DX2                !
 ! D84   D(7,19,20,37)         -74.095          estimate D2E/DX2                !
 ! D85   D(21,19,20,37)        105.684          estimate D2E/DX2                !
 ! D86   D(7,19,21,22)           0.6129         estimate D2E/DX2                !
 ! D87   D(7,19,21,34)        -179.4842         estimate D2E/DX2                !
 ! D88   D(20,19,21,22)       -179.1656         estimate D2E/DX2                !
 ! D89   D(20,19,21,34)          0.7372         estimate D2E/DX2                !
 ! D90   D(19,20,37,10)         43.4852         estimate D2E/DX2                !
 ! D91   D(19,21,22,23)          0.8791         estimate D2E/DX2                !
 ! D92   D(19,21,22,35)       -179.8865         estimate D2E/DX2                !
 ! D93   D(34,21,22,23)       -179.0241         estimate D2E/DX2                !
 ! D94   D(34,21,22,35)          0.2103         estimate D2E/DX2                !
 ! D95   D(21,22,23,6)          -0.6368         estimate D2E/DX2                !
 ! D96   D(21,22,23,24)        178.9665         estimate D2E/DX2                !
 ! D97   D(35,22,23,6)        -179.8584         estimate D2E/DX2                !
 ! D98   D(35,22,23,24)         -0.255          estimate D2E/DX2                !
 ! D99   D(6,23,24,3)            0.5582         estimate D2E/DX2                !
 ! D100  D(6,23,24,36)        -179.6884         estimate D2E/DX2                !
 ! D101  D(22,23,24,3)        -179.0445         estimate D2E/DX2                !
 ! D102  D(22,23,24,36)          0.7089         estimate D2E/DX2                !
 --------------------------------------------------------------------------------
 Trust Radius=3.00D-01 FncErr=1.00D-07 GrdErr=1.00D-06 EigMax=2.50D+02 EigMin=1.00D-04
 Number of steps in this run=    219 maximum allowed number of steps=    222.
 GradGradGradGradGradGradGradGradGradGradGradGradGradGradGradGradGradGrad

 Leave Link  103 at Thu May 16 18:30:01 2024, MaxMem= 13421772800 cpu:               0.6 elap:               0.0
 (Enter /public/software/apps/Gaussian/g16/l202.exe)
                          Input orientation:                          
 ---------------------------------------------------------------------
 Center     Atomic      Atomic             Coordinates (Angstroms)
 Number     Number       Type             X           Y           Z
 ---------------------------------------------------------------------
      1          8           0        2.881592    5.230508   -1.327157
      2          6           0        3.218791    4.103772   -1.778673
      3          6           0        2.589437    2.865053   -1.283972
      4          6           0        1.598648    2.903300   -0.291846
      5          6           0        1.008632    1.724174    0.167876
      6          6           0        1.390810    0.474672   -0.361496
      7          6           0        0.799952   -0.739869    0.077656
      8          6           0       -0.294568   -0.763267    1.085524
      9          6           0       -0.025510   -1.290215    2.362420
     10          8           0        1.230838   -1.810399    2.656563
     11          6           0       -1.014599   -1.302254    3.346932
     12          6           0       -2.287316   -0.803955    3.074982
     13          6           0       -2.592856   -0.301669    1.803156
     14          6           0       -3.883233    0.178592    1.528974
     15          6           0       -4.198953    0.661601    0.258332
     16          6           0       -3.234921    0.664550   -0.749659
     17          6           0       -1.945760    0.191868   -0.493249
     18          6           0       -1.598863   -0.286652    0.788575
     19          6           0        1.268658   -1.962384   -0.438074
     20          8           0        0.739683   -3.165651    0.017845
     21          6           0        2.271407   -1.983884   -1.408204
     22          6           0        2.831426   -0.794522   -1.870416
     23          6           0        2.406077    0.436242   -1.352133
     24          6           0        2.990558    1.628630   -1.807430
     25          1           0        3.984186    4.054342   -2.542762
     26          1           0        1.279282    3.847069    0.132568
     27          1           0        0.256950    1.801271    0.942182
     28          1           0       -0.795016   -1.702292    4.328734
     29          1           0       -3.037758   -0.822789    3.856529
     30          1           0       -4.648509    0.176200    2.296199
     31          1           0       -5.196049    1.029050    0.052573
     32          1           0       -3.488008    1.032705   -1.735588
     33          1           0       -1.230234    0.200348   -1.304651
     34          1           0        2.619539   -2.929188   -1.804929
     35          1           0        3.607450   -0.837768   -2.625573
     36          1           0        3.762724    1.595209   -2.568413
     37         29           0        1.399121   -3.577615    1.819786
 ---------------------------------------------------------------------
                    Distance matrix (angstroms):
                    1          2          3          4          5
     1  O    0.000000
     2  C    1.259803   0.000000
     3  C    2.383820   1.474870   0.000000
     4  C    2.851966   2.505325   1.402655   0.000000
     5  C    4.247056   3.786336   2.430723   1.396353   0.000000
     6  C    5.076702   4.303519   2.828708   2.438500   1.409805
     7  C    6.477046   5.723425   4.248735   3.747950   2.474509
     8  C    7.199608   6.650969   5.205449   4.350302   2.954280
     9  C    8.036420   7.534536   6.115585   5.221933   3.869369
    10  O    8.256475   7.655109   6.263662   5.572016   4.328527
    11  C    8.927732   8.568462   7.197277   6.144628   4.833128
    12  C    9.083567   8.829551   7.499655   6.338769   5.070106
    13  C    8.388887   8.124817   6.812830   5.677109   4.443973
    14  C    8.913035   8.762780   7.551503   6.386739   5.307707
    15  C    8.574544   8.427387   7.301790   6.240199   5.315655
    16  C    7.654620   7.384952   6.249068   5.346493   4.469051
    17  C    7.027562   6.605142   5.323455   4.467130   3.393152
    18  C    7.415514   7.005453   5.636537   4.644048   3.350779
    19  C    7.424939   6.511411   5.075840   4.879053   3.745063
    20  O    8.768825   7.887836   6.440940   6.137255   4.899513
    21  C    7.240604   6.172061   4.860943   5.058006   4.222360
    22  C    6.049680   4.914443   3.714157   4.205415   3.717666
    23  C    4.817855   3.780637   2.436676   2.804019   2.433526
    24  C    3.635390   2.485809   1.401302   2.420577   2.799820
    25  H    2.019103   1.082638   2.223575   3.475962   4.650931
    26  H    2.571400   2.735038   2.165051   1.082969   2.140369
    27  H    4.878351   4.634335   3.395275   2.130128   1.081906
    28  H    9.673172   9.333887   7.988594   6.949163   5.683886
    29  H    9.927321   9.755558   8.467010   7.251828   6.038746
    30  H    9.766123   9.691481   8.510900   7.291229   6.239329
    31  H    9.208919   9.144228   8.109935   7.056865   6.244562
    32  H    7.639383   7.376616   6.363709   5.608706   4.931640
    33  H    6.496932   5.937612   4.657356   4.041571   3.082678
    34  H    8.177871   7.058493   5.817691   6.111428   5.304786
    35  H    6.247938   5.028629   4.067816   4.845323   4.595733
    36  H    3.941130   2.685599   2.153809   3.402511   3.884447
    37  Cu   9.470164   8.675472   7.249699   6.819169   5.566889
                    6          7          8          9         10
     6  C    0.000000
     7  C    1.420239   0.000000
     8  C    2.543002   1.488059   0.000000
     9  C    3.541258   2.490866   1.407313   0.000000
    10  O    3.788908   2.825325   2.427244   1.391230   0.000000
    11  C    4.764021   3.781142   2.433705   1.395602   2.403499
    12  C    5.193542   4.303405   2.816140   2.420735   3.683125
    13  C    4.599785   3.831516   2.451570   2.807359   4.198238
    14  C    5.610443   4.988198   3.736611   4.211182   5.601898
    15  C    5.627129   5.194787   4.237773   5.065017   6.430002
    16  C    4.645870   4.351671   3.748631   4.879186   6.137648
    17  C    3.351125   2.955165   2.476135   3.746835   4.901139
    18  C    3.292480   2.542661   1.420044   2.441222   3.717310
    19  C    2.441317   1.407198   2.490564   3.157443   3.098598
    20  O    3.717502   2.427268   2.825077   3.098356   3.006788
    21  C    2.813458   2.433215   3.780584   4.469296   4.199430
    22  C    2.441939   2.815112   4.302371   5.130760   4.907894
    23  C    1.419016   2.450953   3.830728   4.763525   4.743230
    24  C    2.445718   3.736588   4.988227   5.916415   5.903454
    25  H    4.929255   6.323796   7.394698   8.288713   8.307171
    26  H    3.410220   4.612242   4.963902   5.750340   6.195147
    27  H    2.178320   2.738549   2.627085   3.413817   4.114817
    28  H    5.613846   4.641319   3.413302   2.151357   2.629054
    29  H    6.251988   5.386536   3.899629   3.394773   4.542709
    30  H    6.604983   5.953725   4.615749   4.850451   6.216362
    31  H    6.623103   6.251538   5.320141   6.119547   7.493204
    32  H    5.099254   4.981614   4.624094   5.846240   7.045689
    33  H    2.799047   2.629912   2.741708   4.137698   5.078503
    34  H    3.896092   3.412937   4.640900   5.200896   4.804695
    35  H    3.429583   3.898599   5.385493   6.187340   5.873266
    36  H    3.428128   4.607851   5.947712   6.854889   6.731195
    37  Cu   4.602075   3.383315   3.365751   2.748859   1.962541
                   11         12         13         14         15
    11  C    0.000000
    12  C    1.393581   0.000000
    13  C    2.423904   1.401138   0.000000
    14  C    3.704988   2.429504   1.403887   0.000000
    15  C    4.851421   3.706174   2.427739   1.395531   0.000000
    16  C    5.057688   4.205038   2.804049   2.418395   1.394780
    17  C    4.224506   3.720295   2.436347   2.800601   2.421240
    18  C    2.813895   2.443200   1.420430   2.446015   2.817944
    19  C    4.469374   5.131128   4.763652   5.915660   6.104511
    20  O    4.199116   4.907792   4.742947   5.902442   6.252665
    21  C    5.820118   6.501780   6.066608   7.154223   7.186201
    22  C    6.501571   7.117483   6.569693   7.588771   7.488531
    23  C    6.066680   6.570036   5.957323   6.922614   6.802265
    24  C    7.155334   7.590215   6.923648   7.777095   7.542651
    25  H    9.400504   9.720794   9.006626   9.669372   9.290887
    26  H    6.489187   6.558235   5.915771   6.485309   6.338303
    27  H    4.126927   4.220110   3.644863   4.485368   4.649900
    28  H    1.082674   2.146127   3.401840   4.573124   5.808868
    29  H    2.140735   1.083667   2.164681   2.671162   4.061873
    30  H    4.061424   2.672534   2.167293   1.083645   2.142572
    31  H    5.811394   4.577728   3.407634   2.150936   1.082384
    32  H    6.115701   5.287397   3.886459   3.397510   2.149157
    33  H    4.893009   4.615976   3.430339   3.881792   3.386586
    34  H    6.511186   7.239294   6.862302   7.940985   7.977634
    35  H    7.566366   8.200350   7.638379   8.625751   8.456060
    36  H    8.136917   8.614341   7.943687   8.789542   8.500024
    37  Cu   3.651779   4.781059   5.164105   6.488214   7.193575
                   16         17         18         19         20
    16  C    0.000000
    17  C    1.396822   0.000000
    18  C    2.438777   1.411521   0.000000
    19  C    5.223035   3.869926   3.540540   0.000000
    20  O    5.572879   4.329637   3.788332   1.391233   0.000000
    21  C    6.145529   4.832757   4.762922   1.395392   2.403407
    22  C    6.339208   5.068635   5.191881   2.420279   3.682821
    23  C    5.677672   4.442509   4.598342   2.807603   4.198493
    24  C    6.387873   5.306467   5.609842   4.211349   5.602071
    25  H    8.174437   7.367732   7.817447   6.928549   8.319363
    26  H    5.593280   4.914574   5.079539   5.837421   7.034385
    27  H    4.043219   3.082624   2.797688   4.134460   5.075209
    28  H    6.111068   5.306936   3.896528   5.200852   4.804215
    29  H    4.844380   4.598104   3.430773   6.187690   5.873122
    30  H    3.393224   3.884085   3.433293   6.860223   6.737320
    31  H    2.149991   3.400467   3.900323   7.140157   7.268400
    32  H    1.082426   2.151498   3.417743   5.768880   6.210804
    33  H    2.131260   1.081861   2.180516   3.416552   4.118194
    34  H    6.950054   5.683612   5.612858   2.151251   2.629121
    35  H    7.252176   6.036977   6.250266   3.394092   4.542112
    36  H    7.289789   6.233976   6.599802   4.838923   6.204297
    37  Cu   6.787662   5.545030   4.569654   2.779195   1.962540
                   21         22         23         24         25
    21  C    0.000000
    22  C    1.393500   0.000000
    23  C    2.424518   1.401542   0.000000
    24  C    3.704972   2.429188   1.403817   0.000000
    25  H    6.378166   5.029154   4.122945   2.722515   0.000000
    26  H    6.112144   5.288238   3.886868   3.407863   3.810100
    27  H    4.889760   4.612676   3.427234   3.881080   5.577943
    28  H    6.511121   7.239101   6.862403   7.942174  10.158596
    29  H    7.566557   8.200367   7.638760   8.627310  10.679187
    30  H    8.140872   8.616984   7.946391   8.792307  10.629156
    31  H    8.183797   8.453618   7.753511   8.416629  10.008240
    32  H    6.509827   6.579680   5.936585   6.506313   8.100340
    33  H    4.128327   4.219827   3.644264   4.484179   6.601240
    34  H    1.082676   2.146156   3.402456   4.572895   7.153765
    35  H    2.140229   1.083672   2.165190   2.670774   4.907293
    36  H    4.047223   2.658069   2.159406   1.084644   2.469218
    37  Cu   3.704157   4.838873   5.214027   6.541739   9.163032
                   26         27         28         29         30
    26  H    0.000000
    27  H    2.426093   0.000000
    28  H    7.259885   4.985010   0.000000
    29  H    7.369687   5.121934   2.454872   0.000000
    30  H    7.300362   5.342073   4.744401   2.455021   0.000000
    31  H    7.062403   5.578793   6.716761   4.749485   2.461912
    32  H    5.842748   4.667532   7.176936   5.909091   4.282017
    33  H    4.654229   3.134155   5.961919   5.563428   4.965008
    34  H    7.174109   5.958665   7.126449   8.276112   8.904336
    35  H    5.914001   5.560508   8.275959   9.283138   9.665031
    36  H    4.305073   4.965601   8.900401   9.662978   9.819719
    37  Cu   7.614919   5.568407   3.824381   5.605647   7.133858
                   31         32         33         34         35
    31  H    0.000000
    32  H    2.472840   0.000000
    33  H    4.272762   2.444600   0.000000
    34  H    8.955522   7.280353   4.986484   0.000000
    35  H    9.389306   7.391635   5.121104   2.454274   0.000000
    36  H    9.351455   7.320049   5.335950   4.728631   2.438597
    37  Cu   8.236545   7.601300   5.563148   3.879231   5.669629
                   36         37
    36  H    0.000000
    37  Cu   7.183385   0.000000
 Symmetry turned off by external request.
 Stoichiometry    C21H12CuO3(2)
 Framework group  C1[X(C21H12CuO3)]
 Deg. of freedom   105
 Full point group                 C1      NOp   1
 Rotational constants (GHZ):           0.2477695           0.1620020           0.1158100
 Leave Link  202 at Thu May 16 18:30:01 2024, MaxMem= 13421772800 cpu:               0.4 elap:               0.0
 (Enter /public/software/apps/Gaussian/g16/l301.exe)
 Standard basis: def2SVPP (5D, 7F)
 Ernie: Thresh=  0.10000D-02 Tol=  0.10000D-05 Strict=F.
   384 basis functions,   719 primitive gaussians,   410 cartesian basis functions
    96 alpha electrons       95 beta electrons
       nuclear repulsion energy      2434.9286303910 Hartrees.
 IExCor=  402 DFT=T Ex+Corr=B3LYP ExCW=0 ScaHFX=  0.200000
 ScaDFX=  0.800000  0.720000  1.000000  0.810000 ScalE2=  1.000000  1.000000
 IRadAn=      5 IRanWt=     -1 IRanGd=            0 ICorTp=0 IEmpDi=141
 NAtoms=   37 NActive=   37 NUniq=   37 SFac= 1.00D+00 NAtFMM=   60 NAOKFM=F Big=F
 Integral buffers will be    131072 words long.
 Raffenetti 2 integral format.
 Two-electron integral symmetry is turned off.
 R6Disp:  Grimme-D3(BJ) Dispersion energy=       -0.1026886416 Hartrees.
 Nuclear repulsion after empirical dispersion term =     2434.8259417494 Hartrees.
 Leave Link  301 at Thu May 16 18:30:01 2024, MaxMem= 13421772800 cpu:               0.5 elap:               0.0
 (Enter /public/software/apps/Gaussian/g16/l302.exe)
 NPDir=0 NMtPBC=     1 NCelOv=     1 NCel=       1 NClECP=     1 NCelD=      1
         NCelK=      1 NCelE2=     1 NClLst=     1 CellRange=     0.0.
 One-electron integrals computed using PRISM.
   1 Symmetry operations used in ECPInt.
 ECPInt:  NShTT=   15931 NPrTT=   66818 LenC2=   14541 LenP2D=   40279.
 LDataN:  DoStor=T MaxTD1= 4 Len=   56
 NBasis=   384 RedAO= T EigKep=  1.90D-04  NBF=   384
 NBsUse=   384 1.00D-06 EigRej= -1.00D+00 NBFU=   384
 Precomputing XC quadrature grid using
 IXCGrd= 4 IRadAn=           5 IRanWt=          -1 IRanGd=           0 AccXCQ= 0.00D+00.
 Generated NRdTot=       0 NPtTot=           0 NUsed=           0 NTot=          32
 NSgBfM=   406   406   406   406   406 MxSgAt=    37 MxSgA2=    37.
 Leave Link  302 at Thu May 16 18:30:02 2024, MaxMem= 13421772800 cpu:              10.3 elap:               0.3
 (Enter /public/software/apps/Gaussian/g16/l303.exe)
 DipDrv:  MaxL=1.
 Leave Link  303 at Thu May 16 18:30:02 2024, MaxMem= 13421772800 cpu:               1.2 elap:               0.1
 (Enter /public/software/apps/Gaussian/g16/l401.exe)
 ExpMin= 3.30D-02 ExpMax= 7.64D+04 ExpMxC= 1.15D+04 IAcc=3 IRadAn=         5 AccDes= 0.00D+00
 Harris functional with IExCor=  402 and IRadAn=       5 diagonalized for initial guess.
 HarFok:  IExCor=  402 AccDes= 0.00D+00 IRadAn=         5 IDoV= 1 UseB2=F ITyADJ=14
 ICtDFT=  3500011 ScaDFX=  1.000000  1.000000  1.000000  1.000000
 FoFCou: FMM=F IPFlag=           0 FMFlag=      100000 FMFlg1=           0
         NFxFlg=           0 DoJE=T BraDBF=F KetDBF=T FulRan=T
         wScrn=  0.000000 ICntrl=       500 IOpCl=  0 I1Cent=   200000004 NGrid=           0
         NMat0=    1 NMatS0=      1 NMatT0=    0 NMatD0=    1 NMtDS0=    0 NMtDT0=    0
 Symmetry not used in FoFCou.
 Harris En= -2673.05763384265    
 JPrj=0 DoOrth=F DoCkMO=F.
 Initial guess <Sx>= 0.0000 <Sy>= 0.0000 <Sz>= 0.5000 <S**2>= 0.7500 S= 0.5000
 Leave Link  401 at Thu May 16 18:30:03 2024, MaxMem= 13421772800 cpu:              24.3 elap:               0.8
 (Enter /public/software/apps/Gaussian/g16/l502.exe)
 Two-electron integral symmetry not used.
 UHF open shell SCF:
 Using DIIS extrapolation, IDIIS=  1040.
 NGot= 13421772800 LenX= 13421419340 LenY= 13421250799
 Requested convergence on RMS density matrix=1.00D-08 within 128 cycles.
 Requested convergence on MAX density matrix=1.00D-06.
 Requested convergence on             energy=1.00D-06.
 No special actions if energy rises.
 Fock matrices will be formed incrementally for  20 cycles.

 Cycle   1  Pass 1  IDiag  1:
 FoFJK:  IHMeth= 1 ICntrl=       0 DoSepK=F KAlg= 0 I1Cent=           0 FoldK=F
 IRaf= 850000000 NMat=       1 IRICut=       1 DoRegI=T DoRafI=F ISym2E= 0 IDoP0=0 IntGTp=1.
 FoFCou: FMM=F IPFlag=           0 FMFlag=      100000 FMFlg1=           0
         NFxFlg=           0 DoJE=F BraDBF=F KetDBF=F FulRan=T
         wScrn=  0.000000 ICntrl=         0 IOpCl=  1 I1Cent=           0 NGrid=           0
         NMat0=    1 NMatS0=      1 NMatT0=    0 NMatD0=    1 NMtDS0=    0 NMtDT0=    0
 Symmetry not used in FoFCou.
 E= -2649.03760861582    
 DIIS: error= 4.26D-01 at cycle   1 NSaved=   1.
 NSaved= 1 IEnMin= 1 EnMin= -2649.03760861582     IErMin= 1 ErrMin= 4.26D-01
 ErrMax= 4.26D-01  0.00D+00 EMaxC= 1.00D-01 BMatC= 6.49D+01 BMatP= 6.49D+01
 IDIUse=3 WtCom= 0.00D+00 WtEn= 1.00D+00
 Coeff-Com:  0.100D+01
 Coeff-En:   0.100D+01
 Coeff:      0.100D+01
 Gap=    -0.049 Goal=   None    Shift=    0.000
 Gap=    -0.780 Goal=   None    Shift=    0.000
 GapD=   -0.780 DampG=0.250 DampE=0.125 DampFc=0.1250 IDamp=-1.
 Damping current iteration by 1.25D-01
 RMSDP=2.16D-01 MaxDP=2.42D+01              OVMax= 9.97D-01

 Cycle   2  Pass 1  IDiag  1:
 RMSU=  2.68D-02    CP:  1.16D+00
 E= -2657.25156369331     Delta-E=       -8.213955077484 Rises=F Damp=T
 DIIS: error= 2.93D-01 at cycle   2 NSaved=   2.
 NSaved= 2 IEnMin= 2 EnMin= -2657.25156369331     IErMin= 2 ErrMin= 2.93D-01
 ErrMax= 2.93D-01  0.00D+00 EMaxC= 1.00D-01 BMatC= 2.68D+01 BMatP= 6.49D+01
 IDIUse=3 WtCom= 0.00D+00 WtEn= 1.00D+00
 Coeff-Com: -0.113D+01 0.213D+01
 Coeff-En:   0.000D+00 0.100D+01
 Coeff:      0.000D+00 0.100D+01
 Gap=     0.073 Goal=   None    Shift=    0.000
 Gap=    -0.356 Goal=   None    Shift=    0.000
 RMSDP=3.98D-02 MaxDP=5.39D+00 DE=-8.21D+00 OVMax= 9.88D-01

 Cycle   3  Pass 1  IDiag  1:
 RMSU=  3.92D-02    CP:  9.68D-01  8.04D-01
 E= -2607.02743303109     Delta-E=       50.224130662219 Rises=F Damp=F
 DIIS: error= 1.44D-01 at cycle   3 NSaved=   3.
 NSaved= 3 IEnMin= 2 EnMin= -2657.25156369331     IErMin= 3 ErrMin= 1.44D-01
 ErrMax= 1.44D-01  0.00D+00 EMaxC= 1.00D-01 BMatC= 9.41D+01 BMatP= 2.68D+01
 IDIUse=2 WtCom= 0.00D+00 WtEn= 1.00D+00
 EnCoef did    20 forward-backward iterations
 Coeff-En:   0.521D+00 0.171D+00 0.308D+00
 Coeff:      0.521D+00 0.171D+00 0.308D+00
 Gap=     0.476 Goal=   None    Shift=    0.000
 Gap=    -0.233 Goal=   None    Shift=    0.000
 RMSDP=4.25D-02 MaxDP=4.64D+00 DE= 5.02D+01 OVMax= 9.67D-01

 Cycle   4  Pass 1  IDiag  1:
 RMSU=  2.16D-02    CP:  9.23D-01  1.91D-01  1.65D-01
 E= -2625.67705267076     Delta-E=      -18.649619639669 Rises=F Damp=F
 DIIS: error= 1.87D-01 at cycle   4 NSaved=   4.
 NSaved= 4 IEnMin= 2 EnMin= -2657.25156369331     IErMin= 3 ErrMin= 1.44D-01
 ErrMax= 1.87D-01  0.00D+00 EMaxC= 1.00D-01 BMatC= 6.86D+01 BMatP= 2.68D+01
 IDIUse=2 WtCom= 0.00D+00 WtEn= 1.00D+00
 EnCoef did   100 forward-backward iterations
 Coeff-En:   0.540D+00 0.314D-01 0.239D+00 0.190D+00
 Coeff:      0.540D+00 0.314D-01 0.239D+00 0.190D+00
 Gap=     0.291 Goal=   None    Shift=    0.000
 Gap=    -0.168 Goal=   None    Shift=    0.000
 RMSDP=2.21D-02 MaxDP=1.84D+00 DE=-1.86D+01 OVMax= 9.99D-01

 Cycle   5  Pass 1  IDiag  1:
 RMSU=  9.05D-03    CP:  8.85D-01  2.03D-02  1.09D-01  9.60D-02
 E= -2664.63825125544     Delta-E=      -38.961198584682 Rises=F Damp=F
 DIIS: error= 1.76D-01 at cycle   5 NSaved=   5.
 NSaved= 5 IEnMin= 5 EnMin= -2664.63825125544     IErMin= 3 ErrMin= 1.44D-01
 ErrMax= 1.76D-01  0.00D+00 EMaxC= 1.00D-01 BMatC= 2.05D+01 BMatP= 2.68D+01
 IDIUse=3 WtCom= 0.00D+00 WtEn= 1.00D+00
 EnCoef did   100 forward-backward iterations
 Coeff-Com: -0.540D+00 0.110D+01 0.292D-01 0.371D-01 0.377D+00
 Coeff-En:   0.233D+00 0.123D-01 0.000D+00 0.172D+00 0.583D+00
 Coeff:      0.233D+00 0.123D-01 0.000D+00 0.172D+00 0.583D+00
 Gap=     0.058 Goal=   None    Shift=    0.000
 Gap=    -0.302 Goal=   None    Shift=    0.000
 RMSDP=1.11D-02 MaxDP=4.94D-01 DE=-3.90D+01 OVMax= 8.66D-01

 Cycle   6  Pass 1  IDiag  1:
 RMSU=  8.81D-03    CP:  8.85D-01  1.64D-02  6.60D-02  1.38D-01  2.87D-01
 E= -2663.61179806695     Delta-E=        1.026453188493 Rises=F Damp=F
 DIIS: error= 8.37D-02 at cycle   6 NSaved=   6.
 NSaved= 6 IEnMin= 5 EnMin= -2664.63825125544     IErMin= 6 ErrMin= 8.37D-02
 ErrMax= 8.37D-02  0.00D+00 EMaxC= 1.00D-01 BMatC= 1.52D+01 BMatP= 2.05D+01
 IDIUse=3 WtCom= 1.63D-01 WtEn= 8.37D-01
 EnCoef did   100 forward-backward iterations
 Coeff-Com: -0.339D+00 0.720D+00-0.305D-02-0.158D-01 0.335D+00 0.303D+00
 Coeff-En:   0.166D+00 0.545D-02 0.000D+00 0.000D+00 0.434D+00 0.395D+00
 Coeff:      0.833D-01 0.122D+00-0.497D-03-0.258D-02 0.418D+00 0.380D+00
 Gap=     0.115 Goal=   None    Shift=    0.000
 Gap=    -0.133 Goal=   None    Shift=    0.000
 RMSDP=1.00D-02 MaxDP=1.03D+00 DE= 1.03D+00 OVMax= 9.52D-01

 Cycle   7  Pass 1  IDiag  1:
 RMSU=  6.54D-03    CP:  8.97D-01  1.29D-02  2.58D-02  1.40D-01  4.60D-01
                    CP:  1.73D-01
 E= -2669.00779372964     Delta-E=       -5.395995662695 Rises=F Damp=F
 DIIS: error= 9.88D-02 at cycle   7 NSaved=   7.
 NSaved= 7 IEnMin= 7 EnMin= -2669.00779372964     IErMin= 6 ErrMin= 8.37D-02
 ErrMax= 9.88D-02  0.00D+00 EMaxC= 1.00D-01 BMatC= 9.79D+00 BMatP= 1.52D+01
 IDIUse=3 WtCom= 1.63D-01 WtEn= 8.37D-01
 EnCoef did   100 forward-backward iterations
 Coeff-Com: -0.179D+00 0.428D+00 0.351D-02-0.527D-01 0.242D+00 0.275D+00
 Coeff-Com:  0.283D+00
 Coeff-En:   0.129D+00 0.341D-02 0.000D+00 0.000D+00 0.300D+00 0.234D+00
 Coeff-En:   0.333D+00
 Coeff:      0.787D-01 0.727D-01 0.573D-03-0.860D-02 0.290D+00 0.241D+00
 Coeff:      0.325D+00
 Gap=    -0.003 Goal=   None    Shift=    0.000
 Gap=     0.201 Goal=   None    Shift=    0.000
 RMSDP=6.99D-03 MaxDP=3.92D-01 DE=-5.40D+00 OVMax= 5.42D-01

 Cycle   8  Pass 1  IDiag  1:
 RMSU=  4.46D-03    CP:  8.77D-01 -1.58D-02  3.55D-02  6.46D-02  5.26D-01
                    CP:  2.90D-01  2.50D-01
 E= -2671.44135562100     Delta-E=       -2.433561891365 Rises=F Damp=F
 DIIS: error= 7.63D-02 at cycle   8 NSaved=   8.
 NSaved= 8 IEnMin= 8 EnMin= -2671.44135562100     IErMin= 8 ErrMin= 7.63D-02
 ErrMax= 7.63D-02  0.00D+00 EMaxC= 1.00D-01 BMatC= 3.78D+00 BMatP= 9.79D+00
 IDIUse=3 WtCom= 2.37D-01 WtEn= 7.63D-01
 EnCoef did     2 forward-backward iterations
 Coeff-Com: -0.108D+00 0.238D+00 0.541D-03-0.288D-01 0.325D-01 0.114D+00
 Coeff-Com:  0.284D+00 0.468D+00
 Coeff-En:   0.744D-02 0.000D+00 0.000D+00 0.000D+00 0.000D+00 0.000D+00
 Coeff-En:   0.331D+00 0.661D+00
 Coeff:     -0.198D-01 0.564D-01 0.128D-03-0.683D-02 0.769D-02 0.269D-01
 Coeff:      0.320D+00 0.615D+00
 Gap=     0.061 Goal=   None    Shift=    0.000
 Gap=     0.061 Goal=   None    Shift=    0.000
 RMSDP=4.81D-03 MaxDP=2.37D-01 DE=-2.43D+00 OVMax= 7.40D-01

 Cycle   9  Pass 1  IDiag  1:
 RMSU=  3.86D-03    CP:  8.89D-01 -7.05D-03  2.55D-02  6.18D-02  3.87D-01
                    CP:  2.69D-01  4.72D-01  5.39D-01
 E= -2672.19956013642     Delta-E=       -0.758204515412 Rises=F Damp=F
 DIIS: error= 8.13D-02 at cycle   9 NSaved=   9.
 NSaved= 9 IEnMin= 9 EnMin= -2672.19956013642     IErMin= 8 ErrMin= 7.63D-02
 ErrMax= 8.13D-02  0.00D+00 EMaxC= 1.00D-01 BMatC= 2.81D+00 BMatP= 3.78D+00
 IDIUse=3 WtCom= 2.37D-01 WtEn= 7.63D-01
 EnCoef did     8 forward-backward iterations
 Coeff-Com: -0.627D-01 0.841D-01-0.147D-02 0.320D-02 0.795D-01 0.563D-01
 Coeff-Com:  0.153D+00 0.280D+00 0.408D+00
 Coeff-En:   0.000D+00 0.000D+00 0.000D+00 0.000D+00 0.000D+00 0.000D+00
 Coeff-En:   0.143D+00 0.368D+00 0.489D+00
 Coeff:     -0.148D-01 0.199D-01-0.347D-03 0.758D-03 0.188D-01 0.133D-01
 Coeff:      0.145D+00 0.347D+00 0.470D+00
 Gap=     0.355 Goal=   None    Shift=    0.000
 Gap=     0.123 Goal=   None    Shift=    0.000
 RMSDP=3.80D-03 MaxDP=2.87D-01 DE=-7.58D-01 OVMax= 4.05D-01

 Cycle  10  Pass 1  IDiag  1:
 RMSU=  2.83D-03    CP:  8.81D-01 -1.12D-02  4.22D-02  7.97D-02  4.90D-01
                    CP:  2.93D-01  4.25D-01  5.10D-01  4.33D-01
 E= -2672.47774910318     Delta-E=       -0.278188966761 Rises=F Damp=F
 DIIS: error= 5.83D-02 at cycle  10 NSaved=  10.
 NSaved=10 IEnMin=10 EnMin= -2672.47774910318     IErMin=10 ErrMin= 5.83D-02
 ErrMax= 5.83D-02  0.00D+00 EMaxC= 1.00D-01 BMatC= 1.34D+00 BMatP= 2.81D+00
 IDIUse=3 WtCom= 4.17D-01 WtEn= 5.83D-01
 Coeff-Com:  0.570D-02-0.160D-01-0.700D-03-0.187D-02-0.113D-01-0.143D-01
 Coeff-Com:  0.151D-01 0.124D+00 0.380D+00 0.520D+00
 Coeff-En:   0.000D+00 0.000D+00 0.000D+00 0.000D+00 0.000D+00 0.000D+00
 Coeff-En:   0.000D+00 0.000D+00 0.387D+00 0.613D+00
 Coeff:      0.238D-02-0.666D-02-0.292D-03-0.781D-03-0.473D-02-0.597D-02
 Coeff:      0.631D-02 0.517D-01 0.384D+00 0.574D+00
 Gap=     0.136 Goal=   None    Shift=    0.000
 Gap=     0.001 Goal=   None    Shift=    0.000
 RMSDP=2.61D-03 MaxDP=1.71D-01 DE=-2.78D-01 OVMax= 7.22D-01

 Cycle  11  Pass 1  IDiag  1:
 RMSU=  1.29D-03    CP:  8.83D-01 -1.09D-02  3.18D-02  7.22D-02  4.63D-01
                    CP:  2.57D-01  4.62D-01  6.13D-01  6.44D-01  3.05D-01
 E= -2672.70765847316     Delta-E=       -0.229909369983 Rises=F Damp=F
 DIIS: error= 2.12D-02 at cycle  11 NSaved=  11.
 NSaved=11 IEnMin=11 EnMin= -2672.70765847316     IErMin=11 ErrMin= 2.12D-02
 ErrMax= 2.12D-02  0.00D+00 EMaxC= 1.00D-01 BMatC= 2.94D-01 BMatP= 1.34D+00
 IDIUse=3 WtCom= 7.88D-01 WtEn= 2.12D-01
 Coeff-Com: -0.173D-01 0.205D-01-0.195D-02-0.352D-02 0.797D-03 0.588D-02
 Coeff-Com: -0.315D-02 0.117D-01 0.159D+00 0.371D+00 0.457D+00
 Coeff-En:   0.000D+00 0.000D+00 0.000D+00 0.000D+00 0.000D+00 0.000D+00
 Coeff-En:   0.000D+00 0.000D+00 0.000D+00 0.233D+00 0.767D+00
 Coeff:     -0.136D-01 0.162D-01-0.154D-02-0.278D-02 0.628D-03 0.463D-02
 Coeff:     -0.249D-02 0.922D-02 0.125D+00 0.342D+00 0.523D+00
 Gap=     0.146 Goal=   None    Shift=    0.000
 Gap=     0.024 Goal=   None    Shift=    0.000
 RMSDP=1.30D-03 MaxDP=6.64D-02 DE=-2.30D-01 OVMax= 2.58D-01

 Cycle  12  Pass 1  IDiag  1:
 RMSU=  8.48D-04    CP:  8.81D-01 -1.62D-02  3.41D-02  6.58D-02  4.60D-01
                    CP:  2.71D-01  4.37D-01  5.70D-01  6.64D-01  5.28D-01
                    CP:  4.85D-01
 E= -2672.75602824030     Delta-E=       -0.048369767139 Rises=F Damp=F
 DIIS: error= 6.83D-03 at cycle  12 NSaved=  12.
 NSaved=12 IEnMin=12 EnMin= -2672.75602824030     IErMin=12 ErrMin= 6.83D-03
 ErrMax= 6.83D-03  0.00D+00 EMaxC= 1.00D-01 BMatC= 7.36D-02 BMatP= 2.94D-01
 IDIUse=3 WtCom= 9.32D-01 WtEn= 6.83D-02
 Coeff-Com: -0.659D-02 0.104D-01-0.238D-03 0.880D-04-0.123D-01 0.337D-02
 Coeff-Com: -0.466D-02-0.158D-02-0.192D-01 0.101D+00 0.387D+00 0.543D+00
 Coeff-En:   0.000D+00 0.000D+00 0.000D+00 0.000D+00 0.000D+00 0.000D+00
 Coeff-En:   0.000D+00 0.000D+00 0.000D+00 0.000D+00 0.235D+00 0.765D+00
 Coeff:     -0.614D-02 0.972D-02-0.221D-03 0.820D-04-0.115D-01 0.314D-02
 Coeff:     -0.434D-02-0.147D-02-0.179D-01 0.942D-01 0.376D+00 0.558D+00
 Gap=     0.114 Goal=   None    Shift=    0.000
 Gap=     0.038 Goal=   None    Shift=    0.000
 RMSDP=5.49D-04 MaxDP=3.00D-02 DE=-4.84D-02 OVMax= 8.16D-02

 Cycle  13  Pass 1  IDiag  1:
 RMSU=  2.92D-04    CP:  8.81D-01 -1.42D-02  3.36D-02  6.96D-02  4.63D-01
                    CP:  2.71D-01  4.39D-01  5.98D-01  6.10D-01  5.00D-01
                    CP:  6.99D-01  7.02D-01
 E= -2672.76991389185     Delta-E=       -0.013885651550 Rises=F Damp=F
 DIIS: error= 4.39D-03 at cycle  13 NSaved=  13.
 NSaved=13 IEnMin=13 EnMin= -2672.76991389185     IErMin=13 ErrMin= 4.39D-03
 ErrMax= 4.39D-03  0.00D+00 EMaxC= 1.00D-01 BMatC= 1.31D-02 BMatP= 7.36D-02
 IDIUse=3 WtCom= 9.56D-01 WtEn= 4.39D-02
 Coeff-Com: -0.380D-02 0.663D-02 0.900D-04 0.405D-03-0.106D-01 0.311D-02
 Coeff-Com: -0.567D-03-0.152D-02-0.691D-02 0.258D-01 0.185D+00 0.321D+00
 Coeff-Com:  0.482D+00
 Coeff-En:   0.000D+00 0.000D+00 0.000D+00 0.000D+00 0.000D+00 0.000D+00
 Coeff-En:   0.000D+00 0.000D+00 0.000D+00 0.000D+00 0.000D+00 0.286D-01
 Coeff-En:   0.971D+00
 Coeff:     -0.363D-02 0.634D-02 0.860D-04 0.387D-03-0.101D-01 0.297D-02
 Coeff:     -0.542D-03-0.145D-02-0.661D-02 0.247D-01 0.177D+00 0.308D+00
 Coeff:      0.503D+00
 Gap=     0.114 Goal=   None    Shift=    0.000
 Gap=     0.040 Goal=   None    Shift=    0.000
 RMSDP=1.61D-04 MaxDP=9.19D-03 DE=-1.39D-02 OVMax= 1.42D-02

 Cycle  14  Pass 1  IDiag  1:
 RMSU=  1.40D-04    CP:  8.81D-01 -1.44D-02  3.34D-02  6.93D-02  4.59D-01
                    CP:  2.73D-01  4.40D-01  5.98D-01  6.15D-01  4.97D-01
                    CP:  6.84D-01  7.63D-01  9.01D-01
 E= -2672.77216403019     Delta-E=       -0.002250138344 Rises=F Damp=F
 DIIS: error= 2.40D-03 at cycle  14 NSaved=  14.
 NSaved=14 IEnMin=14 EnMin= -2672.77216403019     IErMin=14 ErrMin= 2.40D-03
 ErrMax= 2.40D-03  0.00D+00 EMaxC= 1.00D-01 BMatC= 3.69D-03 BMatP= 1.31D-02
 IDIUse=3 WtCom= 9.76D-01 WtEn= 2.40D-02
 Coeff-Com: -0.264D-02 0.411D-02-0.577D-05 0.325D-03-0.429D-02 0.288D-02
 Coeff-Com:  0.593D-03-0.274D-02 0.193D-01-0.418D-02 0.911D-02 0.413D-03
 Coeff-Com:  0.210D+00 0.767D+00
 Coeff-En:   0.000D+00 0.000D+00 0.000D+00 0.000D+00 0.000D+00 0.000D+00
 Coeff-En:   0.000D+00 0.000D+00 0.000D+00 0.000D+00 0.000D+00 0.000D+00
 Coeff-En:   0.000D+00 0.100D+01
 Coeff:     -0.258D-02 0.401D-02-0.563D-05 0.317D-03-0.419D-02 0.281D-02
 Coeff:      0.578D-03-0.267D-02 0.189D-01-0.408D-02 0.889D-02 0.403D-03
 Coeff:      0.205D+00 0.773D+00
 Gap=     0.114 Goal=   None    Shift=    0.000
 Gap=     0.042 Goal=   None    Shift=    0.000
 RMSDP=1.32D-04 MaxDP=7.07D-03 DE=-2.25D-03 OVMax= 2.74D-02

 Cycle  15  Pass 1  IDiag  1:
 RMSU=  1.06D-04    CP:  8.81D-01 -1.45D-02  3.33D-02  6.93D-02  4.56D-01
                    CP:  2.75D-01  4.39D-01  5.99D-01  6.22D-01  4.91D-01
                    CP:  6.74D-01  7.77D-01  1.10D+00  8.68D-01
 E= -2672.77269295369     Delta-E=       -0.000528923495 Rises=F Damp=F
 DIIS: error= 1.97D-03 at cycle  15 NSaved=  15.
 NSaved=15 IEnMin=15 EnMin= -2672.77269295369     IErMin=15 ErrMin= 1.97D-03
 ErrMax= 1.97D-03  0.00D+00 EMaxC= 1.00D-01 BMatC= 2.40D-03 BMatP= 3.69D-03
 IDIUse=3 WtCom= 9.80D-01 WtEn= 1.97D-02
 Coeff-Com: -0.105D-02 0.148D-02-0.253D-05 0.215D-03-0.174D-02 0.108D-02
 Coeff-Com:  0.852D-03-0.139D-02 0.259D-01-0.855D-02-0.537D-01-0.118D+00
 Coeff-Com: -0.389D-01 0.683D+00 0.510D+00
 Coeff-En:   0.000D+00 0.000D+00 0.000D+00 0.000D+00 0.000D+00 0.000D+00
 Coeff-En:   0.000D+00 0.000D+00 0.000D+00 0.000D+00 0.000D+00 0.000D+00
 Coeff-En:   0.000D+00 0.145D-01 0.985D+00
 Coeff:     -0.103D-02 0.145D-02-0.248D-05 0.211D-03-0.170D-02 0.106D-02
 Coeff:      0.836D-03-0.136D-02 0.254D-01-0.838D-02-0.527D-01-0.115D+00
 Coeff:     -0.381D-01 0.670D+00 0.520D+00
 Gap=     0.114 Goal=   None    Shift=    0.000
 Gap=     0.042 Goal=   None    Shift=    0.000
 RMSDP=1.06D-04 MaxDP=6.34D-03 DE=-5.29D-04 OVMax= 1.81D-02

 Cycle  16  Pass 1  IDiag  1:
 RMSU=  6.15D-05    CP:  8.81D-01 -1.43D-02  3.31D-02  6.97D-02  4.54D-01
                    CP:  2.76D-01  4.40D-01  5.98D-01  6.24D-01  4.94D-01
                    CP:  6.66D-01  7.78D-01  1.18D+00  1.35D+00  6.75D-01
 E= -2672.77321349371     Delta-E=       -0.000520540019 Rises=F Damp=F
 DIIS: error= 5.16D-04 at cycle  16 NSaved=  16.
 NSaved=16 IEnMin=16 EnMin= -2672.77321349371     IErMin=16 ErrMin= 5.16D-04
 ErrMax= 5.16D-04  0.00D+00 EMaxC= 1.00D-01 BMatC= 2.80D-04 BMatP= 2.40D-03
 IDIUse=3 WtCom= 9.95D-01 WtEn= 5.16D-03
 Coeff-Com: -0.215D-03 0.268D-03 0.217D-04-0.615D-04-0.990D-04-0.109D-03
 Coeff-Com:  0.297D-03-0.800D-03 0.721D-02-0.703D-03-0.143D-01-0.444D-01
 Coeff-Com: -0.111D+00 0.331D-01 0.326D+00 0.805D+00
 Coeff-En:   0.000D+00 0.000D+00 0.000D+00 0.000D+00 0.000D+00 0.000D+00
 Coeff-En:   0.000D+00 0.000D+00 0.000D+00 0.000D+00 0.000D+00 0.000D+00
 Coeff-En:   0.000D+00 0.000D+00 0.000D+00 0.100D+01
 Coeff:     -0.214D-03 0.267D-03 0.215D-04-0.612D-04-0.985D-04-0.108D-03
 Coeff:      0.295D-03-0.796D-03 0.718D-02-0.700D-03-0.142D-01-0.442D-01
 Coeff:     -0.110D+00 0.329D-01 0.324D+00 0.806D+00
 Gap=     0.114 Goal=   None    Shift=    0.000
 Gap=     0.043 Goal=   None    Shift=    0.000
 RMSDP=4.18D-05 MaxDP=2.99D-03 DE=-5.21D-04 OVMax= 7.72D-03

 Cycle  17  Pass 1  IDiag  1:
 RMSU=  2.65D-05    CP:  8.81D-01 -1.43D-02  3.30D-02  6.96D-02  4.53D-01
                    CP:  2.77D-01  4.40D-01  5.98D-01  6.27D-01  4.93D-01
                    CP:  6.65D-01  7.75D-01  1.22D+00  1.43D+00  8.94D-01
                    CP:  1.02D+00
 E= -2672.77328921450     Delta-E=       -0.000075720796 Rises=F Damp=F
 DIIS: error= 1.85D-04 at cycle  17 NSaved=  17.
 NSaved=17 IEnMin=17 EnMin= -2672.77328921450     IErMin=17 ErrMin= 1.85D-04
 ErrMax= 1.85D-04  0.00D+00 EMaxC= 1.00D-01 BMatC= 4.66D-05 BMatP= 2.80D-04
 IDIUse=3 WtCom= 9.98D-01 WtEn= 1.85D-03
 Coeff-Com: -0.184D-03 0.232D-03 0.529D-05-0.464D-05 0.264D-03-0.664D-04
 Coeff-Com:  0.193D-03-0.282D-03 0.506D-04-0.568D-03 0.174D-02-0.219D-02
 Coeff-Com: -0.437D-01-0.725D-01 0.131D+00 0.438D+00 0.548D+00
 Coeff-En:   0.000D+00 0.000D+00 0.000D+00 0.000D+00 0.000D+00 0.000D+00
 Coeff-En:   0.000D+00 0.000D+00 0.000D+00 0.000D+00 0.000D+00 0.000D+00
 Coeff-En:   0.000D+00 0.000D+00 0.000D+00 0.000D+00 0.100D+01
 Coeff:     -0.184D-03 0.231D-03 0.528D-05-0.463D-05 0.263D-03-0.663D-04
 Coeff:      0.192D-03-0.281D-03 0.505D-04-0.567D-03 0.174D-02-0.219D-02
 Coeff:     -0.436D-01-0.724D-01 0.131D+00 0.437D+00 0.548D+00
 Gap=     0.114 Goal=   None    Shift=    0.000
 Gap=     0.043 Goal=   None    Shift=    0.000
 RMSDP=1.59D-05 MaxDP=8.78D-04 DE=-7.57D-05 OVMax= 2.44D-03

 Cycle  18  Pass 1  IDiag  1:
 RMSU=  1.33D-05    CP:  8.81D-01 -1.43D-02  3.30D-02  6.96D-02  4.53D-01
                    CP:  2.77D-01  4.40D-01  5.98D-01  6.27D-01  4.92D-01
                    CP:  6.66D-01  7.73D-01  1.21D+00  1.44D+00  8.75D-01
                    CP:  1.12D+00  9.14D-01
 E= -2672.77330079366     Delta-E=       -0.000011579156 Rises=F Damp=F
 DIIS: error= 1.37D-04 at cycle  18 NSaved=  18.
 NSaved=18 IEnMin=18 EnMin= -2672.77330079366     IErMin=18 ErrMin= 1.37D-04
 ErrMax= 1.37D-04  0.00D+00 EMaxC= 1.00D-01 BMatC= 1.71D-05 BMatP= 4.66D-05
 IDIUse=3 WtCom= 9.99D-01 WtEn= 1.37D-03
 Coeff-Com: -0.106D-03 0.175D-03 0.119D-04-0.274D-04 0.129D-03-0.103D-03
 Coeff-Com:  0.281D-04-0.750D-04-0.937D-03-0.845D-04 0.414D-03 0.558D-02
 Coeff-Com: -0.485D-03-0.318D-01 0.431D-01 0.440D-01 0.232D+00 0.708D+00
 Coeff-En:   0.000D+00 0.000D+00 0.000D+00 0.000D+00 0.000D+00 0.000D+00
 Coeff-En:   0.000D+00 0.000D+00 0.000D+00 0.000D+00 0.000D+00 0.000D+00
 Coeff-En:   0.000D+00 0.000D+00 0.000D+00 0.000D+00 0.000D+00 0.100D+01
 Coeff:     -0.106D-03 0.175D-03 0.119D-04-0.273D-04 0.129D-03-0.103D-03
 Coeff:      0.280D-04-0.749D-04-0.936D-03-0.843D-04 0.413D-03 0.558D-02
 Coeff:     -0.484D-03-0.317D-01 0.430D-01 0.439D-01 0.232D+00 0.708D+00
 Gap=     0.114 Goal=   None    Shift=    0.000
 Gap=     0.043 Goal=   None    Shift=    0.000
 RMSDP=1.05D-05 MaxDP=9.03D-04 DE=-1.16D-05 OVMax= 2.12D-03

 Cycle  19  Pass 1  IDiag  1:
 RMSU=  5.45D-06    CP:  8.81D-01 -1.43D-02  3.31D-02  6.96D-02  4.53D-01
                    CP:  2.77D-01  4.40D-01  5.97D-01  6.27D-01  4.93D-01
                    CP:  6.65D-01  7.74D-01  1.21D+00  1.42D+00  8.98D-01
                    CP:  1.15D+00  1.10D+00  1.24D+00
 E= -2672.77330668274     Delta-E=       -0.000005889076 Rises=F Damp=F
 DIIS: error= 2.98D-05 at cycle  19 NSaved=  19.
 NSaved=19 IEnMin=19 EnMin= -2672.77330668274     IErMin=19 ErrMin= 2.98D-05
 ErrMax= 2.98D-05  0.00D+00 EMaxC= 1.00D-01 BMatC= 3.58D-06 BMatP= 1.71D-05
 IDIUse=1 WtCom= 1.00D+00 WtEn= 0.00D+00
 Coeff-Com: -0.104D-03 0.177D-03 0.822D-05-0.122D-04 0.785D-04-0.555D-04
 Coeff-Com: -0.588D-04 0.163D-03-0.566D-03-0.701D-03-0.539D-03 0.493D-02
 Coeff-Com:  0.215D-01 0.105D-01-0.194D-01-0.170D+00-0.693D-01 0.322D+00
 Coeff-Com:  0.901D+00
 Coeff:     -0.104D-03 0.177D-03 0.822D-05-0.122D-04 0.785D-04-0.555D-04
 Coeff:     -0.588D-04 0.163D-03-0.566D-03-0.701D-03-0.539D-03 0.493D-02
 Coeff:      0.215D-01 0.105D-01-0.194D-01-0.170D+00-0.693D-01 0.322D+00
 Coeff:      0.901D+00
 Gap=     0.114 Goal=   None    Shift=    0.000
 Gap=     0.043 Goal=   None    Shift=    0.000
 RMSDP=9.79D-06 MaxDP=7.62D-04 DE=-5.89D-06 OVMax= 2.03D-03

 Cycle  20  Pass 1  IDiag  1:
 RMSU=  3.83D-06    CP:  8.81D-01 -1.44D-02  3.31D-02  6.95D-02  4.53D-01
                    CP:  2.76D-01  4.40D-01  5.97D-01  6.27D-01  4.94D-01
                    CP:  6.65D-01  7.74D-01  1.20D+00  1.42D+00  9.02D-01
                    CP:  1.17D+00  1.27D+00  1.71D+00  1.45D+00
 E= -2672.77330914485     Delta-E=       -0.000002462117 Rises=F Damp=F
 DIIS: error= 6.77D-05 at cycle  20 NSaved=  20.
 NSaved=20 IEnMin=20 EnMin= -2672.77330914485     IErMin=19 ErrMin= 2.98D-05
 ErrMax= 6.77D-05  0.00D+00 EMaxC= 1.00D-01 BMatC= 2.78D-06 BMatP= 3.58D-06
 IDIUse=1 WtCom= 1.00D+00 WtEn= 0.00D+00
 Coeff-Com: -0.675D-04 0.106D-03 0.354D-05-0.709D-05 0.369D-04-0.209D-04
 Coeff-Com: -0.987D-04 0.916D-04 0.241D-03-0.762D-03-0.353D-04-0.328D-03
 Coeff-Com:  0.134D-01 0.218D-01-0.317D-01-0.138D+00-0.145D+00-0.172D+00
 Coeff-Com:  0.682D+00 0.770D+00
 Coeff:     -0.675D-04 0.106D-03 0.354D-05-0.709D-05 0.369D-04-0.209D-04
 Coeff:     -0.987D-04 0.916D-04 0.241D-03-0.762D-03-0.353D-04-0.328D-03
 Coeff:      0.134D-01 0.218D-01-0.317D-01-0.138D+00-0.145D+00-0.172D+00
 Coeff:      0.682D+00 0.770D+00
 Gap=     0.114 Goal=   None    Shift=    0.000
 Gap=     0.043 Goal=   None    Shift=    0.000
 RMSDP=7.59D-06 MaxDP=5.46D-04 DE=-2.46D-06 OVMax= 1.66D-03

 Cycle  21  Pass 1  IDiag  1:
 Restarting incremental Fock formation.
 E= -2672.77331054809     Delta-E=       -0.000001403235 Rises=F Damp=F
 DIIS: error= 5.31D-05 at cycle  21 NSaved=  20.
 NSaved=20 IEnMin=20 EnMin= -2672.77331054809     IErMin=18 ErrMin= 2.98D-05
 ErrMax= 5.31D-05  0.00D+00 EMaxC= 1.00D-01 BMatC= 1.30D-06 BMatP= 2.78D-06
 IDIUse=1 WtCom= 1.00D+00 WtEn= 0.00D+00
 Coeff-Com: -0.289D-04 0.467D-04-0.131D-05 0.594D-05-0.862D-05-0.356D-04
 Coeff-Com:  0.232D-04 0.244D-03-0.447D-03 0.730D-03-0.116D-02 0.264D-02
 Coeff-Com:  0.928D-02-0.156D-01-0.407D-01-0.552D-01-0.145D+00 0.177D+00
 Coeff-Com:  0.375D+00 0.693D+00
 Coeff:     -0.289D-04 0.467D-04-0.131D-05 0.594D-05-0.862D-05-0.356D-04
 Coeff:      0.232D-04 0.244D-03-0.447D-03 0.730D-03-0.116D-02 0.264D-02
 Coeff:      0.928D-02-0.156D-01-0.407D-01-0.552D-01-0.145D+00 0.177D+00
 Coeff:      0.375D+00 0.693D+00
 Gap=     0.114 Goal=   None    Shift=    0.000
 Gap=     0.043 Goal=   None    Shift=    0.000
 RMSDP=2.64D-06 MaxDP=1.22D-04 DE=-1.40D-06 OVMax= 3.59D-04

 Cycle  22  Pass 1  IDiag  1:
 RMSU=  2.64D-06    CP:  1.00D+00
 E= -2672.77331086248     Delta-E=       -0.000000314397 Rises=F Damp=F
 DIIS: error= 3.99D-05 at cycle  22 NSaved=  20.
 NSaved=20 IEnMin=20 EnMin= -2672.77331086248     IErMin=17 ErrMin= 2.98D-05
 ErrMax= 3.99D-05  0.00D+00 EMaxC= 1.00D-01 BMatC= 6.40D-07 BMatP= 1.30D-06
 IDIUse=1 WtCom= 1.00D+00 WtEn= 0.00D+00
 Coeff-Com:  0.106D-04-0.123D-04-0.104D-04-0.691D-05 0.139D-04-0.464D-04
 Coeff-Com:  0.868D-04-0.691D-04 0.824D-03-0.668D-03-0.320D-02-0.211D-02
 Coeff-Com: -0.154D-02 0.187D-01 0.187D-01-0.244D-01-0.928D-01-0.744D-01
 Coeff-Com:  0.443D+00 0.718D+00
 Coeff:      0.106D-04-0.123D-04-0.104D-04-0.691D-05 0.139D-04-0.464D-04
 Coeff:      0.868D-04-0.691D-04 0.824D-03-0.668D-03-0.320D-02-0.211D-02
 Coeff:     -0.154D-02 0.187D-01 0.187D-01-0.244D-01-0.928D-01-0.744D-01
 Coeff:      0.443D+00 0.718D+00
 Gap=     0.114 Goal=   None    Shift=    0.000
 Gap=     0.043 Goal=   None    Shift=    0.000
 RMSDP=1.62D-06 MaxDP=8.49D-05 DE=-3.14D-07 OVMax= 2.61D-04

 Cycle  23  Pass 1  IDiag  1:
 RMSU=  1.30D-06    CP:  1.00D+00  1.36D+00
 E= -2672.77331103489     Delta-E=       -0.000000172404 Rises=F Damp=F
 DIIS: error= 9.11D-06 at cycle  23 NSaved=  20.
 NSaved=20 IEnMin=20 EnMin= -2672.77331103489     IErMin=20 ErrMin= 9.11D-06
 ErrMax= 9.11D-06  0.00D+00 EMaxC= 1.00D-01 BMatC= 7.54D-08 BMatP= 6.40D-07
 IDIUse=1 WtCom= 1.00D+00 WtEn= 0.00D+00
 Coeff-Com: -0.627D-06-0.543D-05 0.540D-05 0.170D-04-0.271D-04-0.106D-04
 Coeff-Com:  0.125D-04 0.401D-03 0.203D-03-0.468D-03-0.156D-02-0.100D-02
 Coeff-Com:  0.409D-02 0.973D-02 0.141D-01-0.134D-01-0.106D+00 0.650D-01
 Coeff-Com:  0.294D+00 0.735D+00
 Coeff:     -0.627D-06-0.543D-05 0.540D-05 0.170D-04-0.271D-04-0.106D-04
 Coeff:      0.125D-04 0.401D-03 0.203D-03-0.468D-03-0.156D-02-0.100D-02
 Coeff:      0.409D-02 0.973D-02 0.141D-01-0.134D-01-0.106D+00 0.650D-01
 Coeff:      0.294D+00 0.735D+00
 Gap=     0.114 Goal=   None    Shift=    0.000
 Gap=     0.043 Goal=   None    Shift=    0.000
 RMSDP=8.66D-07 MaxDP=6.12D-05 DE=-1.72D-07 OVMax= 9.76D-05

 Cycle  24  Pass 1  IDiag  1:
 RMSU=  7.37D-07    CP:  1.00D+00  1.50D+00  1.22D+00
 E= -2672.77331106828     Delta-E=       -0.000000033393 Rises=F Damp=F
 DIIS: error= 3.93D-06 at cycle  24 NSaved=  20.
 NSaved=20 IEnMin=20 EnMin= -2672.77331106828     IErMin=20 ErrMin= 3.93D-06
 ErrMax= 3.93D-06  0.00D+00 EMaxC= 1.00D-01 BMatC= 2.67D-08 BMatP= 7.54D-08
 IDIUse=1 WtCom= 1.00D+00 WtEn= 0.00D+00
 Coeff-Com: -0.367D-05 0.332D-05 0.802D-05-0.918D-05-0.311D-04 0.665D-04
 Coeff-Com: -0.110D-03 0.283D-03 0.489D-03-0.942D-03-0.205D-03-0.182D-02
 Coeff-Com:  0.507D-03 0.175D-01 0.168D-01-0.692D-01-0.110D+00-0.677D-01
 Coeff-Com:  0.487D+00 0.727D+00
 Coeff:     -0.367D-05 0.332D-05 0.802D-05-0.918D-05-0.311D-04 0.665D-04
 Coeff:     -0.110D-03 0.283D-03 0.489D-03-0.942D-03-0.205D-03-0.182D-02
 Coeff:      0.507D-03 0.175D-01 0.168D-01-0.692D-01-0.110D+00-0.677D-01
 Coeff:      0.487D+00 0.727D+00
 Gap=     0.114 Goal=   None    Shift=    0.000
 Gap=     0.043 Goal=   None    Shift=    0.000
 RMSDP=7.96D-07 MaxDP=2.93D-05 DE=-3.34D-08 OVMax= 1.49D-04

 Cycle  25  Pass 1  IDiag  1:
 RMSU=  5.43D-07    CP:  1.00D+00  1.65D+00  1.53D+00  1.08D+00
 E= -2672.77331109105     Delta-E=       -0.000000022766 Rises=F Damp=F
 DIIS: error= 1.68D-06 at cycle  25 NSaved=  20.
 NSaved=20 IEnMin=20 EnMin= -2672.77331109105     IErMin=20 ErrMin= 1.68D-06
 ErrMax= 1.68D-06  0.00D+00 EMaxC= 1.00D-01 BMatC= 6.22D-09 BMatP= 2.67D-08
 IDIUse=1 WtCom= 1.00D+00 WtEn= 0.00D+00
 Coeff-Com: -0.177D-05-0.129D-05 0.865D-05-0.295D-05 0.415D-04-0.234D-03
 Coeff-Com:  0.373D-04 0.325D-03-0.255D-03 0.619D-03-0.866D-04-0.136D-02
 Coeff-Com:  0.127D-02 0.153D-01 0.317D-02-0.943D-01-0.179D+00-0.223D-01
 Coeff-Com:  0.403D+00 0.874D+00
 Coeff:     -0.177D-05-0.129D-05 0.865D-05-0.295D-05 0.415D-04-0.234D-03
 Coeff:      0.373D-04 0.325D-03-0.255D-03 0.619D-03-0.866D-04-0.136D-02
 Coeff:      0.127D-02 0.153D-01 0.317D-02-0.943D-01-0.179D+00-0.223D-01
 Coeff:      0.403D+00 0.874D+00
 Gap=     0.114 Goal=   None    Shift=    0.000
 Gap=     0.043 Goal=   None    Shift=    0.000
 RMSDP=6.14D-07 MaxDP=2.39D-05 DE=-2.28D-08 OVMax= 1.34D-04

 Cycle  26  Pass 1  IDiag  1:
 RMSU=  2.87D-07    CP:  1.00D+00  1.75D+00  1.75D+00  1.41D+00  1.55D+00
 E= -2672.77331109879     Delta-E=       -0.000000007744 Rises=F Damp=F
 DIIS: error= 1.30D-06 at cycle  26 NSaved=  20.
 NSaved=20 IEnMin=20 EnMin= -2672.77331109879     IErMin=20 ErrMin= 1.30D-06
 ErrMax= 1.30D-06  0.00D+00 EMaxC= 1.00D-01 BMatC= 3.50D-09 BMatP= 6.22D-09
 IDIUse=1 WtCom= 1.00D+00 WtEn= 0.00D+00
 Coeff-Com: -0.340D-05 0.793D-05 0.310D-05 0.388D-05-0.895D-04-0.161D-04
 Coeff-Com:  0.293D-03 0.211D-03 0.152D-03-0.668D-03-0.209D-02-0.319D-02
 Coeff-Com:  0.450D-02 0.229D-01-0.311D-01-0.917D-01-0.137D+00 0.101D+00
 Coeff-Com:  0.570D+00 0.566D+00
 Coeff:     -0.340D-05 0.793D-05 0.310D-05 0.388D-05-0.895D-04-0.161D-04
 Coeff:      0.293D-03 0.211D-03 0.152D-03-0.668D-03-0.209D-02-0.319D-02
 Coeff:      0.450D-02 0.229D-01-0.311D-01-0.917D-01-0.137D+00 0.101D+00
 Coeff:      0.570D+00 0.566D+00
 Gap=     0.114 Goal=   None    Shift=    0.000
 Gap=     0.043 Goal=   None    Shift=    0.000
 RMSDP=2.37D-07 MaxDP=8.39D-06 DE=-7.74D-09 OVMax= 4.82D-05

 Cycle  27  Pass 1  IDiag  1:
 RMSU=  1.59D-07    CP:  1.00D+00  1.78D+00  1.81D+00  1.50D+00  1.74D+00
                    CP:  1.04D+00
 E= -2672.77331110062     Delta-E=       -0.000000001827 Rises=F Damp=F
 DIIS: error= 7.52D-07 at cycle  27 NSaved=  20.
 NSaved=20 IEnMin=20 EnMin= -2672.77331110062     IErMin=20 ErrMin= 7.52D-07
 ErrMax= 7.52D-07  0.00D+00 EMaxC= 1.00D-01 BMatC= 1.12D-09 BMatP= 3.50D-09
 IDIUse=1 WtCom= 1.00D+00 WtEn= 0.00D+00
 Coeff-Com:  0.199D-05 0.222D-05-0.887D-05 0.342D-04-0.673D-05 0.794D-04
 Coeff-Com:  0.142D-03 0.267D-03 0.224D-03 0.166D-03-0.348D-03-0.678D-02
 Coeff-Com:  0.702D-02 0.460D-03 0.377D-02-0.499D-01-0.449D-01 0.382D-01
 Coeff-Com:  0.283D+00 0.768D+00
 Coeff:      0.199D-05 0.222D-05-0.887D-05 0.342D-04-0.673D-05 0.794D-04
 Coeff:      0.142D-03 0.267D-03 0.224D-03 0.166D-03-0.348D-03-0.678D-02
 Coeff:      0.702D-02 0.460D-03 0.377D-02-0.499D-01-0.449D-01 0.382D-01
 Coeff:      0.283D+00 0.768D+00
 Gap=     0.114 Goal=   None    Shift=    0.000
 Gap=     0.043 Goal=   None    Shift=    0.000
 RMSDP=1.83D-07 MaxDP=6.25D-06 DE=-1.83D-09 OVMax= 4.10D-05

 Cycle  28  Pass 1  IDiag  1:
 RMSU=  1.03D-07    CP:  1.00D+00  1.82D+00  1.84D+00  1.58D+00  1.83D+00
                    CP:  1.24D+00  1.46D+00
 E= -2672.77331110146     Delta-E=       -0.000000000837 Rises=F Damp=F
 DIIS: error= 3.91D-07 at cycle  28 NSaved=  20.
 NSaved=20 IEnMin=20 EnMin= -2672.77331110146     IErMin=20 ErrMin= 3.91D-07
 ErrMax= 3.91D-07  0.00D+00 EMaxC= 1.00D-01 BMatC= 3.44D-10 BMatP= 1.12D-09
 IDIUse=1 WtCom= 1.00D+00 WtEn= 0.00D+00
 Coeff-Com:  0.455D-06-0.664D-05 0.277D-04 0.922D-05 0.898D-04 0.105D-03
 Coeff-Com:  0.857D-04-0.489D-03-0.206D-03 0.126D-03-0.284D-02 0.230D-02
 Coeff-Com:  0.218D-03 0.682D-02-0.120D-01-0.365D-01-0.383D-01 0.823D-01
 Coeff-Com:  0.407D+00 0.591D+00
 Coeff:      0.455D-06-0.664D-05 0.277D-04 0.922D-05 0.898D-04 0.105D-03
 Coeff:      0.857D-04-0.489D-03-0.206D-03 0.126D-03-0.284D-02 0.230D-02
 Coeff:      0.218D-03 0.682D-02-0.120D-01-0.365D-01-0.383D-01 0.823D-01
 Coeff:      0.407D+00 0.591D+00
 Gap=     0.114 Goal=   None    Shift=    0.000
 Gap=     0.043 Goal=   None    Shift=    0.000
 RMSDP=8.90D-08 MaxDP=2.81D-06 DE=-8.37D-10 OVMax= 2.14D-05

 Cycle  29  Pass 1  IDiag  1:
 RMSU=  4.63D-08    CP:  1.00D+00  1.84D+00  1.85D+00  1.59D+00  1.88D+00
                    CP:  1.31D+00  1.69D+00  1.21D+00
 E= -2672.77331110171     Delta-E=       -0.000000000249 Rises=F Damp=F
 DIIS: error= 2.26D-07 at cycle  29 NSaved=  20.
 NSaved=20 IEnMin=20 EnMin= -2672.77331110171     IErMin=20 ErrMin= 2.26D-07
 ErrMax= 2.26D-07  0.00D+00 EMaxC= 1.00D-01 BMatC= 1.38D-10 BMatP= 3.44D-10
 IDIUse=1 WtCom= 1.00D+00 WtEn= 0.00D+00
 Coeff-Com: -0.274D-05-0.325D-05 0.214D-04 0.735D-04 0.212D-04-0.747D-04
 Coeff-Com: -0.914D-03-0.498D-03 0.306D-05 0.520D-02 0.166D-04-0.184D-02
 Coeff-Com: -0.712D-02 0.177D-01 0.910D-02-0.216D-01-0.111D+00-0.246D+00
 Coeff-Com:  0.258D+00 0.110D+01
 Coeff:     -0.274D-05-0.325D-05 0.214D-04 0.735D-04 0.212D-04-0.747D-04
 Coeff:     -0.914D-03-0.498D-03 0.306D-05 0.520D-02 0.166D-04-0.184D-02
 Coeff:     -0.712D-02 0.177D-01 0.910D-02-0.216D-01-0.111D+00-0.246D+00
 Coeff:      0.258D+00 0.110D+01
 Gap=     0.114 Goal=   None    Shift=    0.000
 Gap=     0.043 Goal=   None    Shift=    0.000
 RMSDP=9.96D-08 MaxDP=3.88D-06 DE=-2.49D-10 OVMax= 2.45D-05

 Cycle  30  Pass 1  IDiag  1:
 RMSU=  4.18D-08    CP:  1.00D+00  1.84D+00  1.86D+00  1.63D+00  1.93D+00
                    CP:  1.42D+00  2.02D+00  1.64D+00  1.60D+00
 E= -2672.77331110191     Delta-E=       -0.000000000207 Rises=F Damp=F
 DIIS: error= 2.73D-07 at cycle  30 NSaved=  20.
 NSaved=20 IEnMin=20 EnMin= -2672.77331110191     IErMin=19 ErrMin= 2.26D-07
 ErrMax= 2.73D-07  0.00D+00 EMaxC= 1.00D-01 BMatC= 6.39D-11 BMatP= 1.38D-10
 IDIUse=1 WtCom= 1.00D+00 WtEn= 0.00D+00
 Coeff-Com: -0.117D-04 0.494D-05-0.287D-04-0.959D-04 0.229D-04 0.709D-05
 Coeff-Com:  0.290D-03 0.238D-03 0.221D-02-0.252D-02-0.150D-02-0.389D-02
 Coeff-Com:  0.156D-01 0.149D-01 0.934D-02-0.760D-01-0.273D+00-0.135D+00
 Coeff-Com:  0.590D+00 0.859D+00
 Coeff:     -0.117D-04 0.494D-05-0.287D-04-0.959D-04 0.229D-04 0.709D-05
 Coeff:      0.290D-03 0.238D-03 0.221D-02-0.252D-02-0.150D-02-0.389D-02
 Coeff:      0.156D-01 0.149D-01 0.934D-02-0.760D-01-0.273D+00-0.135D+00
 Coeff:      0.590D+00 0.859D+00
 Gap=     0.114 Goal=   None    Shift=    0.000
 Gap=     0.043 Goal=   None    Shift=    0.000
 RMSDP=6.21D-08 MaxDP=3.14D-06 DE=-2.07D-10 OVMax= 1.69D-05

 Cycle  31  Pass 1  IDiag  1:
 RMSU=  2.23D-08    CP:  1.00D+00  1.85D+00  1.86D+00  1.64D+00  1.95D+00
                    CP:  1.48D+00  2.20D+00  1.86D+00  2.16D+00  1.49D+00
 E= -2672.77331110200     Delta-E=       -0.000000000085 Rises=F Damp=F
 DIIS: error= 7.69D-08 at cycle  31 NSaved=  20.
 NSaved=20 IEnMin=20 EnMin= -2672.77331110200     IErMin=20 ErrMin= 7.69D-08
 ErrMax= 7.69D-08  0.00D+00 EMaxC= 1.00D-01 BMatC= 1.87D-11 BMatP= 6.39D-11
 IDIUse=1 WtCom= 1.00D+00 WtEn= 0.00D+00
 Coeff-Com: -0.270D-05-0.521D-04-0.808D-04 0.913D-04 0.443D-03 0.513D-03
 Coeff-Com: -0.759D-07-0.139D-02-0.120D-02 0.767D-03 0.289D-02 0.128D-03
 Coeff-Com: -0.533D-03 0.140D-01 0.562D-03-0.375D-01-0.165D+00-0.912D-01
 Coeff-Com:  0.450D+00 0.827D+00
 Coeff:     -0.270D-05-0.521D-04-0.808D-04 0.913D-04 0.443D-03 0.513D-03
 Coeff:     -0.759D-07-0.139D-02-0.120D-02 0.767D-03 0.289D-02 0.128D-03
 Coeff:     -0.533D-03 0.140D-01 0.562D-03-0.375D-01-0.165D+00-0.912D-01
 Coeff:      0.450D+00 0.827D+00
 Gap=     0.114 Goal=   None    Shift=    0.000
 Gap=     0.043 Goal=   None    Shift=    0.000
 RMSDP=3.76D-08 MaxDP=1.74D-06 DE=-8.55D-11 OVMax= 1.15D-05

 Cycle  32  Pass 1  IDiag  1:
 RMSU=  1.27D-08    CP:  1.00D+00  1.85D+00  1.86D+00  1.64D+00  1.96D+00
                    CP:  1.51D+00  2.31D+00  2.01D+00  2.44D+00  1.86D+00
                    CP:  1.40D+00
 E= -2672.77331110202     Delta-E=       -0.000000000017 Rises=F Damp=F
 DIIS: error= 7.78D-08 at cycle  32 NSaved=  20.
[...]
 00192454,-0.00173633,-0.00061212,-0.00002290,-0.00001386,-0.00011303,0
 .00008308,0.00017586,-0.00002604,0.00013540,0.00018890,-0.00015857,-0.
 00014659,0.00016068,0.00003828,-0.00043024,0.00100403,0.00204170,-0.00
 100502,0.00003267,-0.00017537,-0.00088923,-0.00173047,0.00471167,-0.00
 249982,-0.01335758,0.00664543,0.01970840,-0.17720894,0.05835116,0.1333
 7534,0.00766026,-0.00205981,-0.00336771,-0.00025417,0.00009050,-0.0006
 1741,0.00002001,-0.00021719,0.00015624,0.00007271,0.00003004,0.0000459
 7,0.00002895,-0.00005956,0.00007488,0.00000998,-0.00002100,-0.00020501
 ,0.00004253,-0.00018847,-0.00001318,0.00000810,0.00000206,-0.00001376,
 -0.00002010,0.00000219,-0.00001292,-0.00004172,-0.00000081,-0.00002539
 ,0.00000323,0.00000702,0.00001217,0.00001875,0.00008650,-0.00010669,-0
 .00019715,-0.00038309,0.00002749,-0.00058544,0.00030157,0.00084110,0.0
 0007698,-0.00230928,-0.00030222,0.19047526,0.00001838,0.00003052,-0.00
 000676,-0.00004179,-0.00004090,0.00003580,-0.00002281,-0.00005187,0.00
 003688,0.00015951,0.00000071,-0.00007913,0.00016621,-0.00043402,-0.000
 21184,0.00035445,0.00110464,-0.00041518,-0.00051612,0.00031462,-0.0004
 2871,-0.00234489,-0.00157199,-0.00039088,0.00012678,-0.00040771,0.0002
 4838,-0.00018378,0.00028503,0.00000709,-0.00002808,0.00000142,-0.00006
 890,-0.00014167,0.00029258,0.00016943,0.00173207,0.00428685,0.00160341
 ,0.00000914,-0.00065167,0.00063872,0.00467022,0.00527636,0.00149180,0.
 00912647,0.00217319,-0.00999253,0.05825312,-0.06291737,-0.05212976,-0.
 00238353,0.00424063,0.00579258,0.00056503,-0.00057276,0.00021064,-0.00
 015021,0.00004767,-0.00015720,-0.00014518,-0.00010095,-0.00016333,-0.0
 0004958,0.00025014,0.00010984,-0.00009951,-0.00003284,0.00049359,-0.00
 002570,0.00001940,0.00000354,0.00000570,0.00000293,-0.00000978,-0.0000
 0727,0.00000647,-0.00000825,-0.00007158,-0.00001449,-0.00004788,0.0000
 2694,0.00001677,-0.00000431,-0.00002037,-0.00005373,0.00007354,-0.0003
 5337,-0.00073538,-0.00013895,0.00034934,-0.00016318,-0.00047449,-0.002
 36866,-0.00369124,-0.00043260,-0.06671189,0.05314036,0.00000506,0.0000
 0005,-0.00001317,0.00000845,0.00000512,0.00000719,-0.00010309,0.000041
 10,0.00015048,0.00003555,0.00010023,-0.00002053,0.00008759,-0.00031275
 ,-0.00010449,-0.00021864,-0.00038256,0.00025026,-0.00065383,0.00060827
 ,0.00045306,0.00104333,-0.00086899,0.00154821,-0.00002787,0.00024074,-
 0.00104631,0.00034564,-0.00031997,0.00036163,0.00004044,-0.00008645,-0
 .00012102,0.00121941,-0.00040529,-0.00074031,-0.00253692,0.00182414,-0
 .00384476,-0.00097821,0.00047068,-0.00049581,-0.00174384,0.00134267,0.
 00068223,-0.00798843,0.00354476,0.00996236,0.13239534,-0.05185773,-0.1
 9645145,0.02111044,-0.00776518,-0.01589225,-0.00000677,-0.00006988,0.0
 0026997,0.00006551,0.00012120,0.00001256,-0.00007773,-0.00006718,-0.00
 009412,-0.00004099,-0.00009947,-0.00018231,-0.00004265,0.00019144,0.00
 030425,-0.00000316,-0.00021148,-0.00008641,0.00000226,0.00000510,-0.00
 000717,-0.00001072,0.00000740,-0.00001949,0.00000809,-0.00001610,-0.00
 001893,-0.00001646,0.00002622,0.00000610,-0.00007612,0.00011366,-0.000
 42217,0.00004690,-0.00010525,-0.00000910,-0.00043370,0.00014451,0.0003
 0851,0.00015207,-0.00051857,0.00084731,-0.14172174,0.05418849,0.204531
 05,0.00004127,0.00001874,0.00003173,-0.00010065,-0.00005008,-0.0000525
 1,-0.00063105,0.00017345,-0.00008208,0.00027357,0.00023647,-0.00012854
 ,-0.00023809,-0.00033014,-0.00032918,-0.00021519,0.00024825,-0.0004361
 6,0.00030916,-0.00216495,0.00358456,0.00007000,0.00066584,-0.00031118,
 -0.00006006,-0.00022255,0.00018095,-0.00007974,0.00005317,-0.00012026,
 -0.00001663,-0.00002854,0.00000990,0.00000608,0.00000170,0.00003848,-0
 .00006932,0.00004939,-0.00005311,0.00002309,-0.00003184,0.00006664,0.0
 0001466,0.00000374,-0.00004163,-0.00001715,0.00000901,-0.00001555,-0.0
 0002129,-0.00003624,-0.00002904,0.00006820,0.00007819,0.00018116,-0.00
 134453,0.01586193,0.01061138,-0.00094518,-0.00010191,-0.00354593,-0.06
 529213,0.06684366,0.04708195,0.00675290,-0.00903316,-0.00427239,0.0057
 3997,-0.00162871,0.00484865,0.00034607,-0.00055072,-0.00003215,0.00000
 122,-0.00000083,-0.00000730,0.00000293,0.00000649,-0.00000844,0.000025
 40,-0.00000980,0.00002433,-0.00000064,0.00000790,0.00000723,0.00000150
 ,0.00000284,-0.00000086,-0.00000566,-0.00000339,-0.00000392,-0.0000000
 7,0.00000050,-0.00000049,-0.00000551,0.00000841,-0.00000067,0.00003025
 ,0.00001446,0.00000952,0.05862965,-0.00002145,-0.00015308,-0.00000861,
 0.00012528,0.00010810,-0.00012912,-0.00014391,-0.00042087,0.00017802,-
 0.00008878,-0.00001194,0.00010415,0.00008035,0.00013213,-0.00008517,-0
 .00017588,0.00028698,0.00058142,-0.00062099,0.00035971,0.00021027,-0.0
 0013776,0.00028977,-0.00016695,0.00010963,-0.00012606,0.00022957,-0.00
 012349,0.00012186,-0.00004415,-0.00003784,0.00001793,0.00003201,0.0000
 3195,-0.00002636,0.00006122,-0.00005204,0.00001032,-0.00005939,0.00004
 396,-0.00002206,0.00009162,0.00003327,-0.00000942,-0.00006617,-0.00004
 781,0.00002647,-0.00001111,0.00006234,-0.00000255,-0.00000294,-0.00006
 370,-0.00004566,0.00002591,-0.00238499,0.00330464,0.00403073,-0.000019
 51,0.00102907,0.00041391,0.06701878,-0.25236208,-0.11532348,0.00909812
 ,-0.01756215,-0.01491699,-0.00261504,-0.00239273,0.00294797,0.00052218
 ,-0.00036054,-0.00093102,-0.00001572,0.00000103,0.00002152,0.00000591,
 -0.00000558,-0.00000810,0.00000950,-0.00001008,-0.00001316,-0.00000034
 ,0.00000272,-0.00000247,0.00000430,-0.00000469,-0.00000086,0.00000289,
 0.00000138,-0.00000233,0.00000265,-0.00000250,0.00000062,0.00000391,-0
 .00000576,0.00000663,-0.00001952,-0.00001357,-0.00000431,-0.07071720,0
 .26669167,0.00004667,0.00005025,0.00000406,-0.00011546,0.00002430,0.00
 003497,-0.00051240,0.00033276,0.00008020,0.00031281,0.00030830,-0.0002
 6734,-0.00020253,-0.00048029,-0.00014919,0.00019589,0.00149166,-0.0003
 7656,0.00381821,0.00125928,-0.00254422,-0.00005952,-0.00111909,0.00012
 833,0.00014934,0.00002478,-0.00004611,-0.00003271,0.00004125,0.0000085
 8,-0.00000678,0.00000951,-0.00003903,-0.00000635,0.00000817,-0.0000488
 8,0.00008906,0.00003783,0.00011427,-0.00002990,0.00000248,-0.00006338,
 -0.00002034,0.00001034,0.00005937,0.00006627,-0.00004410,-0.00000469,-
 0.00006699,-0.00000092,-0.00005353,0.00022321,0.00002008,-0.00022654,0
 .00755012,-0.02350184,-0.00801508,-0.00293685,0.00052286,0.00178100,0.
 04724618,-0.11298065,-0.11682217,-0.00275530,0.00967812,0.00932065,0.0
 0465285,0.00226383,0.00256077,-0.00009570,-0.00018894,0.00056615,0.000
 00414,0.00000317,-0.00000785,0.00000053,-0.00000465,0.00000445,0.00000
 940,0.00002233,0.00001829,0.00001161,-0.00000379,-0.00001313,0.0000034
 8,0.00000068,-0.00000329,0.00000627,-0.00001195,-0.00000135,0.00000387
 ,0.00000183,0.00000220,0.00000316,-0.00000131,0.00000282,0.00001082,0.
 00002428,-0.00000970,-0.05447592,0.12257647,0.11538641,-0.00001416,0.0
 0007122,-0.00004577,0.00002913,-0.00010696,0.00016658,-0.00002431,0.00
 029877,0.00005209,0.00007835,0.00004216,-0.00017697,-0.00023926,-0.000
 28690,0.00038194,0.00266326,0.00101593,0.00224496,-0.00021520,-0.00026
 655,-0.00087072,-0.00045584,-0.00003525,-0.00029751,0.00000673,0.00002
 963,-0.00010138,0.00014320,0.00002655,0.00011384,-0.00000052,0.0000123
 2,-0.00001472,-0.00001310,-0.00000542,0.00000083,-0.00000545,0.0000180
 9,-0.00000230,-0.00001662,0.00000629,-0.00002098,-0.00002058,0.0000089
 0,0.00002769,0.00003658,-0.00002845,0.00001010,-0.00006007,0.00001615,
 -0.00002319,0.00002312,0.00002615,0.00013529,0.00740931,-0.00068779,0.
 00395760,-0.00122357,-0.00087512,0.00031808,0.00114595,0.00111866,0.00
 865299,-0.13526436,-0.01651347,0.13644929,-0.00082350,-0.00244941,0.00
 670855,-0.00146474,-0.00104852,-0.00169470,0.00001879,0.00000911,-0.00
 003544,0.00004860,0.00000232,0.00001204,0.00002247,0.00016947,0.000038
 82,0.00000260,0.00000294,0.00000125,-0.00000238,0.00000125,0.00000033,
 -0.00000510,0.00000064,-0.00000062,-0.00000303,0.00000298,0.00000059,-
 0.00001214,0.00000598,-0.00000658,0.00002079,-0.00000134,0.00003382,-0
 .00358611,0.00015201,-0.00311678,0.13176041,-0.00002722,0.00007109,0.0
 0006161,0.00004214,-0.00003895,-0.00008674,-0.00021765,0.00010927,0.00
 029952,0.00006964,0.00013780,-0.00008119,0.00076675,0.00050263,-0.0009
 3850,0.00028280,-0.00411424,-0.00181669,-0.00027867,-0.00035683,0.0004
 9717,0.00003486,0.00007428,0.00017336,-0.00002508,0.00003447,-0.000195
 06,0.00008560,-0.00005811,0.00009682,0.00001636,-0.00001670,-0.0000363
 8,-0.00003340,0.00003042,-0.00004838,0.00002566,-0.00001461,0.00004640
 ,-0.00004150,0.00002454,-0.00008536,-0.00002712,0.00000529,0.00005669,
 0.00002585,-0.00000434,0.00000759,-0.00002197,0.00002167,0.00001989,-0
 .00000382,0.00003185,0.00000528,-0.00035956,-0.00418412,-0.00089328,-0
 .00069368,-0.00065184,0.00155245,-0.01761259,0.00175822,0.02486286,-0.
 01627057,-0.06096817,0.02105847,0.01422582,0.00589829,-0.02029488,0.00
 121073,0.00129648,-0.00108045,-0.00002444,-0.00002220,0.00003212,-0.00
 003503,-0.00001589,0.00004543,0.00006824,-0.00032915,-0.00019313,0.000
 00122,-0.00000347,0.00000350,-0.00000574,0.00000414,0.00000139,-0.0000
 0481,-0.00000049,0.00000323,-0.00000355,0.00000053,-0.00000151,-0.0000
 0159,0.00000279,-0.00000642,0.00000279,-0.00001894,-0.00000922,0.00065
 472,0.00111508,-0.00029211,0.01872054,0.06012058,-0.00006087,-0.000059
 83,0.00001921,0.00017771,0.00009441,-0.00008146,-0.00009213,-0.0003580
 8,0.00006980,-0.00013177,-0.00003375,0.00013773,0.00050828,0.00067456,
 -0.00047264,0.00126789,-0.00350272,0.00144316,-0.00054475,-0.00033109,
 -0.00006539,-0.00028148,0.00004143,-0.00043979,0.00013086,-0.00009112,
 0.00017533,-0.00006912,0.00014291,-0.00003776,-0.00004069,0.00001981,0
 .00003734,0.00003668,-0.00003063,0.00006122,-0.00004666,0.00004875,-0.
 00006038,0.00003673,-0.00002849,0.00009130,0.00002478,-0.00000556,-0.0
 0005851,-0.00003025,0.00001419,-0.00001288,0.00002533,-0.00000565,-0.0
 0000895,-0.00003015,-0.00000393,0.00008394,0.00380398,0.00124852,0.004
 80556,-0.00035207,0.00015158,-0.00080051,0.00692750,-0.00046638,-0.003
 17856,0.13625109,0.02100458,-0.23749149,0.00960338,0.00333638,-0.00928
 613,-0.00133037,0.00204493,-0.00015267,-0.00003706,-0.00001273,0.00004
 524,-0.00000271,-0.00001899,0.00004355,0.00006950,-0.00015906,-0.00011
 139,-0.00000023,0.00000114,-0.00000591,0.00000590,-0.00000435,-0.00000
 116,0.00000154,-0.00000113,-0.00000470,0.00000458,-0.00000166,0.000001
 03,0.00000253,-0.00000195,0.00000678,-0.00000616,-0.00000423,-0.000002
 29,-0.00308021,0.00026204,-0.00117120,-0.15237690,-0.02319964,0.246151
 89,0.00066985,0.00049706,0.00039295,-0.00347289,-0.00183219,-0.0024828
 7,-0.00093277,-0.00068427,0.00698053,0.00450258,0.00110538,0.00309033,
 -0.00012113,0.00027997,-0.00051412,0.00423772,-0.00220583,0.00170124,-
 0.00013012,0.00027128,0.00028577,-0.00006290,-0.00011450,0.00016005,-0
 .00010807,0.00004908,-0.00010460,0.00007959,-0.00005663,0.00004726,0.0
 0004662,-0.00000032,-0.00002301,-0.00003601,0.00002246,-0.00005354,-0.
 00000202,-0.00002020,0.00007038,-0.00002007,0.00001803,-0.00005614,-0.
 00002827,0.00001070,0.00004487,0.00005428,-0.00002829,0.00001151,-0.00
 005916,0.00001470,-0.00003485,0.00008961,0.00000401,0.00000837,-0.0000
 2823,0.00014997,0.00008126,0.00000804,-0.00006079,-0.00005432,0.000231
 08,-0.00011320,-0.00020825,-0.00223475,0.00148786,-0.00200637,-0.00206
 408,-0.00005929,0.00902048,-0.13559934,-0.01394210,0.13681632,0.000363
 58,0.00048399,-0.00022417,0.00007125,-0.00031098,0.00050324,-0.0006632
 5,0.00005383,-0.00034956,-0.00000314,-0.00000327,0.00000308,-0.0000040
 1,0.00000045,-0.00000086,-0.00000077,0.00000200,0.00000088,-0.00000439
 ,0.00000021,0.00000050,-0.00001144,0.00000267,-0.00000840,0.00000097,-
 0.00000967,0.00001637,0.00014829,-0.00002660,0.00011182,0.00029306,-0.
 00046737,-0.00028745,0.13480287,-0.00079238,0.00077571,0.00115589,0.00
 252571,0.00029202,-0.00280183,0.01428025,0.00754852,-0.01982651,0.0000
 9431,-0.00429480,-0.00198512,0.00003041,-0.00077253,-0.00005801,-0.001
 29253,-0.00469142,0.00007479,-0.00078197,0.00036217,0.00081360,0.00000
 269,-0.00035405,0.00014514,-0.00013763,0.00006198,-0.00003634,0.000066
 35,-0.00005606,0.00001173,0.00002734,0.00001072,0.00001239,-0.00001565
 ,0.00000218,0.00000455,0.00001182,-0.00000222,0.00001207,-0.00000833,0
 .00000759,-0.00001266,-0.00000929,0.00000314,0.00001327,0.00001208,-0.
 00000985,-0.00000389,-0.00001746,-0.00000062,-0.00001955,0.00002426,-0
 .00000383,0.00001678,-0.00022384,0.00031288,0.00031130,0.00008462,-0.0
 0012013,-0.00012754,0.00025011,0.00013448,-0.00036318,-0.00063563,0.00
 130976,0.00189830,-0.01613697,0.00126280,0.02263104,-0.01322751,-0.060
 67964,0.01536755,-0.00072899,-0.00027101,0.00100791,0.00069199,0.00020
 669,-0.00112054,0.00004621,0.00002872,0.00007212,-0.00000469,0.0000039
 0,0.00000721,-0.00000344,-0.00000197,-0.00000019,-0.00000150,0.0000003
 3,0.00000060,-0.00000095,0.00000090,-0.00000036,-0.00000274,0.00000312
 ,-0.00000150,0.00000370,0.00000504,0.00001360,-0.00001667,0.00000779,-
 0.00002065,0.00045454,-0.00045984,-0.00077306,0.01544454,0.05935617,0.
 00018577,-0.00068033,0.00052900,-0.00181825,0.00334173,-0.00182640,0.0
 0990184,0.00142327,-0.00978748,0.00274790,-0.00358913,0.00198460,-0.00
 053113,0.00022666,0.00032533,0.00232497,0.00100130,0.00253477,0.000286
 53,-0.00026227,-0.00025191,-0.00001838,0.00015644,-0.00010848,0.000082
 31,-0.00006229,0.00011391,-0.00007660,0.00007084,-0.00005200,-0.000004
 39,0.00000252,0.00000764,0.00000865,-0.00000050,0.00000462,-0.00002854
 ,0.00000167,0.00000410,0.00001609,-0.00000724,0.00003263,0.00000728,-0
 .00000113,-0.00001993,-0.00000009,0.00000982,-0.00001236,-0.00000837,-
 0.00001102,-0.00001026,0.00001184,-0.00000138,-0.00002045,-0.00011078,
 -0.00026557,0.00012569,-0.00000054,0.00019130,-0.00003538,-0.00000436,
 0.00035870,0.00005955,-0.00225769,-0.00164032,-0.00078985,0.00559609,-
 0.00084248,-0.00387249,0.13674926,0.01678656,-0.23037186,-0.00041495,-
 0.00076302,0.00060045,0.00061153,0.00036314,-0.00041863,-0.00038757,0.
 00009707,-0.00035218,-0.00000126,-0.00000599,-0.00000610,0.00000421,-0
 .00000289,-0.00000153,0.00000339,-0.00000096,-0.00000316,0.00000346,-0
 .00000342,0.00000052,0.00000160,-0.00000152,0.00000430,-0.00001081,-0.
 00000878,-0.00000650,0.00011672,0.00003398,0.00005929,-0.00008604,0.00
 055783,0.00039933,-0.15291289,-0.01643861,0.24113398,-0.00002216,-0.00
 004564,-0.00002290,0.00005786,0.00009205,0.00000216,-0.00010302,-0.000
 07167,0.00014334,-0.00010061,0.00015701,-0.00009733,-0.00006283,-0.000
 18259,-0.00023311,0.00087345,0.00019976,0.00101656,0.00225640,-0.00053
 531,-0.00374035,-0.00024876,0.00005758,0.00212483,-0.01359452,0.017391
 59,0.00298803,-0.00275098,0.00322870,0.01590805,0.00019202,0.00063740,
 -0.00025283,-0.00096534,0.00041646,-0.00074386,0.00064339,-0.00041685,
 0.00056433,-0.00077238,0.00050955,-0.00079892,-0.00008756,-0.00004287,
 0.00087129,0.00029986,-0.00023007,0.00009392,0.00006084,-0.00008393,0.
 00005964,-0.00171397,0.00019464,-0.00069574,0.00060624,0.00184337,0.00
 023105,-0.00915340,-0.00111964,-0.00672047,0.00134331,-0.00151462,0.00
 162813,-0.00030553,-0.00033719,0.00011465,-0.00008759,-0.00005074,0.00
 009538,-0.00008363,-0.00006705,-0.00000027,-0.00000568,-0.00000049,0.0
 0002022,0.00003677,-0.00000053,0.00001128,0.00003484,0.00004446,0.0000
 8822,0.00008008,-0.00000170,-0.00000082,-0.00004037,-0.00001243,-0.000
 01447,0.00000421,-0.00000463,-0.00001493,0.00001837,0.00000959,0.00002
 531,0.00002396,-0.00001140,0.00000883,0.00007204,0.00009920,0.00005507
 ,0.00014481,0.00000552,-0.00008217,-0.00025228,-0.00007837,-0.00007725
 ,-0.00001259,-0.00001280,0.00001318,0.02361474,-0.00000721,0.00061481,
 0.00012534,-0.00026173,-0.00094910,0.00021554,0.00025923,0.00081909,-0
 .00018414,-0.00011839,-0.00015306,0.00021189,0.00016419,0.00050790,0.0
 0000931,-0.00210723,-0.00207887,-0.00121865,-0.00301813,-0.00046908,0.
 00442337,0.00211125,-0.00297016,-0.00987246,0.02897155,-0.02980782,0.0
 0125611,-0.00436702,-0.04460110,-0.05688741,-0.00197233,0.00507283,0.0
 0093145,0.00134223,-0.00108440,0.00179675,-0.00132806,0.00102300,-0.00
 163078,0.00133076,-0.00100628,0.00166840,0.00018963,0.00010509,-0.0017
 1955,-0.00094297,0.00019452,0.00003567,0.00010770,-0.00013294,-0.00022
 588,0.00261631,0.00143749,0.00138781,0.00022462,-0.00843694,0.01741982
 ,-0.00241520,0.00166548,-0.01523804,-0.00094760,-0.00035018,0.00068269
 ,-0.00010514,0.00018455,0.00000961,0.00034929,0.00035971,-0.00043629,0
 .00001225,-0.00062820,0.00012408,0.00004733,-0.00000272,-0.00009534,-0
 .00001730,0.00002527,-0.00001721,0.00007434,0.00004964,0.00006944,0.00
 016887,0.00004439,-0.00021951,-0.00039164,-0.00036552,-0.00005396,-0.0
 0003090,0.00000878,0.00002342,-0.00000165,0.00004416,-0.00001852,0.000
 00002,0.00006619,0.00000209,0.00001155,-0.00002271,0.00011102,-0.00001
 212,0.00003105,-0.00006425,0.00009254,0.00001847,0.00000880,0.00003732
 ,0.00002138,-0.00003396,-0.02006635,0.08076527,0.00002688,-0.00069490,
 -0.00018710,0.00028603,0.00102639,-0.00020892,0.00021189,-0.00169711,-
 0.00069141,-0.00036291,-0.00047515,0.00035444,-0.00018956,-0.00015285,
 0.00014739,0.00198917,0.00126831,-0.00040855,-0.00124737,-0.00359763,-
 0.00704186,-0.00448793,-0.00191765,-0.00118172,0.02026448,-0.01456322,
 0.00720778,0.00551742,-0.05536464,-0.07000904,-0.00305526,0.00334264,0
 .00122574,0.00152074,-0.00116256,0.00146204,-0.00064284,0.00061674,-0.
 00118098,0.00090359,-0.00045325,0.00063044,0.00002450,0.00006580,-0.00
 090018,-0.00053535,0.00022684,-0.00000202,-0.00005855,0.00009909,0.000
 25536,0.00029867,-0.00060192,-0.00125859,0.00647572,0.03947596,-0.0273
 7923,-0.01456830,-0.02180540,-0.11517293,0.00008424,-0.00358155,0.0049
 4801,0.00013293,0.00316813,-0.00003988,0.00001474,-0.00265935,-0.00003
 767,0.00029718,0.00246079,-0.00013611,-0.00003938,0.00000660,0.0000762
 0,0.00002612,-0.00006154,0.00005060,-0.00004707,-0.00006745,-0.0000618
 8,0.00017251,-0.00007301,-0.00021948,-0.00018977,-0.00015994,-0.000038
 97,0.00002836,-0.00001583,0.00001746,0.00001439,0.00000424,-0.00002054
 ,-0.00002587,0.00002928,-0.00001256,-0.00004376,0.00004547,-0.00010688
 ,0.00023434,-0.00003171,-0.00026857,-0.00043610,-0.00012267,-0.0001286
 6,-0.00002586,0.00001969,0.00002726,-0.01256803,0.05740338,0.21029098\
 \-0.00000087,0.00000652,0.00000411,-0.00000085,-0.00002320,-0.00001520
 ,0.00000184,0.00000820,0.00000221,0.00000317,0.00000527,-0.00000547,0.
 00000034,-0.00001316,0.00000399,0.00000120,0.00000762,-0.00001971,-0.0
 0000921,-0.00003402,0.00001362,0.00001757,-0.00000204,-0.00005237,0.00
 000085,-0.00001037,0.00002657,-0.00001532,0.00001561,-0.00001280,0.000
 00379,0.00000394,0.00000093,-0.00000008,-0.00000154,0.00001196,0.00000
 193,0.00000380,-0.00001811,0.00000933,-0.00000895,0.00002757,0.0000096
 1,-0.00000172,-0.00002579,-0.00002408,0.00000957,0.00000771,0.00002411
 ,-0.00001542,0.00001088,-0.00001443,0.00000716,0.00001218,-0.00000359,
 0.00003541,0.00001543,0.00000847,0.00000263,-0.00000520,-0.00001246,-0
 .00000828,0.00001693,0.00000301,0.00002030,-0.00000478,-0.00000253,-0.
 00001338,0.00000356,0.00000253,0.00000800,-0.00000006,-0.00000236,0.00
 000545,0.00000649,-0.00000114,-0.00000253,0.00000048,0.00000436,0.0000
 0877,-0.00000125,0.00000208,0.00000060,-0.00000136,0.00000014,0.000000
 62,-0.00000487,0.,0.00000050,-0.00000521,0.00000191,-0.00000098,0.0000
 0194,0.00000187,-0.00000211,0.00000139,-0.00000381,0.00000277,-0.00000
 068,0.00000115,0.00000029,0.00000004,-0.00000189,-0.00000455,0.0000028
 4,-0.00000186,-0.00000284,0.00000162,-0.00000478,-0.00000792,0.0000004
 2\\\@
 The archive entry for this job was punched.


 FORGIVE MY NONSENSE AS I ALSO FORGIVE THOSE WHO THINK THEY TALK SENSE

                                                       -- ROBERT FROST
 Job cpu time:       0 days  3 hours 16 minutes 12.3 seconds.
 Elapsed time:       0 days  0 hours  6 minutes  9.8 seconds.
 File lengths (MBytes):  RWF=   1350 Int=      0 D2E=      0 Chk=     18 Scr=      1
 Normal termination of Gaussian 16 at Thu May 16 18:52:32 2024.
