 Entering Gaussian System, Link 0=g16
 Initial command:
 /public/software/apps/Gaussian/g16/l1.exe "/tmp/Gau-6789.inp" -scrdir="/tmp/"
 Entering Link 1 = /public/software/apps/Gaussian/g16/l1.exe PID=      6821.
  
 Copyright (c) 1988-2019, Gaussian, Inc.  All Rights Reserved.
  
 This is part of the Gaussian(R) 16 program.  It is based on
 the Gaussian(R) 09 system (copyright 2009, Gaussian, Inc.),
 the Gaussian(R) 03 system (copyright 2003, Gaussian, Inc.),
 the Gaussian(R) 98 system (copyright 1998, Gaussian, Inc.),
 the Gaussian(R) 94 system (copyright 1995, Gaussian, Inc.),
 the Gaussian 92(TM) system (copyright 1992, Gaussian, Inc.),
 the Gaussian 90(TM) system (copyright 1990, Gaussian, Inc.),
 the Gaussian 88(TM) system (copyright 1988, Gaussian, Inc.),
 the Gaussian 86(TM) system (copyright 1986, Carnegie Mellon
 University), and the Gaussian 82(TM) system (copyright 1983,
 Carnegie Mellon University). Gaussian is a federally registered
 trademark of Gaussian, Inc.
  
 This software contains proprietary and confidential information,
 including trade secrets, belonging to Gaussian, Inc.
  
 This software is provided under written license and may be
 used, copied, transmitted, or stored only in accord with that
 written license.
  
 The following legend is applicable only to US Government
 contracts under FAR:
  
                    RESTRICTED RIGHTS LEGEND
  
 Use, reproduction and disclosure by the US Government is
 subject to restrictions as set forth in subparagraphs (a)
 and (c) of the Commercial Computer Software - Restricted
 Rights clause in FAR 52.227-19.
  
 Gaussian, Inc.
 340 Quinnipiac St., Bldg. 40, Wallingford CT 06492
  
  
 ---------------------------------------------------------------
 Warning -- This program may not be used in any manner that
 competes with the business of Gaussian, Inc. or will provide
 assistance to any competitor of Gaussian, Inc.  The licensee
 of this program is prohibited from giving any competitor of
 Gaussian, Inc. access to this program.  By using this program,
 the user acknowledges that Gaussian, Inc. is engaged in the
 business of creating and licensing software in the field of
 computational chemistry and represents and warrants to the
 licensee that it is not a competitor of Gaussian, Inc. and that
 it will not use this program in any manner prohibited above.
 ---------------------------------------------------------------
  

 Cite this work as:
 Gaussian 16, Revision C.01,
 M. J. Frisch, G. W. Trucks, H. B. Schlegel, G. E. Scuseria, 
 M. A. Robb, J. R. Cheeseman, G. Scalmani, V. Barone, 
 G. A. Petersson, H. Nakatsuji, X. Li, M. Caricato, A. V. Marenich, 
 J. Bloino, B. G. Janesko, R. Gomperts, B. Mennucci, H. P. Hratchian, 
 J. V. Ortiz, A. F. Izmaylov, J. L. Sonnenberg, D. Williams-Young, 
 F. Ding, F. Lipparini, F. Egidi, J. Goings, B. Peng, A. Petrone, 
 T. Henderson, D. Ranasinghe, V. G. Zakrzewski, J. Gao, N. Rega, 
 G. Zheng, W. Liang, M. Hada, M. Ehara, K. Toyota, R. Fukuda, 
 J. Hasegawa, M. Ishida, T. Nakajima, Y. Honda, O. Kitao, H. Nakai, 
 T. Vreven, K. Throssell, J. A. Montgomery, Jr., J. E. Peralta, 
 F. Ogliaro, M. J. Bearpark, J. J. Heyd, E. N. Brothers, K. N. Kudin, 
 V. N. Staroverov, T. A. Keith, R. Kobayashi, J. Normand, 
 K. Raghavachari, A. P. Rendell, J. C. Burant, S. S. Iyengar, 
 J. Tomasi, M. Cossi, J. M. Millam, M. Klene, C. Adamo, R. Cammi, 
 J. W. Ochterski, R. L. Martin, K. Morokuma, O. Farkas, 
 J. B. Foresman, and D. J. Fox, Gaussian, Inc., Wallingford CT, 2019.
 
 ******************************************
 Gaussian 16:  ES64L-G16RevC.01  3-Jul-2019
                10-Dec-2024 
 ******************************************
 %nprocshared=32
 Will use up to   32 processors via shared memory.
 %mem=100GB
 ------------------------------------------
 #p opt freq b3lyp/def2svpp em=gd3bj nosymm
 ------------------------------------------
 1/18=20,19=15,26=3,38=1/1,3;
 2/9=110,12=2,15=1,17=6,18=5,40=1/2;
 3/5=43,7=202,11=2,25=1,30=1,71=1,74=-5,124=41/1,2,3;
 4//1;
 5/5=2,38=5/2;
 6/7=2,8=2,9=2,10=2,28=1/1;
 7/30=1/1,2,3,16;
 1/18=20,19=15,26=3/3(2);
 2/9=110,15=1/2;
 99//99;
 2/9=110,15=1/2;
 3/5=43,7=202,11=2,25=1,30=1,71=1,74=-5,124=41/1,2,3;
 4/5=5,16=3,69=1/1;
 5/5=2,38=5/2;
 7/30=1/1,2,3,16;
 1/18=20,19=15,26=3/3(-5);
 2/9=110,15=1/2;
 6/7=2,8=2,9=2,10=2,19=2,28=1/1;
 99/9=1/99;
 Leave Link    1 at Tue Dec 10 14:04:55 2024, MaxMem= 13421772800 cpu:               1.1 elap:               0.0
 (Enter /public/software/apps/Gaussian/g16/l101.exe)
 ------------------
 $$$$Title####0????
 ------------------
 Symbolic Z-matrix:
 Charge =  0 Multiplicity = 2
 C                     11.42236   0.23528   1.71631 
 C                     10.29185   1.27318   1.57958 
 C                     9.80746   1.35962   0.11928 
 C                     10.82703   2.64862   2.0071 
 O                     9.20042   0.95128   2.45523 
 C                     8.41769  -0.21217   2.41284 
 O                     8.65304  -1.12296   1.57359 
 N                     7.33933  -0.35635   3.34401 
 C                     6.43406  -1.50335   3.33263 
 C                     5.49421  -1.41199   2.16173 
 C                     4.439    -0.48777   2.17947 
 C                     3.5835   -0.37121   1.08036 
 C                     3.77445  -1.1739   -0.05649 
 C                     2.88982  -1.03104  -1.23657 
 C                     3.45803  -0.8266   -2.50107 
 C                     2.64905  -0.64667  -3.62931 
 C                     3.23614  -0.4092   -4.88276 
 C                     2.43616  -0.20486  -6.00769 
 C                     1.04683  -0.22869  -5.89226 
 C                     0.44749  -0.46551  -4.65329 
 C                     1.23736  -0.69167  -3.50488 
 C                     0.65952  -0.95064  -2.23579 
 C                    -0.81379  -1.06914  -2.05681 
 C                    -1.48872  -0.065    -1.33731 
 O                    -0.76274   0.99242  -0.79364 
 C                    -2.88606  -0.11342  -1.17824 
 C                    -3.60635   0.93538  -0.41907 
 C                    -3.21018   1.27131   0.88623 
 C                    -3.90553   2.24644   1.60686 
 C                    -5.00262   2.9054    1.032 
 C                    -5.76416   3.93219   1.82498 
 N                    -6.60646   3.27619   2.82249 
 C                    -7.81967   2.5956    2.48349 
 O                    -8.22946   2.59135   1.29126 
 O                    -8.53716   1.94292   3.49693 
 C                    -9.75702   1.20407   3.33291 
 C                    -10.15497   0.67067   4.71761 
 C                    -9.54431   0.01024   2.38229 
 C                    -10.88074   2.12022   2.81154 
 C                    -5.40671   2.5632   -0.26739 
 C                    -4.71509   1.58479  -0.98677 
 C                    -3.60961  -1.16866  -1.74956 
 C                    -2.95417  -2.19395  -2.44137 
 C                    -3.69299  -3.26016  -2.97933 
 C                    -3.04479  -4.29904  -3.64842 
 C                    -1.65675  -4.28688  -3.78223 
 C                    -0.90785  -3.23221  -3.2554 
 C                    -1.54409  -2.16249  -2.58868 
 C                     1.49008  -1.0956   -1.10833 
 O                     0.91531  -1.32134   0.14046 
 C                     4.8385   -2.09058  -0.07652 
 C                     5.69034  -2.21027   1.02467 
 H                     12.31737   0.55382   1.1394 
 H                     11.71074   0.12067   2.78322 
 H                     11.11091  -0.75687   1.33111 
 H                     9.49094   0.3674   -0.26199 
 H                     8.94388   2.05412   0.04204 
 H                     10.6211   1.73032  -0.5409 
 H                     10.02509   3.4143    1.93096 
 H                     11.67866   2.96341   1.36563 
 H                     11.17293   2.61604   3.06278 
 H                     7.19108   0.39287   4.0564 
 H                     5.84107  -1.51263   4.27303 
 H                     7.02083  -2.44729   3.31035 
 H                     4.28472   0.14856   3.04217 
 H                     2.786     0.36095   1.10811 
 H                     4.53699  -0.77675  -2.59964 
 H                     4.31374  -0.37689  -4.99163 
 H                     2.89429  -0.01951  -6.97042 
 H                     0.43067  -0.06009  -6.76613 
 H                    -0.63323  -0.46314  -4.60339 
 H                    -2.37503   0.76496   1.35448 
 H                    -3.59372   2.48427   2.61641 
 H                    -6.38809   4.57466   1.16531 
 H                    -5.04041   4.60136   2.33949 
 H                    -6.31138   3.30145   3.82435 
 H                    -11.09754   0.0838    4.66424 
 H                    -10.30342   1.51344   5.42654 
 H                    -9.35372   0.01611   5.12345 
 H                    -9.34303   0.34887   1.3456 
 H                    -8.68195  -0.60202   2.72269 
 H                    -10.44943  -0.63448   2.35646 
 H                    -10.67916   2.4604    1.77558 
 H                    -11.85275   1.58119   2.80561 
 H                    -10.97659   3.01675   3.46069 
 H                    -6.25858   3.05139  -0.72394 
 H                    -5.0395    1.34009  -1.99096 
 H                    -4.68687  -1.20553  -1.62737 
 H                    -4.77145  -3.29266  -2.87741 
 H                    -3.62001  -5.11913  -4.05863 
 H                    -1.15797  -5.09913  -4.29531 
 H                     0.16735  -3.26617  -3.37027 
 H                     5.00514  -2.71845  -0.94297 
 H                     6.50528  -2.92224   0.98737 
 Cu                    0.35745   0.46554   0.7297 
 
 ITRead=  0  0  0  0  0  0  0  0  0  0  0  0  0  0  0  0  0  0  0  0
 ITRead=  0  0  0  0  0  0  0  0  0  0  0  0  0  0  0  0  0  0  0  0
 ITRead=  0  0  0  0  0  0  0  0  0  0  0  0  0  0  0  0  0  0  0  0
 ITRead=  0  0  0  0  0  0  0  0  0  0  0  0  0  0  0  0  0  0  0  0
 ITRead=  0  0  0  0  0  0  0  0  0  0  0  0  0  0  0
 MicOpt= -1 -1 -1 -1 -1 -1 -1 -1 -1 -1 -1 -1 -1 -1 -1 -1 -1 -1 -1 -1
 MicOpt= -1 -1 -1 -1 -1 -1 -1 -1 -1 -1 -1 -1 -1 -1 -1 -1 -1 -1 -1 -1
 MicOpt= -1 -1 -1 -1 -1 -1 -1 -1 -1 -1 -1 -1 -1 -1 -1 -1 -1 -1 -1 -1
 MicOpt= -1 -1 -1 -1 -1 -1 -1 -1 -1 -1 -1 -1 -1 -1 -1 -1 -1 -1 -1 -1
 MicOpt= -1 -1 -1 -1 -1 -1 -1 -1 -1 -1 -1 -1 -1 -1 -1
 NAtoms=     95 NQM=       95 NQMF=       0 NMMI=      0 NMMIF=      0
                NMic=       0 NMicF=      0.
                    Isotopes and Nuclear Properties:
 (Nuclear quadrupole moments (NQMom) in fm**2, nuclear magnetic moments (NMagM)
  in nuclear magnetons)

  Atom         1           2           3           4           5           6           7           8           9          10
 IAtWgt=          12          12          12          12          16          12          16          14          12          12
 AtmWgt=  12.0000000  12.0000000  12.0000000  12.0000000  15.9949146  12.0000000  15.9949146  14.0030740  12.0000000  12.0000000
 NucSpn=           0           0           0           0           0           0           0           2           0           0
 AtZEff=  -0.0000000  -0.0000000  -0.0000000  -0.0000000  -0.0000000  -0.0000000  -0.0000000  -0.0000000  -0.0000000  -0.0000000
 NQMom=    0.0000000   0.0000000   0.0000000   0.0000000   0.0000000   0.0000000   0.0000000   2.0440000   0.0000000   0.0000000
 NMagM=    0.0000000   0.0000000   0.0000000   0.0000000   0.0000000   0.0000000   0.0000000   0.4037610   0.0000000   0.0000000
 AtZNuc=   6.0000000   6.0000000   6.0000000   6.0000000   8.0000000   6.0000000   8.0000000   7.0000000   6.0000000   6.0000000

  Atom        11          12          13          14          15          16          17          18          19          20
 IAtWgt=          12          12          12          12          12          12          12          12          12          12
 AtmWgt=  12.0000000  12.0000000  12.0000000  12.0000000  12.0000000  12.0000000  12.0000000  12.0000000  12.0000000  12.0000000
 NucSpn=           0           0           0           0           0           0           0           0           0           0
 AtZEff=  -0.0000000  -0.0000000  -0.0000000  -0.0000000  -0.0000000  -0.0000000  -0.0000000  -0.0000000  -0.0000000  -0.0000000
 NQMom=    0.0000000   0.0000000   0.0000000   0.0000000   0.0000000   0.0000000   0.0000000   0.0000000   0.0000000   0.0000000
 NMagM=    0.0000000   0.0000000   0.0000000   0.0000000   0.0000000   0.0000000   0.0000000   0.0000000   0.0000000   0.0000000
 AtZNuc=   6.0000000   6.0000000   6.0000000   6.0000000   6.0000000   6.0000000   6.0000000   6.0000000   6.0000000   6.0000000

  Atom        21          22          23          24          25          26          27          28          29          30
 IAtWgt=          12          12          12          12          16          12          12          12          12          12
 AtmWgt=  12.0000000  12.0000000  12.0000000  12.0000000  15.9949146  12.0000000  12.0000000  12.0000000  12.0000000  12.0000000
 NucSpn=           0           0           0           0           0           0           0           0           0           0
 AtZEff=  -0.0000000  -0.0000000  -0.0000000  -0.0000000  -0.0000000  -0.0000000  -0.0000000  -0.0000000  -0.0000000  -0.0000000
 NQMom=    0.0000000   0.0000000   0.0000000   0.0000000   0.0000000   0.0000000   0.0000000   0.0000000   0.0000000   0.0000000
 NMagM=    0.0000000   0.0000000   0.0000000   0.0000000   0.0000000   0.0000000   0.0000000   0.0000000   0.0000000   0.0000000
 AtZNuc=   6.0000000   6.0000000   6.0000000   6.0000000   8.0000000   6.0000000   6.0000000   6.0000000   6.0000000   6.0000000

  Atom        31          32          33          34          35          36          37          38          39          40
 IAtWgt=          12          14          12          16          16          12          12          12          12          12
 AtmWgt=  12.0000000  14.0030740  12.0000000  15.9949146  15.9949146  12.0000000  12.0000000  12.0000000  12.0000000  12.0000000
 NucSpn=           0           2           0           0           0           0           0           0           0           0
 AtZEff=  -0.0000000  -0.0000000  -0.0000000  -0.0000000  -0.0000000  -0.0000000  -0.0000000  -0.0000000  -0.0000000  -0.0000000
 NQMom=    0.0000000   2.0440000   0.0000000   0.0000000   0.0000000   0.0000000   0.0000000   0.0000000   0.0000000   0.0000000
 NMagM=    0.0000000   0.4037610   0.0000000   0.0000000   0.0000000   0.0000000   0.0000000   0.0000000   0.0000000   0.0000000
 AtZNuc=   6.0000000   7.0000000   6.0000000   8.0000000   8.0000000   6.0000000   6.0000000   6.0000000   6.0000000   6.0000000

  Atom        41          42          43          44          45          46          47          48          49          50
 IAtWgt=          12          12          12          12          12          12          12          12          12          16
 AtmWgt=  12.0000000  12.0000000  12.0000000  12.0000000  12.0000000  12.0000000  12.0000000  12.0000000  12.0000000  15.9949146
 NucSpn=           0           0           0           0           0           0           0           0           0           0
 AtZEff=  -0.0000000  -0.0000000  -0.0000000  -0.0000000  -0.0000000  -0.0000000  -0.0000000  -0.0000000  -0.0000000  -0.0000000
 NQMom=    0.0000000   0.0000000   0.0000000   0.0000000   0.0000000   0.0000000   0.0000000   0.0000000   0.0000000   0.0000000
 NMagM=    0.0000000   0.0000000   0.0000000   0.0000000   0.0000000   0.0000000   0.0000000   0.0000000   0.0000000   0.0000000
 AtZNuc=   6.0000000   6.0000000   6.0000000   6.0000000   6.0000000   6.0000000   6.0000000   6.0000000   6.0000000   8.0000000

  Atom        51          52          53          54          55          56          57          58          59          60
 IAtWgt=          12          12           1           1           1           1           1           1           1           1
 AtmWgt=  12.0000000  12.0000000   1.0078250   1.0078250   1.0078250   1.0078250   1.0078250   1.0078250   1.0078250   1.0078250
 NucSpn=           0           0           1           1           1           1           1           1           1           1
 AtZEff=  -0.0000000  -0.0000000  -0.0000000  -0.0000000  -0.0000000  -0.0000000  -0.0000000  -0.0000000  -0.0000000  -0.0000000
 NQMom=    0.0000000   0.0000000   0.0000000   0.0000000   0.0000000   0.0000000   0.0000000   0.0000000   0.0000000   0.0000000
 NMagM=    0.0000000   0.0000000   2.7928460   2.7928460   2.7928460   2.7928460   2.7928460   2.7928460   2.7928460   2.7928460
 AtZNuc=   6.0000000   6.0000000   1.0000000   1.0000000   1.0000000   1.0000000   1.0000000   1.0000000   1.0000000   1.0000000

  Atom        61          62          63          64          65          66          67          68          69          70
 IAtWgt=           1           1           1           1           1           1           1           1           1           1
 AtmWgt=   1.0078250   1.0078250   1.0078250   1.0078250   1.0078250   1.0078250   1.0078250   1.0078250   1.0078250   1.0078250
 NucSpn=           1           1           1           1           1           1           1           1           1           1
 AtZEff=  -0.0000000  -0.0000000  -0.0000000  -0.0000000  -0.0000000  -0.0000000  -0.0000000  -0.0000000  -0.0000000  -0.0000000
 NQMom=    0.0000000   0.0000000   0.0000000   0.0000000   0.0000000   0.0000000   0.0000000   0.0000000   0.0000000   0.0000000
 NMagM=    2.7928460   2.7928460   2.7928460   2.7928460   2.7928460   2.7928460   2.7928460   2.7928460   2.7928460   2.7928460
 AtZNuc=   1.0000000   1.0000000   1.0000000   1.0000000   1.0000000   1.0000000   1.0000000   1.0000000   1.0000000   1.0000000

  Atom        71          72          73          74          75          76          77          78          79          80
 IAtWgt=           1           1           1           1           1           1           1           1           1           1
 AtmWgt=   1.0078250   1.0078250   1.0078250   1.0078250   1.0078250   1.0078250   1.0078250   1.0078250   1.0078250   1.0078250
 NucSpn=           1           1           1           1           1           1           1           1           1           1
 AtZEff=  -0.0000000  -0.0000000  -0.0000000  -0.0000000  -0.0000000  -0.0000000  -0.0000000  -0.0000000  -0.0000000  -0.0000000
 NQMom=    0.0000000   0.0000000   0.0000000   0.0000000   0.0000000   0.0000000   0.0000000   0.0000000   0.0000000   0.0000000
 NMagM=    2.7928460   2.7928460   2.7928460   2.7928460   2.7928460   2.7928460   2.7928460   2.7928460   2.7928460   2.7928460
 AtZNuc=   1.0000000   1.0000000   1.0000000   1.0000000   1.0000000   1.0000000   1.0000000   1.0000000   1.0000000   1.0000000

  Atom        81          82          83          84          85          86          87          88          89          90
 IAtWgt=           1           1           1           1           1           1           1           1           1           1
 AtmWgt=   1.0078250   1.0078250   1.0078250   1.0078250   1.0078250   1.0078250   1.0078250   1.0078250   1.0078250   1.0078250
 NucSpn=           1           1           1           1           1           1           1           1           1           1
 AtZEff=  -0.0000000  -0.0000000  -0.0000000  -0.0000000  -0.0000000  -0.0000000  -0.0000000  -0.0000000  -0.0000000  -0.0000000
 NQMom=    0.0000000   0.0000000   0.0000000   0.0000000   0.0000000   0.0000000   0.0000000   0.0000000   0.0000000   0.0000000
 NMagM=    2.7928460   2.7928460   2.7928460   2.7928460   2.7928460   2.7928460   2.7928460   2.7928460   2.7928460   2.7928460
 AtZNuc=   1.0000000   1.0000000   1.0000000   1.0000000   1.0000000   1.0000000   1.0000000   1.0000000   1.0000000   1.0000000

  Atom        91          92          93          94          95
 IAtWgt=           1           1           1           1          63
 AtmWgt=   1.0078250   1.0078250   1.0078250   1.0078250  62.9295992
 NucSpn=           1           1           1           1           3
 AtZEff=  -0.0000000  -0.0000000  -0.0000000  -0.0000000  -0.0000000
 NQMom=    0.0000000   0.0000000   0.0000000   0.0000000 -22.0000000
 NMagM=    2.7928460   2.7928460   2.7928460   2.7928460   2.2233000
 AtZNuc=   1.0000000   1.0000000   1.0000000   1.0000000  29.0000000
 Leave Link  101 at Tue Dec 10 14:04:55 2024, MaxMem= 13421772800 cpu:               4.4 elap:               0.1
 (Enter /public/software/apps/Gaussian/g16/l103.exe)

 GradGradGradGradGradGradGradGradGradGradGradGradGradGradGradGradGradGrad
 Berny optimization.
 Initialization pass.
                           ----------------------------
                           !    Initial Parameters    !
                           ! (Angstroms and Degrees)  !
 --------------------------                            --------------------------
 ! Name  Definition              Value          Derivative Info.                !
 --------------------------------------------------------------------------------
 ! R1    R(1,2)                  1.5408         estimate D2E/DX2                !
 ! R2    R(1,53)                 1.1115         estimate D2E/DX2                !
 ! R3    R(1,54)                 1.1111         estimate D2E/DX2                !
 ! R4    R(1,55)                 1.1089         estimate D2E/DX2                !
 ! R5    R(2,3)                  1.541          estimate D2E/DX2                !
 ! R6    R(2,4)                  1.5366         estimate D2E/DX2                !
 ! R7    R(2,5)                  1.4358         estimate D2E/DX2                !
 ! R8    R(3,56)                 1.1091         estimate D2E/DX2                !
 ! R9    R(3,57)                 1.1109         estimate D2E/DX2                !
 ! R10   R(3,58)                 1.1114         estimate D2E/DX2                !
 ! R11   R(4,59)                 1.1114         estimate D2E/DX2                !
 ! R12   R(4,60)                 1.1117         estimate D2E/DX2                !
 ! R13   R(4,61)                 1.1114         estimate D2E/DX2                !
 ! R14   R(5,6)                  1.4029         estimate D2E/DX2                !
 ! R15   R(6,7)                  1.2607         estimate D2E/DX2                !
 ! R16   R(6,8)                  1.432          estimate D2E/DX2                !
 ! R17   R(8,9)                  1.4612         estimate D2E/DX2                !
 ! R18   R(8,62)                 1.0444         estimate D2E/DX2                !
 ! R19   R(9,10)                 1.5042         estimate D2E/DX2                !
 ! R20   R(9,63)                 1.1118         estimate D2E/DX2                !
 ! R21   R(9,64)                 1.1117         estimate D2E/DX2                !
 ! R22   R(10,11)                1.4028         estimate D2E/DX2                !
 ! R23   R(10,52)                1.4031         estimate D2E/DX2                !
 ! R24   R(11,12)                1.3977         estimate D2E/DX2                !
 ! R25   R(11,65)                1.083          estimate D2E/DX2                !
 ! R26   R(12,13)                1.4047         estimate D2E/DX2                !
 ! R27   R(12,66)                1.083          estimate D2E/DX2                !
 ! R28   R(13,14)                1.4817         estimate D2E/DX2                !
 ! R29   R(13,51)                1.4046         estimate D2E/DX2                !
 ! R30   R(14,15)                1.4013         estimate D2E/DX2                !
 ! R31   R(14,49)                1.4071         estimate D2E/DX2                !
 ! R32   R(15,16)                1.3999         estimate D2E/DX2                !
 ! R33   R(15,67)                1.0846         estimate D2E/DX2                !
 ! R34   R(16,17)                1.4043         estimate D2E/DX2                !
 ! R35   R(16,21)                1.4179         estimate D2E/DX2                !
 ! R36   R(17,18)                1.3954         estimate D2E/DX2                !
 ! R37   R(17,68)                1.0836         estimate D2E/DX2                !
 ! R38   R(18,19)                1.3943         estimate D2E/DX2                !
 ! R39   R(18,69)                1.0822         estimate D2E/DX2                !
 ! R40   R(19,20)                1.3965         estimate D2E/DX2                !
 ! R41   R(19,70)                1.0825         estimate D2E/DX2                !
 ! R42   R(20,21)                1.412          estimate D2E/DX2                !
 ! R43   R(20,71)                1.0819         estimate D2E/DX2                !
 ! R44   R(21,22)                1.4183         estimate D2E/DX2                !
 ! R45   R(22,23)                1.4889         estimate D2E/DX2                !
 ! R46   R(22,49)                1.4078         estimate D2E/DX2                !
 ! R47   R(23,24)                1.4077         estimate D2E/DX2                !
 ! R48   R(23,48)                1.4183         estimate D2E/DX2                !
 ! R49   R(24,25)                1.3931         estimate D2E/DX2                !
 ! R50   R(24,26)                1.4072         estimate D2E/DX2                !
 ! R51   R(25,95)                1.9629         estimate D2E/DX2                !
 ! R52   R(26,27)                1.4816         estimate D2E/DX2                !
 ! R53   R(26,42)                1.4012         estimate D2E/DX2                !
 ! R54   R(27,28)                1.4048         estimate D2E/DX2                !
 ! R55   R(27,41)                1.4048         estimate D2E/DX2                !
 ! R56   R(28,29)                1.3978         estimate D2E/DX2                !
 ! R57   R(28,72)                1.0831         estimate D2E/DX2                !
 ! R58   R(29,30)                1.403          estimate D2E/DX2                !
 ! R59   R(29,73)                1.083          estimate D2E/DX2                !
 ! R60   R(30,31)                1.5043         estimate D2E/DX2                !
 ! R61   R(30,40)                1.4031         estimate D2E/DX2                !
 ! R62   R(31,32)                1.4611         estimate D2E/DX2                !
 ! R63   R(31,74)                1.1123         estimate D2E/DX2                !
 ! R64   R(31,75)                1.1119         estimate D2E/DX2                !
 ! R65   R(32,33)                1.4318         estimate D2E/DX2                !
 ! R66   R(32,76)                1.0447         estimate D2E/DX2                !
 ! R67   R(33,34)                1.2607         estimate D2E/DX2                !
 ! R68   R(33,35)                1.4028         estimate D2E/DX2                !
 ! R69   R(35,36)                1.4356         estimate D2E/DX2                !
 ! R70   R(36,37)                1.5363         estimate D2E/DX2                !
 ! R71   R(36,38)                1.5408         estimate D2E/DX2                !
 ! R72   R(36,39)                1.5408         estimate D2E/DX2                !
 ! R73   R(37,77)                1.1116         estimate D2E/DX2                !
 ! R74   R(37,78)                1.1112         estimate D2E/DX2                !
 ! R75   R(37,79)                1.1114         estimate D2E/DX2                !
 ! R76   R(38,80)                1.109          estimate D2E/DX2                !
 ! R77   R(38,81)                1.111          estimate D2E/DX2                !
 ! R78   R(38,82)                1.1116         estimate D2E/DX2                !
 ! R79   R(39,83)                1.1089         estimate D2E/DX2                !
 ! R80   R(39,84)                1.1115         estimate D2E/DX2                !
 ! R81   R(39,85)                1.111          estimate D2E/DX2                !
 ! R82   R(40,41)                1.3976         estimate D2E/DX2                !
 ! R83   R(40,86)                1.0828         estimate D2E/DX2                !
 ! R84   R(41,87)                1.0833         estimate D2E/DX2                !
 ! R85   R(42,43)                1.3998         estimate D2E/DX2                !
 ! R86   R(42,88)                1.0848         estimate D2E/DX2                !
 ! R87   R(43,44)                1.4043         estimate D2E/DX2                !
 ! R88   R(43,48)                1.4181         estimate D2E/DX2                !
 ! R89   R(44,45)                1.3954         estimate D2E/DX2                !
 ! R90   R(44,89)                1.0838         estimate D2E/DX2                !
 ! R91   R(45,46)                1.3945         estimate D2E/DX2                !
 ! R92   R(45,90)                1.0824         estimate D2E/DX2                !
 ! R93   R(46,47)                1.3967         estimate D2E/DX2                !
 ! R94   R(46,91)                1.0825         estimate D2E/DX2                !
 ! R95   R(47,48)                1.4119         estimate D2E/DX2                !
 ! R96   R(47,92)                1.0818         estimate D2E/DX2                !
 ! R97   R(49,50)                1.3931         estimate D2E/DX2                !
 ! R98   R(50,95)                1.9625         estimate D2E/DX2                !
 ! R99   R(51,52)                1.3973         estimate D2E/DX2                !
 ! R100  R(51,93)                1.0829         estimate D2E/DX2                !
 ! R101  R(52,94)                1.0828         estimate D2E/DX2                !
 ! A1    A(2,1,53)             110.593          estimate D2E/DX2                !
 ! A2    A(2,1,54)             110.1891         estimate D2E/DX2                !
 ! A3    A(2,1,55)             111.4559         estimate D2E/DX2                !
 ! A4    A(53,1,54)            108.6            estimate D2E/DX2                !
 ! A5    A(53,1,55)            107.5945         estimate D2E/DX2                !
 ! A6    A(54,1,55)            108.3095         estimate D2E/DX2                !
 ! A7    A(1,2,3)              110.6414         estimate D2E/DX2                !
 ! A8    A(1,2,4)              108.8287         estimate D2E/DX2                !
 ! A9    A(1,2,5)              110.6464         estimate D2E/DX2                !
 ! A10   A(3,2,4)              108.8409         estimate D2E/DX2                !
 ! A11   A(3,2,5)              110.5832         estimate D2E/DX2                !
 ! A12   A(4,2,5)              107.2028         estimate D2E/DX2                !
 ! A13   A(2,3,56)             111.4264         estimate D2E/DX2                !
 ! A14   A(2,3,57)             110.2014         estimate D2E/DX2                !
 ! A15   A(2,3,58)             110.5784         estimate D2E/DX2                !
 ! A16   A(56,3,57)            108.2731         estimate D2E/DX2                !
 ! A17   A(56,3,58)            107.645          estimate D2E/DX2                !
 ! A18   A(57,3,58)            108.6191         estimate D2E/DX2                !
 ! A19   A(2,4,59)             110.2625         estimate D2E/DX2                !
 ! A20   A(2,4,60)             111.0847         estimate D2E/DX2                !
 ! A21   A(2,4,61)             110.2705         estimate D2E/DX2                !
 ! A22   A(59,4,60)            108.5509         estimate D2E/DX2                !
 ! A23   A(59,4,61)            108.05           estimate D2E/DX2                !
 ! A24   A(60,4,61)            108.5408         estimate D2E/DX2                !
 ! A25   A(2,5,6)              126.2715         estimate D2E/DX2                !
 ! A26   A(5,6,7)              121.0056         estimate D2E/DX2                !
 ! A27   A(5,6,8)              118.9465         estimate D2E/DX2                !
 ! A28   A(7,6,8)              120.0478         estimate D2E/DX2                !
 ! A29   A(6,8,9)              122.7163         estimate D2E/DX2                !
 ! A30   A(6,8,62)             118.5677         estimate D2E/DX2                !
 ! A31   A(9,8,62)             118.7149         estimate D2E/DX2                !
 ! A32   A(8,9,10)             110.2106         estimate D2E/DX2                !
 ! A33   A(8,9,63)             109.293          estimate D2E/DX2                !
 ! A34   A(8,9,64)             109.857          estimate D2E/DX2                !
 ! A35   A(10,9,63)            109.0059         estimate D2E/DX2                !
 ! A36   A(10,9,64)            111.4538         estimate D2E/DX2                !
 ! A37   A(63,9,64)            106.9411         estimate D2E/DX2                !
 ! A38   A(9,10,11)            120.0094         estimate D2E/DX2                !
 ! A39   A(9,10,52)            120.5931         estimate D2E/DX2                !
 ! A40   A(11,10,52)           119.3558         estimate D2E/DX2                !
 ! A41   A(10,11,12)           120.3581         estimate D2E/DX2                !
 ! A42   A(10,11,65)           120.2858         estimate D2E/DX2                !
 ! A43   A(12,11,65)           119.354          estimate D2E/DX2                !
 ! A44   A(11,12,13)           120.3694         estimate D2E/DX2                !
 ! A45   A(11,12,66)           119.1419         estimate D2E/DX2                !
 ! A46   A(13,12,66)           120.4746         estimate D2E/DX2                !
 ! A47   A(12,13,14)           120.5507         estimate D2E/DX2                !
 ! A48   A(12,13,51)           119.173          estimate D2E/DX2                !
 ! A49   A(14,13,51)           120.2538         estimate D2E/DX2                !
 ! A50   A(13,14,15)           119.3829         estimate D2E/DX2                !
 ! A51   A(13,14,49)           121.1246         estimate D2E/DX2                !
 ! A52   A(15,14,49)           119.4925         estimate D2E/DX2                !
 ! A53   A(14,15,16)           120.7763         estimate D2E/DX2                !
 ! A54   A(14,15,67)           119.4786         estimate D2E/DX2                !
 ! A55   A(16,15,67)           119.7175         estimate D2E/DX2                !
 ! A56   A(15,16,17)           119.9661         estimate D2E/DX2                !
 ! A57   A(15,16,21)           120.0364         estimate D2E/DX2                !
 ! A58   A(17,16,21)           119.9949         estimate D2E/DX2                !
 ! A59   A(16,17,18)           120.3069         estimate D2E/DX2                !
 ! A60   A(16,17,68)           120.6946         estimate D2E/DX2                !
 ! A61   A(18,17,68)           118.9978         estimate D2E/DX2                !
 ! A62   A(17,18,19)           120.1325         estimate D2E/DX2                !
 ! A63   A(17,18,69)           119.9713         estimate D2E/DX2                !
 ! A64   A(19,18,69)           119.8944         estimate D2E/DX2                !
 ! A65   A(18,19,20)           120.2623         estimate D2E/DX2                !
 ! A66   A(18,19,70)           119.8472         estimate D2E/DX2                !
 ! A67   A(20,19,70)           119.8902         estimate D2E/DX2                !
 ! A68   A(19,20,21)           120.5726         estimate D2E/DX2                !
 ! A69   A(19,20,71)           117.9851         estimate D2E/DX2                !
 ! A70   A(21,20,71)           121.441          estimate D2E/DX2                !
 ! A71   A(16,21,20)           118.7166         estimate D2E/DX2                !
 ! A72   A(16,21,22)           119.3382         estimate D2E/DX2                !
 ! A73   A(20,21,22)           121.9434         estimate D2E/DX2                !
 ! A74   A(21,22,23)           121.6856         estimate D2E/DX2                !
 ! A75   A(21,22,49)           119.672          estimate D2E/DX2                !
 ! A76   A(23,22,49)           118.6419         estimate D2E/DX2                !
 ! A77   A(22,23,24)           118.6288         estimate D2E/DX2                !
 ! A78   A(22,23,48)           121.7222         estimate D2E/DX2                !
 ! A79   A(24,23,48)           119.6489         estimate D2E/DX2                !
 ! A80   A(23,24,25)           119.41           estimate D2E/DX2                !
 ! A81   A(23,24,26)           120.6202         estimate D2E/DX2                !
 ! A82   A(25,24,26)           119.9653         estimate D2E/DX2                !
 ! A83   A(24,25,95)           113.3607         estimate D2E/DX2                !
 ! A84   A(24,26,27)           121.0853         estimate D2E/DX2                !
 ! A85   A(24,26,42)           119.5101         estimate D2E/DX2                !
 ! A86   A(27,26,42)           119.4044         estimate D2E/DX2                !
 ! A87   A(26,27,28)           120.548          estimate D2E/DX2                !
 ! A88   A(26,27,41)           120.2576         estimate D2E/DX2                !
 ! A89   A(28,27,41)           119.1782         estimate D2E/DX2                !
 ! A90   A(27,28,29)           120.3684         estimate D2E/DX2                !
 ! A91   A(27,28,72)           120.4871         estimate D2E/DX2                !
 ! A92   A(29,28,72)           119.1335         estimate D2E/DX2                !
 ! A93   A(28,29,30)           120.3615         estimate D2E/DX2                !
 ! A94   A(28,29,73)           119.3765         estimate D2E/DX2                !
 ! A95   A(30,29,73)           120.2607         estimate D2E/DX2                !
 ! A96   A(29,30,31)           120.0306         estimate D2E/DX2                !
 ! A97   A(29,30,40)           119.3473         estimate D2E/DX2                !
 ! A98   A(31,30,40)           120.5853         estimate D2E/DX2                !
 ! A99   A(30,31,32)           110.1975         estimate D2E/DX2                !
 ! A100  A(30,31,74)           111.4436         estimate D2E/DX2                !
 ! A101  A(30,31,75)           108.977          estimate D2E/DX2                !
 ! A102  A(32,31,74)           109.9283         estimate D2E/DX2                !
 ! A103  A(32,31,75)           109.2406         estimate D2E/DX2                !
 ! A104  A(74,31,75)           106.9734         estimate D2E/DX2                !
 ! A105  A(31,32,33)           122.7012         estimate D2E/DX2                !
 ! A106  A(31,32,76)           118.7519         estimate D2E/DX2                !
 ! A107  A(33,32,76)           118.5467         estimate D2E/DX2                !
 ! A108  A(32,33,34)           120.062          estimate D2E/DX2                !
 ! A109  A(32,33,35)           118.9147         estimate D2E/DX2                !
 ! A110  A(34,33,35)           121.0231         estimate D2E/DX2                !
 ! A111  A(33,35,36)           126.2662         estimate D2E/DX2                !
 ! A112  A(35,36,37)           107.2066         estimate D2E/DX2                !
 ! A113  A(35,36,38)           110.6065         estimate D2E/DX2                !
 ! A114  A(35,36,39)           110.6328         estimate D2E/DX2                !
 ! A115  A(37,36,38)           108.8336         estimate D2E/DX2                !
 ! A116  A(37,36,39)           108.8157         estimate D2E/DX2                !
 ! A117  A(38,36,39)           110.6474         estimate D2E/DX2                !
 ! A118  A(36,37,77)           111.0794         estimate D2E/DX2                !
 ! A119  A(36,37,78)           110.2606         estimate D2E/DX2                !
 ! A120  A(36,37,79)           110.2961         estimate D2E/DX2                !
 ! A121  A(77,37,78)           108.5266         estimate D2E/DX2                !
 ! A122  A(77,37,79)           108.5358         estimate D2E/DX2                !
 ! A123  A(78,37,79)           108.0605         estimate D2E/DX2                !
 ! A124  A(36,38,80)           111.4197         estimate D2E/DX2                !
 ! A125  A(36,38,81)           110.1876         estimate D2E/DX2                !
 ! A126  A(36,38,82)           110.5677         estimate D2E/DX2                !
 ! A127  A(80,38,81)           108.2881         estimate D2E/DX2                !
 ! A128  A(80,38,82)           107.6483         estimate D2E/DX2                !
 ! A129  A(81,38,82)           108.6335         estimate D2E/DX2                !
 ! A130  A(36,39,83)           111.4675         estimate D2E/DX2                !
 ! A131  A(36,39,84)           110.5636         estimate D2E/DX2                !
 ! A132  A(36,39,85)           110.1832         estimate D2E/DX2                !
 ! A133  A(83,39,84)           107.6245         estimate D2E/DX2                !
 ! A134  A(83,39,85)           108.3008         estimate D2E/DX2                !
 ! A135  A(84,39,85)           108.6035         estimate D2E/DX2                !
 ! A136  A(30,40,41)           120.3246         estimate D2E/DX2                !
 ! A137  A(30,40,86)           120.4694         estimate D2E/DX2                !
 ! A138  A(41,40,86)           119.2059         estimate D2E/DX2                !
 ! A139  A(27,41,40)           120.4129         estimate D2E/DX2                !
 ! A140  A(27,41,87)           120.4349         estimate D2E/DX2                !
 ! A141  A(40,41,87)           119.15           estimate D2E/DX2                !
 ! A142  A(26,42,43)           120.7516         estimate D2E/DX2                !
 ! A143  A(26,42,88)           119.502          estimate D2E/DX2                !
 ! A144  A(43,42,88)           119.7201         estimate D2E/DX2                !
 ! A145  A(42,43,44)           119.9405         estimate D2E/DX2                !
 ! A146  A(42,43,48)           120.0455         estimate D2E/DX2                !
 ! A147  A(44,43,48)           120.0116         estimate D2E/DX2                !
 ! A148  A(43,44,45)           120.3026         estimate D2E/DX2                !
 ! A149  A(43,44,89)           120.6826         estimate D2E/DX2                !
 ! A150  A(45,44,89)           119.0139         estimate D2E/DX2                !
 ! A151  A(44,45,46)           120.1246         estimate D2E/DX2                !
 ! A152  A(44,45,90)           119.9289         estimate D2E/DX2                !
 ! A153  A(46,45,90)           119.9452         estimate D2E/DX2                !
 ! A154  A(45,46,47)           120.271          estimate D2E/DX2                !
 ! A155  A(45,46,91)           119.8389         estimate D2E/DX2                !
 ! A156  A(47,46,91)           119.8901         estimate D2E/DX2                !
 ! A157  A(46,47,48)           120.5703         estimate D2E/DX2                !
 ! A158  A(46,47,92)           117.9784         estimate D2E/DX2                !
 ! A159  A(48,47,92)           121.4504         estimate D2E/DX2                !
 ! A160  A(23,48,43)           119.3494         estimate D2E/DX2                !
 ! A161  A(23,48,47)           121.9433         estimate D2E/DX2                !
 ! A162  A(43,48,47)           118.7055         estimate D2E/DX2                !
 ! A163  A(14,49,22)           120.6087         estimate D2E/DX2                !
 ! A164  A(14,49,50)           119.9704         estimate D2E/DX2                !
 ! A165  A(22,49,50)           119.4161         estimate D2E/DX2                !
 ! A166  A(49,50,95)           103.8204         estimate D2E/DX2                !
 ! A167  A(13,51,52)           120.4291         estimate D2E/DX2                !
 ! A168  A(13,51,93)           120.4221         estimate D2E/DX2                !
 ! A169  A(52,51,93)           119.1476         estimate D2E/DX2                !
 ! A170  A(10,52,51)           120.3113         estimate D2E/DX2                !
 ! A171  A(10,52,94)           120.4795         estimate D2E/DX2                !
 ! A172  A(51,52,94)           119.2085         estimate D2E/DX2                !
 ! A173  A(25,95,50)            99.9976         estimate D2E/DX2                !
 ! D1    D(53,1,2,3)            64.3774         estimate D2E/DX2                !
 ! D2    D(53,1,2,4)           -55.1641         estimate D2E/DX2                !
 ! D3    D(53,1,2,5)          -172.7065         estimate D2E/DX2                !
 ! D4    D(54,1,2,3)          -175.5432         estimate D2E/DX2                !
 ! D5    D(54,1,2,4)            64.9152         estimate D2E/DX2                !
 ! D6    D(54,1,2,5)           -52.6272         estimate D2E/DX2                !
 ! D7    D(55,1,2,3)           -55.2678         estimate D2E/DX2                !
 ! D8    D(55,1,2,4)          -174.8093         estimate D2E/DX2                !
 ! D9    D(55,1,2,5)            67.6483         estimate D2E/DX2                !
 ! D10   D(1,2,3,56)            55.6509         estimate D2E/DX2                !
 ! D11   D(1,2,3,57)           175.8694         estimate D2E/DX2                !
 ! D12   D(1,2,3,58)           -64.0288         estimate D2E/DX2                !
 ! D13   D(4,2,3,56)           175.1851         estimate D2E/DX2                !
 ! D14   D(4,2,3,57)           -64.5964         estimate D2E/DX2                !
 ! D15   D(4,2,3,58)            55.5054         estimate D2E/DX2                !
 ! D16   D(5,2,3,56)           -67.3018         estimate D2E/DX2                !
 ! D17   D(5,2,3,57)            52.9167         estimate D2E/DX2                !
 ! D18   D(5,2,3,58)           173.0185         estimate D2E/DX2                !
 ! D19   D(1,2,4,59)          -179.2172         estimate D2E/DX2                !
 ! D20   D(1,2,4,60)            60.398          estimate D2E/DX2                !
 ! D21   D(1,2,4,61)           -59.9794         estimate D2E/DX2                !
 ! D22   D(3,2,4,59)            60.1265         estimate D2E/DX2                !
 ! D23   D(3,2,4,60)           -60.2583         estimate D2E/DX2                !
 ! D24   D(3,2,4,61)           179.3643         estimate D2E/DX2                !
 ! D25   D(5,2,4,59)           -59.5111         estimate D2E/DX2                !
 ! D26   D(5,2,4,60)          -179.8959         estimate D2E/DX2                !
 ! D27   D(5,2,4,61)            59.7267         estimate D2E/DX2                !
 ! D28   D(1,2,5,6)            -61.9133         estimate D2E/DX2                !
 ! D29   D(3,2,5,6)             61.0366         estimate D2E/DX2                !
 ! D30   D(4,2,5,6)            179.5514         estimate D2E/DX2                !
 ! D31   D(2,5,6,7)              1.8003         estimate D2E/DX2                !
 ! D32   D(2,5,6,8)           -178.3095         estimate D2E/DX2                !
 ! D33   D(5,6,8,9)            177.0604         estimate D2E/DX2                !
 ! D34   D(5,6,8,62)            -2.543          estimate D2E/DX2                !
 ! D35   D(7,6,8,9)             -3.0483         estimate D2E/DX2                !
 ! D36   D(7,6,8,62)           177.3483         estimate D2E/DX2                !
 ! D37   D(6,8,9,10)           -73.1784         estimate D2E/DX2                !
 ! D38   D(6,8,9,63)           167.0495         estimate D2E/DX2                !
 ! D39   D(6,8,9,64)            50.0062         estimate D2E/DX2                !
 ! D40   D(62,8,9,10)          106.4245         estimate D2E/DX2                !
 ! D41   D(62,8,9,63)          -13.3476         estimate D2E/DX2                !
 ! D42   D(62,8,9,64)         -130.3909         estimate D2E/DX2                !
 ! D43   D(8,9,10,11)          -73.9976         estimate D2E/DX2                !
 ! D44   D(8,9,10,52)          103.6388         estimate D2E/DX2                !
 ! D45   D(63,9,10,11)          45.9481         estimate D2E/DX2                !
 ! D46   D(63,9,10,52)        -136.4155         estimate D2E/DX2                !
 ! D47   D(64,9,10,11)         163.7549         estimate D2E/DX2                !
 ! D48   D(64,9,10,52)         -18.6087         estimate D2E/DX2                !
 ! D49   D(9,10,11,12)         178.2434         estimate D2E/DX2                !
 ! D50   D(9,10,11,65)          -1.2268         estimate D2E/DX2                !
 ! D51   D(52,10,11,12)          0.5777         estimate D2E/DX2                !
 ! D52   D(52,10,11,65)       -178.8925         estimate D2E/DX2                !
 ! D53   D(9,10,52,51)        -177.9823         estimate D2E/DX2                !
 ! D54   D(9,10,52,94)           1.7124         estimate D2E/DX2                !
 ! D55   D(11,10,52,51)         -0.3306         estimate D2E/DX2                !
 ! D56   D(11,10,52,94)        179.3642         estimate D2E/DX2                !
 ! D57   D(10,11,12,13)         -0.2869         estimate D2E/DX2                !
 ! D58   D(10,11,12,66)       -178.927          estimate D2E/DX2                !
 ! D59   D(65,11,12,13)        179.1882         estimate D2E/DX2                !
 ! D60   D(65,11,12,66)          0.5481         estimate D2E/DX2                !
 ! D61   D(11,12,13,14)       -178.5334         estimate D2E/DX2                !
 ! D62   D(11,12,13,51)         -0.2522         estimate D2E/DX2                !
 ! D63   D(66,12,13,14)          0.0884         estimate D2E/DX2                !
 ! D64   D(66,12,13,51)        178.3696         estimate D2E/DX2                !
 ! D65   D(12,13,14,15)        127.1023         estimate D2E/DX2                !
 ! D66   D(12,13,14,49)        -52.8206         estimate D2E/DX2                !
 ! D67   D(51,13,14,15)        -51.1603         estimate D2E/DX2                !
 ! D68   D(51,13,14,49)        128.9169         estimate D2E/DX2                !
 ! D69   D(12,13,51,52)          0.4994         estimate D2E/DX2                !
 ! D70   D(12,13,51,93)       -179.9202         estimate D2E/DX2                !
 ! D71   D(14,13,51,52)        178.7858         estimate D2E/DX2                !
 ! D72   D(14,13,51,93)         -1.6338         estimate D2E/DX2                !
 ! D73   D(13,14,15,16)       -178.0161         estimate D2E/DX2                !
 ! D74   D(13,14,15,67)          0.0683         estimate D2E/DX2                !
 ! D75   D(49,14,15,16)          1.908          estimate D2E/DX2                !
 ! D76   D(49,14,15,67)        179.9924         estimate D2E/DX2                !
 ! D77   D(13,14,49,22)        179.6262         estimate D2E/DX2                !
 ! D78   D(13,14,49,50)         -1.1761         estimate D2E/DX2                !
 ! D79   D(15,14,49,22)         -0.2965         estimate D2E/DX2                !
 ! D80   D(15,14,49,50)        178.9011         estimate D2E/DX2                !
 ! D81   D(14,15,16,17)        178.3827         estimate D2E/DX2                !
 ! D82   D(14,15,16,21)         -1.0292         estimate D2E/DX2                !
 ! D83   D(67,15,16,17)          0.3029         estimate D2E/DX2                !
 ! D84   D(67,15,16,21)       -179.1091         estimate D2E/DX2                !
 ! D85   D(15,16,17,18)       -178.8408         estimate D2E/DX2                !
 ! D86   D(15,16,17,68)          0.8644         estimate D2E/DX2                !
 ! D87   D(21,16,17,18)          0.5715         estimate D2E/DX2                !
 ! D88   D(21,16,17,68)       -179.7234         estimate D2E/DX2                !
 ! D89   D(15,16,21,20)        178.0641         estimate D2E/DX2                !
 ! D90   D(15,16,21,22)         -1.4452         estimate D2E/DX2                !
 ! D91   D(17,16,21,20)         -1.3477         estimate D2E/DX2                !
 ! D92   D(17,16,21,22)        179.143          estimate D2E/DX2                !
 ! D93   D(16,17,18,19)          0.3217         estimate D2E/DX2                !
 ! D94   D(16,17,18,69)        179.8252         estimate D2E/DX2                !
 ! D95   D(68,17,18,19)       -179.3884         estimate D2E/DX2                !
 ! D96   D(68,17,18,69)          0.1151         estimate D2E/DX2                !
 ! D97   D(17,18,19,20)         -0.4154         estimate D2E/DX2                !
 ! D98   D(17,18,19,70)        179.4082         estimate D2E/DX2                !
 ! D99   D(69,18,19,20)       -179.9192         estimate D2E/DX2                !
 ! D100  D(69,18,19,70)         -0.0957         estimate D2E/DX2                !
 ! D101  D(18,19,20,21)         -0.3906         estimate D2E/DX2                !
 ! D102  D(18,19,20,71)        179.2165         estimate D2E/DX2                !
 ! D103  D(70,19,20,21)        179.786          estimate D2E/DX2                !
 ! D104  D(70,19,20,71)         -0.6069         estimate D2E/DX2                !
 ! D105  D(19,20,21,16)          1.2623         estimate D2E/DX2                !
 ! D106  D(19,20,21,22)       -179.2418         estimate D2E/DX2                !
 ! D107  D(71,20,21,16)       -178.331          estimate D2E/DX2                !
 ! D108  D(71,20,21,22)          1.1649         estimate D2E/DX2                !
 ! D109  D(16,21,22,23)       -177.2558         estimate D2E/DX2                !
 ! D110  D(16,21,22,49)          3.0187         estimate D2E/DX2                !
 ! D111  D(20,21,22,23)          3.2513         estimate D2E/DX2                !
 ! D112  D(20,21,22,49)       -176.4742         estimate D2E/DX2                !
 ! D113  D(21,22,23,24)       -111.2567         estimate D2E/DX2                !
 ! D114  D(21,22,23,48)         68.8481         estimate D2E/DX2                !
 ! D115  D(49,22,23,24)         68.4715         estimate D2E/DX2                !
 ! D116  D(49,22,23,48)       -111.4237         estimate D2E/DX2                !
 ! D117  D(21,22,49,14)         -2.1661         estimate D2E/DX2                !
 ! D118  D(21,22,49,50)        178.6318         estimate D2E/DX2                !
 ! D119  D(23,22,49,14)        178.1            estimate D2E/DX2                !
 ! D120  D(23,22,49,50)         -1.1021         estimate D2E/DX2                !
 ! D121  D(22,23,24,25)         -1.2054         estimate D2E/DX2                !
 ! D122  D(22,23,24,26)        178.0265         estimate D2E/DX2                !
 ! D123  D(48,23,24,25)        178.692          estimate D2E/DX2                !
 ! D124  D(48,23,24,26)         -2.0761         estimate D2E/DX2                !
 ! D125  D(22,23,48,43)       -177.1216         estimate D2E/DX2                !
 ! D126  D(22,23,48,47)          3.3656         estimate D2E/DX2                !
 ! D127  D(24,23,48,43)          2.9843         estimate D2E/DX2                !
 ! D128  D(24,23,48,47)       -176.5286         estimate D2E/DX2                !
 ! D129  D(23,24,25,95)        -70.7896         estimate D2E/DX2                !
 ! D130  D(26,24,25,95)        109.9734         estimate D2E/DX2                !
 ! D131  D(23,24,26,27)        179.7877         estimate D2E/DX2                !
 ! D132  D(23,24,26,42)         -0.3709         estimate D2E/DX2                !
 ! D133  D(25,24,26,27)         -0.9847         estimate D2E/DX2                !
 ! D134  D(25,24,26,42)        178.8567         estimate D2E/DX2                !
 ! D135  D(24,25,95,50)         36.2607         estimate D2E/DX2                !
 ! D136  D(24,26,27,28)        -52.826          estimate D2E/DX2                !
 ! D137  D(24,26,27,41)        128.6485         estimate D2E/DX2                !
 ! D138  D(42,26,27,28)        127.3324         estimate D2E/DX2                !
 ! D139  D(42,26,27,41)        -51.1931         estimate D2E/DX2                !
 ! D140  D(24,26,42,43)          1.9107         estimate D2E/DX2                !
 ! D141  D(24,26,42,88)       -179.9625         estimate D2E/DX2                !
 ! D142  D(27,26,42,43)       -178.2452         estimate D2E/DX2                !
 ! D143  D(27,26,42,88)         -0.1184         estimate D2E/DX2                !
 ! D144  D(26,27,28,29)       -178.9848         estimate D2E/DX2                !
 ! D145  D(26,27,28,72)         -0.2019         estimate D2E/DX2                !
 ! D146  D(41,27,28,29)         -0.4435         estimate D2E/DX2                !
 ! D147  D(41,27,28,72)        178.3394         estimate D2E/DX2                !
 ! D148  D(26,27,41,40)        179.2289         estimate D2E/DX2                !
 ! D149  D(26,27,41,87)         -1.3266         estimate D2E/DX2                !
 ! D150  D(28,27,41,40)          0.6832         estimate D2E/DX2                !
 ! D151  D(28,27,41,87)       -179.8722         estimate D2E/DX2                !
 ! D152  D(27,28,29,30)         -0.3283         estimate D2E/DX2                !
 ! D153  D(27,28,29,73)        179.259          estimate D2E/DX2                !
 ! D154  D(72,28,29,30)       -179.1276         estimate D2E/DX2                !
 ! D155  D(72,28,29,73)          0.4598         estimate D2E/DX2                !
 ! D156  D(28,29,30,31)        178.6664         estimate D2E/DX2                !
 ! D157  D(28,29,30,40)          0.8588         estimate D2E/DX2                !
 ! D158  D(73,29,30,31)         -0.9173         estimate D2E/DX2                !
 ! D159  D(73,29,30,40)       -178.7249         estimate D2E/DX2                !
 ! D160  D(29,30,31,32)        -74.8317         estimate D2E/DX2                !
 ! D161  D(29,30,31,74)        162.8462         estimate D2E/DX2                !
 ! D162  D(29,30,31,75)         45.0238         estimate D2E/DX2                !
 ! D163  D(40,30,31,32)        102.9484         estimate D2E/DX2                !
 ! D164  D(40,30,31,74)        -19.3738         estimate D2E/DX2                !
 ! D165  D(40,30,31,75)       -137.1961         estimate D2E/DX2                !
 ! D166  D(29,30,40,41)         -0.6191         estimate D2E/DX2                !
 ! D167  D(29,30,40,86)        179.2314         estimate D2E/DX2                !
 ! D168  D(31,30,40,41)       -178.4142         estimate D2E/DX2                !
 ! D169  D(31,30,40,86)          1.4363         estimate D2E/DX2                !
 ! D170  D(30,31,32,33)        -74.8171         estimate D2E/DX2                !
 ! D171  D(30,31,32,76)        104.9993         estimate D2E/DX2                !
 ! D172  D(74,31,32,33)         48.394          estimate D2E/DX2                !
 ! D173  D(74,31,32,76)       -131.7896         estimate D2E/DX2                !
 ! D174  D(75,31,32,33)        165.487          estimate D2E/DX2                !
 ! D175  D(75,31,32,76)        -14.6966         estimate D2E/DX2                !
 ! D176  D(31,32,33,34)         -2.9131         estimate D2E/DX2                !
 ! D177  D(31,32,33,35)        177.2429         estimate D2E/DX2                !
 ! D178  D(76,32,33,34)        177.2701         estimate D2E/DX2                !
 ! D179  D(76,32,33,35)         -2.5739         estimate D2E/DX2                !
 ! D180  D(32,33,35,36)       -179.2506         estimate D2E/DX2                !
 ! D181  D(34,33,35,36)          0.9069         estimate D2E/DX2                !
 ! D182  D(33,35,36,37)        179.6824         estimate D2E/DX2                !
 ! D183  D(33,35,36,38)         61.161          estimate D2E/DX2                !
 ! D184  D(33,35,36,39)        -61.8032         estimate D2E/DX2                !
 ! D185  D(35,36,37,77)       -179.9509         estimate D2E/DX2                !
 ! D186  D(35,36,37,78)         59.6996         estimate D2E/DX2                !
 ! D187  D(35,36,37,79)        -59.5662         estimate D2E/DX2                !
 ! D188  D(38,36,37,77)        -60.2873         estimate D2E/DX2                !
 ! D189  D(38,36,37,78)        179.3631         estimate D2E/DX2                !
 ! D190  D(38,36,37,79)         60.0974         estimate D2E/DX2                !
 ! D191  D(39,36,37,77)         60.3641         estimate D2E/DX2                !
 ! D192  D(39,36,37,78)        -59.9854         estimate D2E/DX2                !
 ! D193  D(39,36,37,79)       -179.2512         estimate D2E/DX2                !
 ! D194  D(35,36,38,80)        -67.5253         estimate D2E/DX2                !
 ! D195  D(35,36,38,81)         52.6985         estimate D2E/DX2                !
 ! D196  D(35,36,38,82)        172.8024         estimate D2E/DX2                !
 ! D197  D(37,36,38,80)        174.9477         estimate D2E/DX2                !
 ! D198  D(37,36,38,81)        -64.8285         estimate D2E/DX2                !
 ! D199  D(37,36,38,82)         55.2754         estimate D2E/DX2                !
 ! D200  D(39,36,38,80)         55.4303         estimate D2E/DX2                !
 ! D201  D(39,36,38,81)        175.6541         estimate D2E/DX2                !
 ! D202  D(39,36,38,82)        -64.242          estimate D2E/DX2                !
 ! D203  D(35,36,39,83)         67.4079         estimate D2E/DX2                !
 ! D204  D(35,36,39,84)       -172.9211         estimate D2E/DX2                !
 ! D205  D(35,36,39,85)        -52.8602         estimate D2E/DX2                !
 ! D206  D(37,36,39,83)       -175.0607         estimate D2E/DX2                !
 ! D207  D(37,36,39,84)        -55.3897         estimate D2E/DX2                !
 ! D208  D(37,36,39,85)         64.6712         estimate D2E/DX2                !
 ! D209  D(38,36,39,83)        -55.5325         estimate D2E/DX2                !
 ! D210  D(38,36,39,84)         64.1384         estimate D2E/DX2                !
 ! D211  D(38,36,39,85)       -175.8006         estimate D2E/DX2                !
 ! D212  D(30,40,41,27)         -0.1525         estimate D2E/DX2                !
 ! D213  D(30,40,41,87)       -179.6041         estimate D2E/DX2                !
 ! D214  D(86,40,41,27)        179.9951         estimate D2E/DX2                !
 ! D215  D(86,40,41,87)          0.5434         estimate D2E/DX2                !
 ! D216  D(26,42,43,44)        178.4574         estimate D2E/DX2                !
 ! D217  D(26,42,43,48)         -0.9767         estimate D2E/DX2                !
 ! D218  D(88,42,43,44)          0.3346         estimate D2E/DX2                !
 ! D219  D(88,42,43,48)       -179.0995         estimate D2E/DX2                !
 ! D220  D(42,43,44,45)       -178.7858         estimate D2E/DX2                !
 ! D221  D(42,43,44,89)          0.8718         estimate D2E/DX2                !
 ! D222  D(48,43,44,45)          0.6485         estimate D2E/DX2                !
 ! D223  D(48,43,44,89)       -179.6939         estimate D2E/DX2                !
 ! D224  D(42,43,48,23)         -1.4817         estimate D2E/DX2                !
 ! D225  D(42,43,48,47)        178.047          estimate D2E/DX2                !
 ! D226  D(44,43,48,23)        179.0845         estimate D2E/DX2                !
 ! D227  D(44,43,48,47)         -1.3867         estimate D2E/DX2                !
 ! D228  D(43,44,45,46)          0.2537         estimate D2E/DX2                !
 ! D229  D(43,44,45,90)        179.8509         estimate D2E/DX2                !
 ! D230  D(89,44,45,46)       -179.4096         estimate D2E/DX2                !
 ! D231  D(89,44,45,90)          0.1877         estimate D2E/DX2                !
 ! D232  D(44,45,46,47)         -0.3943         estimate D2E/DX2                !
 ! D233  D(44,45,46,91)        179.5148         estimate D2E/DX2                !
 ! D234  D(90,45,46,47)       -179.9915         estimate D2E/DX2                !
 ! D235  D(90,45,46,91)         -0.0824         estimate D2E/DX2                !
 ! D236  D(45,46,47,48)         -0.3739         estimate D2E/DX2                !
 ! D237  D(45,46,47,92)        179.2963         estimate D2E/DX2                !
 ! D238  D(91,46,47,48)        179.7171         estimate D2E/DX2                !
 ! D239  D(91,46,47,92)         -0.6128         estimate D2E/DX2                !
 ! D240  D(46,47,48,23)       -179.2296         estimate D2E/DX2                !
 ! D241  D(46,47,48,43)          1.2545         estimate D2E/DX2                !
 ! D242  D(92,47,48,23)          1.1118         estimate D2E/DX2                !
 ! D243  D(92,47,48,43)       -178.4041         estimate D2E/DX2                !
 ! D244  D(14,49,50,95)        100.2045         estimate D2E/DX2                !
 ! D245  D(22,49,50,95)        -80.5882         estimate D2E/DX2                !
 ! D246  D(49,50,95,25)         55.2439         estimate D2E/DX2                !
 ! D247  D(13,51,52,10)         -0.2089         estimate D2E/DX2                !
 ! D248  D(13,51,52,94)       -179.9075         estimate D2E/DX2                !
 ! D249  D(93,51,52,10)       -179.7946         estimate D2E/DX2                !
 ! D250  D(93,51,52,94)          0.5068         estimate D2E/DX2                !
 --------------------------------------------------------------------------------
 Trust Radius=3.00D-01 FncErr=1.00D-07 GrdErr=1.00D-06 EigMax=2.50D+02 EigMin=1.00D-04
 Number of steps in this run=    534 maximum allowed number of steps=    570.
 GradGradGradGradGradGradGradGradGradGradGradGradGradGradGradGradGradGrad

 Leave Link  103 at Tue Dec 10 14:04:55 2024, MaxMem= 13421772800 cpu:               0.3 elap:               0.0
 (Enter /public/software/apps/Gaussian/g16/l202.exe)
 Symmetry turned off by external request.
 Stoichiometry    C44H42CuN2O6(2)
 Framework group  C1[X(C44H42CuN2O6)]
 Deg. of freedom   279
 Full point group                 C1      NOp   1
                          Input orientation:                          
 ---------------------------------------------------------------------
 Center     Atomic      Atomic             Coordinates (Angstroms)
 Number     Number       Type             X           Y           Z
 ---------------------------------------------------------------------
      1          6           0       11.422358    0.235278    1.716305
      2          6           0       10.291846    1.273179    1.579581
      3          6           0        9.807460    1.359618    0.119283
      4          6           0       10.827028    2.648615    2.007104
      5          8           0        9.200419    0.951280    2.455232
      6          6           0        8.417693   -0.212171    2.412839
      7          8           0        8.653041   -1.122958    1.573588
      8          7           0        7.339334   -0.356348    3.344005
      9          6           0        6.434064   -1.503345    3.332629
     10          6           0        5.494212   -1.411994    2.161727
     11          6           0        4.438998   -0.487768    2.179473
     12          6           0        3.583502   -0.371205    1.080364
     13          6           0        3.774450   -1.173895   -0.056488
     14          6           0        2.889817   -1.031039   -1.236568
     15          6           0        3.458033   -0.826602   -2.501070
     16          6           0        2.649049   -0.646669   -3.629314
     17          6           0        3.236137   -0.409197   -4.882761
     18          6           0        2.436159   -0.204864   -6.007685
     19          6           0        1.046828   -0.228690   -5.892258
     20          6           0        0.447494   -0.465506   -4.653286
     21          6           0        1.237357   -0.691668   -3.504881
     22          6           0        0.659517   -0.950641   -2.235788
     23          6           0       -0.813785   -1.069136   -2.056814
     24          6           0       -1.488722   -0.064998   -1.337308
     25          8           0       -0.762740    0.992424   -0.793637
     26          6           0       -2.886056   -0.113424   -1.178235
     27          6           0       -3.606347    0.935377   -0.419066
     28          6           0       -3.210176    1.271307    0.886229
     29          6           0       -3.905533    2.246442    1.606856
     30          6           0       -5.002621    2.905401    1.032004
     31          6           0       -5.764155    3.932187    1.824979
     32          7           0       -6.606462    3.276191    2.822487
     33          6           0       -7.819666    2.595596    2.483493
     34          8           0       -8.229465    2.591352    1.291255
     35          8           0       -8.537157    1.942921    3.496932
     36          6           0       -9.757020    1.204074    3.332914
     37          6           0      -10.154965    0.670673    4.717612
     38          6           0       -9.544309    0.010240    2.382287
     39          6           0      -10.880742    2.120224    2.811538
     40          6           0       -5.406712    2.563205   -0.267393
     41          6           0       -4.715089    1.584786   -0.986770
     42          6           0       -3.609612   -1.168661   -1.749555
     43          6           0       -2.954172   -2.193945   -2.441365
     44          6           0       -3.692985   -3.260159   -2.979330
     45          6           0       -3.044793   -4.299038   -3.648418
     46          6           0       -1.656746   -4.286879   -3.782229
     47          6           0       -0.907852   -3.232209   -3.255397
     48          6           0       -1.544088   -2.162495   -2.588675
     49          6           0        1.490084   -1.095597   -1.108334
     50          8           0        0.915307   -1.321345    0.140462
     51          6           0        4.838504   -2.090576   -0.076522
     52          6           0        5.690339   -2.210272    1.024670
     53          1           0       12.317371    0.553817    1.139401
     54          1           0       11.710744    0.120673    2.783220
     55          1           0       11.110909   -0.756869    1.331108
     56          1           0        9.490943    0.367397   -0.261992
     57          1           0        8.943876    2.054119    0.042042
     58          1           0       10.621104    1.730323   -0.540897
     59          1           0       10.025091    3.414300    1.930964
     60          1           0       11.678661    2.963414    1.365626
     61          1           0       11.172929    2.616038    3.062784
     62          1           0        7.191077    0.392872    4.056400
     63          1           0        5.841066   -1.512625    4.273034
     64          1           0        7.020826   -2.447289    3.310347
     65          1           0        4.284717    0.148559    3.042167
     66          1           0        2.785998    0.360952    1.108109
     67          1           0        4.536985   -0.776753   -2.599638
     68          1           0        4.313742   -0.376893   -4.991626
     69          1           0        2.894289   -0.019512   -6.970416
     70          1           0        0.430669   -0.060089   -6.766130
     71          1           0       -0.633227   -0.463142   -4.603391
     72          1           0       -2.375034    0.764960    1.354484
     73          1           0       -3.593722    2.484266    2.616413
     74          1           0       -6.388087    4.574657    1.165313
     75          1           0       -5.040409    4.601361    2.339488
     76          1           0       -6.311382    3.301450    3.824351
     77          1           0      -11.097535    0.083795    4.664243
     78          1           0      -10.303418    1.513435    5.426538
     79          1           0       -9.353716    0.016108    5.123451
     80          1           0       -9.343030    0.348871    1.345596
     81          1           0       -8.681945   -0.602021    2.722688
     82          1           0      -10.449430   -0.634480    2.356464
     83          1           0      -10.679161    2.460400    1.775575
     84          1           0      -11.852746    1.581188    2.805612
     85          1           0      -10.976590    3.016754    3.460692
     86          1           0       -6.258580    3.051394   -0.723942
     87          1           0       -5.039497    1.340086   -1.990955
     88          1           0       -4.686865   -1.205533   -1.627365
     89          1           0       -4.771453   -3.292659   -2.877414
     90          1           0       -3.620007   -5.119125   -4.058631
     91          1           0       -1.157972   -5.099126   -4.295311
     92          1           0        0.167345   -3.266170   -3.370274
     93          1           0        5.005140   -2.718445   -0.942973
     94          1           0        6.505276   -2.922238    0.987369
     95         29           0        0.357454    0.465542    0.729704
 ---------------------------------------------------------------------
 Rotational constants (GHZ):           0.0693318           0.0183562           0.0158499
 Leave Link  202 at Tue Dec 10 14:04:55 2024, MaxMem= 13421772800 cpu:               0.6 elap:               0.0
 (Enter /public/software/apps/Gaussian/g16/l301.exe)
 Standard basis: def2SVPP (5D, 7F)
 Ernie: Thresh=  0.10000D-02 Tol=  0.10000D-05 Strict=F.
   836 basis functions,  1539 primitive gaussians,   890 cartesian basis functions
   199 alpha electrons      198 beta electrons
       nuclear repulsion energy      7122.5944429889 Hartrees.
 IExCor=  402 DFT=T Ex+Corr=B3LYP ExCW=0 ScaHFX=  0.200000
 ScaDFX=  0.800000  0.720000  1.000000  0.810000 ScalE2=  1.000000  1.000000
 IRadAn=      5 IRanWt=     -1 IRanGd=            0 ICorTp=0 IEmpDi=141
 NAtoms=   95 NActive=   95 NUniq=   95 SFac= 1.00D+00 NAtFMM=   60 NAOKFM=T Big=T
 Integral buffers will be    131072 words long.
 Raffenetti 2 integral format.
 Two-electron integral symmetry is turned off.
 R6Disp:  Grimme-D3(BJ) Dispersion energy=       -0.2324102091 Hartrees.
 Nuclear repulsion after empirical dispersion term =     7122.3620327798 Hartrees.
 Leave Link  301 at Tue Dec 10 14:04:55 2024, MaxMem= 13421772800 cpu:               0.6 elap:               0.0
 (Enter /public/software/apps/Gaussian/g16/l302.exe)
 NPDir=0 NMtPBC=     1 NCelOv=     1 NCel=       1 NClECP=     1 NCelD=      1
         NCelK=      1 NCelE2=     1 NClLst=     1 CellRange=     0.0.
 One-electron integrals computed using PRISM.
   1 Symmetry operations used in ECPInt.
 ECPInt:  NShTT=   82621 NPrTT=  337452 LenC2=   51066 LenP2D=  124144.
 LDataN:  DoStor=T MaxTD1= 4 Len=   56
 NBasis=   836 RedAO= T EigKep=  1.67D-04  NBF=   836
 NBsUse=   836 1.00D-06 EigRej= -1.00D+00 NBFU=   836
 Precomputing XC quadrature grid using
 IXCGrd= 4 IRadAn=           5 IRanWt=          -1 IRanGd=           0 AccXCQ= 0.00D+00.
 Generated NRdTot=       0 NPtTot=           0 NUsed=           0 NTot=          32
 NSgBfM=   791   789   790   790   791 MxSgAt=    95 MxSgA2=    95.
 Leave Link  302 at Tue Dec 10 14:04:56 2024, MaxMem= 13421772800 cpu:              40.3 elap:               1.3
 (Enter /public/software/apps/Gaussian/g16/l303.exe)
 DipDrv:  MaxL=1.
 Leave Link  303 at Tue Dec 10 14:04:57 2024, MaxMem= 13421772800 cpu:               3.5 elap:               0.1
 (Enter /public/software/apps/Gaussian/g16/l401.exe)
 ExpMin= 3.30D-02 ExpMax= 7.64D+04 ExpMxC= 1.15D+04 IAcc=3 IRadAn=         5 AccDes= 0.00D+00
 Harris functional with IExCor=  402 and IRadAn=       5 diagonalized for initial guess.
 HarFok:  IExCor=  402 AccDes= 0.00D+00 IRadAn=         5 IDoV= 1 UseB2=F ITyADJ=14
 ICtDFT=  3500011 ScaDFX=  1.000000  1.000000  1.000000  1.000000
 FoFCou: FMM=F IPFlag=           0 FMFlag=      100000 FMFlg1=        2001
         NFxFlg=           0 DoJE=T BraDBF=F KetDBF=T FulRan=T
         wScrn=  0.000000 ICntrl=       500 IOpCl=  0 I1Cent=   200000004 NGrid=           0
         NMat0=    1 NMatS0=      1 NMatT0=    0 NMatD0=    1 NMtDS0=    0 NMtDT0=    0
 Symmetry not used in FoFCou.
 Harris En= -3901.94495442679    
 JPrj=0 DoOrth=F DoCkMO=F.
 Initial guess <Sx>= 0.0000 <Sy>= 0.0000 <Sz>= 0.5000 <S**2>= 0.7500 S= 0.5000
 Leave Link  401 at Tue Dec 10 14:04:59 2024, MaxMem= 13421772800 cpu:              78.8 elap:               2.5
 (Enter /public/software/apps/Gaussian/g16/l502.exe)
 Two-electron integral symmetry not used.
 UHF open shell SCF:
 Using DIIS extrapolation, IDIIS=  1040.
 NGot= 13421772800 LenX= 13420150374 LenY= 13419357384
 Requested convergence on RMS density matrix=1.00D-08 within 128 cycles.
 Requested convergence on MAX density matrix=1.00D-06.
 Requested convergence on             energy=1.00D-06.
 No special actions if energy rises.
 Fock matrices will be formed incrementally for  20 cycles.

 Cycle   1  Pass 1  IDiag  1:
 FoFJK:  IHMeth= 1 ICntrl=       0 DoSepK=F KAlg= 0 I1Cent=           0 FoldK=F
 IRaf= 690000000 NMat=       1 IRICut=       1 DoRegI=T DoRafI=F ISym2E= 0 IDoP0=0 IntGTp=1.
 FoFCou: FMM=T IPFlag=           0 FMFlag=      100000 FMFlg1=        2001
         NFxFlg=           0 DoJE=F BraDBF=F KetDBF=F FulRan=T
         wScrn=  0.000000 ICntrl=         0 IOpCl=  1 I1Cent=           0 NGrid=           0
         NMat0=    1 NMatS0=      1 NMatT0=    0 NMatD0=    1 NMtDS0=    0 NMtDT0=    0
 Symmetry not used in FoFCou.
 FMM levels:  10  Number of levels for PrismC:   9
 E= -3885.17881710459    
 DIIS: error= 3.50D-01 at cycle   1 NSaved=   1.
 NSaved= 1 IEnMin= 1 EnMin= -3885.17881710459     IErMin= 1 ErrMin= 3.50D-01
 ErrMax= 3.50D-01  0.00D+00 EMaxC= 1.00D-01 BMatC= 7.21D+01 BMatP= 7.21D+01
 IDIUse=3 WtCom= 0.00D+00 WtEn= 1.00D+00
 Coeff-Com:  0.100D+01
 Coeff-En:   0.100D+01
 Coeff:      0.100D+01
 Gap=     1.151 Goal=   None    Shift=    0.000
 Gap=    -0.767 Goal=   None    Shift=    0.000
 GapD=   -0.767 DampG=0.250 DampE=0.125 DampFc=0.1250 IDamp=-1.
 Damping current iteration by 1.25D-01
 RMSDP=7.51D-02 MaxDP=1.81D+01              OVMax= 9.92D-01

 Cycle   2  Pass 1  IDiag  1:
 RMSU=  9.38D-03    CP:  1.02D+00
 E= -3890.22968168547     Delta-E=       -5.050864580880 Rises=F Damp=T
 DIIS: error= 2.37D-01 at cycle   2 NSaved=   2.
 NSaved= 2 IEnMin= 2 EnMin= -3890.22968168547     IErMin= 2 ErrMin= 2.37D-01
 ErrMax= 2.37D-01  0.00D+00 EMaxC= 1.00D-01 BMatC= 2.70D+01 BMatP= 7.21D+01
 IDIUse=3 WtCom= 0.00D+00 WtEn= 1.00D+00
 Coeff-Com: -0.110D+01 0.210D+01
 Coeff-En:   0.000D+00 0.100D+01
 Coeff:      0.000D+00 0.100D+01
 Gap=    -0.076 Goal=   None    Shift=    0.000
 Gap=     0.140 Goal=   None    Shift=    0.000
 RMSDP=1.36D-02 MaxDP=3.48D+00 DE=-5.05D+00 OVMax= 9.15D-01

 Cycle   3  Pass 1  IDiag  1:
 RMSU=  1.35D-02    CP:  9.48D-01  8.17D-01
 E= -3873.34362097405     Delta-E=       16.886060711422 Rises=F Damp=F
 DIIS: error= 1.88D-01 at cycle   3 NSaved=   3.
 NSaved= 3 IEnMin= 2 EnMin= -3890.22968168547     IErMin= 3 ErrMin= 1.88D-01
 ErrMax= 1.88D-01  0.00D+00 EMaxC= 1.00D-01 BMatC= 7.52D+01 BMatP= 2.70D+01
 IDIUse=2 WtCom= 0.00D+00 WtEn= 1.00D+00
 EnCoef did     6 forward-backward iterations
 Coeff-En:   0.594D+00 0.701D-03 0.405D+00
 Coeff:      0.594D+00 0.701D-03 0.405D+00
 Gap=     0.660 Goal=   None    Shift=    0.000
 Gap=    -0.095 Goal=   None    Shift=    0.000
 RMSDP=2.59D-02 MaxDP=1.02D+01 DE= 1.69D+01 OVMax= 9.86D-01

 Cycle   4  Pass 1  IDiag  1:
 RMSU=  2.23D-02    CP:  9.02D-01  2.99D-01  9.82D-02
 E= -3804.35528069397     Delta-E=       68.988340280079 Rises=F Damp=F
 DIIS: error= 1.53D-01 at cycle   4 NSaved=   4.
 NSaved= 4 IEnMin= 2 EnMin= -3890.22968168547     IErMin= 4 ErrMin= 1.53D-01
 ErrMax= 1.53D-01  0.00D+00 EMaxC= 1.00D-01 BMatC= 1.44D+02 BMatP= 2.70D+01
 IDIUse=2 WtCom= 0.00D+00 WtEn= 1.00D+00
 EnCoef did     4 forward-backward iterations
 Coeff-En:   0.559D+00 0.658D-03 0.367D+00 0.731D-01
 Coeff:      0.559D+00 0.658D-03 0.367D+00 0.731D-01
 Gap=    -0.370 Goal=   None    Shift=    0.000
 Gap=     0.088 Goal=   None    Shift=    0.000
 RMSDP=2.20D-02 MaxDP=1.03D+01 DE= 6.90D+01 OVMax= 9.45D-01

 Cycle   5  Pass 1  IDiag  1:
 RMSU=  4.00D-03    CP:  9.06D-01  2.08D-02  9.40D-02  3.55D-02
 E= -3899.23851449754     Delta-E=      -94.883233803565 Rises=F Damp=F
 DIIS: error= 1.42D-01 at cycle   5 NSaved=   5.
 NSaved= 5 IEnMin= 5 EnMin= -3899.23851449754     IErMin= 5 ErrMin= 1.42D-01
 ErrMax= 1.42D-01  0.00D+00 EMaxC= 1.00D-01 BMatC= 1.04D+01 BMatP= 2.70D+01
 IDIUse=3 WtCom= 0.00D+00 WtEn= 1.00D+00
 EnCoef did   100 forward-backward iterations
 Coeff-Com: -0.383D+00 0.868D+00 0.459D-01-0.627D-01 0.532D+00
 Coeff-En:   0.203D+00 0.347D-02 0.000D+00 0.000D+00 0.794D+00
 Coeff:      0.203D+00 0.347D-02 0.000D+00 0.000D+00 0.794D+00
 Gap=     0.399 Goal=   None    Shift=    0.000
 Gap=    -0.069 Goal=   None    Shift=    0.000
 RMSDP=4.91D-03 MaxDP=6.14D-01 DE=-9.49D+01 OVMax= 7.72D-01

 Cycle   6  Pass 1  IDiag  1:
 RMSU=  4.24D-03    CP:  9.08D-01  5.13D-02  1.19D-01  1.52D-02  4.00D-01
 E= -3896.14739268029     Delta-E=        3.091121817250 Rises=F Damp=F
 DIIS: error= 6.36D-02 at cycle   6 NSaved=   6.
 NSaved= 6 IEnMin= 5 EnMin= -3899.23851449754     IErMin= 6 ErrMin= 6.36D-02
[...]
 00000129,0.00000067,-0.00000414,0.00000611,-0.00002139,0.00000179,0.00
 000068,0.00002664,-0.00001076,0.00000562,0.00001820,-0.00001524,-0.000
 00537,-0.00000251,0.00004353,0.00002230,-0.00001854,-0.00003218,-0.000
 02948,-0.00001853,-0.00000395,0.00000455,-0.00000147,0.00000282,0.0000
 0146,-0.00000008,-0.00000048,-0.00000092,0.00000142,-0.00000050,0.0000
 0109,-0.00000008,-0.00000094,-0.00000058,-0.00000445,0.00000143,0.0000
 0417,0.00000881,-0.00000124,-0.00000020,-0.00001139,-0.00000209,-0.000
 00270,0.00000456,-0.00000148,0.00000143,0.00000707,0.00000306,-0.00000
 099,-0.00000452,-0.00000045,-0.00000051,0.00000012,0.00000024,0.000000
 09,0.00000039,0.00000040,0.00000013,0.00000049,-0.00000014,0.00000018,
 0.00000042,-0.00000096,-0.00000124,-0.00000023,-0.00000203,-0.00000130
 ,-0.00000214,0.00001158,0.00000764,0.00000143,-0.00000950,-0.00000651,
 -0.00000420,0.00001207,0.00000729,0.00000807,-0.00000417,-0.00000274,-
 0.00000073,-0.00000335,0.00000085,0.00000319,-0.00000099,0.00000003,0.
 00000385,0.00000604,0.00000631,0.00002362,-0.00003409,-0.00009428,0.00
 001663,-0.00000815,0.00006626,0.00068205,0.00317630,-0.00122794,0.1229
 4773,-0.11514663,-0.03803409,0.00002419,0.00000318,-0.00000517,0.00000
 076,0.00000035,0.00001089,-0.00002711,0.00002494,0.00000257,-0.0001046
 1,0.00010494,0.00003404,-0.00001020,-0.00006499,0.00005106,0.00005331,
 -0.00000008,0.00000405,-0.00000730,-0.00001201,0.00000491,0.00001489,0
 .00000293,-0.00000748,-0.00000074,0.00000392,0.00000931,-0.00005947,-0
 .00003783,-0.00008857,0.00009650,0.00003697,0.00014213,0.00010548,-0.0
 0014575,-0.00007155,0.00059315,-0.00003691,-0.00017457,-0.00028452,-0.
 00077332,0.00033274,0.00006395,-0.00001041,0.00002685,-0.00000356,0.00
 000154,0.00000223,0.00000076,-0.00000017,0.00000273,0.00000017,0.00000
 052,0.00000080,-0.00000092,0.00000038,-0.00000126,0.00000081,0.0000003
 9,0.00000154,-0.00000024,-0.00000015,-0.00000095,0.00000098,-0.0000001
 6,-0.00000058,0.00000020,0.00000010,-0.00000091,-0.00000095,0.00000103
 ,0.00000101,0.00000032,0.00000019,0.00000014,-0.00000019,-0.00000009,-
 0.00000021,0.00000002,-0.00000036,0.00000005,-0.00000049,0.00000009,-0
 .00000037,0.00000003,-0.00000063,0.00000013,0.00000046,0.00000027,0.00
 000010,-0.00000056,0.00000016,-0.00000007,0.00000047,0.00000015,0.0000
 0008,-0.00000011,-0.00000013,-0.00000027,0.00000035,0.00000007,0.00000
 020,-0.00000074,0.00000070,-0.00000039,0.00000125,0.00000095,0.,0.0000
 0120,0.00000025,-0.00000082,-0.00000010,0.00000104,-0.00000044,-0.0000
 0134,-0.00000019,-0.00000199,-0.00000090,0.00000340,-0.00000146,-0.001
 72765,-0.00290225,0.00171126,-0.13517844,0.11121523,0.00007491,-0.0000
 6506,-0.00006963,-0.00043518,0.00002143,0.00038719,0.00006206,-0.00000
 317,-0.00005506,0.00003185,-0.00003335,-0.00005807,0.00057203,0.000885
 44,-0.00046046,-0.00050788,-0.00289171,-0.00050378,0.00077148,0.001456
 48,0.00051142,-0.00039006,0.00009374,0.00026627,0.00175914,0.00078568,
 0.00060479,0.02431641,-0.01439958,-0.00206102,-0.00134322,-0.00377430,
 -0.00408534,-0.00042033,0.00008944,-0.00088102,-0.00374519,-0.00187084
 ,-0.00162780,-0.00067815,0.00034376,0.00048564,0.00000264,-0.00003743,
 0.00004405,-0.00000037,-0.00000341,-0.00004887,-0.00001988,-0.00000933
 ,0.00001955,-0.00001326,-0.00000088,-0.00000978,0.00000416,0.00000375,
 -0.00001406,0.00000873,0.00000108,0.00000748,0.00000763,0.00000535,-0.
 00000837,-0.00005533,-0.00005625,0.00003885,-0.00001157,0.00000224,-0.
 00002330,-0.00000248,-0.00000071,0.00000003,-0.00000387,0.00000865,-0.
 00000342,-0.00000024,-0.00000075,0.00000221,-0.00000020,0.00000019,-0.
 00000023,-0.00000025,0.00000020,-0.00000017,0.00000055,-0.00000028,-0.
 00000027,-0.00000020,0.00000017,-0.00000004,-0.00000228,-0.00000007,0.
 00000158,0.00000390,0.00000006,-0.00000008,-0.00000546,-0.00000217,0.0
 0000009,0.00000208,0.00000015,-0.00000028,0.00000379,0.00000227,-0.000
 00105,-0.00000230,-0.00000056,-0.00000007,0.00000012,0.00000006,0.,0.0
 0000030,0.00000013,0.00000002,0.00000029,0.00000004,0.00000007,0.00000
 021,-0.00000016,-0.00000050,0.00000007,-0.00000012,-0.00000013,-0.0000
 0184,-0.00000061,-0.00000011,-0.00000107,-0.00000154,0.00000138,0.0000
 0042,0.00000081,0.00000007,-0.00000073,-0.00000180,-0.00000092,0.00000
 077,0.00000209,0.00000140,-0.00000198,-0.00000263,-0.00000191,-0.00000
 017,0.00000618,0.00000432,-0.00008724,0.00004554,-0.00022648,0.0000097
 7,0.00002875,0.00004800,-0.01899426,0.01116443,0.00867390,0.04851444,-
 0.03656655,-0.07056357,0.00004608,0.00000750,-0.00000591,-0.00002220,0
 .00000611,-0.00001124,-0.00005330,0.00004351,0.00001310,0.00004286,-0.
 00003489,0.00009460,-0.00000218,0.00006372,-0.00001221,-0.00000533,-0.
 00000548,-0.00004523,-0.00000905,0.00001003,0.00000663,0.00002719,0.00
 001616,-0.00000993,-0.00001622,-0.00001540,-0.00000242,0.00003709,-0.0
 0000646,0.00004584,-0.00002944,0.00029753,0.00014508,-0.00035981,0.000
 28241,-0.00064827,0.00123734,-0.00078187,-0.00023825,0.00016593,0.0003
 3283,-0.00006982,-0.00000594,0.00004009,-0.00001259,0.00000440,0.00000
 509,-0.00000299,-0.00000176,0.00000173,-0.00000201,0.00000109,0.000000
 61,-0.00000026,-0.00000013,-0.00000040,0.00000005,0.00000046,-0.000000
 28,0.,-0.00000045,-0.00000004,0.00000009,0.00000016,-0.00000006,-0.000
 00022,0.00000013,0.00000004,-0.00000012,-0.00000036,0.00000024,0.00000
 049,0.00000016,0.00000009,0.00000007,-0.00000007,-0.00000010,-0.000000
 13,-0.00000007,-0.00000007,0.00000005,-0.00000020,0.00000006,-0.000000
 19,-0.00000006,-0.00000024,0.00000007,0.00000020,0.00000009,0.00000011
 ,-0.00000025,0.00000011,-0.00000006,0.00000021,0.00000004,0.00000009,-
 0.00000009,-0.00000009,-0.00000012,-0.00000005,-0.00000002,0.00000029,
 -0.00000024,-0.00000002,0.00000004,0.00000044,0.00000007,-0.00000013,0
 .00000059,-0.00000031,-0.00000013,-0.00000002,0.00000023,0.00000022,-0
 .00000092,-0.00000181,-0.00000060,-0.00000052,0.00000269,0.00000044,0.
 00131015,0.00144426,0.00033724,-0.05177520,0.04308335,0.07004344,0.000
 01174,-0.00000513,-0.00000845,-0.00008439,0.00000863,0.00005420,0.0000
 1181,-0.00000663,-0.00001079,0.00000654,-0.00000233,-0.00000479,0.0001
 4607,0.00006243,-0.00008169,-0.00023733,0.00001157,0.00012584,0.000087
 24,-0.00003569,-0.00002850,0.00017021,-0.00001933,-0.00004374,-0.00007
 171,-0.00008720,-0.00005275,0.00007975,-0.00003109,-0.00000357,0.00035
 497,-0.00027895,-0.00041039,-0.00227856,0.00109134,0.00059709,0.000436
 32,-0.00014138,0.00017528,0.00346957,0.00070683,-0.00124501,0.00083196
 ,-0.00082055,0.00333327,-0.00056333,0.00046454,-0.00255777,0.00104169,
 -0.00058148,0.00274313,-0.00179528,-0.00004747,-0.00059134,0.00014466,
 0.00015510,-0.00079347,-0.00050255,-0.00002923,-0.00006454,-0.00070780
 ,0.00005131,0.00155910,-0.00306757,0.00062081,-0.00661603,-0.00243927,
 0.00665381,0.00380891,-0.01224667,-0.02197243,-0.01624874,-0.03628634,
 0.03246351,-0.03791714,0.00416461,0.00157087,-0.00006070,0.00024377,-0
 .00012482,0.00006505,-0.00230559,0.00031907,-0.00090463,0.00038754,0.0
 0013598,0.00042769,0.00009288,-0.00003621,0.00001149,-0.00006723,0.000
 00128,0.00012345,0.00018562,0.00000296,0.00000818,-0.00025955,-0.00008
 075,-0.00004414,0.00009703,-0.00000578,0.00002492,0.00015762,0.0000978
 2,-0.00002317,-0.00009534,-0.00003118,-0.00002644,0.00000736,0.0000018
 6,0.00000392,0.00001412,0.00000396,0.00000980,0.00001353,0.00000269,0.
 00000757,0.00016220,-0.00009554,0.00000893,-0.00009925,0.00027480,0.00
 013358,0.00057329,-0.00353997,-0.00183367,-0.00015231,0.00259006,0.001
 42904,0.00073274,-0.00287320,-0.00156834,-0.00188060,0.00063063,0.0007
 3693,0.00023688,0.00081293,0.00035037,-0.00052166,0.00009768,0.0002219
 8,-0.00120843,-0.00153681,-0.00101504,-0.00600241,-0.00133074,0.023792
 57,-0.02928008,0.04631874,0.00324362,-0.00016173,0.00004992,-0.0003219
 1,0.00016746,-0.00007488,0.00004652,0.00000900,-0.00000102,-0.00000207
 ,-0.00000363,0.00000066,0.00000018,-0.00000920,0.00000528,0.00000140,-
 0.00000768,0.00000535,0.00000889,-0.00000443,-0.00000041,0.00000674,0.
 00000916,-0.00000025,-0.00000585,-0.00000330,-0.00000018,0.00000422,0.
 00000711,0.00000048,-0.00000305,-0.00000388,0.00000007,-0.00000008,-0.
 00002097,-0.00000249,-0.00000926,0.00000336,0.00001420,-0.00000894,0.0
 0002242,0.00000177,0.00000943,-0.00001937,0.00003456,-0.00002945,-0.00
 031361,-0.00106885,-0.00082979,-0.00003402,0.00006652,0.00002819,-0.00
 005403,-0.00001742,0.00001964,-0.00001063,0.00000647,0.00001493,0.0000
 7152,-0.00000743,0.00003797,0.00010468,-0.00000305,0.00017339,-0.00021
 224,0.00002187,0.00142260,-0.00000206,0.00002987,-0.00002110,0.0000232
 1,-0.00000812,-0.00001171,0.00000453,0.00001212,-0.00001143,-0.0000193
 1,0.00001003,0.00001620,0.00000749,0.00000244,0.00000049,-0.00000357,-
 0.00000009,-0.00000017,-0.00000383,-0.00000321,-0.00000150,-0.00000983
 ,-0.00000248,-0.00000900,-0.00000538,-0.00000628,-0.00000266,0.0000103
 4,0.00000387,0.00000263,-0.00001017,0.00000323,-0.00000362,0.00000951,
 0.00000041,0.00000094,-0.00000354,0.00000009,-0.00000077,-0.00000526,-
 0.00000132,0.00001834,0.00010352,-0.00004178,0.00008138,-0.00002226,0.
 00007392,-0.00006737,-0.00005234,-0.00002606,0.00001223,-0.00001234,-0
 .00000685,0.00000009,0.00007110,-0.00003232,-0.00002684,0.00008328,-0.
 00015503,-0.00009260,0.00010804,-0.00010279,-0.00003577,-0.00000881,-0
 .00001372,-0.00001341,0.08849322,-0.00000024,-0.00000244,0.00000242,-0
 .00000820,0.00001247,0.00000107,-0.00000381,0.00000221,-0.00000403,-0.
 00000259,0.00000310,-0.00000378,0.00000097,-0.00003980,0.00000554,-0.0
 0002674,0.00010283,0.00002288,0.00000353,-0.00007728,-0.00001222,0.000
 01884,-0.00002750,-0.00001060,0.00003453,-0.00000289,-0.00001848,-0.00
 000232,0.00005942,0.00004041,0.00021888,-0.00026899,-0.00001852,-0.000
 60957,0.00018724,0.00002644,0.00098395,-0.00000508,0.00068592,-0.00436
 085,-0.00089484,0.00391820,-0.00146130,0.00030390,-0.00275655,-0.00006
 247,-0.00052725,0.00204911,-0.00064399,0.00043957,-0.00205993,0.001186
 57,-0.00003021,0.00054545,0.00006793,-0.00030493,0.00045864,0.00041399
 ,0.00004253,0.00047808,0.00143344,0.00053949,-0.00206245,0.00230533,-0
 .00212275,0.00629490,-0.00004420,-0.00079378,-0.00405066,-0.00608904,0
 .00232064,-0.00426739,0.02108461,-0.01138546,0.02083744,-0.00127134,-0
 .00109887,-0.00009453,-0.00007995,0.00012016,0.00013590,-0.00007470,-0
 .00018977,-0.00010046,0.00003361,-0.00005957,0.00022212,0.00005029,-0.
 00007207,-0.00009161,-0.00001961,0.00007253,0.00008321,0.00008432,-0.0
 0005656,-0.00003050,-0.00008195,0.00001760,-0.00003894,0.00003699,-0.0
 0003962,0.00002196,0.00004215,-0.00000252,-0.00000036,-0.00003297,0.00
 000807,0.00000169,-0.00000147,0.00000481,0.00000072,0.00000005,0.00000
 747,-0.00000088,0.00000222,-0.00000281,0.00000048,-0.00000705,-0.00002
 478,0.00000100,0.00000830,-0.00004575,-0.00002270,-0.00020754,0.000138
 21,0.00014297,0.00014878,-0.00026102,-0.00020172,-0.00014400,0.0000687
 4,0.00011586,0.00001981,-0.00001167,-0.00000329,-0.00000076,0.00009153
 ,-0.00008913,0.00014635,-0.00018369,0.00011254,0.00002900,-0.00049357,
 0.00016711,0.00816315,0.00145446,-0.02623710,0.03870539,-0.05658023,-0
 .00924840,-0.00014148,-0.00017017,-0.00017282,0.00000701,0.00000146,0.
 00002540,0.00000165,0.00000120,-0.00000081,0.00000014,0.00000082,-0.00
 000016,-0.00000107,-0.00000111,0.00000074,-0.00000026,-0.00000074,0.00
 000097,0.00000293,-0.00000118,0.00000260,0.00000169,0.00000134,-0.0000
 0080,0.00000218,-0.00000242,0.00000530,0.00000179,-0.00000166,-0.00000
 134,-0.00000293,0.00000015,-0.00000131,-0.00001586,0.00001684,0.000002
 57,-0.00000456,0.00001437,-0.00000906,0.00001843,-0.00000260,-0.000000
 70,-0.00004056,0.00004156,-0.00003881,0.00048421,0.00026274,0.00002630
 ,-0.00010709,-0.00013070,0.00027218,0.00000433,0.00003095,-0.00000084,
 0.00000384,0.00004514,0.00002022,-0.00004327,0.00001462,0.00001424,-0.
 00004986,0.00012202,-0.00004392,0.00000948,0.00032178,-0.00006593,0.00
 004758,-0.00002969,-0.00008727,0.00003147,-0.00000488,-0.00000805,0.00
 000173,-0.00000321,-0.00003538,-0.00001730,0.00002644,0.00001951,0.000
 00255,0.00000120,0.00000168,-0.00000132,-0.00000115,-0.00000296,0.0000
 0147,-0.00000585,0.00000119,-0.00000435,0.00000228,-0.00000255,0.00000
 182,-0.00000925,0.00000228,0.00000450,0.00000180,-0.00000012,-0.000004
 16,0.00000140,0.00000085,0.00000321,0.00000123,0.00000010,0.00000075,-
 0.00000171,-0.00000430,0.00001103,-0.00000353,-0.00000520,-0.00000893,
 0.00003188,-0.00002384,-0.00002563,0.00000427,-0.00007669,0.00001652,0
 .00000102,-0.00000412,0.00000146,0.00001138,0.00002533,-0.00001638,0.0
 0003604,-0.00000840,-0.00003408,0.00004472,0.00009599,0.00007039,0.000
 00289,-0.00002631,0.00000507,0.00000691,-0.00001590,-0.06020442,0.0689
 3005,-0.00000433,0.00000145,0.00000074,0.00004459,0.00000156,-0.000000
 68,-0.00000386,-0.00000451,0.00000457,-0.00000038,-0.00000053,0.000002
 50,-0.00006752,-0.00003304,0.00001704,0.00010065,0.00002172,-0.0000215
 3,-0.00005219,-0.00000172,-0.00002294,-0.00011954,0.00000275,-0.000070
 91,0.00008174,0.00002834,0.00012584,-0.00009616,0.00002342,-0.00010430
 ,0.00013963,0.00007770,0.00014657,-0.00023952,0.00010445,-0.00031619,0
 .00091290,0.00004068,0.00076895,-0.00238063,-0.00009352,0.00194891,-0.
 00097457,0.00032973,-0.00234308,-0.00025745,-0.00045033,0.00151299,-0.
 00040663,0.00045999,-0.00179729,0.00110449,-0.00001365,0.00049197,0.00
 003696,-0.00043108,0.00046481,0.00020077,0.00031468,0.00033708,0.00120
 254,0.00101852,-0.00219717,0.00141823,-0.00521220,0.00167410,-0.001847
 79,0.00706173,-0.00025944,-0.01910908,-0.02305568,-0.02060104,-0.03576
 913,0.02883259,-0.03692783,0.00484143,0.00324533,0.00143348,-0.0012277
 5,0.00088555,0.00083443,0.00092683,-0.00035854,0.00008580,-0.00030911,
 0.00016027,-0.00009658,0.00004851,-0.00006599,0.00001486,-0.00005918,0
 .00004613,0.00004683,0.00002689,-0.00003305,-0.00005797,-0.00000006,-0
 .00004256,0.00008800,0.00000933,0.00001900,-0.00007055,0.00001868,0.00
 002880,-0.00003390,-0.00000783,-0.00000085,0.00001526,0.00000123,-0.00
 000282,-0.00000008,0.00000337,-0.00000042,-0.00000311,0.00000132,0.000
 00191,-0.00000077,-0.00002321,0.00001297,0.00002461,0.00015317,-0.0001
 0588,-0.00036435,0.00119464,-0.00272756,-0.00192809,0.00054120,0.00205
 530,0.00083806,0.00031967,-0.00219007,-0.00112280,-0.00126140,0.000609
 81,0.00056186,-0.00005314,0.00072633,-0.00002361,-0.00028183,0.0003202
 9,0.00058215,-0.00204777,-0.00267762,-0.00066442,0.01457340,-0.0053941
 2,-0.02597937,0.01012573,-0.01877536,0.00136525,-0.00012082,-0.0001289
 4,-0.00017734,-0.00000214,0.00002845,-0.00000863,-0.00000350,0.0000004
 6,0.00000142,-0.00000142,-0.00000226,-0.00000516,0.00000560,-0.0000020
 6,0.00000183,0.00000582,-0.00000592,-0.00000058,0.00000012,0.00000905,
 -0.00000566,-0.00000512,-0.00000008,0.00000242,-0.00000004,0.00000412,
 -0.00000075,-0.00000208,-0.00000047,0.00000219,-0.00000094,-0.00000204
 ,-0.00000479,0.00001691,0.00001059,0.00004209,-0.00001293,-0.00002229,
 -0.00003804,-0.00002949,-0.00000380,-0.00000732,-0.00011085,-0.0000281
 3,-0.00012143,0.00043545,-0.00001687,0.00036687,-0.00006642,-0.0001968
 5,0.00016069,-0.00001405,0.00002366,-0.00000167,0.00000774,0.00005308,
 0.00004787,-0.00001905,-0.00002685,0.00003532,0.00001496,0.00015810,0.
 00006659,-0.00057363,0.00011744,0.00020504,0.00008771,-0.00010323,-0.0
 0006713,0.00000007,-0.00000033,-0.00000562,0.00000661,-0.00002477,-0.0
 0002171,0.00000972,0.00000813,0.00003069,-0.00000118,0.00000094,-0.000
 00110,0.00000273,-0.00000259,-0.00000380,-0.00000060,0.00000299,0.0000
 0327,-0.00000236,0.00000358,-0.00000143,-0.00000151,-0.00000320,0.0000
 0348,0.00000067,-0.00000057,0.00000071,-0.00000122,0.00000245,0.000000
 24,-0.00000025,-0.00000068,0.00000086,0.00000073,-0.00000221,-0.000002
 69,0.00000083,-0.00002393,-0.00001077,-0.00011047,0.00000688,-0.000031
 94,0.00015590,0.00036914,0.00001237,0.00001485,-0.00002315,0.00002691,
 0.00000482,-0.00000684,0.00008338,0.00004019,0.00003085,0.00001360,0.0
 0003203,-0.00010002,0.00016469,0.00005860,-0.00003955,-0.00000746,-0.0
 0001072,0.00000551,-0.00001767,0.02876087,0.01517228,0.08089150\\0.000
 00738,-0.00000335,-0.00000155,-0.00004431,0.00001112,0.00002496,0.0000
 0665,-0.00000380,-0.00000648,0.00000716,0.00000303,-0.00000504,0.00003
 741,0.00000646,-0.00002040,-0.00002192,-0.00001884,0.00002284,-0.00000
 010,0.00000195,-0.00000424,0.00001019,0.00000388,-0.00000765,-0.000007
 15,-0.00000636,-0.00000539,0.00000332,0.00000036,0.00000950,0.00000025
 ,0.00000055,-0.00000264,-0.00000070,0.00000497,0.00000486,-0.00000980,
 -0.00000150,-0.00000850,0.00000800,0.00000310,0.00000812,-0.00000590,-
 0.00000251,-0.00000777,0.00001216,0.00000100,0.00000383,-0.00000472,0.
 00000085,-0.00000492,0.00000554,0.00000065,0.00000016,-0.00000432,-0.0
 0000186,0.00000328,-0.00000147,0.00000403,-0.00001113,-0.00000236,-0.0
 0000587,0.00001344,0.00000716,0.00000262,-0.00000916,-0.00000626,-0.00
 000386,0.00000152,0.00000148,-0.00000969,-0.00000145,0.00000711,0.0000
 1318,0.00001181,0.00000283,-0.00000352,0.00000124,-0.00000076,-0.00000
 112,-0.00000238,-0.00000231,-0.00000031,-0.00000057,0.00000490,-0.0000
 0234,0.00000184,-0.00000033,0.00000285,0.00000318,-0.00000063,-0.00000
 292,-0.00000356,-0.00000839,0.00000043,-0.00000075,0.00003178,0.000017
 06,-0.00001048,-0.00000069,-0.00000078,0.00000089,-0.00003917,-0.00001
 639,0.00000034,0.00004460,0.00001061,0.00001791,-0.00000774,-0.0000057
 4,-0.00000036,-0.00000747,-0.00000063,-0.00000758,-0.00000969,0.000000
 60,-0.00000075,-0.00000126,-0.00000108,-0.00000325,-0.00000348,0.00000
 226,0.00000028,0.00000288,-0.00000601,-0.00000368,-0.00001030,0.000002
 12,0.00000394,0.00000590,-0.00000587,-0.00000451,-0.00000824,0.0000008
 8,0.00000160,0.00000740,0.00000542,-0.00000007,0.00000093,-0.00001430,
 -0.00000630,-0.00000015,0.00001691,0.00000490,-0.00000108,-0.00000032,
 -0.00000337,-0.00001394,0.00001709,0.00000691,0.00000802,0.00000179,0.
 00000452,-0.00000225,-0.00000544,-0.00000826,0.00000076,-0.00000048,0.
 00000056,0.00000063,0.00000150,0.00000100,-0.00000242,-0.00000005,-0.0
 0000015,-0.00000025,0.00000061,0.00000112,-0.00000026,0.00000184,-0.00
 000044,0.00000035,0.00000043,-0.00000092,-0.00000157,-0.00000090,-0.00
 000035,0.00000170,0.00000133,-0.00000048,-0.00000066,-0.00000175,0.000
 00171,0.00000211,0.00000244,0.00000060,-0.00000048,0.00000156,0.000000
 13,0.00000141,0.00000053,-0.00000009,-0.00000130,-0.00000051,-0.000000
 63,0.00000537,-0.00000394,-0.00000015,-0.00000062,0.00000124,-0.000001
 25,0.00000035,-0.00000066,0.00000222,-0.00000074,-0.00000008,0.0000017
 4,0.00000151,0.00000039,0.00000072,0.00000199,0.00000122,0.00000212,0.
 00000220,0.00000099,-0.00000003,-0.00000016,-0.00000016,-0.00000121,-0
 .00000099,-0.00000046,-0.00000008,0.00000048,0.00000074,0.00000060,-0.
 00000281,-0.00000384,-0.00000001,-0.00000207,-0.00000175,0.00000055,0.
 00000077,0.00000191,-0.00000108,0.00000116,-0.00000025,-0.00000192,0.0
 0000101,-0.00000033,0.00000079,0.00000067,-0.00000182,0.00000039,-0.00
 000061,-0.00000145,0.00000084,0.00000172,-0.00000207,-0.00000141,-0.00
 000071,0.00000151,-0.00000059,-0.00000098,-0.00000073,0.00000206,0.000
 00085,-0.00000078,0.00000130,0.00000211,-0.00000012,0.,-0.00000022,0.0
 0000078,-0.00000007,-0.00000028,0.00000283,0.00000073,0.00000143,0.000
 00157,0.00000009,-0.00000149,0.00000072,0.00000037,-0.00000165,0.00000
 147,0.00000237,0.00000011,-0.00000048,0.00000070,-0.00000088,0.0000024
 9,0.00000064,-0.00000369,-0.00001683,-0.00001219\\\@
 The archive entry for this job was punched.


 POCKETA-POCKETA
 BARON VON RICHTOFEN
 SLAUGHTERED THE ALLIES WITH
 HARDLY A CARE.
 KILLED EIGHTY-ONE WITH HIS
 BLOOD-COLORED TRIPLANE, THEN
 UN-AEROBATICALLY
 PLUNGED FROM THE AIR.
   -- TONY HOFFMAN
 Job cpu time:       1 days 12 hours 54 minutes  2.0 seconds.
 Elapsed time:       0 days  1 hours  9 minutes 42.8 seconds.
 File lengths (MBytes):  RWF=  14686 Int=      0 D2E=      0 Chk=     83 Scr=      1
 Normal termination of Gaussian 16 at Tue Dec 10 16:26:15 2024.
