 Entering Gaussian System, Link 0=g16
 Initial command:
 /public/software/apps/Gaussian/g16/l1.exe "/tmp/Gau-6485.inp" -scrdir="/tmp/"
 Entering Link 1 = /public/software/apps/Gaussian/g16/l1.exe PID=      6487.
  
 Copyright (c) 1988-2019, Gaussian, Inc.  All Rights Reserved.
  
 This is part of the Gaussian(R) 16 program.  It is based on
 the Gaussian(R) 09 system (copyright 2009, Gaussian, Inc.),
 the Gaussian(R) 03 system (copyright 2003, Gaussian, Inc.),
 the Gaussian(R) 98 system (copyright 1998, Gaussian, Inc.),
 the Gaussian(R) 94 system (copyright 1995, Gaussian, Inc.),
 the Gaussian 92(TM) system (copyright 1992, Gaussian, Inc.),
 the Gaussian 90(TM) system (copyright 1990, Gaussian, Inc.),
 the Gaussian 88(TM) system (copyright 1988, Gaussian, Inc.),
 the Gaussian 86(TM) system (copyright 1986, Carnegie Mellon
 University), and the Gaussian 82(TM) system (copyright 1983,
 Carnegie Mellon University). Gaussian is a federally registered
 trademark of Gaussian, Inc.
  
 This software contains proprietary and confidential information,
 including trade secrets, belonging to Gaussian, Inc.
  
 This software is provided under written license and may be
 used, copied, transmitted, or stored only in accord with that
 written license.
  
 The following legend is applicable only to US Government
 contracts under FAR:
  
                    RESTRICTED RIGHTS LEGEND
  
 Use, reproduction and disclosure by the US Government is
 subject to restrictions as set forth in subparagraphs (a)
 and (c) of the Commercial Computer Software - Restricted
 Rights clause in FAR 52.227-19.
  
 Gaussian, Inc.
 340 Quinnipiac St., Bldg. 40, Wallingford CT 06492
  
  
 ---------------------------------------------------------------
 Warning -- This program may not be used in any manner that
 competes with the business of Gaussian, Inc. or will provide
 assistance to any competitor of Gaussian, Inc.  The licensee
 of this program is prohibited from giving any competitor of
 Gaussian, Inc. access to this program.  By using this program,
 the user acknowledges that Gaussian, Inc. is engaged in the
 business of creating and licensing software in the field of
 computational chemistry and represents and warrants to the
 licensee that it is not a competitor of Gaussian, Inc. and that
 it will not use this program in any manner prohibited above.
 ---------------------------------------------------------------
  

 Cite this work as:
 Gaussian 16, Revision C.01,
 M. J. Frisch, G. W. Trucks, H. B. Schlegel, G. E. Scuseria, 
 M. A. Robb, J. R. Cheeseman, G. Scalmani, V. Barone, 
 G. A. Petersson, H. Nakatsuji, X. Li, M. Caricato, A. V. Marenich, 
 J. Bloino, B. G. Janesko, R. Gomperts, B. Mennucci, H. P. Hratchian, 
 J. V. Ortiz, A. F. Izmaylov, J. L. Sonnenberg, D. Williams-Young, 
 F. Ding, F. Lipparini, F. Egidi, J. Goings, B. Peng, A. Petrone, 
 T. Henderson, D. Ranasinghe, V. G. Zakrzewski, J. Gao, N. Rega, 
 G. Zheng, W. Liang, M. Hada, M. Ehara, K. Toyota, R. Fukuda, 
 J. Hasegawa, M. Ishida, T. Nakajima, Y. Honda, O. Kitao, H. Nakai, 
 T. Vreven, K. Throssell, J. A. Montgomery, Jr., J. E. Peralta, 
 F. Ogliaro, M. J. Bearpark, J. J. Heyd, E. N. Brothers, K. N. Kudin, 
 V. N. Staroverov, T. A. Keith, R. Kobayashi, J. Normand, 
 K. Raghavachari, A. P. Rendell, J. C. Burant, S. S. Iyengar, 
 J. Tomasi, M. Cossi, J. M. Millam, M. Klene, C. Adamo, R. Cammi, 
 J. W. Ochterski, R. L. Martin, K. Morokuma, O. Farkas, 
 J. B. Foresman, and D. J. Fox, Gaussian, Inc., Wallingford CT, 2019.
 
 ******************************************
 Gaussian 16:  ES64L-G16RevC.01  3-Jul-2019
                10-Dec-2024 
 ******************************************
 %nprocshared=32
 Will use up to   32 processors via shared memory.
 %mem=100GB
 ------------------------------------------
 #p opt freq b3lyp/def2svpp em=gd3bj nosymm
 ------------------------------------------
 1/18=20,19=15,26=3,38=1/1,3;
 2/9=110,12=2,15=1,17=6,18=5,40=1/2;
 3/5=43,7=202,11=2,25=1,30=1,71=1,74=-5,124=41/1,2,3;
 4//1;
 5/5=2,38=5/2;
 6/7=2,8=2,9=2,10=2,28=1/1;
 7/30=1/1,2,3,16;
 1/18=20,19=15,26=3/3(2);
 2/9=110,15=1/2;
 99//99;
 2/9=110,15=1/2;
 3/5=43,7=202,11=2,25=1,30=1,71=1,74=-5,124=41/1,2,3;
 4/5=5,16=3,69=1/1;
 5/5=2,38=5/2;
 7/30=1/1,2,3,16;
 1/18=20,19=15,26=3/3(-5);
 2/9=110,15=1/2;
 6/7=2,8=2,9=2,10=2,19=2,28=1/1;
 99/9=1/99;
 Leave Link    1 at Tue Dec 10 14:04:54 2024, MaxMem= 13421772800 cpu:               1.8 elap:               0.1
 (Enter /public/software/apps/Gaussian/g16/l101.exe)
 ------------------
 $$$$Title####0????
 ------------------
 Symbolic Z-matrix:
 Charge =  0 Multiplicity = 2
 O                     1.11321  -0.28869  -1.39609 
 C                     1.39713   1.05903  -1.18615 
 C                     2.6215    1.43769  -0.6049 
 C                     3.61822   0.42166  -0.19011 
 C                     3.24417  -0.65026   0.63782 
 C                     4.18903  -1.60027   1.03581 
 C                     5.52278  -1.49305   0.61261 
 C                     6.55143  -2.50128   1.05296 
 N                     7.52206  -1.88053   1.97666 
 C                     8.74053  -2.70931   2.07519 
 C                     9.65367  -2.22027   3.21735 
 O                     9.2566   -0.94175   3.6702 
 C                     7.96876  -1.02097   4.25531 
 C                     6.93824  -1.68639   3.31795 
 C                     5.90077  -0.41747  -0.20469 
 C                     4.9568    0.53351  -0.60172 
 C                     2.90454   2.7977   -0.41903 
 C                     1.96909   3.77859  -0.76992 
 C                     2.25791   5.13472  -0.54684 
 C                     1.32135   6.11679  -0.87162 
 C                     0.0886    5.75618  -1.41463 
 C                    -0.21322   4.41207  -1.64471 
 C                     0.72575   3.40293  -1.33906 
 C                     0.45603   2.03087  -1.57473 
 C                    -0.80932   1.57897  -2.21611 
 C                    -1.74143   0.86791  -1.43724 
 O                    -1.45113   0.59977  -0.10124 
 C                    -2.96294   0.44158  -1.9912 
 C                    -3.94863  -0.31365  -1.18097 
 C                    -5.2938    0.08932  -1.14505 
 C                    -6.22634  -0.62429  -0.38741 
 C                    -5.8302   -1.75184   0.34919 
 C                    -6.8405   -2.52382   1.17198 
 N                    -6.97433  -2.04695   2.56639 
 C                    -5.74842  -2.21285   3.36658 
 C                    -5.99233  -1.74028   4.8152 
 O                    -7.34074  -1.35979   5.0211 
 C                    -7.67507  -0.28917   4.15585 
 C                    -7.48351  -0.66894   2.67229 
 C                    -4.4904   -2.16773   0.29653 
 C                    -3.55724  -1.45435  -0.46046 
 C                    -3.25273   0.73782  -3.33012 
 C                    -2.32679   1.4183   -4.13002 
 C                    -2.62228   1.6784   -5.47811 
 C                    -1.69466   2.33407  -6.28853 
 C                    -0.46418   2.72971  -5.76516 
 C                    -0.1558    2.4803   -4.42602 
 C                    -1.08589   1.83335  -3.58347 
 H                     2.22418  -0.74239   0.99005 
 H                     3.8813   -2.4141    1.68058 
 H                     6.06963  -3.39067   1.52021 
 H                     7.07053  -2.8653    0.13759 
 H                     8.48133  -3.77901   2.24966 
 H                     9.29892  -2.6432    1.11547 
 H                     9.65327  -2.95226   4.05788 
 H                     10.70012  -2.15646   2.85039 
 H                     8.01944  -1.56473   5.22536 
 H                     7.63401   0.01323   4.48423 
 H                     6.62382  -2.66383   3.75088 
 H                     6.03886  -1.03552   3.25541 
 H                     6.92803  -0.31567  -0.53266 
 H                     5.26845   1.35188  -1.23914 
 H                     3.84793   3.09057   0.02889 
 H                     3.20628   5.43476  -0.11688 
 H                     1.54942   7.16014  -0.69566 
 H                    -0.63775   6.52127  -1.65687 
 H                    -1.18454   4.17291  -2.05674 
 H                    -5.61964   0.96384  -1.69476 
 H                    -7.25772  -0.29437  -0.37086 
 H                    -7.83448  -2.48008   0.67495 
 H                    -6.56678  -3.60177   1.1802 
 H                    -4.9126   -1.61908   2.93606 
 H                    -5.44973  -3.28423   3.37302 
 H                    -5.75444  -2.57003   5.51415 
 H                    -5.30788  -0.89999   5.07282 
 H                    -7.0757    0.61513   4.40829 
 H                    -8.73982  -0.02396   4.32853 
 H                    -8.45738  -0.587     2.14127 
 H                    -6.77148   0.0497    2.21027 
 H                    -4.168    -3.04554   0.84277 
 H                    -2.53213  -1.80192  -0.49588 
 H                    -4.1935    0.40943  -3.75844 
 H                    -3.56887   1.37012  -5.9062 
 H                    -1.92768   2.53006  -7.32721 
 H                     0.25556   3.22996  -6.4003 
 H                     0.81376   2.79255  -4.06157 
 Cu                   -0.33418  -1.00411  -0.28018 
 
 ITRead=  0  0  0  0  0  0  0  0  0  0  0  0  0  0  0  0  0  0  0  0
 ITRead=  0  0  0  0  0  0  0  0  0  0  0  0  0  0  0  0  0  0  0  0
 ITRead=  0  0  0  0  0  0  0  0  0  0  0  0  0  0  0  0  0  0  0  0
 ITRead=  0  0  0  0  0  0  0  0  0  0  0  0  0  0  0  0  0  0  0  0
 ITRead=  0  0  0  0  0  0  0
 MicOpt= -1 -1 -1 -1 -1 -1 -1 -1 -1 -1 -1 -1 -1 -1 -1 -1 -1 -1 -1 -1
 MicOpt= -1 -1 -1 -1 -1 -1 -1 -1 -1 -1 -1 -1 -1 -1 -1 -1 -1 -1 -1 -1
 MicOpt= -1 -1 -1 -1 -1 -1 -1 -1 -1 -1 -1 -1 -1 -1 -1 -1 -1 -1 -1 -1
 MicOpt= -1 -1 -1 -1 -1 -1 -1 -1 -1 -1 -1 -1 -1 -1 -1 -1 -1 -1 -1 -1
 MicOpt= -1 -1 -1 -1 -1 -1 -1
 NAtoms=     87 NQM=       87 NQMF=       0 NMMI=      0 NMMIF=      0
                NMic=       0 NMicF=      0.
                    Isotopes and Nuclear Properties:
 (Nuclear quadrupole moments (NQMom) in fm**2, nuclear magnetic moments (NMagM)
  in nuclear magnetons)

  Atom         1           2           3           4           5           6           7           8           9          10
 IAtWgt=          16          12          12          12          12          12          12          12          14          12
 AtmWgt=  15.9949146  12.0000000  12.0000000  12.0000000  12.0000000  12.0000000  12.0000000  12.0000000  14.0030740  12.0000000
 NucSpn=           0           0           0           0           0           0           0           0           2           0
 AtZEff=  -0.0000000  -0.0000000  -0.0000000  -0.0000000  -0.0000000  -0.0000000  -0.0000000  -0.0000000  -0.0000000  -0.0000000
 NQMom=    0.0000000   0.0000000   0.0000000   0.0000000   0.0000000   0.0000000   0.0000000   0.0000000   2.0440000   0.0000000
 NMagM=    0.0000000   0.0000000   0.0000000   0.0000000   0.0000000   0.0000000   0.0000000   0.0000000   0.4037610   0.0000000
 AtZNuc=   8.0000000   6.0000000   6.0000000   6.0000000   6.0000000   6.0000000   6.0000000   6.0000000   7.0000000   6.0000000

  Atom        11          12          13          14          15          16          17          18          19          20
 IAtWgt=          12          16          12          12          12          12          12          12          12          12
 AtmWgt=  12.0000000  15.9949146  12.0000000  12.0000000  12.0000000  12.0000000  12.0000000  12.0000000  12.0000000  12.0000000
 NucSpn=           0           0           0           0           0           0           0           0           0           0
 AtZEff=  -0.0000000  -0.0000000  -0.0000000  -0.0000000  -0.0000000  -0.0000000  -0.0000000  -0.0000000  -0.0000000  -0.0000000
 NQMom=    0.0000000   0.0000000   0.0000000   0.0000000   0.0000000   0.0000000   0.0000000   0.0000000   0.0000000   0.0000000
 NMagM=    0.0000000   0.0000000   0.0000000   0.0000000   0.0000000   0.0000000   0.0000000   0.0000000   0.0000000   0.0000000
 AtZNuc=   6.0000000   8.0000000   6.0000000   6.0000000   6.0000000   6.0000000   6.0000000   6.0000000   6.0000000   6.0000000

  Atom        21          22          23          24          25          26          27          28          29          30
 IAtWgt=          12          12          12          12          12          12          16          12          12          12
 AtmWgt=  12.0000000  12.0000000  12.0000000  12.0000000  12.0000000  12.0000000  15.9949146  12.0000000  12.0000000  12.0000000
 NucSpn=           0           0           0           0           0           0           0           0           0           0
 AtZEff=  -0.0000000  -0.0000000  -0.0000000  -0.0000000  -0.0000000  -0.0000000  -0.0000000  -0.0000000  -0.0000000  -0.0000000
 NQMom=    0.0000000   0.0000000   0.0000000   0.0000000   0.0000000   0.0000000   0.0000000   0.0000000   0.0000000   0.0000000
 NMagM=    0.0000000   0.0000000   0.0000000   0.0000000   0.0000000   0.0000000   0.0000000   0.0000000   0.0000000   0.0000000
 AtZNuc=   6.0000000   6.0000000   6.0000000   6.0000000   6.0000000   6.0000000   8.0000000   6.0000000   6.0000000   6.0000000

  Atom        31          32          33          34          35          36          37          38          39          40
 IAtWgt=          12          12          12          14          12          12          16          12          12          12
 AtmWgt=  12.0000000  12.0000000  12.0000000  14.0030740  12.0000000  12.0000000  15.9949146  12.0000000  12.0000000  12.0000000
 NucSpn=           0           0           0           2           0           0           0           0           0           0
 AtZEff=  -0.0000000  -0.0000000  -0.0000000  -0.0000000  -0.0000000  -0.0000000  -0.0000000  -0.0000000  -0.0000000  -0.0000000
 NQMom=    0.0000000   0.0000000   0.0000000   2.0440000   0.0000000   0.0000000   0.0000000   0.0000000   0.0000000   0.0000000
 NMagM=    0.0000000   0.0000000   0.0000000   0.4037610   0.0000000   0.0000000   0.0000000   0.0000000   0.0000000   0.0000000
 AtZNuc=   6.0000000   6.0000000   6.0000000   7.0000000   6.0000000   6.0000000   8.0000000   6.0000000   6.0000000   6.0000000

  Atom        41          42          43          44          45          46          47          48          49          50
 IAtWgt=          12          12          12          12          12          12          12          12           1           1
 AtmWgt=  12.0000000  12.0000000  12.0000000  12.0000000  12.0000000  12.0000000  12.0000000  12.0000000   1.0078250   1.0078250
 NucSpn=           0           0           0           0           0           0           0           0           1           1
 AtZEff=  -0.0000000  -0.0000000  -0.0000000  -0.0000000  -0.0000000  -0.0000000  -0.0000000  -0.0000000  -0.0000000  -0.0000000
 NQMom=    0.0000000   0.0000000   0.0000000   0.0000000   0.0000000   0.0000000   0.0000000   0.0000000   0.0000000   0.0000000
 NMagM=    0.0000000   0.0000000   0.0000000   0.0000000   0.0000000   0.0000000   0.0000000   0.0000000   2.7928460   2.7928460
 AtZNuc=   6.0000000   6.0000000   6.0000000   6.0000000   6.0000000   6.0000000   6.0000000   6.0000000   1.0000000   1.0000000

  Atom        51          52          53          54          55          56          57          58          59          60
 IAtWgt=           1           1           1           1           1           1           1           1           1           1
 AtmWgt=   1.0078250   1.0078250   1.0078250   1.0078250   1.0078250   1.0078250   1.0078250   1.0078250   1.0078250   1.0078250
 NucSpn=           1           1           1           1           1           1           1           1           1           1
 AtZEff=  -0.0000000  -0.0000000  -0.0000000  -0.0000000  -0.0000000  -0.0000000  -0.0000000  -0.0000000  -0.0000000  -0.0000000
 NQMom=    0.0000000   0.0000000   0.0000000   0.0000000   0.0000000   0.0000000   0.0000000   0.0000000   0.0000000   0.0000000
 NMagM=    2.7928460   2.7928460   2.7928460   2.7928460   2.7928460   2.7928460   2.7928460   2.7928460   2.7928460   2.7928460
 AtZNuc=   1.0000000   1.0000000   1.0000000   1.0000000   1.0000000   1.0000000   1.0000000   1.0000000   1.0000000   1.0000000

  Atom        61          62          63          64          65          66          67          68          69          70
 IAtWgt=           1           1           1           1           1           1           1           1           1           1
 AtmWgt=   1.0078250   1.0078250   1.0078250   1.0078250   1.0078250   1.0078250   1.0078250   1.0078250   1.0078250   1.0078250
 NucSpn=           1           1           1           1           1           1           1           1           1           1
 AtZEff=  -0.0000000  -0.0000000  -0.0000000  -0.0000000  -0.0000000  -0.0000000  -0.0000000  -0.0000000  -0.0000000  -0.0000000
 NQMom=    0.0000000   0.0000000   0.0000000   0.0000000   0.0000000   0.0000000   0.0000000   0.0000000   0.0000000   0.0000000
 NMagM=    2.7928460   2.7928460   2.7928460   2.7928460   2.7928460   2.7928460   2.7928460   2.7928460   2.7928460   2.7928460
 AtZNuc=   1.0000000   1.0000000   1.0000000   1.0000000   1.0000000   1.0000000   1.0000000   1.0000000   1.0000000   1.0000000

  Atom        71          72          73          74          75          76          77          78          79          80
 IAtWgt=           1           1           1           1           1           1           1           1           1           1
 AtmWgt=   1.0078250   1.0078250   1.0078250   1.0078250   1.0078250   1.0078250   1.0078250   1.0078250   1.0078250   1.0078250
 NucSpn=           1           1           1           1           1           1           1           1           1           1
 AtZEff=  -0.0000000  -0.0000000  -0.0000000  -0.0000000  -0.0000000  -0.0000000  -0.0000000  -0.0000000  -0.0000000  -0.0000000
 NQMom=    0.0000000   0.0000000   0.0000000   0.0000000   0.0000000   0.0000000   0.0000000   0.0000000   0.0000000   0.0000000
 NMagM=    2.7928460   2.7928460   2.7928460   2.7928460   2.7928460   2.7928460   2.7928460   2.7928460   2.7928460   2.7928460
 AtZNuc=   1.0000000   1.0000000   1.0000000   1.0000000   1.0000000   1.0000000   1.0000000   1.0000000   1.0000000   1.0000000

  Atom        81          82          83          84          85          86          87
 IAtWgt=           1           1           1           1           1           1          63
 AtmWgt=   1.0078250   1.0078250   1.0078250   1.0078250   1.0078250   1.0078250  62.9295992
 NucSpn=           1           1           1           1           1           1           3
 AtZEff=  -0.0000000  -0.0000000  -0.0000000  -0.0000000  -0.0000000  -0.0000000  -0.0000000
 NQMom=    0.0000000   0.0000000   0.0000000   0.0000000   0.0000000   0.0000000 -22.0000000
 NMagM=    2.7928460   2.7928460   2.7928460   2.7928460   2.7928460   2.7928460   2.2233000
 AtZNuc=   1.0000000   1.0000000   1.0000000   1.0000000   1.0000000   1.0000000  29.0000000
 Leave Link  101 at Tue Dec 10 14:04:55 2024, MaxMem= 13421772800 cpu:              12.1 elap:               0.4
 (Enter /public/software/apps/Gaussian/g16/l103.exe)

 GradGradGradGradGradGradGradGradGradGradGradGradGradGradGradGradGradGrad
 Berny optimization.
 Initialization pass.
                           ----------------------------
                           !    Initial Parameters    !
                           ! (Angstroms and Degrees)  !
 --------------------------                            --------------------------
 ! Name  Definition              Value          Derivative Info.                !
 --------------------------------------------------------------------------------
 ! R1    R(1,2)                  1.3932         estimate D2E/DX2                !
 ! R2    R(1,87)                 1.9627         estimate D2E/DX2                !
 ! R3    R(2,3)                  1.4072         estimate D2E/DX2                !
 ! R4    R(2,24)                 1.4075         estimate D2E/DX2                !
 ! R5    R(3,4)                  1.4825         estimate D2E/DX2                !
 ! R6    R(3,17)                 1.4015         estimate D2E/DX2                !
 ! R7    R(4,5)                  1.4051         estimate D2E/DX2                !
 ! R8    R(4,16)                 1.4049         estimate D2E/DX2                !
 ! R9    R(5,6)                  1.3977         estimate D2E/DX2                !
 ! R10   R(5,49)                 1.083          estimate D2E/DX2                !
 ! R11   R(6,7)                  1.4034         estimate D2E/DX2                !
 ! R12   R(6,50)                 1.0829         estimate D2E/DX2                !
 ! R13   R(7,8)                  1.5062         estimate D2E/DX2                !
 ! R14   R(7,15)                 1.4028         estimate D2E/DX2                !
 ! R15   R(8,9)                  1.4767         estimate D2E/DX2                !
 ! R16   R(8,51)                 1.1142         estimate D2E/DX2                !
 ! R17   R(8,52)                 1.1135         estimate D2E/DX2                !
 ! R18   R(9,10)                 1.4769         estimate D2E/DX2                !
 ! R19   R(9,14)                 1.4757         estimate D2E/DX2                !
 ! R20   R(10,11)                1.5419         estimate D2E/DX2                !
 ! R21   R(10,53)                1.1144         estimate D2E/DX2                !
 ! R22   R(10,54)                1.1123         estimate D2E/DX2                !
 ! R23   R(11,12)                1.4133         estimate D2E/DX2                !
 ! R24   R(11,55)                1.1146         estimate D2E/DX2                !
 ! R25   R(11,56)                1.1108         estimate D2E/DX2                !
 ! R26   R(12,13)                1.4168         estimate D2E/DX2                !
 ! R27   R(13,14)                1.5438         estimate D2E/DX2                !
 ! R28   R(13,57)                1.1132         estimate D2E/DX2                !
 ! R29   R(13,58)                1.1109         estimate D2E/DX2                !
 ! R30   R(14,59)                1.1143         estimate D2E/DX2                !
 ! R31   R(14,60)                1.1119         estimate D2E/DX2                !
 ! R32   R(15,16)                1.3975         estimate D2E/DX2                !
 ! R33   R(15,61)                1.0831         estimate D2E/DX2                !
 ! R34   R(16,62)                1.0831         estimate D2E/DX2                !
 ! R35   R(17,18)                1.4001         estimate D2E/DX2                !
 ! R36   R(17,63)                1.0846         estimate D2E/DX2                !
 ! R37   R(18,19)                1.4044         estimate D2E/DX2                !
 ! R38   R(18,23)                1.4181         estimate D2E/DX2                !
 ! R39   R(19,20)                1.3954         estimate D2E/DX2                !
 ! R40   R(19,64)                1.0837         estimate D2E/DX2                !
 ! R41   R(20,21)                1.3945         estimate D2E/DX2                !
 ! R42   R(20,65)                1.0824         estimate D2E/DX2                !
 ! R43   R(21,22)                1.3967         estimate D2E/DX2                !
 ! R44   R(21,66)                1.0824         estimate D2E/DX2                !
 ! R45   R(22,23)                1.4119         estimate D2E/DX2                !
 ! R46   R(22,67)                1.0819         estimate D2E/DX2                !
 ! R47   R(23,24)                1.418          estimate D2E/DX2                !
 ! R48   R(24,25)                1.4889         estimate D2E/DX2                !
 ! R49   R(25,26)                1.4075         estimate D2E/DX2                !
 ! R50   R(25,48)                1.418          estimate D2E/DX2                !
 ! R51   R(26,27)                1.3932         estimate D2E/DX2                !
 ! R52   R(26,28)                1.4074         estimate D2E/DX2                !
 ! R53   R(27,87)                1.9627         estimate D2E/DX2                !
 ! R54   R(28,29)                1.4827         estimate D2E/DX2                !
 ! R55   R(28,42)                1.4016         estimate D2E/DX2                !
 ! R56   R(29,30)                1.4047         estimate D2E/DX2                !
 ! R57   R(29,41)                1.4048         estimate D2E/DX2                !
 ! R58   R(30,31)                1.3975         estimate D2E/DX2                !
 ! R59   R(30,68)                1.0831         estimate D2E/DX2                !
 ! R60   R(31,32)                1.4039         estimate D2E/DX2                !
 ! R61   R(31,69)                1.083          estimate D2E/DX2                !
 ! R62   R(32,33)                1.5145         estimate D2E/DX2                !
 ! R63   R(32,40)                1.4039         estimate D2E/DX2                !
 ! R64   R(33,34)                1.4798         estimate D2E/DX2                !
 ! R65   R(33,70)                1.1122         estimate D2E/DX2                !
 ! R66   R(33,71)                1.1122         estimate D2E/DX2                !
 ! R67   R(34,35)                1.4733         estimate D2E/DX2                !
 ! R68   R(34,39)                1.4729         estimate D2E/DX2                !
 ! R69   R(35,36)                1.5432         estimate D2E/DX2                !
 ! R70   R(35,72)                1.112          estimate D2E/DX2                !
 ! R71   R(35,73)                1.1123         estimate D2E/DX2                !
 ! R72   R(36,37)                1.4161         estimate D2E/DX2                !
 ! R73   R(36,74)                1.1107         estimate D2E/DX2                !
 ! R74   R(36,75)                1.114          estimate D2E/DX2                !
 ! R75   R(37,38)                1.4166         estimate D2E/DX2                !
 ! R76   R(38,39)                1.5433         estimate D2E/DX2                !
 ! R77   R(38,76)                1.1139         estimate D2E/DX2                !
 ! R78   R(38,77)                1.1108         estimate D2E/DX2                !
 ! R79   R(39,78)                1.1123         estimate D2E/DX2                !
 ! R80   R(39,79)                1.1121         estimate D2E/DX2                !
 ! R81   R(40,41)                1.3974         estimate D2E/DX2                !
 ! R82   R(40,80)                1.083          estimate D2E/DX2                !
 ! R83   R(41,81)                1.083          estimate D2E/DX2                !
 ! R84   R(42,43)                1.4001         estimate D2E/DX2                !
 ! R85   R(42,82)                1.0846         estimate D2E/DX2                !
 ! R86   R(43,44)                1.4044         estimate D2E/DX2                !
 ! R87   R(43,48)                1.418          estimate D2E/DX2                !
 ! R88   R(44,45)                1.3954         estimate D2E/DX2                !
 ! R89   R(44,83)                1.0837         estimate D2E/DX2                !
 ! R90   R(45,46)                1.3945         estimate D2E/DX2                !
 ! R91   R(45,84)                1.0824         estimate D2E/DX2                !
 ! R92   R(46,47)                1.3966         estimate D2E/DX2                !
 ! R93   R(46,85)                1.0824         estimate D2E/DX2                !
 ! R94   R(47,48)                1.4119         estimate D2E/DX2                !
 ! R95   R(47,86)                1.0818         estimate D2E/DX2                !
 ! A1    A(2,1,87)             114.6595         estimate D2E/DX2                !
 ! A2    A(1,2,3)              119.9894         estimate D2E/DX2                !
 ! A3    A(1,2,24)             119.3448         estimate D2E/DX2                !
 ! A4    A(3,2,24)             120.6618         estimate D2E/DX2                !
 ! A5    A(2,3,4)              121.0717         estimate D2E/DX2                !
 ! A6    A(2,3,17)             119.4457         estimate D2E/DX2                !
 ! A7    A(4,3,17)             119.4823         estimate D2E/DX2                !
 ! A8    A(3,4,5)              120.5776         estimate D2E/DX2                !
 ! A9    A(3,4,16)             120.2684         estimate D2E/DX2                !
 ! A10   A(5,4,16)             119.1439         estimate D2E/DX2                !
 ! A11   A(4,5,6)              120.4191         estimate D2E/DX2                !
 ! A12   A(4,5,49)             120.4798         estimate D2E/DX2                !
 ! A13   A(6,5,49)             119.0929         estimate D2E/DX2                !
 ! A14   A(5,6,7)              120.3082         estimate D2E/DX2                !
 ! A15   A(5,6,50)             119.2237         estimate D2E/DX2                !
 ! A16   A(7,6,50)             120.4661         estimate D2E/DX2                !
 ! A17   A(6,7,8)              120.6476         estimate D2E/DX2                !
 ! A18   A(6,7,15)             119.3654         estimate D2E/DX2                !
 ! A19   A(8,7,15)             119.9722         estimate D2E/DX2                !
 ! A20   A(7,8,9)              110.5113         estimate D2E/DX2                !
 ! A21   A(7,8,51)             111.1993         estimate D2E/DX2                !
 ! A22   A(7,8,52)             107.2701         estimate D2E/DX2                !
 ! A23   A(9,8,51)             110.9436         estimate D2E/DX2                !
 ! A24   A(9,8,52)             110.1947         estimate D2E/DX2                !
 ! A25   A(51,8,52)            106.5815         estimate D2E/DX2                !
 ! A26   A(8,9,10)             110.3723         estimate D2E/DX2                !
 ! A27   A(8,9,14)             111.3341         estimate D2E/DX2                !
 ! A28   A(10,9,14)            109.852          estimate D2E/DX2                !
 ! A29   A(9,10,11)            111.1014         estimate D2E/DX2                !
 ! A30   A(9,10,53)            110.9284         estimate D2E/DX2                !
 ! A31   A(9,10,54)            108.8595         estimate D2E/DX2                !
 ! A32   A(11,10,53)           109.0389         estimate D2E/DX2                !
 ! A33   A(11,10,54)           108.8436         estimate D2E/DX2                !
 ! A34   A(53,10,54)           107.9929         estimate D2E/DX2                !
 ! A35   A(10,11,12)           110.9706         estimate D2E/DX2                !
 ! A36   A(10,11,55)           110.4935         estimate D2E/DX2                !
 ! A37   A(10,11,56)           109.3549         estimate D2E/DX2                !
 ! A38   A(12,11,55)           110.6331         estimate D2E/DX2                !
 ! A39   A(12,11,56)           108.577          estimate D2E/DX2                !
 ! A40   A(55,11,56)           106.6906         estimate D2E/DX2                !
 ! A41   A(11,12,13)           109.7028         estimate D2E/DX2                !
 ! A42   A(12,13,14)           112.3413         estimate D2E/DX2                !
 ! A43   A(12,13,57)           110.231          estimate D2E/DX2                !
 ! A44   A(12,13,58)           107.8768         estimate D2E/DX2                !
 ! A45   A(14,13,57)           110.4224         estimate D2E/DX2                !
 ! A46   A(14,13,58)           108.9807         estimate D2E/DX2                !
 ! A47   A(57,13,58)           106.7918         estimate D2E/DX2                !
 ! A48   A(9,14,13)            110.1508         estimate D2E/DX2                !
 ! A49   A(9,14,59)            110.4485         estimate D2E/DX2                !
 ! A50   A(9,14,60)            110.2359         estimate D2E/DX2                !
 ! A51   A(13,14,59)           109.3016         estimate D2E/DX2                !
 ! A52   A(13,14,60)           108.7696         estimate D2E/DX2                !
 ! A53   A(59,14,60)           107.8827         estimate D2E/DX2                !
 ! A54   A(7,15,16)            120.3496         estimate D2E/DX2                !
 ! A55   A(7,15,61)            120.268          estimate D2E/DX2                !
 ! A56   A(16,15,61)           119.3824         estimate D2E/DX2                !
 ! A57   A(4,16,15)            120.4087         estimate D2E/DX2                !
 ! A58   A(4,16,62)            120.4459         estimate D2E/DX2                !
 ! A59   A(15,16,62)           119.1423         estimate D2E/DX2                !
 ! A60   A(3,17,18)            120.7744         estimate D2E/DX2                !
 ! A61   A(3,17,63)            119.5019         estimate D2E/DX2                !
 ! A62   A(18,17,63)           119.6993         estimate D2E/DX2                !
 ! A63   A(17,18,19)           119.9537         estimate D2E/DX2                !
 ! A64   A(17,18,23)           120.0521         estimate D2E/DX2                !
 ! A65   A(19,18,23)           119.9917         estimate D2E/DX2                !
 ! A66   A(18,19,20)           120.3062         estimate D2E/DX2                !
 ! A67   A(18,19,64)           120.6888         estimate D2E/DX2                !
 ! A68   A(20,19,64)           119.0044         estimate D2E/DX2                !
 ! A69   A(19,20,21)           120.1303         estimate D2E/DX2                !
 ! A70   A(19,20,65)           119.9446         estimate D2E/DX2                !
 ! A71   A(21,20,65)           119.9238         estimate D2E/DX2                !
 ! A72   A(20,21,22)           120.2689         estimate D2E/DX2                !
 ! A73   A(20,21,66)           119.8394         estimate D2E/DX2                !
 ! A74   A(22,21,66)           119.8916         estimate D2E/DX2                !
 ! A75   A(21,22,23)           120.5619         estimate D2E/DX2                !
 ! A76   A(21,22,67)           118.0023         estimate D2E/DX2                !
 ! A77   A(23,22,67)           121.4351         estimate D2E/DX2                !
 ! A78   A(18,23,22)           118.7271         estimate D2E/DX2                !
 ! A79   A(18,23,24)           119.3268         estimate D2E/DX2                !
 ! A80   A(22,23,24)           121.9441         estimate D2E/DX2                !
 ! A81   A(2,24,23)            119.6707         estimate D2E/DX2                !
 ! A82   A(2,24,25)            118.5288         estimate D2E/DX2                !
 ! A83   A(23,24,25)           121.7983         estimate D2E/DX2                !
 ! A84   A(24,25,26)           118.5403         estimate D2E/DX2                !
 ! A85   A(24,25,48)           121.7826         estimate D2E/DX2                !
 ! A86   A(26,25,48)           119.6732         estimate D2E/DX2                !
 ! A87   A(25,26,27)           119.333          estimate D2E/DX2                !
 ! A88   A(25,26,28)           120.6637         estimate D2E/DX2                !
 ! A89   A(27,26,28)           119.9996         estimate D2E/DX2                !
 ! A90   A(26,27,87)           100.8611         estimate D2E/DX2                !
 ! A91   A(26,28,29)           121.0774         estimate D2E/DX2                !
 ! A92   A(26,28,42)           119.4352         estimate D2E/DX2                !
 ! A93   A(29,28,42)           119.4873         estimate D2E/DX2                !
 ! A94   A(28,29,30)           120.2966         estimate D2E/DX2                !
 ! A95   A(28,29,41)           120.5738         estimate D2E/DX2                !
 ! A96   A(30,29,41)           119.1185         estimate D2E/DX2                !
 ! A97   A(29,30,31)           120.4251         estimate D2E/DX2                !
 ! A98   A(29,30,68)           120.4461         estimate D2E/DX2                !
 ! A99   A(31,30,68)           119.1249         estimate D2E/DX2                !
 ! A100  A(30,31,32)           120.4176         estimate D2E/DX2                !
 ! A101  A(30,31,69)           119.2247         estimate D2E/DX2                !
 ! A102  A(32,31,69)           120.3569         estimate D2E/DX2                !
 ! A103  A(31,32,33)           120.4122         estimate D2E/DX2                !
 ! A104  A(31,32,40)           119.1802         estimate D2E/DX2                !
 ! A105  A(33,32,40)           120.3996         estimate D2E/DX2                !
 ! A106  A(32,33,34)           114.08           estimate D2E/DX2                !
 ! A107  A(32,33,70)           109.4731         estimate D2E/DX2                !
 ! A108  A(32,33,71)           109.5039         estimate D2E/DX2                !
 ! A109  A(34,33,70)           109.1242         estimate D2E/DX2                !
 ! A110  A(34,33,71)           109.1253         estimate D2E/DX2                !
 ! A111  A(70,33,71)           105.1515         estimate D2E/DX2                !
 ! A112  A(33,34,35)           113.5937         estimate D2E/DX2                !
 ! A113  A(33,34,39)           113.6103         estimate D2E/DX2                !
 ! A114  A(35,34,39)           110.729          estimate D2E/DX2                !
 ! A115  A(34,35,36)           110.111          estimate D2E/DX2                !
 ! A116  A(34,35,72)           110.7951         estimate D2E/DX2                !
 ! A117  A(34,35,73)           109.5764         estimate D2E/DX2                !
 ! A118  A(36,35,72)           108.586          estimate D2E/DX2                !
 ! A119  A(36,35,73)           109.3898         estimate D2E/DX2                !
 ! A120  A(72,35,73)           108.3452         estimate D2E/DX2                !
 ! A121  A(35,36,37)           111.671          estimate D2E/DX2                !
 ! A122  A(35,36,74)           109.154          estimate D2E/DX2                !
 ! A123  A(35,36,75)           110.5475         estimate D2E/DX2                !
 ! A124  A(37,36,74)           108.2508         estimate D2E/DX2                !
 ! A125  A(37,36,75)           110.4111         estimate D2E/DX2                !
 ! A126  A(74,36,75)           106.6419         estimate D2E/DX2                !
 ! A127  A(36,37,38)           109.8155         estimate D2E/DX2                !
 ! A128  A(37,38,39)           111.8316         estimate D2E/DX2                !
 ! A129  A(37,38,76)           110.3747         estimate D2E/DX2                !
 ! A130  A(37,38,77)           108.1637         estimate D2E/DX2                !
 ! A131  A(39,38,76)           110.5382         estimate D2E/DX2                !
 ! A132  A(39,38,77)           109.0964         estimate D2E/DX2                !
 ! A133  A(76,38,77)           106.6623         estimate D2E/DX2                !
 ! A134  A(34,39,38)           110.0133         estimate D2E/DX2                !
 ! A135  A(34,39,78)           109.7111         estimate D2E/DX2                !
 ! A136  A(34,39,79)           110.6926         estimate D2E/DX2                !
 ! A137  A(38,39,78)           109.3979         estimate D2E/DX2                !
 ! A138  A(38,39,79)           108.651          estimate D2E/DX2                !
 ! A139  A(78,39,79)           108.3391         estimate D2E/DX2                !
 ! A140  A(32,40,41)           120.424          estimate D2E/DX2                !
 ! A141  A(32,40,80)           120.3523         estimate D2E/DX2                !
 ! A142  A(41,40,80)           119.2237         estimate D2E/DX2                !
 ! A143  A(29,41,40)           120.4188         estimate D2E/DX2                !
 ! A144  A(29,41,81)           120.4989         estimate D2E/DX2                !
 ! A145  A(40,41,81)           119.0757         estimate D2E/DX2                !
 ! A146  A(28,42,43)           120.7814         estimate D2E/DX2                !
 ! A147  A(28,42,82)           119.5114         estimate D2E/DX2                !
 ! A148  A(43,42,82)           119.6819         estimate D2E/DX2                !
 ! A149  A(42,43,44)           119.952          estimate D2E/DX2                !
 ! A150  A(42,43,48)           120.0522         estimate D2E/DX2                !
 ! A151  A(44,43,48)           119.993          estimate D2E/DX2                !
 ! A152  A(43,44,45)           120.3077         estimate D2E/DX2                !
 ! A153  A(43,44,83)           120.6844         estimate D2E/DX2                !
 ! A154  A(45,44,83)           119.0072         estimate D2E/DX2                !
 ! A155  A(44,45,46)           120.1277         estimate D2E/DX2                !
 ! A156  A(44,45,84)           119.953          estimate D2E/DX2                !
 ! A157  A(46,45,84)           119.918          estimate D2E/DX2                !
 ! A158  A(45,46,47)           120.2677         estimate D2E/DX2                !
 ! A159  A(45,46,85)           119.8429         estimate D2E/DX2                !
 ! A160  A(47,46,85)           119.8893         estimate D2E/DX2                !
 ! A161  A(46,47,48)           120.5671         estimate D2E/DX2                !
 ! A162  A(46,47,86)           117.9921         estimate D2E/DX2                !
 ! A163  A(48,47,86)           121.44           estimate D2E/DX2                !
 ! A164  A(25,48,43)           119.3286         estimate D2E/DX2                !
 ! A165  A(25,48,47)           121.9465         estimate D2E/DX2                !
 ! A166  A(43,48,47)           118.7227         estimate D2E/DX2                !
 ! A167  A(1,87,27)            100.0            estimate D2E/DX2                !
 ! D1    D(87,1,2,3)           112.1149         estimate D2E/DX2                !
 ! D2    D(87,1,2,24)          -68.6119         estimate D2E/DX2                !
 ! D3    D(2,1,87,27)           31.7905         estimate D2E/DX2                !
 ! D4    D(1,2,3,4)             -0.8446         estimate D2E/DX2                !
 ! D5    D(1,2,3,17)           178.9597         estimate D2E/DX2                !
 ! D6    D(24,2,3,4)           179.8918         estimate D2E/DX2                !
 ! D7    D(24,2,3,17)           -0.3039         estimate D2E/DX2                !
 ! D8    D(1,2,24,23)          178.6955         estimate D2E/DX2                !
 ! D9    D(1,2,24,25)           -0.7745         estimate D2E/DX2                !
 ! D10   D(3,2,24,23)           -2.0362         estimate D2E/DX2                !
 ! D11   D(3,2,24,25)          178.4938         estimate D2E/DX2                !
 ! D12   D(2,3,4,5)            -51.7963         estimate D2E/DX2                !
 ! D13   D(2,3,4,16)           129.3696         estimate D2E/DX2                !
 ! D14   D(17,3,4,5)           128.3994         estimate D2E/DX2                !
 ! D15   D(17,3,4,16)          -50.4346         estimate D2E/DX2                !
 ! D16   D(2,3,17,18)            1.8054         estimate D2E/DX2                !
 ! D17   D(2,3,17,63)          179.9995         estimate D2E/DX2                !
 ! D18   D(4,3,17,18)         -178.3871         estimate D2E/DX2                !
 ! D19   D(4,3,17,63)           -0.193          estimate D2E/DX2                !
 ! D20   D(3,4,5,6)           -179.4749         estimate D2E/DX2                !
 ! D21   D(3,4,5,49)            -0.5261         estimate D2E/DX2                !
 ! D22   D(16,4,5,6)            -0.6278         estimate D2E/DX2                !
 ! D23   D(16,4,5,49)          178.3209         estimate D2E/DX2                !
 ! D24   D(3,4,16,15)          179.5495         estimate D2E/DX2                !
 ! D25   D(3,4,16,62)           -1.0897         estimate D2E/DX2                !
 ! D26   D(5,4,16,15)            0.6988         estimate D2E/DX2                !
 ! D27   D(5,4,16,62)         -179.9404         estimate D2E/DX2                !
 ! D28   D(4,5,6,7)              0.0241         estimate D2E/DX2                !
 ! D29   D(4,5,6,50)           179.5133         estimate D2E/DX2                !
 ! D30   D(49,5,6,7)          -178.9391         estimate D2E/DX2                !
 ! D31   D(49,5,6,50)            0.55           estimate D2E/DX2                !
 ! D32   D(5,6,7,8)            179.1151         estimate D2E/DX2                !
 ! D33   D(5,6,7,15)             0.5121         estimate D2E/DX2                !
 ! D34   D(50,6,7,8)            -0.3677         estimate D2E/DX2                !
 ! D35   D(50,6,7,15)         -178.9706         estimate D2E/DX2                !
 ! D36   D(6,7,8,9)           -111.0599         estimate D2E/DX2                !
 ! D37   D(6,7,8,51)            12.6128         estimate D2E/DX2                !
 ! D38   D(6,7,8,52)           128.7887         estimate D2E/DX2                !
 ! D39   D(15,7,8,9)            67.5346         estimate D2E/DX2                !
 ! D40   D(15,7,8,51)         -168.7927         estimate D2E/DX2                !
 ! D41   D(15,7,8,52)          -52.6169         estimate D2E/DX2                !
 ! D42   D(6,7,15,16)           -0.4413         estimate D2E/DX2                !
 ! D43   D(6,7,15,61)          179.4622         estimate D2E/DX2                !
 ! D44   D(8,7,15,16)         -179.0539         estimate D2E/DX2                !
 ! D45   D(8,7,15,61)            0.8497         estimate D2E/DX2                !
 ! D46   D(7,8,9,10)          -162.3342         estimate D2E/DX2                !
 ! D47   D(7,8,9,14)            75.3939         estimate D2E/DX2                !
 ! D48   D(51,8,9,10)           73.8456         estimate D2E/DX2                !
 ! D49   D(51,8,9,14)          -48.4263         estimate D2E/DX2                !
 ! D50   D(52,8,9,10)          -43.9527         estimate D2E/DX2                !
 ! D51   D(52,8,9,14)         -166.2246         estimate D2E/DX2                !
 ! D52   D(8,9,10,11)         -169.734          estimate D2E/DX2                !
 ! D53   D(8,9,10,53)          -48.2721         estimate D2E/DX2                !
 ! D54   D(8,9,10,54)           70.4207         estimate D2E/DX2                !
 ! D55   D(14,9,10,11)         -46.5949         estimate D2E/DX2                !
 ! D56   D(14,9,10,53)          74.8671         estimate D2E/DX2                !
 ! D57   D(14,9,10,54)        -166.4401         estimate D2E/DX2                !
 ! D58   D(8,9,14,13)         -179.3066         estimate D2E/DX2                !
 ! D59   D(8,9,14,59)           59.8566         estimate D2E/DX2                !
 ! D60   D(8,9,14,60)          -59.2693         estimate D2E/DX2                !
 ! D61   D(10,9,14,13)          58.1215         estimate D2E/DX2                !
 ! D62   D(10,9,14,59)         -62.7153         estimate D2E/DX2                !
 ! D63   D(10,9,14,60)         178.1588         estimate D2E/DX2                !
 ! D64   D(9,10,11,12)         -13.5467         estimate D2E/DX2                !
 ! D65   D(9,10,11,55)         109.555          estimate D2E/DX2                !
 ! D66   D(9,10,11,56)        -133.2988         estimate D2E/DX2                !
 ! D67   D(53,10,11,12)       -136.1078         estimate D2E/DX2                !
 ! D68   D(53,10,11,55)        -13.0061         estimate D2E/DX2                !
 ! D69   D(53,10,11,56)        104.1402         estimate D2E/DX2                !
 ! D70   D(54,10,11,12)        106.308          estimate D2E/DX2                !
 ! D71   D(54,10,11,55)       -130.5903         estimate D2E/DX2                !
 ! D72   D(54,10,11,56)        -13.4441         estimate D2E/DX2                !
 ! D73   D(10,11,12,13)         65.0522         estimate D2E/DX2                !
 ! D74   D(55,11,12,13)        -57.969          estimate D2E/DX2                !
 ! D75   D(56,11,12,13)       -174.7324         estimate D2E/DX2                !
 ! D76   D(11,12,13,14)        -52.9145         estimate D2E/DX2                !
 ! D77   D(11,12,13,57)         70.6945         estimate D2E/DX2                !
 ! D78   D(11,12,13,58)       -173.0497         estimate D2E/DX2                !
 ! D79   D(12,13,14,9)          -8.5745         estimate D2E/DX2                !
 ! D80   D(12,13,14,59)        112.9475         estimate D2E/DX2                !
 ! D81   D(12,13,14,60)       -129.4942         estimate D2E/DX2                !
 ! D82   D(57,13,14,9)        -132.0766         estimate D2E/DX2                !
 ! D83   D(57,13,14,59)        -10.5546         estimate D2E/DX2                !
 ! D84   D(57,13,14,60)        107.0037         estimate D2E/DX2                !
 ! D85   D(58,13,14,9)         110.9187         estimate D2E/DX2                !
 ! D86   D(58,13,14,59)       -127.5593         estimate D2E/DX2                !
 ! D87   D(58,13,14,60)        -10.001          estimate D2E/DX2                !
 ! D88   D(7,15,16,4)           -0.1665         estimate D2E/DX2                !
 ! D89   D(7,15,16,62)        -179.5355         estimate D2E/DX2                !
 ! D90   D(61,15,16,4)         179.9291         estimate D2E/DX2                !
 ! D91   D(61,15,16,62)          0.5601         estimate D2E/DX2                !
 ! D92   D(3,17,18,19)         178.4873         estimate D2E/DX2                !
 ! D93   D(3,17,18,23)          -0.9422         estimate D2E/DX2                !
 ! D94   D(63,17,18,19)          0.2967         estimate D2E/DX2                !
 ! D95   D(63,17,18,23)       -179.1328         estimate D2E/DX2                !
 ! D96   D(17,18,19,20)       -178.851          estimate D2E/DX2                !
 ! D97   D(17,18,19,64)          0.8586         estimate D2E/DX2                !
 ! D98   D(23,18,19,20)          0.5789         estimate D2E/DX2                !
 ! D99   D(23,18,19,64)       -179.7115         estimate D2E/DX2                !
 ! D100  D(17,18,23,22)        178.0932         estimate D2E/DX2                !
 ! D101  D(17,18,23,24)         -1.4086         estimate D2E/DX2                !
 ! D102  D(19,18,23,22)         -1.3361         estimate D2E/DX2                !
 ! D103  D(19,18,23,24)        179.1621         estimate D2E/DX2                !
 ! D104  D(18,19,20,21)          0.3061         estimate D2E/DX2                !
 ! D105  D(18,19,20,65)        179.8967         estimate D2E/DX2                !
 ! D106  D(64,19,20,21)       -179.4084         estimate D2E/DX2                !
 ! D107  D(64,19,20,65)          0.1822         estimate D2E/DX2                !
 ! D108  D(19,20,21,22)         -0.4113         estimate D2E/DX2                !
 ! D109  D(19,20,21,66)        179.4716         estimate D2E/DX2                !
 ! D110  D(65,20,21,22)        179.9979         estimate D2E/DX2                !
 ! D111  D(65,20,21,66)         -0.1192         estimate D2E/DX2                !
 ! D112  D(20,21,22,23)         -0.3749         estimate D2E/DX2                !
 ! D113  D(20,21,22,67)        179.3189         estimate D2E/DX2                !
 ! D114  D(66,21,22,23)        179.7423         estimate D2E/DX2                !
 ! D115  D(66,21,22,67)         -0.5639         estimate D2E/DX2                !
 ! D116  D(21,22,23,18)          1.239          estimate D2E/DX2                !
 ! D117  D(21,22,23,24)       -179.2729         estimate D2E/DX2                !
 ! D118  D(67,22,23,18)       -178.4442         estimate D2E/DX2                !
 ! D119  D(67,22,23,24)          1.044          estimate D2E/DX2                !
 ! D120  D(18,23,24,2)           2.8743         estimate D2E/DX2                !
 ! D121  D(18,23,24,25)       -177.6736         estimate D2E/DX2                !
 ! D122  D(22,23,24,2)        -176.6109         estimate D2E/DX2                !
 ! D123  D(22,23,24,25)          2.8412         estimate D2E/DX2                !
 ! D124  D(2,24,25,26)          68.1712         estimate D2E/DX2                !
 ! D125  D(2,24,25,48)        -111.1043         estimate D2E/DX2                !
 ! D126  D(23,24,25,26)       -111.287          estimate D2E/DX2                !
 ! D127  D(23,24,25,48)         69.4376         estimate D2E/DX2                !
 ! D128  D(24,25,26,27)         -0.5079         estimate D2E/DX2                !
 ! D129  D(24,25,26,28)        178.7939         estimate D2E/DX2                !
 ! D130  D(48,25,26,27)        178.7832         estimate D2E/DX2                !
 ! D131  D(48,25,26,28)         -1.915          estimate D2E/DX2                !
 ! D132  D(24,25,48,43)       -177.9207         estimate D2E/DX2                !
 ! D133  D(24,25,48,47)          2.6225         estimate D2E/DX2                !
 ! D134  D(26,25,48,43)          2.8119         estimate D2E/DX2                !
 ! D135  D(26,25,48,47)       -176.6449         estimate D2E/DX2                !
 ! D136  D(25,26,27,87)        -82.8343         estimate D2E/DX2                !
 ! D137  D(28,26,27,87)         97.8591         estimate D2E/DX2                !
 ! D138  D(25,26,28,29)        179.7049         estimate D2E/DX2                !
 ! D139  D(25,26,28,42)         -0.3937         estimate D2E/DX2                !
 ! D140  D(27,26,28,29)         -0.9979         estimate D2E/DX2                !
 ! D141  D(27,26,28,42)        178.9035         estimate D2E/DX2                !
 ! D142  D(26,27,87,1)          59.255          estimate D2E/DX2                !
 ! D143  D(26,28,29,30)        129.8426         estimate D2E/DX2                !
 ! D144  D(26,28,29,41)        -51.3767         estimate D2E/DX2                !
 ! D145  D(42,28,29,30)        -50.0588         estimate D2E/DX2                !
 ! D146  D(42,28,29,41)        128.722          estimate D2E/DX2                !
 ! D147  D(26,28,42,43)          1.8049         estimate D2E/DX2                !
 ! D148  D(26,28,42,82)        179.9684         estimate D2E/DX2                !
 ! D149  D(29,28,42,43)       -178.2921         estimate D2E/DX2                !
 ! D150  D(29,28,42,82)         -0.1286         estimate D2E/DX2                !
 ! D151  D(28,29,30,31)        179.6925         estimate D2E/DX2                !
 ! D152  D(28,29,30,68)         -1.0287         estimate D2E/DX2                !
 ! D153  D(41,29,30,31)          0.8941         estimate D2E/DX2                !
 ! D154  D(41,29,30,68)       -179.8271         estimate D2E/DX2                !
 ! D155  D(28,29,41,40)       -179.6649         estimate D2E/DX2                !
 ! D156  D(28,29,41,81)         -0.6076         estimate D2E/DX2                !
 ! D157  D(30,29,41,40)         -0.8699         estimate D2E/DX2                !
 ! D158  D(30,29,41,81)        178.1874         estimate D2E/DX2                !
 ! D159  D(29,30,31,32)          0.1007         estimate D2E/DX2                !
 ! D160  D(29,30,31,69)        179.7862         estimate D2E/DX2                !
 ! D161  D(68,30,31,32)       -179.1875         estimate D2E/DX2                !
 ! D162  D(68,30,31,69)          0.498          estimate D2E/DX2                !
 ! D163  D(30,31,32,33)        179.903          estimate D2E/DX2                !
 ! D164  D(30,31,32,40)         -1.1178         estimate D2E/DX2                !
 ! D165  D(69,31,32,33)          0.2211         estimate D2E/DX2                !
 ! D166  D(69,31,32,40)        179.2003         estimate D2E/DX2                !
 ! D167  D(31,32,33,34)        -90.2574         estimate D2E/DX2                !
 ! D168  D(31,32,33,70)         32.3336         estimate D2E/DX2                !
 ! D169  D(31,32,33,71)        147.1269         estimate D2E/DX2                !
 ! D170  D(40,32,33,34)         90.7759         estimate D2E/DX2                !
 ! D171  D(40,32,33,70)       -146.6331         estimate D2E/DX2                !
 ! D172  D(40,32,33,71)        -31.8398         estimate D2E/DX2                !
 ! D173  D(31,32,40,41)          1.1421         estimate D2E/DX2                !
 ! D174  D(31,32,40,80)       -178.8772         estimate D2E/DX2                !
 ! D175  D(33,32,40,41)       -179.8786         estimate D2E/DX2                !
 ! D176  D(33,32,40,80)          0.1021         estimate D2E/DX2                !
 ! D177  D(32,33,34,35)        -64.0647         estimate D2E/DX2                !
 ! D178  D(32,33,34,39)         63.7006         estimate D2E/DX2                !
 ! D179  D(70,33,34,35)        173.154          estimate D2E/DX2                !
 ! D180  D(70,33,34,39)        -59.0807         estimate D2E/DX2                !
 ! D181  D(71,33,34,35)         58.7576         estimate D2E/DX2                !
 ! D182  D(71,33,34,39)       -173.477          estimate D2E/DX2                !
 ! D183  D(33,34,35,36)       -177.9067         estimate D2E/DX2                !
 ! D184  D(33,34,35,72)         61.9521         estimate D2E/DX2                !
 ! D185  D(33,34,35,73)        -57.5451         estimate D2E/DX2                !
 ! D186  D(39,34,35,36)         52.8519         estimate D2E/DX2                !
 ! D187  D(39,34,35,72)        -67.2893         estimate D2E/DX2                !
 ! D188  D(39,34,35,73)        173.2135         estimate D2E/DX2                !
 ! D189  D(33,34,39,38)        176.4209         estimate D2E/DX2                !
 ! D190  D(33,34,39,78)         56.0254         estimate D2E/DX2                !
 ! D191  D(33,34,39,79)        -63.4861         estimate D2E/DX2                !
 ! D192  D(35,34,39,38)        -54.3466         estimate D2E/DX2                !
 ! D193  D(35,34,39,78)       -174.7421         estimate D2E/DX2                !
 ! D194  D(35,34,39,79)         65.7464         estimate D2E/DX2                !
 ! D195  D(34,35,36,37)          3.9786         estimate D2E/DX2                !
 ! D196  D(34,35,36,74)        123.6327         estimate D2E/DX2                !
 ! D197  D(34,35,36,75)       -119.3691         estimate D2E/DX2                !
 ! D198  D(72,35,36,37)        125.4458         estimate D2E/DX2                !
 ! D199  D(72,35,36,74)       -114.9001         estimate D2E/DX2                !
 ! D200  D(72,35,36,75)          2.0982         estimate D2E/DX2                !
 ! D201  D(73,35,36,37)       -116.4955         estimate D2E/DX2                !
 ! D202  D(73,35,36,74)          3.1586         estimate D2E/DX2                !
 ! D203  D(73,35,36,75)        120.1569         estimate D2E/DX2                !
 ! D204  D(35,36,37,38)        -60.5536         estimate D2E/DX2                !
 ! D205  D(74,36,37,38)        179.261          estimate D2E/DX2                !
 ! D206  D(75,36,37,38)         62.8714         estimate D2E/DX2                !
 ! D207  D(36,37,38,39)         58.9739         estimate D2E/DX2                !
 ! D208  D(36,37,38,76)        -64.5267         estimate D2E/DX2                !
 ! D209  D(36,37,38,77)        179.1296         estimate D2E/DX2                !
 ! D210  D(37,38,39,34)         -1.1399         estimate D2E/DX2                !
 ! D211  D(37,38,39,78)        119.4446         estimate D2E/DX2                !
 ! D212  D(37,38,39,79)       -122.4618         estimate D2E/DX2                !
 ! D213  D(76,38,39,34)        122.2684         estimate D2E/DX2                !
 ! D214  D(76,38,39,78)       -117.1471         estimate D2E/DX2                !
 ! D215  D(76,38,39,79)          0.9465         estimate D2E/DX2                !
 ! D216  D(77,38,39,34)       -120.7483         estimate D2E/DX2                !
 ! D217  D(77,38,39,78)         -0.1638         estimate D2E/DX2                !
 ! D218  D(77,38,39,79)        117.9298         estimate D2E/DX2                !
 ! D219  D(32,40,41,29)         -0.1494         estimate D2E/DX2                !
 ! D220  D(32,40,41,81)       -179.22           estimate D2E/DX2                !
 ! D221  D(80,40,41,29)        179.8697         estimate D2E/DX2                !
 ! D222  D(80,40,41,81)          0.7991         estimate D2E/DX2                !
 ! D223  D(28,42,43,44)        178.5012         estimate D2E/DX2                !
 ! D224  D(28,42,43,48)         -0.8841         estimate D2E/DX2                !
 ! D225  D(82,42,43,44)          0.3408         estimate D2E/DX2                !
 ! D226  D(82,42,43,48)       -179.0445         estimate D2E/DX2                !
 ! D227  D(42,43,44,45)       -178.8089         estimate D2E/DX2                !
 ! D228  D(42,43,44,83)          0.8855         estimate D2E/DX2                !
 ! D229  D(48,43,44,45)          0.5768         estimate D2E/DX2                !
 ! D230  D(48,43,44,83)       -179.7287         estimate D2E/DX2                !
 ! D231  D(42,43,48,25)         -1.4349         estimate D2E/DX2                !
 ! D232  D(42,43,48,47)        178.0395         estimate D2E/DX2                !
 ! D233  D(44,43,48,25)        179.18           estimate D2E/DX2                !
 ! D234  D(44,43,48,47)         -1.3456         estimate D2E/DX2                !
 ! D235  D(43,44,45,46)          0.3113         estimate D2E/DX2                !
 ! D236  D(43,44,45,84)        179.8919         estimate D2E/DX2                !
 ! D237  D(83,44,45,46)       -179.3882         estimate D2E/DX2                !
 ! D238  D(83,44,45,84)          0.1924         estimate D2E/DX2                !
 ! D239  D(44,45,46,47)         -0.4077         estimate D2E/DX2                !
 ! D240  D(44,45,46,85)        179.443          estimate D2E/DX2                !
 ! D241  D(84,45,46,47)       -179.9885         estimate D2E/DX2                !
 ! D242  D(84,45,46,85)         -0.1378         estimate D2E/DX2                !
 ! D243  D(45,46,47,48)         -0.3905         estimate D2E/DX2                !
 ! D244  D(45,46,47,86)        179.294          estimate D2E/DX2                !
 ! D245  D(85,46,47,48)        179.7588         estimate D2E/DX2                !
 ! D246  D(85,46,47,86)         -0.5567         estimate D2E/DX2                !
 ! D247  D(46,47,48,25)       -179.2826         estimate D2E/DX2                !
 ! D248  D(46,47,48,43)          1.2574         estimate D2E/DX2                !
 ! D249  D(86,47,48,25)          1.0439         estimate D2E/DX2                !
 ! D250  D(86,47,48,43)       -178.4161         estimate D2E/DX2                !
 --------------------------------------------------------------------------------
 Trust Radius=3.00D-01 FncErr=1.00D-07 GrdErr=1.00D-06 EigMax=2.50D+02 EigMin=1.00D-04
 Number of steps in this run=    522 maximum allowed number of steps=    522.
 GradGradGradGradGradGradGradGradGradGradGradGradGradGradGradGradGradGrad

 Leave Link  103 at Tue Dec 10 14:04:55 2024, MaxMem= 13421772800 cpu:               0.5 elap:               0.0
 (Enter /public/software/apps/Gaussian/g16/l202.exe)
 Symmetry turned off by external request.
 Stoichiometry    C42H38CuN2O4(2)
 Framework group  C1[X(C42H38CuN2O4)]
 Deg. of freedom   255
 Full point group                 C1      NOp   1
                          Input orientation:                          
 ---------------------------------------------------------------------
 Center     Atomic      Atomic             Coordinates (Angstroms)
 Number     Number       Type             X           Y           Z
 ---------------------------------------------------------------------
      1          8           0        1.113213   -0.288688   -1.396087
      2          6           0        1.397127    1.059025   -1.186154
      3          6           0        2.621496    1.437687   -0.604903
      4          6           0        3.618224    0.421659   -0.190105
      5          6           0        3.244171   -0.650263    0.637822
      6          6           0        4.189028   -1.600271    1.035814
      7          6           0        5.522776   -1.493047    0.612605
      8          6           0        6.551427   -2.501279    1.052958
      9          7           0        7.522064   -1.880529    1.976659
     10          6           0        8.740534   -2.709308    2.075188
     11          6           0        9.653668   -2.220271    3.217351
     12          8           0        9.256604   -0.941752    3.670196
     13          6           0        7.968756   -1.020968    4.255306
     14          6           0        6.938240   -1.686385    3.317954
     15          6           0        5.900767   -0.417469   -0.204688
     16          6           0        4.956799    0.533506   -0.601718
     17          6           0        2.904539    2.797696   -0.419027
     18          6           0        1.969093    3.778594   -0.769922
     19          6           0        2.257905    5.134716   -0.546835
     20          6           0        1.321353    6.116791   -0.871624
     21          6           0        0.088600    5.756175   -1.414626
     22          6           0       -0.213219    4.412073   -1.644709
     23          6           0        0.725749    3.402934   -1.339061
     24          6           0        0.456025    2.030873   -1.574731
     25          6           0       -0.809318    1.578973   -2.216111
     26          6           0       -1.741428    0.867905   -1.437237
     27          8           0       -1.451133    0.599770   -0.101240
     28          6           0       -2.962944    0.441580   -1.991204
     29          6           0       -3.948634   -0.313647   -1.180974
     30          6           0       -5.293804    0.089319   -1.145050
     31          6           0       -6.226342   -0.624285   -0.387410
     32          6           0       -5.830201   -1.751835    0.349192
     33          6           0       -6.840504   -2.523817    1.171981
     34          7           0       -6.974334   -2.046952    2.566393
     35          6           0       -5.748420   -2.212853    3.366576
     36          6           0       -5.992334   -1.740275    4.815201
     37          8           0       -7.340739   -1.359787    5.021097
     38          6           0       -7.675069   -0.289169    4.155855
     39          6           0       -7.483507   -0.668935    2.672287
     40          6           0       -4.490398   -2.167728    0.296533
     41          6           0       -3.557245   -1.454352   -0.460455
     42          6           0       -3.252729    0.737823   -3.330123
     43          6           0       -2.326785    1.418299   -4.130018
     44          6           0       -2.622281    1.678401   -5.478107
     45          6           0       -1.694661    2.334074   -6.288526
     46          6           0       -0.464179    2.729707   -5.765156
     47          6           0       -0.155796    2.480295   -4.426015
     48          6           0       -1.085887    1.833349   -3.583468
     49          1           0        2.224175   -0.742392    0.990049
     50          1           0        3.881299   -2.414102    1.680581
     51          1           0        6.069625   -3.390667    1.520213
     52          1           0        7.070526   -2.865297    0.137587
     53          1           0        8.481330   -3.779010    2.249664
     54          1           0        9.298915   -2.643201    1.115472
     55          1           0        9.653267   -2.952262    4.057877
     56          1           0       10.700117   -2.156465    2.850388
     57          1           0        8.019441   -1.564725    5.225355
     58          1           0        7.634014    0.013229    4.484227
     59          1           0        6.623816   -2.663826    3.750876
     60          1           0        6.038859   -1.035518    3.255411
     61          1           0        6.928028   -0.315671   -0.532659
     62          1           0        5.268451    1.351881   -1.239135
     63          1           0        3.847934    3.090570    0.028889
     64          1           0        3.206283    5.434757   -0.116879
     65          1           0        1.549416    7.160143   -0.695660
     66          1           0       -0.637752    6.521273   -1.656867
     67          1           0       -1.184537    4.172913   -2.056738
     68          1           0       -5.619637    0.963840   -1.694761
     69          1           0       -7.257722   -0.294366   -0.370859
     70          1           0       -7.834484   -2.480081    0.674954
     71          1           0       -6.566778   -3.601768    1.180195
     72          1           0       -4.912602   -1.619084    2.936059
     73          1           0       -5.449727   -3.284234    3.373021
     74          1           0       -5.754441   -2.570030    5.514148
     75          1           0       -5.307877   -0.899985    5.072825
     76          1           0       -7.075699    0.615127    4.408292
     77          1           0       -8.739816   -0.023963    4.328527
     78          1           0       -8.457384   -0.587004    2.141269
     79          1           0       -6.771482    0.049697    2.210273
     80          1           0       -4.167998   -3.045541    0.842772
     81          1           0       -2.532133   -1.801921   -0.495881
     82          1           0       -4.193497    0.409428   -3.758444
     83          1           0       -3.568868    1.370118   -5.906199
     84          1           0       -1.927681    2.530057   -7.327212
     85          1           0        0.255555    3.229960   -6.400296
     86          1           0        0.813757    2.792547   -4.061573
     87         29           0       -0.334179   -1.004109   -0.280177
 ---------------------------------------------------------------------
 Rotational constants (GHZ):           0.0622724           0.0285612           0.0223908
 Leave Link  202 at Tue Dec 10 14:04:55 2024, MaxMem= 13421772800 cpu:               1.2 elap:               0.0
 (Enter /public/software/apps/Gaussian/g16/l301.exe)
 Standard basis: def2SVPP (5D, 7F)
 Ernie: Thresh=  0.10000D-02 Tol=  0.10000D-05 Strict=F.
   772 basis functions,  1423 primitive gaussians,   822 cartesian basis functions
   183 alpha electrons      182 beta electrons
       nuclear repulsion energy      6435.2216919104 Hartrees.
 IExCor=  402 DFT=T Ex+Corr=B3LYP ExCW=0 ScaHFX=  0.200000
 ScaDFX=  0.800000  0.720000  1.000000  0.810000 ScalE2=  1.000000  1.000000
 IRadAn=      5 IRanWt=     -1 IRanGd=            0 ICorTp=0 IEmpDi=141
 NAtoms=   87 NActive=   87 NUniq=   87 SFac= 1.00D+00 NAtFMM=   60 NAOKFM=T Big=T
 Integral buffers will be    131072 words long.
 Raffenetti 2 integral format.
 Two-electron integral symmetry is turned off.
 R6Disp:  Grimme-D3(BJ) Dispersion energy=       -0.2240103183 Hartrees.
 Nuclear repulsion after empirical dispersion term =     6434.9976815921 Hartrees.
 Leave Link  301 at Tue Dec 10 14:04:55 2024, MaxMem= 13421772800 cpu:               1.4 elap:               0.1
 (Enter /public/software/apps/Gaussian/g16/l302.exe)
 NPDir=0 NMtPBC=     1 NCelOv=     1 NCel=       1 NClECP=     1 NCelD=      1
         NCelK=      1 NCelE2=     1 NClLst=     1 CellRange=     0.0.
 One-electron integrals computed using PRISM.
   1 Symmetry operations used in ECPInt.
 ECPInt:  NShTT=   70125 NPrTT=  286924 LenC2=   48138 LenP2D=  117640.
 LDataN:  DoStor=T MaxTD1= 4 Len=   56
 NBasis=   772 RedAO= T EigKep=  1.67D-04  NBF=   772
 NBsUse=   772 1.00D-06 EigRej= -1.00D+00 NBFU=   772
 Precomputing XC quadrature grid using
 IXCGrd= 4 IRadAn=           5 IRanWt=          -1 IRanGd=           0 AccXCQ= 0.00D+00.
 Generated NRdTot=       0 NPtTot=           0 NUsed=           0 NTot=          32
 NSgBfM=   758   757   758   758   758 MxSgAt=    87 MxSgA2=    87.
 Leave Link  302 at Tue Dec 10 14:04:56 2024, MaxMem= 13421772800 cpu:              36.2 elap:               1.1
 (Enter /public/software/apps/Gaussian/g16/l303.exe)
 DipDrv:  MaxL=1.
 Leave Link  303 at Tue Dec 10 14:04:56 2024, MaxMem= 13421772800 cpu:               3.9 elap:               0.1
 (Enter /public/software/apps/Gaussian/g16/l401.exe)
 ExpMin= 3.30D-02 ExpMax= 7.64D+04 ExpMxC= 1.15D+04 IAcc=3 IRadAn=         5 AccDes= 0.00D+00
 Harris functional with IExCor=  402 and IRadAn=       5 diagonalized for initial guess.
 HarFok:  IExCor=  402 AccDes= 0.00D+00 IRadAn=         5 IDoV= 1 UseB2=F ITyADJ=14
 ICtDFT=  3500011 ScaDFX=  1.000000  1.000000  1.000000  1.000000
 FoFCou: FMM=F IPFlag=           0 FMFlag=      100000 FMFlg1=        2001
         NFxFlg=           0 DoJE=T BraDBF=F KetDBF=T FulRan=T
         wScrn=  0.000000 ICntrl=       500 IOpCl=  0 I1Cent=   200000004 NGrid=           0
         NMat0=    1 NMatS0=      1 NMatT0=    0 NMatD0=    1 NMtDS0=    0 NMtDT0=    0
 Symmetry not used in FoFCou.
 Harris En= -3672.81629570179    
 JPrj=0 DoOrth=F DoCkMO=F.
 Initial guess <Sx>= 0.0000 <Sy>= 0.0000 <Sz>= 0.5000 <S**2>= 0.7500 S= 0.5000
 Leave Link  401 at Tue Dec 10 14:04:59 2024, MaxMem= 13421772800 cpu:              74.8 elap:               2.4
 (Enter /public/software/apps/Gaussian/g16/l502.exe)
 Two-electron integral symmetry not used.
 UHF open shell SCF:
 Using DIIS extrapolation, IDIIS=  1040.
 NGot= 13421772800 LenX= 13420386154 LenY= 13419709648
 Requested convergence on RMS density matrix=1.00D-08 within 128 cycles.
 Requested convergence on MAX density matrix=1.00D-06.
 Requested convergence on             energy=1.00D-06.
 No special actions if energy rises.
 Fock matrices will be formed incrementally for  20 cycles.

 Cycle   1  Pass 1  IDiag  1:
 FoFJK:  IHMeth= 1 ICntrl=       0 DoSepK=F KAlg= 0 I1Cent=           0 FoldK=F
 IRaf= 760000000 NMat=       1 IRICut=       1 DoRegI=T DoRafI=F ISym2E= 0 IDoP0=0 IntGTp=1.
 FoFCou: FMM=T IPFlag=           0 FMFlag=      100000 FMFlg1=        2001
         NFxFlg=           0 DoJE=F BraDBF=F KetDBF=F FulRan=T
         wScrn=  0.000000 ICntrl=         0 IOpCl=  1 I1Cent=           0 NGrid=           0
         NMat0=    1 NMatS0=      1 NMatT0=    0 NMatD0=    1 NMtDS0=    0 NMtDT0=    0
 Symmetry not used in FoFCou.
 FMM levels:  10  Number of levels for PrismC:   9
 E= -3656.35956824486    
 DIIS: error= 4.20D-01 at cycle   1 NSaved=   1.
 NSaved= 1 IEnMin= 1 EnMin= -3656.35956824486     IErMin= 1 ErrMin= 4.20D-01
 ErrMax= 4.20D-01  0.00D+00 EMaxC= 1.00D-01 BMatC= 7.13D+01 BMatP= 7.13D+01
 IDIUse=3 WtCom= 0.00D+00 WtEn= 1.00D+00
 Coeff-Com:  0.100D+01
 Coeff-En:   0.100D+01
 Coeff:      0.100D+01
 Gap=     1.328 Goal=   None    Shift=    0.000
 Gap=    -0.823 Goal=   None    Shift=    0.000
 GapD=   -0.823 DampG=0.250 DampE=0.125 DampFc=0.1250 IDamp=-1.
 Damping current iteration by 1.25D-01
 RMSDP=8.66D-02 MaxDP=2.06D+01              OVMax= 9.93D-01

 Cycle   2  Pass 1  IDiag  1:
 RMSU=  1.08D-02    CP:  1.03D+00
 E= -3661.38776354891     Delta-E=       -5.028195304043 Rises=F Damp=T
 DIIS: error= 2.83D-01 at cycle   2 NSaved=   2.
 NSaved= 2 IEnMin= 2 EnMin= -3661.38776354891     IErMin= 2 ErrMin= 2.83D-01
 ErrMax= 2.83D-01  0.00D+00 EMaxC= 1.00D-01 BMatC= 2.67D+01 BMatP= 7.13D+01
 IDIUse=3 WtCom= 0.00D+00 WtEn= 1.00D+00
 Coeff-Com: -0.110D+01 0.210D+01
 Coeff-En:   0.000D+00 0.100D+01
 Coeff:      0.000D+00 0.100D+01
 Gap=     0.223 Goal=   None    Shift=    0.000
 Gap=    -0.385 Goal=   None    Shift=    0.000
 RMSDP=1.58D-02 MaxDP=3.71D+00 DE=-5.03D+00 OVMax= 9.33D-01

 Cycle   3  Pass 1  IDiag  1:
 RMSU=  1.56D-02    CP:  9.51D-01  8.39D-01
 E= -3643.18125185880     Delta-E=       18.206511690107 Rises=F Damp=F
 DIIS: error= 2.09D-01 at cycle   3 NSaved=   3.
 NSaved= 3 IEnMin= 2 EnMin= -3661.38776354891     IErMin= 3 ErrMin= 2.09D-01
 ErrMax= 2.09D-01  0.00D+00 EMaxC= 1.00D-01 BMatC= 7.63D+01 BMatP= 2.67D+01
 IDIUse=2 WtCom= 0.00D+00 WtEn= 1.00D+00
 EnCoef did    13 forward-backward iterations
 Coeff-En:   0.554D+00 0.599D-01 0.386D+00
 Coeff:      0.554D+00 0.599D-01 0.386D+00
 Gap=    -0.006 Goal=   None    Shift=    0.000
 Gap=     0.513 Goal=   None    Shift=    0.000
 RMSDP=4.99D-02 MaxDP=1.39D+01 DE= 1.82D+01 OVMax= 9.90D-01

 Cycle   4  Pass 1  IDiag  1:
 RMSU=  4.75D-02    CP:  9.30D-01  3.79D-01  6.07D-02
 E= -3547.46088145717     Delta-E=       95.720370401628 Rises=F Damp=F
 DIIS: error= 1.77D-01 at cycle   4 NSaved=   4.
 NSaved= 4 IEnMin= 2 EnMin= -3661.38776354891     IErMin= 4 ErrMin= 1.77D-01
 ErrMax= 1.77D-01  0.00D+00 EMaxC= 1.00D-01 BMatC= 1.93D+02 BMatP= 2.67D+01
 IDIUse=2 WtCom= 0.00D+00 WtEn= 1.00D+00
 EnCoef did   100 forward-backward iterations
 Coeff-En:   0.549D+00 0.249D-01 0.363D+00 0.627D-01
 Coeff:      0.549D+00 0.249D-01 0.363D+00 0.627D-01
 Gap=    -0.279 Goal=   None    Shift=    0.000
 Gap=    -0.065 Goal=   None    Shift=    0.000
 RMSDP=4.73D-02 MaxDP=1.39D+01 DE= 9.57D+01 OVMax= 9.83D-01

 Cycle   5  Pass 1  IDiag  1:
 RMSU=  4.96D-03    CP:  8.98D-01  2.65D-02  8.56D-02  1.29D-02
 E= -3666.40474840290     Delta-E=     -118.943866945730 Rises=F Damp=F
 DIIS: error= 1.65D-01 at cycle   5 NSaved=   5.
 NSaved= 5 IEnMin= 5 EnMin= -3666.40474840290     IErMin= 5 ErrMin= 1.65D-01
 ErrMax= 1.65D-01  0.00D+00 EMaxC= 1.00D-01 BMatC= 1.79D+01 BMatP= 2.67D+01
 IDIUse=3 WtCom= 0.00D+00 WtEn= 1.00D+00
 EnCoef did   100 forward-backward iterations
 Coeff-Com: -0.479D+00 0.106D+01 0.938D-01-0.415D-01 0.369D+00
 Coeff-En:   0.334D+00 0.884D-02 0.112D+00 0.000D+00 0.545D+00
 Coeff:      0.334D+00 0.884D-02 0.112D+00 0.000D+00 0.545D+00
 Gap=    -0.220 Goal=   None    Shift=    0.000
 Gap=     0.328 Goal=   None    Shift=    0.000
 RMSDP=9.46D-03 MaxDP=1.60D+00 DE=-1.19D+02 OVMax= 9.93D-01

 Cycle   6  Pass 1  IDiag  1:
 RMSU=  8.80D-03    CP:  9.05D-01  5.51D-02  1.26D-01  7.30D-03  3.16D-01
 E= -3626.12402997668     Delta-E=       40.280718426224 Rises=F Damp=F
 DIIS: error= 1.66D-01 at cycle   6 NSaved=   6.
 NSaved= 6 IEnMin= 5 EnMin= -3666.40474840290     IErMin= 5 ErrMin= 1.65D-01
 ErrMax= 1.66D-01  0.00D+00 EMaxC= 1.00D-01 BMatC= 6.06D+01 BMatP= 1.79D+01
 IDIUse=2 WtCom= 0.00D+00 WtEn= 1.00D+00
 EnCoef did   100 forward-backward iterations
 Coeff-En:   0.246D+00 0.361D-02 0.111D-02 0.000D+00 0.627D+00 0.123D+00
 Coeff:      0.246D+00 0.361D-02 0.111D-02 0.000D+00 0.627D+00 0.123D+00
 Gap=     0.068 Goal=   None    Shift=    0.000
 Gap=    -0.076 Goal=   None    Shift=    0.000
 RMSDP=8.11D-03 MaxDP=1.64D+00 DE= 4.03D+01 OVMax= 9.91D-01

 Cycle   7  Pass 1  IDiag  1:
 RMSU=  4.37D-03    CP:  9.05D-01  4.88D-02  1.26D-01  4.09D-03  3.13D-01
                    CP:  2.24D-01
 E= -3664.66852694773     Delta-E=      -38.544496971053 Rises=F Damp=F
 DIIS: error= 4.81D-02 at cycle   7 NSaved=   7.
 NSaved= 7 IEnMin= 5 EnMin= -3666.40474840290     IErMin= 7 ErrMin= 4.81D-02
 ErrMax= 4.81D-02  0.00D+00 EMaxC= 1.00D-01 BMatC= 1.52D+01 BMatP= 1.79D+01
 IDIUse=3 WtCom= 5.19D-01 WtEn= 4.81D-01
 EnCoef did   100 forward-backward iterations
 Coeff-Com: -0.390D+00 0.801D+00-0.348D-01-0.409D-02 0.228D+00 0.731D-01
 Coeff-Com:  0.328D+00
 Coeff-En:   0.206D+00 0.170D-02 0.524D-03 0.000D+00 0.499D+00 0.699D-01
 Coeff-En:   0.223D+00
 Coeff:     -0.104D+00 0.417D+00-0.178D-01-0.212D-02 0.358D+00 0.715D-01
 Coeff:      0.277D+00
 Gap=     0.134 Goal=   None    Shift=    0.000
 Gap=     0.031 Goal=   None    Shift=    0.000
 RMSDP=5.54D-03 MaxDP=1.11D+00 DE=-3.85D+01 OVMax= 8.97D-01

 Cycle   8  Pass 1  IDiag  1:
 RMSU=  4.02D-03    CP:  8.99D-01 -1.48D-03  5.35D-02  1.11D-02  4.98D-01
                    CP:  1.45D-01  2.24D-01
 E= -3665.29400621345     Delta-E=       -0.625479265722 Rises=F Damp=F
 DIIS: error= 6.55D-02 at cycle   8 NSaved=   8.
 NSaved= 8 IEnMin= 5 EnMin= -3666.40474840290     IErMin= 7 ErrMin= 4.81D-02
 ErrMax= 6.55D-02  0.00D+00 EMaxC= 1.00D-01 BMatC= 1.50D+01 BMatP= 1.52D+01
 IDIUse=3 WtCom= 5.19D-01 WtEn= 4.81D-01
 EnCoef did   100 forward-backward iterations
 Coeff-Com: -0.395D+00 0.775D+00-0.295D-01-0.136D-01 0.147D+00 0.278D-01
 Coeff-Com:  0.279D+00 0.209D+00
 Coeff-En:   0.148D+00 0.397D-02 0.000D+00 0.000D+00 0.343D+00 0.000D+00
 Coeff-En:   0.273D+00 0.233D+00
 Coeff:     -0.134D+00 0.404D+00-0.153D-01-0.704D-02 0.241D+00 0.145D-01
 Coeff:      0.276D+00 0.221D+00
 Gap=     0.082 Goal=   None    Shift=    0.000
 Gap=    -0.021 Goal=   None    Shift=    0.000
 RMSDP=3.62D-03 MaxDP=4.36D-01 DE=-6.25D-01 OVMax= 4.86D-01

 Cycle   9  Pass 1  IDiag  1:
 RMSU=  2.30D-03    CP:  8.96D-01 -3.70D-03  4.87D-02  5.54D-03  5.25D-01
                    CP:  8.39D-02  2.94D-01  3.27D-01
 E= -3671.75913943580     Delta-E=       -6.465133222349 Rises=F Damp=F
 DIIS: error= 5.86D-02 at cycle   9 NSaved=   9.
 NSaved= 9 IEnMin= 9 EnMin= -3671.75913943580     IErMin= 7 ErrMin= 4.81D-02
 ErrMax= 5.86D-02  0.00D+00 EMaxC= 1.00D-01 BMatC= 3.44D+00 BMatP= 1.50D+01
 IDIUse=3 WtCom= 5.19D-01 WtEn= 4.81D-01
 EnCoef did     3 forward-backward iterations
[...]
 0.00000036,-0.00000049,0.00000309,0.00000040,0.00000417,-0.00000027,-0
 .00000253,-0.00000036,0.00000191,-0.00000426,0.00000686,0.00000084,-0.
 00000335,-0.00000632,0.00000296,0.00000205,-0.00000242,-0.00000789,-0.
 00000243,0.00000203,-0.00000585,0.00002528,0.00000855,0.00000425,-0.00
 000730,-0.00000453,-0.00000956,-0.00000279,-0.00000497,-0.00002982,0.0
 0000831,0.,-0.00013905,0.00005230,0.00001577,0.00000305,-0.00000351,0.
 00000130,0.00000806,0.00000032,0.00000041,0.00000677,0.00000002,-0.000
 00258,0.00000127,0.00000360,-0.00000421,0.00000410,0.00000120,0.000001
 44,0.00000105,0.00000343,-0.00000337,-0.00000011,0.00000042,-0.0000033
 6,0.00000060,0.00000081,0.00000050,0.00000096,-0.00000399,-0.00000187,
 0.00000259,0.00000126,-0.00000149,-0.00000166,-0.00000049,0.00000089,0
 .00000238,0.00000106,0.00000204,0.00000034,0.00000482,-0.00000721,0.00
 001115,-0.00004726,-0.00000944,-0.00019220,-0.00019049,0.00017520,-0.0
 0019267,0.00035984,0.00004199,0.00000792,-0.00014688,0.00010043,-0.000
 00800,0.00204603,0.00035300,0.27933326,-0.00013340,-0.00155962,-0.0002
 0809,-0.00066986,0.00139230,0.00038868,-0.00024471,-0.00018421,-0.0001
 6021,-0.00001951,0.00002093,-0.00003236,0.00001241,-0.00001951,0.00001
 478,-0.00000375,0.00000999,-0.00000207,0.00001367,-0.00000106,0.000003
 73,-0.00001016,0.00001023,-0.00001096,0.00001269,-0.00001215,0.0000053
 4,-0.00000873,0.00000985,0.00000469,-0.00000135,0.00000751,-0.00000180
 ,0.00000901,-0.00000957,-0.00000150,-0.00000933,0.00000469,-0.00000026
 ,-0.00000091,0.00000491,-0.00000414,0.00001005,-0.00001143,0.00000238,
 0.00001053,-0.00002151,-0.00000874,-0.00029258,0.00060889,0.00001366,0
 .00036307,-0.00028520,0.00012976,-0.00015625,0.00025597,0.00000685,0.0
 0023890,-0.00006722,0.00010108,-0.00010297,-0.00024818,0.00000894,-0.0
 0003012,0.00021646,-0.00018108,0.00019967,-0.00017084,-0.00094233,0.00
 077320,-0.00029730,0.00093782,0.00192532,-0.00112941,-0.00088011,-0.00
 062978,-0.00061879,0.00029288,0.00022384,0.00033965,-0.00070864,-0.000
 17482,-0.00026077,-0.00009249,-0.00000056,0.00000810,0.00001127,-0.000
 02672,0.00001239,-0.00001141,0.00001400,0.00000774,-0.00000619,0.00000
 409,0.00000445,-0.00000132,-0.00002577,-0.00001646,0.00002146,0.000028
 99,-0.00000076,-0.00002969,-0.00000552,-0.00001090,0.00000980,-0.00000
 726,0.00000921,0.00001267,0.00001298,-0.00000828,-0.00001218,-0.000006
 89,0.00000907,0.00000663,-0.00001181,0.00000966,-0.00000264,0.00001946
 ,-0.00001550,0.00001828,-0.00003505,0.00001527,0.00000598,-0.00067930,
 -0.00006954,-0.00032004,-0.00244578,0.00293555,0.00311555,0.00012339,-
 0.00049970,0.00010730,-0.00247277,0.00609141,0.00297147,0.00611202,0.0
 0633894,0.00454620,-0.06391949,-0.05648169,-0.02547479,-0.01171201,0.0
 0054126,-0.00700598,0.00000773,0.00001041,-0.00001574,0.00000305,-0.00
 000678,0.00000571,0.00000175,-0.00000362,0.00000381,0.00000929,-0.0000
 0464,0.00000029,0.00000042,-0.00000440,0.00000123,0.00000118,-0.000000
 67,-0.00000187,-0.00000060,-0.00000108,0.00000111,0.00000196,-0.000000
 22,-0.00000027,0.00000104,-0.00000020,0.00000024,0.00000007,-0.0000019
 8,0.00000107,0.00000082,-0.00000266,0.00000192,0.00000110,-0.00000109,
 -0.00000273,0.00000446,0.00000117,0.00000240,-0.00000171,0.00000722,0.
 00001003,0.00001115,0.00000699,-0.00000771,0.00000731,-0.00000022,0.00
 000599,0.00000491,0.00000800,-0.00000658,-0.00000141,0.00000953,-0.000
 02278,0.00000220,0.00004632,0.00002460,0.00000154,-0.00000714,0.000006
 46,0.00000820,0.00000042,0.00000101,0.00000702,0.00000044,-0.00000275,
 0.00000136,0.00000224,-0.00000359,0.00000415,0.00000168,0.00000159,0.0
 0000051,0.00000202,-0.00000282,0.,0.00000021,-0.00000290,0.00000038,-0
 .00000049,0.00000045,0.00000127,-0.00000530,-0.00000217,0.00000241,0.0
 0000101,-0.00000127,-0.00000147,-0.00000039,0.00000124,0.00000119,-0.0
 0000081,0.00000228,-0.00000058,0.00000394,-0.00000519,0.00001163,-0.00
 004102,-0.00000459,-0.00019878,0.00003529,0.00014207,0.00033115,-0.000
 82470,-0.00027292,0.00023334,0.00015618,0.00020557,0.00185529,-0.00392
 459,-0.00150825,0.07133285,0.04752959,-0.00008047,0.00089086,0.0001404
 6,0.00077272,-0.00072563,-0.00035688,0.00024981,0.00013082,0.00037166,
 -0.00001370,0.00002965,0.00000372,0.00000855,-0.00000825,-0.00000506,-
 0.00000709,-0.00001566,-0.00000624,-0.00000077,-0.00000390,-0.00000195
 ,0.00001296,-0.00000755,0.00002033,-0.00001374,0.00000916,-0.00001688,
 0.00000828,-0.00001250,-0.00000109,0.00000385,-0.00000522,0.00000546,-
 0.00000829,0.00000511,-0.00000452,0.00000707,-0.00000136,0.00000575,-0
 .00000125,-0.00000172,0.00001267,-0.00000261,0.00000897,-0.00000753,0.
 00001602,-0.00001403,0.00000003,0.00030073,-0.00046079,0.00001978,-0.0
 0005031,0.00041127,-0.00000941,0.00032998,-0.00058427,0.00008532,-0.00
 037768,0.00003490,-0.00018178,-0.00006757,0.00024577,0.00006329,-0.000
 21411,0.00000293,-0.00017275,0.00055251,-0.00090887,-0.00227337,-0.000
 89613,0.00144488,-0.00215109,-0.00109144,-0.00153809,0.00031067,0.0007
 0381,0.00026211,-0.00109290,-0.00010709,-0.00054163,0.00144102,0.00058
 911,0.00020331,0.00051955,0.00000982,0.00003382,-0.00004032,0.00001534
 ,-0.00002108,0.00001418,-0.00001990,-0.00002122,0.00001392,-0.00002240
 ,0.00000076,-0.00000135,0.00004071,0.00002448,-0.00003428,-0.00004016,
 -0.00000315,0.00004581,0.00000659,0.00001786,-0.00001607,0.00001081,-0
 .00001024,-0.00001889,-0.00001769,0.00000899,0.00001972,0.00000905,-0.
 00001010,-0.00001183,0.00001709,-0.00000814,0.00000332,-0.00000281,0.0
 0001635,-0.00002481,0.00000922,-0.00001984,-0.00000070,0.00094168,0.00
 061076,-0.00000741,0.00137054,0.00200977,-0.00099515,0.00115798,0.0006
 0733,-0.00109709,-0.00056861,0.00306169,-0.00435096,-0.02718025,-0.006
 94154,-0.00847817,-0.11206220,-0.02548753,-0.11282580,0.01443898,0.004
 14530,0.01113186,-0.00000805,-0.00000232,0.00002553,-0.00000112,0.0000
 0740,-0.00000156,-0.00000237,0.00000374,-0.00000601,-0.00000513,0.0000
 0065,-0.00000101,-0.00000010,0.00000508,-0.00000206,0.00000030,0.00000
 018,-0.00000015,0.00000029,0.00000088,-0.00000317,-0.00000214,-0.00000
 037,0.00000066,-0.00000197,-0.00000010,-0.00000339,-0.00000011,0.00000
 228,0.00000002,-0.00000107,0.00000388,-0.00000545,-0.00000050,0.000001
 41,0.00000405,0.00000201,-0.00000232,0.00000411,0.00000052,0.00000548,
 0.00000538,0.00000372,-0.00001256,0.00000829,-0.00000233,0.00000919,0.
 00000167,-0.00000188,0.00000753,0.00001350,0.00001537,-0.00000289,-0.0
 0000006,0.00003688,-0.00008071,0.00002687,0.00000359,0.00000155,-0.000
 00377,-0.00001293,-0.00000115,-0.00000068,-0.00001028,-0.00000021,0.00
 000444,-0.00000239,-0.00000531,0.00000668,-0.00000598,-0.00000213,-0.0
 0000219,-0.00000105,-0.00000463,0.00000463,0.00000016,-0.00000033,0.00
 000476,-0.00000094,-0.00000063,-0.00000054,-0.00000151,0.00000632,0.00
 000289,-0.00000391,-0.00000189,0.00000212,0.00000281,0.00000073,-0.000
 00148,-0.00000332,-0.00000104,-0.00000317,-0.00000157,-0.00000946,0.00
 000905,-0.00000879,0.00004786,0.00000642,0.00019462,0.00009622,-0.0001
 5781,0.00000678,-0.00024621,-0.00001101,-0.00113582,-0.00039000,-0.000
 50400,0.00078182,-0.00126540,0.00089354,0.12157018,0.02487976,0.119654
 47,-0.05372944,-0.00291795,0.04629952,-0.00548150,-0.03009208,-0.00058
 305,0.00396866,0.00266888,0.00189061,0.00019984,-0.00001894,-0.0000578
 3,-0.00230826,-0.00059070,0.00046619,0.00032956,0.00039284,-0.00015026
 ,0.00007708,-0.00000073,-0.00003295,-0.00007058,0.00006177,-0.00005650
 ,0.00010589,-0.00001124,0.00004694,-0.00003653,0.00004529,0.00002811,-
 0.00001857,-0.00001713,-0.00002067,0.00003183,0.00002364,0.00001618,-0
 .00002375,-0.00002777,-0.00001798,0.00000359,-0.00000731,-0.00004217,0
 .00017481,-0.00002123,-0.00001834,-0.00014259,0.00028061,0.00001637,0.
 00151928,-0.00385411,-0.00003547,-0.00083141,0.00292464,0.00000226,0.0
 0138044,-0.00302648,0.00008804,-0.00188420,0.00053739,-0.00068946,0.00
 001279,0.00088234,0.00013009,-0.00050429,0.00011687,-0.00018018,-0.000
 84060,-0.00186885,-0.00026977,-0.00414380,0.00785384,-0.00098880,-0.00
 374148,-0.00425216,0.00635594,-0.00421503,0.01176053,-0.02583640,-0.05
 333373,0.04466056,0.01616798,0.00362721,0.00058258,0.00315695,0.000235
 07,-0.00004780,-0.00004720,-0.00016491,-0.00010197,0.00024757,0.000169
 74,-0.00000808,-0.00004195,0.00008277,-0.00001909,-0.00002329,-0.00003
 658,-0.00005299,0.00010275,0.00008294,-0.00001141,-0.00005479,-0.00007
 481,-0.00003655,0.00001166,-0.00003324,0.00002005,0.00004524,0.0000589
 0,-0.00002145,-0.00003179,-0.00002653,0.00002333,0.00000768,-0.0000363
 3,0.00001314,-0.00000767,0.00032748,-0.00031693,0.00028586,-0.00227220
 ,0.00072675,-0.00032693,0.00153889,0.00152892,-0.00327430,-0.00076322,
 -0.00114063,0.00257165,0.00144192,0.00131895,-0.00262484,-0.00186793,-
 0.00078360,0.00016301,-0.00001962,-0.00025861,0.00080160,-0.00058514,-
 0.00027665,0.00006029,-0.00089693,0.00097123,-0.00193408,-0.00002635,0
 .00061342,-0.00133144,-0.00002404,0.00002777,0.00000913,0.00001685,0.0
 0000968,0.00000344,0.00000759,-0.00000406,-0.00000320,0.00000428,-0.00
 001360,0.00000303,0.00000155,-0.00000347,-0.00000313,0.00000073,0.0000
 0125,0.00000649,0.00000999,0.00000308,0.00000060,0.00000908,0.00000337
 ,0.00001543,-0.00000143,0.00000003,-0.00000786,0.00000509,-0.00000303,
 0.00001752,-0.00000259,-0.00001344,-0.00001539,0.00000381,0.00001019,-
 0.00002102,0.00011632,0.00002572,-0.00007500,-0.00003473,0.00005446,0.
 00008858,-0.00004341,-0.00002647,-0.00003192,-0.00000980,-0.00001067,-
 0.00000483,0.00007905,-0.00002645,0.00001463,0.00010765,-0.00016706,0.
 00003185,0.00010916,-0.00008061,-0.00001109,0.00001504,-0.00001768,0.0
 0000048,0.00003660,-0.00000065,-0.00000835,-0.00000527,-0.00000002,-0.
 00000804,0.00003685,0.00001417,-0.00000557,0.00000793,0.00000763,-0.00
 000858,-0.00000017,-0.00000030,-0.00000663,0.00000350,0.00000380,-0.00
 000246,0.00000312,-0.00001309,-0.00000380,0.00000989,0.00000446,-0.000
 00313,-0.00000137,-0.00000078,0.00000557,0.00000895,0.00000260,0.00000
 468,-0.00002118,-0.00000482,0.00002314,-0.00004611,-0.00144352,-0.0000
 4385,-0.00002647,0.00002973,0.00007451,-0.00003985,-0.00002386,-0.0000
 3965,-0.00000804,-0.00000070,-0.00001298,0.00007843,0.00002444,-0.0000
 1683,0.00013284,0.00008366,-0.00014076,0.12220100,-0.01288539,0.002583
 51,0.01304428,-0.01424404,-0.02537198,0.00384537,0.00187827,0.00185493
 ,0.00039274,-0.00076207,0.00060800,-0.00038530,-0.00000933,-0.00036180
 ,0.00003979,-0.00003043,0.00015948,-0.00017360,0.00009628,-0.00006340,
 0.00006799,-0.00006076,0.00011493,-0.00010206,0.00008064,-0.00010520,0
 .00006039,-0.00005431,0.00007635,0.00002047,-0.00000899,0.00003794,-0.
 00001563,0.00005620,-0.00004825,-0.00000262,-0.00005564,0.00001516,-0.
 00000400,-0.00001085,0.00003520,-0.00004383,0.00003029,-0.00003341,-0.
 00002109,0.00004295,-0.00011417,0.00015196,0.00094684,-0.00207843,0.00
 018265,0.00012701,0.00141583,0.00033598,0.00048670,-0.00164786,-0.0001
 3186,-0.00097488,0.00042053,-0.00032243,-0.00016470,0.00045322,0.00032
 780,-0.00006993,0.00031153,-0.00036825,-0.00074959,-0.00228837,-0.0010
 7145,-0.00253228,0.00184500,0.00444728,0.00379810,-0.00018746,-0.00607
 410,0.01092142,-0.01556843,0.02831865,0.04342850,-0.03628151,-0.012697
 61,-0.00372435,0.00062123,-0.00473638,0.00141066,0.00081726,-0.0005703
 2,-0.00016254,-0.00037537,0.00009067,0.00004379,0.00003199,-0.00000959
 ,-0.00004483,0.00001234,-0.00001410,0.00002352,0.00003591,0.00005147,0
 .00003535,-0.00008015,-0.00001939,0.00000703,0.00001889,-0.00001752,0.
 00003278,0.00006722,0.00000309,-0.00001100,-0.00004027,-0.00000497,-0.
 00000879,0.00002384,0.00000088,-0.00000328,0.00008834,-0.00000825,0.00
 041513,-0.00014458,-0.00001727,-0.00122771,0.00020005,0.00005933,-0.00
 190373,-0.00177919,0.00242959,0.00006522,0.00061062,-0.00224711,-0.000
 97454,-0.00097957,0.00215831,0.00140329,0.00060805,-0.00025680,0.00025
 487,-0.00006198,-0.00067709,0.00041261,0.00058747,-0.00026649,0.001184
 30,-0.00040561,0.00316737,-0.00039200,0.00039077,-0.00022778,0.0000932
 3,-0.00010453,0.00007799,0.00001662,-0.00003733,0.00005005,0.00006276,
 -0.00002157,-0.00000149,0.00000304,-0.00003343,0.00001191,0.00000465,-
 0.00000447,-0.00000805,-0.00000264,-0.00000513,0.00000927,0.00001234,-
 0.00000004,-0.00000159,0.00000749,-0.00000054,0.00000514,-0.00000174,-
 0.00001244,0.00000295,0.00000916,-0.00001911,0.00001932,0.00000541,-0.
 00000937,-0.00002138,0.00002047,-0.00001167,-0.00000663,-0.00005246,0.
 00000064,0.00002210,-0.00000731,0.00016365,0.00018870,0.00002264,-0.00
 000525,-0.00001400,0.00000368,0.00004224,-0.00005494,0.00000123,0.0000
 4453,0.00002535,0.00001212,0.00007175,-0.00015668,0.00011316,-0.000025
 09,0.00002980,-0.00000776,-0.00001129,0.00002516,0.00000925,0.00000453
 ,-0.00000504,-0.00000591,-0.00002964,0.00001425,-0.00000614,0.00002454
 ,-0.00000297,-0.00002194,-0.00003016,0.00001267,0.00000055,0.00000262,
 0.00000052,-0.00000180,-0.00003620,0.00000112,0.00000435,-0.00001415,-
 0.00000587,-0.00000438,-0.00000251,0.00000194,-0.00000284,-0.00000480,
 0.00000212,-0.00001345,-0.00003581,0.00000793,-0.00010778,-0.00005056,
 0.00007518,0.00059763,0.00005393,0.00004494,-0.00004765,-0.00000341,-0
 .00038339,-0.00001734,0.00003290,0.00001623,-0.00001136,0.00007704,0.0
 0000014,-0.00003712,0.00000110,-0.00003339,-0.00008910,0.00014448,0.00
 008494,-0.02667688,0.07381596,0.03991327,0.00580872,-0.03254503,0.0064
 0476,0.02154444,0.00027436,-0.00285164,-0.00390410,-0.00114513,0.00119
 262,-0.00070713,0.00039562,-0.00145563,-0.00021866,0.00020546,0.000438
 01,0.00011403,-0.00024259,-0.00001461,-0.00003465,0.00003999,0.0000023
 2,0.00001866,0.00003278,0.00006393,-0.00001155,-0.00005077,-0.00002744
 ,0.00001043,0.00002461,-0.00000634,0.00000813,0.00000682,0.00003666,-0
 .00001395,-0.00002065,-0.00003616,0.00000117,0.00001674,-0.00001518,0.
 00000852,0.00004057,0.00005867,-0.00002648,0.00000378,-0.00013899,0.00
 025539,-0.00025630,-0.00125792,0.00174930,-0.00051197,-0.00010684,-0.0
 0136915,-0.00031985,-0.00042795,0.00129746,0.00003535,0.00068046,-0.00
 036392,0.00019788,0.00020057,-0.00025499,-0.00022011,0.00023408,-0.000
 46926,0.00019270,0.00099530,0.00189332,0.00083233,0.00215060,-0.004318
 98,-0.00151483,-0.00177950,0.00257627,0.00138612,-0.00931048,0.0097483
 1,-0.01135559,0.00492184,-0.00444454,0.00433764,0.00066236,0.00005407,
 0.00005102,-0.00014247,-0.00022713,0.00012876,-0.00002552,0.00000917,0
 .00004092,0.00005078,-0.00000340,-0.00004101,0.00011113,0.00008959,-0.
 00006187,-0.00010448,-0.00001972,0.00019713,0.00000076,-0.00001439,-0.
 00021136,0.00015344,-0.00004819,0.00008155,0.00011048,0.00002789,0.000
 03131,-0.00011909,0.00000882,-0.00008595,0.00003826,-0.00001139,0.0000
 9793,-0.00002534,0.00000671,-0.00003091,0.00015441,-0.00032689,0.00005
 740,-0.00070057,0.00033626,-0.00031798,0.00050491,0.00057147,-0.001304
 26,-0.00008754,-0.00027838,0.00089314,0.00047230,0.00045274,-0.0011133
 7,-0.00079832,-0.00033975,0.00005987,-0.00005402,0.00000818,0.00044788
 ,-0.00004772,-0.00026981,-0.00011140,-0.00018751,0.00014535,-0.0014111
 4,0.00047847,0.00019765,-0.00000661,-0.00007615,0.00006297,0.00001883,
 -0.00000180,0.00002356,-0.00001497,0.00001562,-0.00000513,-0.00001248,
 0.00000324,-0.00000513,0.00000078,0.00000779,-0.00000204,-0.00001189,-
 0.00000254,-0.00000056,-0.00000519,0.00000629,-0.00000150,-0.00000106,
 -0.00000157,-0.00000055,-0.00000812,0.00000203,0.00000323,-0.00000021,
 -0.00000489,0.00001505,-0.00001608,0.00000272,-0.00000951,0.00001240,0
 .00000212,0.00002269,0.00000221,0.00011375,0.00004167,-0.00000524,-0.0
 0006617,-0.00030860,-0.00012785,-0.00002284,-0.00000241,0.00002053,-0.
 00001198,-0.00002476,0.00005296,-0.00001883,-0.00003301,0.00000540,-0.
 00004495,-0.00001849,0.00012677,0.00001015,0.00000288,0.00002018,0.000
 02954,-0.00000143,-0.00000079,0.00002374,0.00001196,-0.00003411,0.0000
 1763,0.00001281,-0.00001077,-0.00004337,-0.00000267,0.00004692,-0.0000
 0620,0.00001677,-0.00001003,0.00000524,0.00001020,-0.00004138,-0.00000
 196,-0.00002808,0.00001493,0.00000068,0.00000052,-0.00001577,-0.000006
 60,0.00000116,-0.00001439,-0.00002474,-0.00000022,-0.00000866,0.000009
 43,0.00000087,0.00001741,0.00005315,0.00008897,-0.00002077,-0.00015179
 ,-0.00039041,0.00029237,-0.00003608,0.00008438,0.00004524,0.00000145,-
 0.00000638,-0.00001017,-0.00000269,-0.00003063,0.00000916,0.00000533,0
 .00002244,0.00002452,0.00001557,-0.00007281,-0.00001579,-0.04010941,-0
 .02874344,0.04244408\\-0.00000137,0.00000026,-0.00000585,-0.00000101,-
 0.00000080,0.00000217,-0.00000299,0.00000704,0.00000141,0.00000816,-0.
 00000112,-0.00000086,-0.00000051,0.00000073,0.00000003,-0.00000218,-0.
 00000116,0.00000024,0.00000319,0.00000470,-0.00000158,-0.00000573,-0.0
 0000611,0.00000043,0.00000254,0.00000314,-0.00000406,0.00000527,-0.000
 00502,0.00000236,0.00000114,-0.00000586,-0.00000113,-0.00001086,0.0000
 0589,0.00000307,0.00001233,-0.00000488,-0.00000629,-0.00000518,0.00000
 297,0.00000342,-0.00000019,-0.00000137,0.00000134,-0.00000441,-0.00000
 079,-0.00000108,0.00000338,-0.00000287,0.00000248,-0.00000503,0.000000
 11,-0.00000281,0.00000061,0.00000029,0.00000012,0.00000060,-0.00000011
 ,0.00000027,-0.00000053,-0.00000009,-0.00000053,0.00000044,-0.00000156
 ,-0.00000036,0.00000339,0.00000358,0.00000116,-0.00000257,-0.00000456,
 -0.00000331,0.00000033,-0.00000079,0.00000318,-0.00000191,0.00000556,0
 .00000343,0.00000333,-0.00000441,-0.00001127,0.00000103,0.,-0.00000043
 ,-0.00000114,0.00000038,0.00000095,0.00000128,0.00000022,0.00000011,-0
 .00000050,-0.00000032,0.00000077,-0.00000003,0.00000160,-0.00000117,0.
 00000270,-0.00000359,0.00000505,0.00000513,0.00000367,-0.00000433,-0.0
 0000508,0.00000045,-0.00000498,-0.00000422,-0.00000106,-0.00000032,0.0
 0000420,0.00000082,0.00001061,-0.00000754,0.00000377,-0.00001177,0.000
 00096,-0.00000301,0.00000346,-0.00000009,-0.00000086,0.00000037,-0.000
 00031,0.00000041,-0.00000060,-0.00000113,-0.00000134,-0.00000068,0.000
 00350,0.00000105,0.00000242,-0.00000022,0.00000035,-0.00000233,-0.0000
 0270,-0.00000145,-0.00000079,0.00000142,-0.00000032,0.00000193,-0.0000
 0026,-0.00000010,0.00000003,-0.00000191,-0.00000018,-0.00000171,-0.000
 00107,-0.00000023,0.00000095,0.00000006,-0.00000019,0.00000047,0.00000
 106,0.00000195,0.00000101,0.00000041,0.00000100,0.00000111,-0.00000039
 ,0.00000180,-0.00000049,0.00000091,0.00000095,0.00000095,0.00000044,0.
 00000072,-0.00000102,-0.00000008,0.00000017,0.00000017,-0.00000121,0.0
 0000095,0.00000228,-0.00000126,0.00000161,0.00000170,-0.00000010,0.000
 00082,-0.00000020,-0.00000018,-0.00000014,-0.00000030,0.00000041,-0.00
 000109,0.00000075,-0.00000055,0.00000071,0.00000063,0.00000051,-0.0000
 0050,-0.00000078,0.,0.00000008,-0.00000039,-0.00000018,0.00000030,-0.0
 0000049,-0.00000013,0.00000002,-0.00000010,-0.00000034,0.00000013,-0.0
 0000017,0.,-0.00000009,-0.00000041,-0.00000003,-0.00000011,-0.00000015
 ,-0.00000047,-0.00000012,0.00000030,-0.00000025,0.00000001,-0.00000029
 ,0.00000113,0.00000012,-0.00000040,0.00000005,0.00000061,0.00000059,0.
 00000165,-0.00000010,-0.00000032,0.00000122,0.00000037,0.00000194,0.00
 000269,-0.00000183,0.00000300,0.00000050,0.00000039,-0.00000078,-0.000
 00168,0.00000096,0.00000088,-0.00000084,-0.00000052,-0.00000216,-0.000
 00032,-0.00000009,0.00000017,0.00000049,-0.00000050,-0.00000043,-0.000
 00038,0.00000014,0.00000038,0.00000007,-0.00000033,0.00000016,0.000000
 62,0.00000002,-0.00000024,0.00000015,-0.00000028,-0.00000044,0.0000005
 5,0.00000008,-0.00000046,0.00000114,-0.00000106,0.00001001\\\@
 The archive entry for this job was punched.


 WERE I TO AWAIT PERFECTION, MY BOOK WOULD NEVER BE FINISHED.
                                    -- HISTORY OF CHINESE WRITING

                                       TAI T'UNG, 13TH CENTURY
 Job cpu time:       1 days 10 hours  4 minutes 29.1 seconds.
 Elapsed time:       0 days  1 hours  4 minutes 11.4 seconds.
 File lengths (MBytes):  RWF=  11359 Int=      0 D2E=      0 Chk=     71 Scr=      1
 Normal termination of Gaussian 16 at Tue Dec 10 16:43:58 2024.
