 Entering Gaussian System, Link 0=g16
 Initial command:
 /public/software/apps/Gaussian/g16/l1.exe "/tmp/Gau-93583.inp" -scrdir="/tmp/"
 Entering Link 1 = /public/software/apps/Gaussian/g16/l1.exe PID=     93584.
  
 Copyright (c) 1988-2019, Gaussian, Inc.  All Rights Reserved.
  
 This is part of the Gaussian(R) 16 program.  It is based on
 the Gaussian(R) 09 system (copyright 2009, Gaussian, Inc.),
 the Gaussian(R) 03 system (copyright 2003, Gaussian, Inc.),
 the Gaussian(R) 98 system (copyright 1998, Gaussian, Inc.),
 the Gaussian(R) 94 system (copyright 1995, Gaussian, Inc.),
 the Gaussian 92(TM) system (copyright 1992, Gaussian, Inc.),
 the Gaussian 90(TM) system (copyright 1990, Gaussian, Inc.),
 the Gaussian 88(TM) system (copyright 1988, Gaussian, Inc.),
 the Gaussian 86(TM) system (copyright 1986, Carnegie Mellon
 University), and the Gaussian 82(TM) system (copyright 1983,
 Carnegie Mellon University). Gaussian is a federally registered
 trademark of Gaussian, Inc.
  
 This software contains proprietary and confidential information,
 including trade secrets, belonging to Gaussian, Inc.
  
 This software is provided under written license and may be
 used, copied, transmitted, or stored only in accord with that
 written license.
  
 The following legend is applicable only to US Government
 contracts under FAR:
  
                    RESTRICTED RIGHTS LEGEND
  
 Use, reproduction and disclosure by the US Government is
 subject to restrictions as set forth in subparagraphs (a)
 and (c) of the Commercial Computer Software - Restricted
 Rights clause in FAR 52.227-19.
  
 Gaussian, Inc.
 340 Quinnipiac St., Bldg. 40, Wallingford CT 06492
  
  
 ---------------------------------------------------------------
 Warning -- This program may not be used in any manner that
 competes with the business of Gaussian, Inc. or will provide
 assistance to any competitor of Gaussian, Inc.  The licensee
 of this program is prohibited from giving any competitor of
 Gaussian, Inc. access to this program.  By using this program,
 the user acknowledges that Gaussian, Inc. is engaged in the
 business of creating and licensing software in the field of
 computational chemistry and represents and warrants to the
 licensee that it is not a competitor of Gaussian, Inc. and that
 it will not use this program in any manner prohibited above.
 ---------------------------------------------------------------
  

 Cite this work as:
 Gaussian 16, Revision C.01,
 M. J. Frisch, G. W. Trucks, H. B. Schlegel, G. E. Scuseria, 
 M. A. Robb, J. R. Cheeseman, G. Scalmani, V. Barone, 
 G. A. Petersson, H. Nakatsuji, X. Li, M. Caricato, A. V. Marenich, 
 J. Bloino, B. G. Janesko, R. Gomperts, B. Mennucci, H. P. Hratchian, 
 J. V. Ortiz, A. F. Izmaylov, J. L. Sonnenberg, D. Williams-Young, 
 F. Ding, F. Lipparini, F. Egidi, J. Goings, B. Peng, A. Petrone, 
 T. Henderson, D. Ranasinghe, V. G. Zakrzewski, J. Gao, N. Rega, 
 G. Zheng, W. Liang, M. Hada, M. Ehara, K. Toyota, R. Fukuda, 
 J. Hasegawa, M. Ishida, T. Nakajima, Y. Honda, O. Kitao, H. Nakai, 
 T. Vreven, K. Throssell, J. A. Montgomery, Jr., J. E. Peralta, 
 F. Ogliaro, M. J. Bearpark, J. J. Heyd, E. N. Brothers, K. N. Kudin, 
 V. N. Staroverov, T. A. Keith, R. Kobayashi, J. Normand, 
 K. Raghavachari, A. P. Rendell, J. C. Burant, S. S. Iyengar, 
 J. Tomasi, M. Cossi, J. M. Millam, M. Klene, C. Adamo, R. Cammi, 
 J. W. Ochterski, R. L. Martin, K. Morokuma, O. Farkas, 
 J. B. Foresman, and D. J. Fox, Gaussian, Inc., Wallingford CT, 2019.
 
 ******************************************
 Gaussian 16:  ES64L-G16RevC.01  3-Jul-2019
                 7-Feb-2025 
 ******************************************
 %nprocshared=32
 Will use up to   32 processors via shared memory.
 %mem=100GB
 ------------------------------------------
 #p opt freq b3lyp/def2svpp em=gd3bj nosymm
 ------------------------------------------
 1/18=20,19=15,26=3,38=1/1,3;
 2/9=110,12=2,15=1,17=6,18=5,40=1/2;
 3/5=43,7=202,11=2,25=1,30=1,71=1,74=-5,124=41/1,2,3;
 4//1;
 5/5=2,38=5/2;
 6/7=2,8=2,9=2,10=2,28=1/1;
 7/30=1/1,2,3,16;
 1/18=20,19=15,26=3/3(2);
 2/9=110,15=1/2;
 99//99;
 2/9=110,15=1/2;
 3/5=43,7=202,11=2,25=1,30=1,71=1,74=-5,124=41/1,2,3;
 4/5=5,16=3,69=1/1;
 5/5=2,38=5/2;
 7/30=1/1,2,3,16;
 1/18=20,19=15,26=3/3(-5);
 2/9=110,15=1/2;
 6/7=2,8=2,9=2,10=2,19=2,28=1/1;
 99/9=1/99;
 Leave Link    1 at Fri Feb  7 12:09:43 2025, MaxMem= 13421772800 cpu:               1.2 elap:               0.0
 (Enter /public/software/apps/Gaussian/g16/l101.exe)
 ------------------
 $$$$Title####0????
 ------------------
 Symbolic Z-matrix:
 Charge =  0 Multiplicity = 2
 C                    -4.20603  -0.78134   1.64939 
 O                    -5.08955   0.19363   1.10183 
 C                    -4.71083   1.47903   0.67189 
 C                    -5.61094   2.54054   0.90447 
 C                    -6.93144   2.28019   1.57489 
 C                    -5.24798   3.85414   0.5705 
 C                    -4.01356   4.11622  -0.01992 
 C                    -3.13559   3.07094  -0.29846 
 C                    -3.47409   1.74865   0.02717 
 C                    -2.56093   0.67538  -0.40816 
 C                    -2.93886  -0.16358  -1.46273 
 C                    -2.08172  -1.17822  -1.90614 
 C                    -2.46572  -2.00481  -2.97407 
 C                    -1.60967  -3.00785  -3.43082 
 C                    -0.36388  -3.19217  -2.83142 
 C                     0.0323   -2.37998  -1.76651 
 C                    -0.82318  -1.36828  -1.27927 
 C                    -0.45368  -0.53279  -0.19456 
 C                     0.83044  -0.71669   0.53103 
 C                     1.84279   0.24392   0.36053 
 O                     1.59074   1.37623  -0.41107 
 C                     3.09693   0.0771    0.97345 
 C                     4.19013   1.04959   0.7455 
 C                     4.76869   1.69407   1.85064 
 C                     5.75878   2.65922   1.66881 
 C                     6.17842   2.99978   0.38326 
 C                     5.61617   2.36883  -0.73683 
 C                     6.09922   2.7182   -2.11646 
 C                     4.64166   1.36665  -0.5586 
 O                     4.13357   0.7092   -1.68683 
 C                     4.35102  -0.67702  -1.92835 
 C                     3.31881  -1.02731   1.80619 
 C                     2.30843  -1.97188   2.0244 
 C                     2.54256  -3.06745   2.87092 
 C                     1.53643  -4.00666   3.10139 
 C                     0.28924  -3.86012   2.49467 
 C                     0.04103  -2.77745   1.64803 
 C                     1.04862  -1.82274   1.39037 
 C                    -1.3128    0.50403   0.20979 
 O                    -0.92461   1.36127   1.23693 
 H                    -3.43266  -0.29581   2.282 
 H                    -3.73372  -1.37811   0.84468 
 H                    -4.79171  -1.47774   2.28334 
 H                    -6.76075   2.01293   2.63886 
 H                    -7.59261   3.17199   1.53405 
 H                    -7.45613   1.44277   1.06822 
 H                    -5.92024   4.67931   0.77085 
 H                    -3.74283   5.13205  -0.27768 
 H                    -2.19587   3.28977  -0.79172 
 H                    -3.90193  -0.01826  -1.94007 
 H                    -3.42638  -1.87264  -3.45776 
 H                    -1.91071  -3.64071  -4.25568 
 H                     0.29938  -3.96656  -3.19478 
 H                     1.01083  -2.54712  -1.33583 
 H                     4.43785   1.46213   2.85583 
 H                     6.19575   3.15237   2.52757 
 H                     6.94553   3.75474   0.26292 
 H                     6.69311   1.8742   -2.52581 
 H                     6.73494   3.62913  -2.10708 
 H                     5.23307   2.91154  -2.78404 
 H                     3.8412   -1.30037  -1.16762 
 H                     5.43968  -0.89579  -1.91942 
 H                     3.94178  -0.93841  -2.92546 
 H                     4.28693  -1.15305   2.27876 
 H                     3.50259  -3.1954    3.35697 
 H                     1.72255  -4.848     3.75641 
 H                    -0.49008  -4.58739   2.68276 
 H                    -0.94285  -2.69291   1.20553 
 Cu                    0.43638   2.61476   0.58193 
 
 ITRead=  0  0  0  0  0  0  0  0  0  0  0  0  0  0  0  0  0  0  0  0
 ITRead=  0  0  0  0  0  0  0  0  0  0  0  0  0  0  0  0  0  0  0  0
 ITRead=  0  0  0  0  0  0  0  0  0  0  0  0  0  0  0  0  0  0  0  0
 ITRead=  0  0  0  0  0  0  0  0  0
 MicOpt= -1 -1 -1 -1 -1 -1 -1 -1 -1 -1 -1 -1 -1 -1 -1 -1 -1 -1 -1 -1
 MicOpt= -1 -1 -1 -1 -1 -1 -1 -1 -1 -1 -1 -1 -1 -1 -1 -1 -1 -1 -1 -1
 MicOpt= -1 -1 -1 -1 -1 -1 -1 -1 -1 -1 -1 -1 -1 -1 -1 -1 -1 -1 -1 -1
 MicOpt= -1 -1 -1 -1 -1 -1 -1 -1 -1
 NAtoms=     69 NQM=       69 NQMF=       0 NMMI=      0 NMMIF=      0
                NMic=       0 NMicF=      0.
                    Isotopes and Nuclear Properties:
 (Nuclear quadrupole moments (NQMom) in fm**2, nuclear magnetic moments (NMagM)
  in nuclear magnetons)

  Atom         1           2           3           4           5           6           7           8           9          10
 IAtWgt=          12          16          12          12          12          12          12          12          12          12
 AtmWgt=  12.0000000  15.9949146  12.0000000  12.0000000  12.0000000  12.0000000  12.0000000  12.0000000  12.0000000  12.0000000
 NucSpn=           0           0           0           0           0           0           0           0           0           0
 AtZEff=  -0.0000000  -0.0000000  -0.0000000  -0.0000000  -0.0000000  -0.0000000  -0.0000000  -0.0000000  -0.0000000  -0.0000000
 NQMom=    0.0000000   0.0000000   0.0000000   0.0000000   0.0000000   0.0000000   0.0000000   0.0000000   0.0000000   0.0000000
 NMagM=    0.0000000   0.0000000   0.0000000   0.0000000   0.0000000   0.0000000   0.0000000   0.0000000   0.0000000   0.0000000
 AtZNuc=   6.0000000   8.0000000   6.0000000   6.0000000   6.0000000   6.0000000   6.0000000   6.0000000   6.0000000   6.0000000

  Atom        11          12          13          14          15          16          17          18          19          20
 IAtWgt=          12          12          12          12          12          12          12          12          12          12
 AtmWgt=  12.0000000  12.0000000  12.0000000  12.0000000  12.0000000  12.0000000  12.0000000  12.0000000  12.0000000  12.0000000
 NucSpn=           0           0           0           0           0           0           0           0           0           0
 AtZEff=  -0.0000000  -0.0000000  -0.0000000  -0.0000000  -0.0000000  -0.0000000  -0.0000000  -0.0000000  -0.0000000  -0.0000000
 NQMom=    0.0000000   0.0000000   0.0000000   0.0000000   0.0000000   0.0000000   0.0000000   0.0000000   0.0000000   0.0000000
 NMagM=    0.0000000   0.0000000   0.0000000   0.0000000   0.0000000   0.0000000   0.0000000   0.0000000   0.0000000   0.0000000
 AtZNuc=   6.0000000   6.0000000   6.0000000   6.0000000   6.0000000   6.0000000   6.0000000   6.0000000   6.0000000   6.0000000

  Atom        21          22          23          24          25          26          27          28          29          30
 IAtWgt=          16          12          12          12          12          12          12          12          12          16
 AtmWgt=  15.9949146  12.0000000  12.0000000  12.0000000  12.0000000  12.0000000  12.0000000  12.0000000  12.0000000  15.9949146
 NucSpn=           0           0           0           0           0           0           0           0           0           0
 AtZEff=  -0.0000000  -0.0000000  -0.0000000  -0.0000000  -0.0000000  -0.0000000  -0.0000000  -0.0000000  -0.0000000  -0.0000000
 NQMom=    0.0000000   0.0000000   0.0000000   0.0000000   0.0000000   0.0000000   0.0000000   0.0000000   0.0000000   0.0000000
 NMagM=    0.0000000   0.0000000   0.0000000   0.0000000   0.0000000   0.0000000   0.0000000   0.0000000   0.0000000   0.0000000
 AtZNuc=   8.0000000   6.0000000   6.0000000   6.0000000   6.0000000   6.0000000   6.0000000   6.0000000   6.0000000   8.0000000

  Atom        31          32          33          34          35          36          37          38          39          40
 IAtWgt=          12          12          12          12          12          12          12          12          12          16
 AtmWgt=  12.0000000  12.0000000  12.0000000  12.0000000  12.0000000  12.0000000  12.0000000  12.0000000  12.0000000  15.9949146
 NucSpn=           0           0           0           0           0           0           0           0           0           0
 AtZEff=  -0.0000000  -0.0000000  -0.0000000  -0.0000000  -0.0000000  -0.0000000  -0.0000000  -0.0000000  -0.0000000  -0.0000000
 NQMom=    0.0000000   0.0000000   0.0000000   0.0000000   0.0000000   0.0000000   0.0000000   0.0000000   0.0000000   0.0000000
 NMagM=    0.0000000   0.0000000   0.0000000   0.0000000   0.0000000   0.0000000   0.0000000   0.0000000   0.0000000   0.0000000
 AtZNuc=   6.0000000   6.0000000   6.0000000   6.0000000   6.0000000   6.0000000   6.0000000   6.0000000   6.0000000   8.0000000

  Atom        41          42          43          44          45          46          47          48          49          50
 IAtWgt=           1           1           1           1           1           1           1           1           1           1
 AtmWgt=   1.0078250   1.0078250   1.0078250   1.0078250   1.0078250   1.0078250   1.0078250   1.0078250   1.0078250   1.0078250
 NucSpn=           1           1           1           1           1           1           1           1           1           1
 AtZEff=  -0.0000000  -0.0000000  -0.0000000  -0.0000000  -0.0000000  -0.0000000  -0.0000000  -0.0000000  -0.0000000  -0.0000000
 NQMom=    0.0000000   0.0000000   0.0000000   0.0000000   0.0000000   0.0000000   0.0000000   0.0000000   0.0000000   0.0000000
 NMagM=    2.7928460   2.7928460   2.7928460   2.7928460   2.7928460   2.7928460   2.7928460   2.7928460   2.7928460   2.7928460
 AtZNuc=   1.0000000   1.0000000   1.0000000   1.0000000   1.0000000   1.0000000   1.0000000   1.0000000   1.0000000   1.0000000

  Atom        51          52          53          54          55          56          57          58          59          60
 IAtWgt=           1           1           1           1           1           1           1           1           1           1
 AtmWgt=   1.0078250   1.0078250   1.0078250   1.0078250   1.0078250   1.0078250   1.0078250   1.0078250   1.0078250   1.0078250
 NucSpn=           1           1           1           1           1           1           1           1           1           1
 AtZEff=  -0.0000000  -0.0000000  -0.0000000  -0.0000000  -0.0000000  -0.0000000  -0.0000000  -0.0000000  -0.0000000  -0.0000000
 NQMom=    0.0000000   0.0000000   0.0000000   0.0000000   0.0000000   0.0000000   0.0000000   0.0000000   0.0000000   0.0000000
 NMagM=    2.7928460   2.7928460   2.7928460   2.7928460   2.7928460   2.7928460   2.7928460   2.7928460   2.7928460   2.7928460
 AtZNuc=   1.0000000   1.0000000   1.0000000   1.0000000   1.0000000   1.0000000   1.0000000   1.0000000   1.0000000   1.0000000

  Atom        61          62          63          64          65          66          67          68          69
 IAtWgt=           1           1           1           1           1           1           1           1          63
 AtmWgt=   1.0078250   1.0078250   1.0078250   1.0078250   1.0078250   1.0078250   1.0078250   1.0078250  62.9295992
 NucSpn=           1           1           1           1           1           1           1           1           3
 AtZEff=  -0.0000000  -0.0000000  -0.0000000  -0.0000000  -0.0000000  -0.0000000  -0.0000000  -0.0000000  -0.0000000
 NQMom=    0.0000000   0.0000000   0.0000000   0.0000000   0.0000000   0.0000000   0.0000000   0.0000000 -22.0000000
 NMagM=    2.7928460   2.7928460   2.7928460   2.7928460   2.7928460   2.7928460   2.7928460   2.7928460   2.2233000
 AtZNuc=   1.0000000   1.0000000   1.0000000   1.0000000   1.0000000   1.0000000   1.0000000   1.0000000  29.0000000
 Leave Link  101 at Fri Feb  7 12:09:43 2025, MaxMem= 13421772800 cpu:               3.1 elap:               0.1
 (Enter /public/software/apps/Gaussian/g16/l103.exe)

 GradGradGradGradGradGradGradGradGradGradGradGradGradGradGradGradGradGrad
 Berny optimization.
 Initialization pass.
                           ----------------------------
                           !    Initial Parameters    !
                           ! (Angstroms and Degrees)  !
 --------------------------                            --------------------------
 ! Name  Definition              Value          Derivative Info.                !
 --------------------------------------------------------------------------------
 ! R1    R(1,2)                  1.4251         estimate D2E/DX2                !
 ! R2    R(1,41)                 1.1109         estimate D2E/DX2                !
 ! R3    R(1,42)                 1.1076         estimate D2E/DX2                !
 ! R4    R(1,43)                 1.109          estimate D2E/DX2                !
 ! R5    R(2,3)                  1.4073         estimate D2E/DX2                !
 ! R6    R(3,4)                  1.4111         estimate D2E/DX2                !
 ! R7    R(3,9)                  1.4205         estimate D2E/DX2                !
 ! R8    R(4,5)                  1.5037         estimate D2E/DX2                !
 ! R9    R(4,6)                  1.4031         estimate D2E/DX2                !
 ! R10   R(5,44)                 1.1102         estimate D2E/DX2                !
 ! R11   R(5,45)                 1.1109         estimate D2E/DX2                !
 ! R12   R(5,46)                 1.1105         estimate D2E/DX2                !
 ! R13   R(6,7)                  1.3932         estimate D2E/DX2                !
 ! R14   R(6,47)                 1.083          estimate D2E/DX2                !
 ! R15   R(7,8)                  1.3932         estimate D2E/DX2                !
 ! R16   R(7,48)                 1.0824         estimate D2E/DX2                !
 ! R17   R(8,9)                  1.4032         estimate D2E/DX2                !
 ! R18   R(8,49)                 1.0836         estimate D2E/DX2                !
 ! R19   R(9,10)                 1.4749         estimate D2E/DX2                !
 ! R20   R(10,11)                1.3996         estimate D2E/DX2                !
 ! R21   R(10,39)                1.4032         estimate D2E/DX2                !
 ! R22   R(11,12)                1.4003         estimate D2E/DX2                !
 ! R23   R(11,50)                1.0846         estimate D2E/DX2                !
 ! R24   R(12,13)                1.404          estimate D2E/DX2                !
 ! R25   R(12,17)                1.4188         estimate D2E/DX2                !
 ! R26   R(13,14)                1.3955         estimate D2E/DX2                !
 ! R27   R(13,51)                1.0836         estimate D2E/DX2                !
 ! R28   R(14,15)                1.3947         estimate D2E/DX2                !
 ! R29   R(14,52)                1.0824         estimate D2E/DX2                !
 ! R30   R(15,16)                1.3967         estimate D2E/DX2                !
 ! R31   R(15,53)                1.0824         estimate D2E/DX2                !
 ! R32   R(16,17)                1.4117         estimate D2E/DX2                !
 ! R33   R(16,54)                1.0821         estimate D2E/DX2                !
 ! R34   R(17,18)                1.4182         estimate D2E/DX2                !
 ! R35   R(18,19)                1.4864         estimate D2E/DX2                !
 ! R36   R(18,39)                1.4059         estimate D2E/DX2                !
 ! R37   R(19,20)                1.4059         estimate D2E/DX2                !
 ! R38   R(19,38)                1.4175         estimate D2E/DX2                !
 ! R39   R(20,21)                1.3932         estimate D2E/DX2                !
 ! R40   R(20,22)                1.4058         estimate D2E/DX2                !
 ! R41   R(21,69)                1.9628         estimate D2E/DX2                !
 ! R42   R(22,23)                1.4808         estimate D2E/DX2                !
 ! R43   R(22,32)                1.4009         estimate D2E/DX2                !
 ! R44   R(23,24)                1.4041         estimate D2E/DX2                !
 ! R45   R(23,29)                1.416          estimate D2E/DX2                !
 ! R46   R(24,25)                1.3946         estimate D2E/DX2                !
 ! R47   R(24,55)                1.0834         estimate D2E/DX2                !
 ! R48   R(25,26)                1.3945         estimate D2E/DX2                !
 ! R49   R(25,56)                1.0824         estimate D2E/DX2                !
 ! R50   R(26,27)                1.4031         estimate D2E/DX2                !
 ! R51   R(26,57)                1.083          estimate D2E/DX2                !
 ! R52   R(27,28)                1.5029         estimate D2E/DX2                !
 ! R53   R(27,29)                1.4092         estimate D2E/DX2                !
 ! R54   R(28,58)                1.1102         estimate D2E/DX2                !
 ! R55   R(28,59)                1.1109         estimate D2E/DX2                !
 ! R56   R(28,60)                1.1105         estimate D2E/DX2                !
 ! R57   R(29,30)                1.4012         estimate D2E/DX2                !
 ! R58   R(30,31)                1.4238         estimate D2E/DX2                !
 ! R59   R(31,61)                1.1078         estimate D2E/DX2                !
 ! R60   R(31,62)                1.1105         estimate D2E/DX2                !
 ! R61   R(31,63)                1.1091         estimate D2E/DX2                !
 ! R62   R(32,33)                1.4002         estimate D2E/DX2                !
 ! R63   R(32,64)                1.0846         estimate D2E/DX2                !
 ! R64   R(33,34)                1.4042         estimate D2E/DX2                !
 ! R65   R(33,38)                1.4182         estimate D2E/DX2                !
 ! R66   R(34,35)                1.3955         estimate D2E/DX2                !
 ! R67   R(34,65)                1.0836         estimate D2E/DX2                !
 ! R68   R(35,36)                1.3947         estimate D2E/DX2                !
 ! R69   R(35,66)                1.0824         estimate D2E/DX2                !
 ! R70   R(36,37)                1.3966         estimate D2E/DX2                !
 ! R71   R(36,67)                1.0824         estimate D2E/DX2                !
 ! R72   R(37,38)                1.4118         estimate D2E/DX2                !
 ! R73   R(37,68)                1.0821         estimate D2E/DX2                !
 ! R74   R(39,40)                1.393          estimate D2E/DX2                !
 ! R75   R(40,69)                1.9628         estimate D2E/DX2                !
 ! A1    A(2,1,41)             110.5727         estimate D2E/DX2                !
 ! A2    A(2,1,42)             110.7211         estimate D2E/DX2                !
 ! A3    A(2,1,43)             108.7736         estimate D2E/DX2                !
 ! A4    A(41,1,42)            110.6322         estimate D2E/DX2                !
 ! A5    A(41,1,43)            108.4565         estimate D2E/DX2                !
 ! A6    A(42,1,43)            107.5887         estimate D2E/DX2                !
 ! A7    A(1,2,3)              125.1281         estimate D2E/DX2                !
 ! A8    A(2,3,4)              117.7161         estimate D2E/DX2                !
 ! A9    A(2,3,9)              123.1141         estimate D2E/DX2                !
 ! A10   A(4,3,9)              119.1693         estimate D2E/DX2                !
 ! A11   A(3,4,5)              120.228          estimate D2E/DX2                !
 ! A12   A(3,4,6)              120.0017         estimate D2E/DX2                !
 ! A13   A(5,4,6)              119.6948         estimate D2E/DX2                !
 ! A14   A(4,5,44)             109.5085         estimate D2E/DX2                !
 ! A15   A(4,5,45)             111.5486         estimate D2E/DX2                !
 ! A16   A(4,5,46)             110.0022         estimate D2E/DX2                !
 ! A17   A(44,5,45)            108.6622         estimate D2E/DX2                !
 ! A18   A(44,5,46)            109.1684         estimate D2E/DX2                !
 ! A19   A(45,5,46)            107.9007         estimate D2E/DX2                !
 ! A20   A(4,6,7)              120.4087         estimate D2E/DX2                !
 ! A21   A(4,6,47)             120.5763         estimate D2E/DX2                !
 ! A22   A(7,6,47)             119.0145         estimate D2E/DX2                !
 ! A23   A(6,7,8)              120.1284         estimate D2E/DX2                !
 ! A24   A(6,7,48)             119.938          estimate D2E/DX2                !
 ! A25   A(8,7,48)             119.9259         estimate D2E/DX2                !
 ! A26   A(7,8,9)              120.569          estimate D2E/DX2                !
 ! A27   A(7,8,49)             119.077          estimate D2E/DX2                !
 ! A28   A(9,8,49)             120.3388         estimate D2E/DX2                !
 ! A29   A(3,9,8)              119.6169         estimate D2E/DX2                !
 ! A30   A(3,9,10)             122.3356         estimate D2E/DX2                !
 ! A31   A(8,9,10)             117.8963         estimate D2E/DX2                !
 ! A32   A(9,10,11)            119.4342         estimate D2E/DX2                !
 ! A33   A(9,10,39)            120.6361         estimate D2E/DX2                !
 ! A34   A(11,10,39)           119.9215         estimate D2E/DX2                !
 ! A35   A(10,11,12)           120.5077         estimate D2E/DX2                !
 ! A36   A(10,11,50)           119.4098         estimate D2E/DX2                !
 ! A37   A(12,11,50)           120.0816         estimate D2E/DX2                !
 ! A38   A(11,12,13)           120.0029         estimate D2E/DX2                !
 ! A39   A(11,12,17)           120.0091         estimate D2E/DX2                !
 ! A40   A(13,12,17)           119.9877         estimate D2E/DX2                !
 ! A41   A(12,13,14)           120.2871         estimate D2E/DX2                !
 ! A42   A(12,13,51)           120.6749         estimate D2E/DX2                !
 ! A43   A(14,13,51)           119.0376         estimate D2E/DX2                !
 ! A44   A(13,14,15)           120.1488         estimate D2E/DX2                !
 ! A45   A(13,14,52)           119.9378         estimate D2E/DX2                !
 ! A46   A(15,14,52)           119.9125         estimate D2E/DX2                !
 ! A47   A(14,15,16)           120.2787         estimate D2E/DX2                !
 ! A48   A(14,15,53)           119.8417         estimate D2E/DX2                !
 ! A49   A(16,15,53)           119.8795         estimate D2E/DX2                !
 ! A50   A(15,16,17)           120.5325         estimate D2E/DX2                !
 ! A51   A(15,16,54)           118.0449         estimate D2E/DX2                !
 ! A52   A(17,16,54)           121.4215         estimate D2E/DX2                !
 ! A53   A(12,17,16)           118.7551         estimate D2E/DX2                !
 ! A54   A(12,17,18)           119.3495         estimate D2E/DX2                !
 ! A55   A(16,17,18)           121.8922         estimate D2E/DX2                !
 ! A56   A(17,18,19)           121.7079         estimate D2E/DX2                !
 ! A57   A(17,18,39)           119.6856         estimate D2E/DX2                !
 ! A58   A(19,18,39)           118.6057         estimate D2E/DX2                !
 ! A59   A(18,19,20)           118.5777         estimate D2E/DX2                !
 ! A60   A(18,19,38)           121.6982         estimate D2E/DX2                !
 ! A61   A(20,19,38)           119.722          estimate D2E/DX2                !
 ! A62   A(19,20,21)           119.4844         estimate D2E/DX2                !
 ! A63   A(19,20,22)           120.5583         estimate D2E/DX2                !
 ! A64   A(21,20,22)           119.9534         estimate D2E/DX2                !
 ! A65   A(20,21,69)           109.8187         estimate D2E/DX2                !
 ! A66   A(20,22,23)           120.9004         estimate D2E/DX2                !
 ! A67   A(20,22,32)           119.6046         estimate D2E/DX2                !
 ! A68   A(23,22,32)           119.4943         estimate D2E/DX2                !
 ! A69   A(22,23,24)           118.9785         estimate D2E/DX2                !
 ! A70   A(22,23,29)           121.6165         estimate D2E/DX2                !
 ! A71   A(24,23,29)           119.3877         estimate D2E/DX2                !
 ! A72   A(23,24,25)           120.5035         estimate D2E/DX2                !
 ! A73   A(23,24,55)           120.411          estimate D2E/DX2                !
 ! A74   A(25,24,55)           119.0746         estimate D2E/DX2                !
 ! A75   A(24,25,26)           120.1879         estimate D2E/DX2                !
 ! A76   A(24,25,56)           119.8999         estimate D2E/DX2                !
 ! A77   A(26,25,56)           119.9095         estimate D2E/DX2                !
 ! A78   A(25,26,27)           120.3641         estimate D2E/DX2                !
 ! A79   A(25,26,57)           119.0656         estimate D2E/DX2                !
 ! A80   A(27,26,57)           120.57           estimate D2E/DX2                !
 ! A81   A(26,27,28)           119.9642         estimate D2E/DX2                !
 ! A82   A(26,27,29)           119.7317         estimate D2E/DX2                !
 ! A83   A(28,27,29)           120.2445         estimate D2E/DX2                !
 ! A84   A(27,28,58)           109.4917         estimate D2E/DX2                !
 ! A85   A(27,28,59)           111.5188         estimate D2E/DX2                !
 ! A86   A(27,28,60)           109.9748         estimate D2E/DX2                !
 ! A87   A(58,28,59)           108.6858         estimate D2E/DX2                !
 ! A88   A(58,28,60)           109.1429         estimate D2E/DX2                !
 ! A89   A(59,28,60)           107.978          estimate D2E/DX2                !
 ! A90   A(23,29,27)           119.7513         estimate D2E/DX2                !
 ! A91   A(23,29,30)           121.3908         estimate D2E/DX2                !
 ! A92   A(27,29,30)           118.8567         estimate D2E/DX2                !
 ! A93   A(29,30,31)           122.5495         estimate D2E/DX2                !
 ! A94   A(30,31,61)           111.1659         estimate D2E/DX2                !
 ! A95   A(30,31,62)           109.8876         estimate D2E/DX2                !
 ! A96   A(30,31,63)           109.0027         estimate D2E/DX2                !
 ! A97   A(61,31,62)           109.5607         estimate D2E/DX2                !
 ! A98   A(61,31,63)           108.3575         estimate D2E/DX2                !
 ! A99   A(62,31,63)           108.8172         estimate D2E/DX2                !
 ! A100  A(22,32,33)           120.6752         estimate D2E/DX2                !
 ! A101  A(22,32,64)           119.4569         estimate D2E/DX2                !
 ! A102  A(33,32,64)           119.866          estimate D2E/DX2                !
 ! A103  A(32,33,34)           119.9969         estimate D2E/DX2                !
 ! A104  A(32,33,38)           120.0246         estimate D2E/DX2                !
 ! A105  A(34,33,38)           119.9784         estimate D2E/DX2                !
 ! A106  A(33,34,35)           120.2952         estimate D2E/DX2                !
 ! A107  A(33,34,65)           120.6801         estimate D2E/DX2                !
 ! A108  A(35,34,65)           119.0244         estimate D2E/DX2                !
 ! A109  A(34,35,36)           120.1431         estimate D2E/DX2                !
 ! A110  A(34,35,66)           119.9411         estimate D2E/DX2                !
 ! A111  A(36,35,66)           119.9151         estimate D2E/DX2                !
 ! A112  A(35,36,37)           120.2716         estimate D2E/DX2                !
 ! A113  A(35,36,67)           119.8445         estimate D2E/DX2                !
 ! A114  A(37,36,67)           119.8837         estimate D2E/DX2                !
 ! A115  A(36,37,38)           120.5326         estimate D2E/DX2                !
 ! A116  A(36,37,68)           118.0366         estimate D2E/DX2                !
 ! A117  A(38,37,68)           121.4297         estimate D2E/DX2                !
 ! A118  A(19,38,33)           119.3268         estimate D2E/DX2                !
 ! A119  A(19,38,37)           121.9001         estimate D2E/DX2                !
 ! A120  A(33,38,37)           118.7692         estimate D2E/DX2                !
 ! A121  A(10,39,18)           120.4599         estimate D2E/DX2                !
 ! A122  A(10,39,40)           119.8299         estimate D2E/DX2                !
 ! A123  A(18,39,40)           119.7089         estimate D2E/DX2                !
 ! A124  A(39,40,69)           109.8868         estimate D2E/DX2                !
 ! A125  A(21,69,40)           100.0            estimate D2E/DX2                !
 ! D1    D(41,1,2,3)            36.5936         estimate D2E/DX2                !
 ! D2    D(42,1,2,3)           -86.3889         estimate D2E/DX2                !
 ! D3    D(43,1,2,3)           155.5885         estimate D2E/DX2                !
 ! D4    D(1,2,3,4)           -143.1236         estimate D2E/DX2                !
 ! D5    D(1,2,3,9)             36.613          estimate D2E/DX2                !
 ! D6    D(2,3,4,5)             -0.7538         estimate D2E/DX2                !
 ! D7    D(2,3,4,6)            176.0777         estimate D2E/DX2                !
 ! D8    D(9,3,4,5)            179.4989         estimate D2E/DX2                !
 ! D9    D(9,3,4,6)             -3.6696         estimate D2E/DX2                !
 ! D10   D(2,3,9,8)           -176.1514         estimate D2E/DX2                !
 ! D11   D(2,3,9,10)             8.4133         estimate D2E/DX2                !
 ! D12   D(4,3,9,8)              3.5815         estimate D2E/DX2                !
 ! D13   D(4,3,9,10)          -171.8537         estimate D2E/DX2                !
 ! D14   D(3,4,5,44)            69.1906         estimate D2E/DX2                !
 ! D15   D(3,4,5,45)          -170.4852         estimate D2E/DX2                !
 ! D16   D(3,4,5,46)           -50.7875         estimate D2E/DX2                !
 ! D17   D(6,4,5,44)          -107.6506         estimate D2E/DX2                !
 ! D18   D(6,4,5,45)            12.6735         estimate D2E/DX2                !
 ! D19   D(6,4,5,46)           132.3713         estimate D2E/DX2                !
 ! D20   D(3,4,6,7)              1.5062         estimate D2E/DX2                !
 ! D21   D(3,4,6,47)          -178.2517         estimate D2E/DX2                !
 ! D22   D(5,4,6,7)            178.3547         estimate D2E/DX2                !
 ! D23   D(5,4,6,47)            -1.4032         estimate D2E/DX2                !
 ! D24   D(4,6,7,8)              0.79           estimate D2E/DX2                !
 ! D25   D(4,6,7,48)           179.7804         estimate D2E/DX2                !
 ! D26   D(47,6,7,8)          -179.4484         estimate D2E/DX2                !
 ! D27   D(47,6,7,48)           -0.4579         estimate D2E/DX2                !
 ! D28   D(6,7,8,9)             -0.8667         estimate D2E/DX2                !
 ! D29   D(6,7,8,49)           177.7214         estimate D2E/DX2                !
 ! D30   D(48,7,8,9)          -179.8572         estimate D2E/DX2                !
 ! D31   D(48,7,8,49)           -1.2691         estimate D2E/DX2                !
 ! D32   D(7,8,9,3)             -1.3365         estimate D2E/DX2                !
 ! D33   D(7,8,9,10)           174.2998         estimate D2E/DX2                !
 ! D34   D(49,8,9,3)          -179.9068         estimate D2E/DX2                !
 ! D35   D(49,8,9,10)           -4.2704         estimate D2E/DX2                !
 ! D36   D(3,9,10,11)           68.4961         estimate D2E/DX2                !
 ! D37   D(3,9,10,39)         -112.5488         estimate D2E/DX2                !
 ! D38   D(8,9,10,11)         -107.0139         estimate D2E/DX2                !
 ! D39   D(8,9,10,39)           71.9412         estimate D2E/DX2                !
 ! D40   D(9,10,11,12)         179.1377         estimate D2E/DX2                !
 ! D41   D(9,10,11,50)          -0.5108         estimate D2E/DX2                !
 ! D42   D(39,10,11,12)          0.175          estimate D2E/DX2                !
 ! D43   D(39,10,11,50)       -179.4735         estimate D2E/DX2                !
 ! D44   D(9,10,39,18)         179.0401         estimate D2E/DX2                !
 ! D45   D(9,10,39,40)          -0.5508         estimate D2E/DX2                !
 ! D46   D(11,10,39,18)         -2.0099         estimate D2E/DX2                !
 ! D47   D(11,10,39,40)        178.3993         estimate D2E/DX2                !
 ! D48   D(10,11,12,13)       -179.3374         estimate D2E/DX2                !
 ! D49   D(10,11,12,17)          0.4516         estimate D2E/DX2                !
 ! D50   D(50,11,12,13)          0.3088         estimate D2E/DX2                !
 ! D51   D(50,11,12,17)       -179.9022         estimate D2E/DX2                !
 ! D52   D(11,12,13,14)        179.2612         estimate D2E/DX2                !
 ! D53   D(11,12,13,51)         -0.5122         estimate D2E/DX2                !
 ! D54   D(17,12,13,14)         -0.5279         estimate D2E/DX2                !
 ! D55   D(17,12,13,51)        179.6987         estimate D2E/DX2                !
 ! D56   D(11,12,17,16)       -178.6314         estimate D2E/DX2                !
 ! D57   D(11,12,17,18)          0.7302         estimate D2E/DX2                !
 ! D58   D(13,12,17,16)          1.1577         estimate D2E/DX2                !
 ! D59   D(13,12,17,18)       -179.4807         estimate D2E/DX2                !
 ! D60   D(12,13,14,15)         -0.2323         estimate D2E/DX2                !
 ! D61   D(12,13,14,52)       -179.8911         estimate D2E/DX2                !
 ! D62   D(51,13,14,15)        179.5448         estimate D2E/DX2                !
 ! D63   D(51,13,14,52)         -0.114          estimate D2E/DX2                !
 ! D64   D(13,14,15,16)          0.3446         estimate D2E/DX2                !
 ! D65   D(13,14,15,53)       -179.5165         estimate D2E/DX2                !
 ! D66   D(52,14,15,16)       -179.9966         estimate D2E/DX2                !
 ! D67   D(52,14,15,53)          0.1424         estimate D2E/DX2                !
 ! D68   D(14,15,16,17)          0.3096         estimate D2E/DX2                !
 ! D69   D(14,15,16,54)       -179.3159         estimate D2E/DX2                !
 ! D70   D(53,15,16,17)       -179.8294         estimate D2E/DX2                !
 ! D71   D(53,15,16,54)          0.5451         estimate D2E/DX2                !
 ! D72   D(15,16,17,12)         -1.0525         estimate D2E/DX2                !
 ! D73   D(15,16,17,18)        179.6029         estimate D2E/DX2                !
 ! D74   D(54,16,17,12)        178.5602         estimate D2E/DX2                !
 ! D75   D(54,16,17,18)         -0.7844         estimate D2E/DX2                !
 ! D76   D(12,17,18,19)        177.8017         estimate D2E/DX2                !
 ! D77   D(12,17,18,39)         -2.5319         estimate D2E/DX2                !
 ! D78   D(16,17,18,19)         -2.8575         estimate D2E/DX2                !
 ! D79   D(16,17,18,39)        176.809          estimate D2E/DX2                !
 ! D80   D(17,18,19,20)        109.2219         estimate D2E/DX2                !
 ! D81   D(17,18,19,38)        -71.3004         estimate D2E/DX2                !
 ! D82   D(39,18,19,20)        -70.4481         estimate D2E/DX2                !
 ! D83   D(39,18,19,38)        109.0297         estimate D2E/DX2                !
 ! D84   D(17,18,39,10)          3.1875         estimate D2E/DX2                !
 ! D85   D(17,18,39,40)       -177.2212         estimate D2E/DX2                !
 ! D86   D(19,18,39,10)       -177.1357         estimate D2E/DX2                !
 ! D87   D(19,18,39,40)          2.4556         estimate D2E/DX2                !
 ! D88   D(18,19,20,21)          3.915          estimate D2E/DX2                !
 ! D89   D(18,19,20,22)       -176.8079         estimate D2E/DX2                !
 ! D90   D(38,19,20,21)       -175.5733         estimate D2E/DX2                !
 ! D91   D(38,19,20,22)          3.7038         estimate D2E/DX2                !
 ! D92   D(18,19,38,33)        177.9876         estimate D2E/DX2                !
 ! D93   D(18,19,38,37)         -2.7382         estimate D2E/DX2                !
 ! D94   D(20,19,38,33)         -2.5405         estimate D2E/DX2                !
 ! D95   D(20,19,38,37)        176.7337         estimate D2E/DX2                !
 ! D96   D(19,20,21,69)         74.3752         estimate D2E/DX2                !
 ! D97   D(22,20,21,69)       -104.9063         estimate D2E/DX2                !
 ! D98   D(19,20,22,23)        176.9699         estimate D2E/DX2                !
 ! D99   D(19,20,22,32)         -2.7123         estimate D2E/DX2                !
 ! D100  D(21,20,22,23)         -3.7564         estimate D2E/DX2                !
 ! D101  D(21,20,22,32)        176.5614         estimate D2E/DX2                !
 ! D102  D(20,21,69,40)        -46.5398         estimate D2E/DX2                !
 ! D103  D(20,22,23,24)        122.8785         estimate D2E/DX2                !
 ! D104  D(20,22,23,29)        -55.5984         estimate D2E/DX2                !
 ! D105  D(32,22,23,24)        -57.439          estimate D2E/DX2                !
 ! D106  D(32,22,23,29)        124.0841         estimate D2E/DX2                !
 ! D107  D(20,22,32,33)          0.5628         estimate D2E/DX2                !
 ! D108  D(20,22,32,64)       -179.929          estimate D2E/DX2                !
 ! D109  D(23,22,32,33)       -179.1238         estimate D2E/DX2                !
 ! D110  D(23,22,32,64)          0.3844         estimate D2E/DX2                !
 ! D111  D(22,23,24,25)       -177.1259         estimate D2E/DX2                !
 ! D112  D(22,23,24,55)          1.6616         estimate D2E/DX2                !
 ! D113  D(29,23,24,25)          1.3855         estimate D2E/DX2                !
 ! D114  D(29,23,24,55)       -179.827          estimate D2E/DX2                !
 ! D115  D(22,23,29,27)        175.3624         estimate D2E/DX2                !
 ! D116  D(22,23,29,30)         -4.2314         estimate D2E/DX2                !
 ! D117  D(24,23,29,27)         -3.1084         estimate D2E/DX2                !
 ! D118  D(24,23,29,30)        177.2978         estimate D2E/DX2                !
 ! D119  D(23,24,25,26)          0.3985         estimate D2E/DX2                !
 ! D120  D(23,24,25,56)        179.792          estimate D2E/DX2                !
 ! D121  D(55,24,25,26)       -178.4052         estimate D2E/DX2                !
 ! D122  D(55,24,25,56)          0.9883         estimate D2E/DX2                !
 ! D123  D(24,25,26,27)         -0.4551         estimate D2E/DX2                !
 ! D124  D(24,25,26,57)        179.7409         estimate D2E/DX2                !
 ! D125  D(56,25,26,27)       -179.8485         estimate D2E/DX2                !
 ! D126  D(56,25,26,57)          0.3475         estimate D2E/DX2                !
 ! D127  D(25,26,27,28)       -178.4823         estimate D2E/DX2                !
 ! D128  D(25,26,27,29)         -1.2851         estimate D2E/DX2                !
 ! D129  D(57,26,27,28)          1.3187         estimate D2E/DX2                !
 ! D130  D(57,26,27,29)        178.5159         estimate D2E/DX2                !
 ! D131  D(26,27,28,58)        108.2062         estimate D2E/DX2                !
 ! D132  D(26,27,28,59)        -12.1171         estimate D2E/DX2                !
 ! D133  D(26,27,28,60)       -131.8745         estimate D2E/DX2                !
 ! D134  D(29,27,28,58)        -68.9765         estimate D2E/DX2                !
 ! D135  D(29,27,28,59)        170.7002         estimate D2E/DX2                !
 ! D136  D(29,27,28,60)         50.9429         estimate D2E/DX2                !
 ! D137  D(26,27,29,23)          3.0629         estimate D2E/DX2                !
 ! D138  D(26,27,29,30)       -177.3331         estimate D2E/DX2                !
 ! D139  D(28,27,29,23)       -179.7479         estimate D2E/DX2                !
 ! D140  D(28,27,29,30)         -0.1438         estimate D2E/DX2                !
 ! D141  D(23,29,30,31)        -65.9435         estimate D2E/DX2                !
 ! D142  D(27,29,30,31)        114.4592         estimate D2E/DX2                !
 ! D143  D(29,30,31,61)         66.2729         estimate D2E/DX2                !
 ! D144  D(29,30,31,62)        -55.1844         estimate D2E/DX2                !
 ! D145  D(29,30,31,63)       -174.3514         estimate D2E/DX2                !
 ! D146  D(22,32,33,34)       -179.4567         estimate D2E/DX2                !
 ! D147  D(22,32,33,38)          0.5632         estimate D2E/DX2                !
 ! D148  D(64,32,33,34)          1.0371         estimate D2E/DX2                !
 ! D149  D(64,32,33,38)       -178.943          estimate D2E/DX2                !
 ! D150  D(32,33,34,35)        179.4763         estimate D2E/DX2                !
 ! D151  D(32,33,34,65)         -0.3091         estimate D2E/DX2                !
 ! D152  D(38,33,34,35)         -0.5436         estimate D2E/DX2                !
 ! D153  D(38,33,34,65)        179.671          estimate D2E/DX2                !
 ! D154  D(32,33,38,19)          0.4288         estimate D2E/DX2                !
 ! D155  D(32,33,38,37)       -178.8682         estimate D2E/DX2                !
 ! D156  D(34,33,38,19)       -179.5513         estimate D2E/DX2                !
 ! D157  D(34,33,38,37)          1.1517         estimate D2E/DX2                !
 ! D158  D(33,34,35,36)         -0.2021         estimate D2E/DX2                !
 ! D159  D(33,34,35,66)       -179.8878         estimate D2E/DX2                !
 ! D160  D(65,34,35,36)        179.5868         estimate D2E/DX2                !
 ! D161  D(65,34,35,66)         -0.0989         estimate D2E/DX2                !
 ! D162  D(34,35,36,37)          0.3218         estimate D2E/DX2                !
 ! D163  D(34,35,36,67)       -179.5356         estimate D2E/DX2                !
 ! D164  D(66,35,36,37)       -179.9925         estimate D2E/DX2                !
 ! D165  D(66,35,36,67)          0.1501         estimate D2E/DX2                !
 ! D166  D(35,36,37,38)          0.3102         estimate D2E/DX2                !
 ! D167  D(35,36,37,68)       -179.3107         estimate D2E/DX2                !
 ! D168  D(67,36,37,38)       -179.8325         estimate D2E/DX2                !
 ! D169  D(67,36,37,68)          0.5466         estimate D2E/DX2                !
 ! D170  D(36,37,38,19)        179.6828         estimate D2E/DX2                !
 ! D171  D(36,37,38,33)         -1.0391         estimate D2E/DX2                !
 ! D172  D(68,37,38,19)         -0.7093         estimate D2E/DX2                !
 ! D173  D(68,37,38,33)        178.5687         estimate D2E/DX2                !
 ! D174  D(10,39,40,69)       -105.8359         estimate D2E/DX2                !
 ! D175  D(18,39,40,69)         74.5701         estimate D2E/DX2                !
 ! D176  D(39,40,69,21)        -44.8532         estimate D2E/DX2                !
 --------------------------------------------------------------------------------
 Trust Radius=3.00D-01 FncErr=1.00D-07 GrdErr=1.00D-06 EigMax=2.50D+02 EigMin=1.00D-04
 Number of steps in this run=    386 maximum allowed number of steps=    414.
 GradGradGradGradGradGradGradGradGradGradGradGradGradGradGradGradGradGrad

 Leave Link  103 at Fri Feb  7 12:09:43 2025, MaxMem= 13421772800 cpu:               1.0 elap:               0.0
 (Enter /public/software/apps/Gaussian/g16/l202.exe)
 Symmetry turned off by external request.
 Stoichiometry    C36H28CuO4(2)
 Framework group  C1[X(C36H28CuO4)]
 Deg. of freedom   201
 Full point group                 C1      NOp   1
                          Input orientation:                          
 ---------------------------------------------------------------------
 Center     Atomic      Atomic             Coordinates (Angstroms)
 Number     Number       Type             X           Y           Z
 ---------------------------------------------------------------------
      1          6           0       -4.206028   -0.781339    1.649389
      2          8           0       -5.089546    0.193626    1.101825
      3          6           0       -4.710827    1.479033    0.671890
      4          6           0       -5.610938    2.540537    0.904473
      5          6           0       -6.931441    2.280195    1.574894
      6          6           0       -5.247981    3.854136    0.570496
      7          6           0       -4.013562    4.116220   -0.019924
      8          6           0       -3.135588    3.070941   -0.298461
      9          6           0       -3.474090    1.748654    0.027169
     10          6           0       -2.560927    0.675376   -0.408160
     11          6           0       -2.938861   -0.163581   -1.462732
     12          6           0       -2.081719   -1.178218   -1.906141
     13          6           0       -2.465722   -2.004812   -2.974072
     14          6           0       -1.609669   -3.007851   -3.430818
     15          6           0       -0.363879   -3.192171   -2.831417
     16          6           0        0.032304   -2.379981   -1.766513
     17          6           0       -0.823179   -1.368284   -1.279274
     18          6           0       -0.453682   -0.532790   -0.194556
     19          6           0        0.830435   -0.716686    0.531025
     20          6           0        1.842789    0.243918    0.360534
     21          8           0        1.590735    1.376225   -0.411073
     22          6           0        3.096930    0.077104    0.973453
     23          6           0        4.190128    1.049591    0.745499
     24          6           0        4.768690    1.694073    1.850637
     25          6           0        5.758778    2.659219    1.668814
     26          6           0        6.178417    2.999776    0.383258
     27          6           0        5.616167    2.368827   -0.736827
     28          6           0        6.099225    2.718199   -2.116457
     29          6           0        4.641664    1.366645   -0.558600
     30          8           0        4.133571    0.709199   -1.686828
     31          6           0        4.351024   -0.677016   -1.928346
     32          6           0        3.318806   -1.027313    1.806185
     33          6           0        2.308426   -1.971876    2.024396
     34          6           0        2.542556   -3.067454    2.870916
     35          6           0        1.536433   -4.006664    3.101392
     36          6           0        0.289237   -3.860115    2.494670
     37          6           0        0.041031   -2.777447    1.648032
     38          6           0        1.048620   -1.822742    1.390368
     39          6           0       -1.312800    0.504029    0.209786
     40          8           0       -0.924609    1.361266    1.236928
     41          1           0       -3.432664   -0.295811    2.282002
     42          1           0       -3.733718   -1.378105    0.844679
     43          1           0       -4.791706   -1.477743    2.283341
     44          1           0       -6.760749    2.012929    2.638856
     45          1           0       -7.592614    3.171988    1.534053
     46          1           0       -7.456135    1.442771    1.068217
     47          1           0       -5.920238    4.679311    0.770852
     48          1           0       -3.742829    5.132046   -0.277680
     49          1           0       -2.195870    3.289768   -0.791719
     50          1           0       -3.901926   -0.018257   -1.940068
     51          1           0       -3.426375   -1.872636   -3.457755
     52          1           0       -1.910711   -3.640712   -4.255682
     53          1           0        0.299384   -3.966559   -3.194781
     54          1           0        1.010830   -2.547116   -1.335833
     55          1           0        4.437851    1.462133    2.855831
     56          1           0        6.195751    3.152372    2.527571
     57          1           0        6.945527    3.754740    0.262920
     58          1           0        6.693113    1.874195   -2.525805
     59          1           0        6.734941    3.629133   -2.107076
     60          1           0        5.233068    2.911544   -2.784035
     61          1           0        3.841198   -1.300368   -1.167616
     62          1           0        5.439684   -0.895790   -1.919420
     63          1           0        3.941776   -0.938408   -2.925456
     64          1           0        4.286928   -1.153045    2.278762
     65          1           0        3.502592   -3.195398    3.356971
     66          1           0        1.722550   -4.848001    3.756412
     67          1           0       -0.490075   -4.587390    2.682760
     68          1           0       -0.942846   -2.692910    1.205527
     69         29           0        0.436383    2.614756    0.581934
 ---------------------------------------------------------------------
 Rotational constants (GHZ):           0.1177183           0.0592924           0.0509072
 Leave Link  202 at Fri Feb  7 12:09:43 2025, MaxMem= 13421772800 cpu:               0.2 elap:               0.0
 (Enter /public/software/apps/Gaussian/g16/l301.exe)
 Standard basis: def2SVPP (5D, 7F)
 Ernie: Thresh=  0.10000D-02 Tol=  0.10000D-05 Strict=F.
   640 basis functions,  1183 primitive gaussians,   682 cartesian basis functions
   153 alpha electrons      152 beta electrons
       nuclear repulsion energy      5259.7625297374 Hartrees.
 IExCor=  402 DFT=T Ex+Corr=B3LYP ExCW=0 ScaHFX=  0.200000
 ScaDFX=  0.800000  0.720000  1.000000  0.810000 ScalE2=  1.000000  1.000000
 IRadAn=      5 IRanWt=     -1 IRanGd=            0 ICorTp=0 IEmpDi=141
 NAtoms=   69 NActive=   69 NUniq=   69 SFac= 1.00D+00 NAtFMM=   60 NAOKFM=T Big=T
 Integral buffers will be    131072 words long.
 Raffenetti 2 integral format.
 Two-electron integral symmetry is turned off.
 R6Disp:  Grimme-D3(BJ) Dispersion energy=       -0.1879744570 Hartrees.
 Nuclear repulsion after empirical dispersion term =     5259.5745552804 Hartrees.
 Leave Link  301 at Fri Feb  7 12:09:44 2025, MaxMem= 13421772800 cpu:               1.1 elap:               0.0
 (Enter /public/software/apps/Gaussian/g16/l302.exe)
 NPDir=0 NMtPBC=     1 NCelOv=     1 NCel=       1 NClECP=     1 NCelD=      1
         NCelK=      1 NCelE2=     1 NClLst=     1 CellRange=     0.0.
 One-electron integrals computed using PRISM.
   1 Symmetry operations used in ECPInt.
 ECPInt:  NShTT=   46971 NPrTT=  193154 LenC2=   39182 LenP2D=   99549.
 LDataN:  DoStor=T MaxTD1= 4 Len=   56
 NBasis=   640 RedAO= T EigKep=  1.61D-04  NBF=   640
 NBsUse=   640 1.00D-06 EigRej= -1.00D+00 NBFU=   640
 Precomputing XC quadrature grid using
 IXCGrd= 4 IRadAn=           5 IRanWt=          -1 IRanGd=           0 AccXCQ= 0.00D+00.
 Generated NRdTot=       0 NPtTot=           0 NUsed=           0 NTot=          32
 NSgBfM=   667   667   667   667   667 MxSgAt=    69 MxSgA2=    69.
 Leave Link  302 at Fri Feb  7 12:09:44 2025, MaxMem= 13421772800 cpu:              27.0 elap:               0.9
 (Enter /public/software/apps/Gaussian/g16/l303.exe)
 DipDrv:  MaxL=1.
 Leave Link  303 at Fri Feb  7 12:09:45 2025, MaxMem= 13421772800 cpu:               3.2 elap:               0.1
 (Enter /public/software/apps/Gaussian/g16/l401.exe)
 ExpMin= 3.30D-02 ExpMax= 7.64D+04 ExpMxC= 1.15D+04 IAcc=3 IRadAn=         5 AccDes= 0.00D+00
 Harris functional with IExCor=  402 and IRadAn=       5 diagonalized for initial guess.
 HarFok:  IExCor=  402 AccDes= 0.00D+00 IRadAn=         5 IDoV= 1 UseB2=F ITyADJ=14
 ICtDFT=  3500011 ScaDFX=  1.000000  1.000000  1.000000  1.000000
 FoFCou: FMM=F IPFlag=           0 FMFlag=      100000 FMFlg1=        2001
         NFxFlg=           0 DoJE=T BraDBF=F KetDBF=T FulRan=T
         wScrn=  0.000000 ICntrl=       500 IOpCl=  0 I1Cent=   200000004 NGrid=           0
         NMat0=    1 NMatS0=      1 NMatT0=    0 NMatD0=    1 NMtDS0=    0 NMtDT0=    0
 Symmetry not used in FoFCou.
 Harris En= -3329.01972973758    
 JPrj=0 DoOrth=F DoCkMO=F.
 Initial guess <Sx>= 0.0000 <Sy>= 0.0000 <Sz>= 0.5000 <S**2>= 0.7500 S= 0.5000
 Leave Link  401 at Fri Feb  7 12:09:47 2025, MaxMem= 13421772800 cpu:              62.0 elap:               2.0
 (Enter /public/software/apps/Gaussian/g16/l502.exe)
 Two-electron integral symmetry not used.
 UHF open shell SCF:
 Using DIIS extrapolation, IDIIS=  1040.
 NGot= 13421772800 LenX= 13420813426 LenY= 13420347620
 Requested convergence on RMS density matrix=1.00D-08 within 128 cycles.
 Requested convergence on MAX density matrix=1.00D-06.
 Requested convergence on             energy=1.00D-06.
 No special actions if energy rises.
 Fock matrices will be formed incrementally for  20 cycles.

 Cycle   1  Pass 1  IDiag  1:
 FoFJK:  IHMeth= 1 ICntrl=       0 DoSepK=F KAlg= 0 I1Cent=           0 FoldK=F
 IRaf= 990000000 NMat=       1 IRICut=       1 DoRegI=T DoRafI=F ISym2E= 0 IDoP0=0 IntGTp=1.
 FoFCou: FMM=T IPFlag=           0 FMFlag=      100000 FMFlg1=        2001
         NFxFlg=           0 DoJE=F BraDBF=F KetDBF=F FulRan=T
         wScrn=  0.000000 ICntrl=         0 IOpCl=  1 I1Cent=           0 NGrid=           0
         NMat0=    1 NMatS0=      1 NMatT0=    0 NMatD0=    1 NMtDS0=    0 NMtDT0=    0
 Symmetry not used in FoFCou.
 FMM levels:  10  Number of levels for PrismC:   9
 E= -3313.51740691533    
 DIIS: error= 2.84D-01 at cycle   1 NSaved=   1.
 NSaved= 1 IEnMin= 1 EnMin= -3313.51740691533     IErMin= 1 ErrMin= 2.84D-01
 ErrMax= 2.84D-01  0.00D+00 EMaxC= 1.00D-01 BMatC= 6.43D+01 BMatP= 6.43D+01
 IDIUse=3 WtCom= 0.00D+00 WtEn= 1.00D+00
 Coeff-Com:  0.100D+01
 Coeff-En:   0.100D+01
 Coeff:      0.100D+01
 Gap=     0.191 Goal=   None    Shift=    0.000
 Gap=     0.040 Goal=   None    Shift=    0.000
 GapD=    0.040 DampG=0.250 DampE=0.125 DampFc=0.1250 IDamp=-1.
 Damping current iteration by 1.25D-01
 RMSDP=6.88D-02 MaxDP=1.06D+01              OVMax= 9.89D-01

 Cycle   2  Pass 1  IDiag  1:
 RMSU=  8.59D-03    CP:  1.03D+00
 E= -3318.31311431208     Delta-E=       -4.795707396752 Rises=F Damp=T
 DIIS: error= 1.89D-01 at cycle   2 NSaved=   2.
 NSaved= 2 IEnMin= 2 EnMin= -3318.31311431208     IErMin= 2 ErrMin= 1.89D-01
 ErrMax= 1.89D-01  0.00D+00 EMaxC= 1.00D-01 BMatC= 2.43D+01 BMatP= 6.43D+01
 IDIUse=3 WtCom= 0.00D+00 WtEn= 1.00D+00
 Coeff-Com: -0.113D+01 0.213D+01
 Coeff-En:   0.000D+00 0.100D+01
 Coeff:      0.000D+00 0.100D+01
 Gap=    -0.099 Goal=   None    Shift=    0.000
 Gap=    -0.357 Goal=   None    Shift=    0.000
 RMSDP=1.54D-02 MaxDP=3.22D+00 DE=-4.80D+00 OVMax= 9.19D-01

 Cycle   3  Pass 1  IDiag  1:
 RMSU=  1.53D-02    CP:  9.59D-01  1.17D+00
 E= -3300.76284786763     Delta-E=       17.550266444448 Rises=F Damp=F
 DIIS: error= 1.83D-01 at cycle   3 NSaved=   3.
 NSaved= 3 IEnMin= 2 EnMin= -3318.31311431208     IErMin= 3 ErrMin= 1.83D-01
 ErrMax= 1.83D-01  0.00D+00 EMaxC= 1.00D-01 BMatC= 7.03D+01 BMatP= 2.43D+01
 IDIUse=2 WtCom= 0.00D+00 WtEn= 1.00D+00
 EnCoef did    14 forward-backward iterations
 Coeff-En:   0.572D+00 0.416D-01 0.387D+00
 Coeff:      0.572D+00 0.416D-01 0.387D+00
 Gap=     0.373 Goal=   None    Shift=    0.000
 Gap=    -0.343 Goal=   None    Shift=    0.000
 RMSDP=7.41D-02 MaxDP=1.25D+01 DE= 1.76D+01 OVMax= 9.61D-01

 Cycle   4  Pass 1  IDiag  1:
 RMSU=  7.13D-02    CP:  1.02D+00  1.69D+00 -3.00D-01
 E= -3232.03486447509     Delta-E=       68.727983392540 Rises=F Damp=F
 DIIS: error= 1.68D-01 at cycle   4 NSaved=   4.
 NSaved= 4 IEnMin= 2 EnMin= -3318.31311431208     IErMin= 4 ErrMin= 1.68D-01
 ErrMax= 1.68D-01  0.00D+00 EMaxC= 1.00D-01 BMatC= 1.93D+02 BMatP= 2.43D+01
 IDIUse=2 WtCom= 0.00D+00 WtEn= 1.00D+00
 EnCoef did   100 forward-backward iterations
 Coeff-En:   0.550D+00 0.202D-01 0.357D+00 0.727D-01
 Coeff:      0.550D+00 0.202D-01 0.357D+00 0.727D-01
 Gap=     0.378 Goal=   None    Shift=    0.000
 Gap=    -0.054 Goal=   None    Shift=    0.000
 RMSDP=7.25D-02 MaxDP=1.25D+01 DE= 6.87D+01 OVMax= 9.70D-01

 Cycle   5  Pass 1  IDiag  1:
 RMSU=  5.14D-03    CP:  8.92D-01  4.97D-02  1.02D-01  8.52D-03
 E= -3326.29027437679     Delta-E=      -94.255409901702 Rises=F Damp=F
 DIIS: error= 1.29D-01 at cycle   5 NSaved=   5.
 NSaved= 5 IEnMin= 5 EnMin= -3326.29027437679     IErMin= 5 ErrMin= 1.29D-01
 ErrMax= 1.29D-01  0.00D+00 EMaxC= 1.00D-01 BMatC= 1.04D+01 BMatP= 2.43D+01
 IDIUse=3 WtCom= 0.00D+00 WtEn= 1.00D+00
 EnCoef did   100 forward-backward iterations
 Coeff-Com: -0.386D+00 0.887D+00 0.508D-01-0.377D-01 0.486D+00
 Coeff-En:   0.218D+00 0.406D-02 0.000D+00 0.000D+00 0.778D+00
 Coeff:      0.218D+00 0.406D-02 0.000D+00 0.000D+00 0.778D+00
 Gap=     0.408 Goal=   None    Shift=    0.000
 Gap=    -0.099 Goal=   None    Shift=    0.000
 RMSDP=6.29D-03 MaxDP=6.17D-01 DE=-9.43D+01 OVMax= 7.16D-01

 Cycle   6  Pass 1  IDiag  1:
 RMSU=  5.39D-03    CP:  8.98D-01  6.43D-02  1.30D-01  1.79D-03  3.83D-01
 E= -3322.93518668245     Delta-E=        3.355087694339 Rises=F Damp=F
 DIIS: error= 6.51D-02 at cycle   6 NSaved=   6.
 NSaved= 6 IEnMin= 5 EnMin= -3326.29027437679     IErMin= 6 ErrMin= 6.51D-02
 ErrMax= 6.51D-02  0.00D+00 EMaxC= 1.00D-01 BMatC= 1.70D+01 BMatP= 1.04D+01
 IDIUse=2 WtCom= 0.00D+00 WtEn= 1.00D+00
 EnCoef did   100 forward-backward iterations
 Coeff-En:   0.155D+00 0.267D-02 0.000D+00 0.000D+00 0.647D+00 0.195D+00
 Coeff:      0.155D+00 0.267D-02 0.000D+00 0.000D+00 0.647D+00 0.195D+00
 Gap=    -0.110 Goal=   None    Shift=    0.000
 Gap=     0.000 Goal=   None    Shift=    0.000
 RMSDP=4.65D-03 MaxDP=7.38D-01 DE= 3.36D+00 OVMax= 6.19D-01

 Cycle   7  Pass 1  IDiag  1:
 RMSU=  2.53D-03    CP:  8.94D-01  1.51D-02  7.22D-02  1.85D-03  5.78D-01
                    CP:  3.24D-01
 E= -3328.35371958155     Delta-E=       -5.418532899095 Rises=F Damp=F
 DIIS: error= 5.51D-02 at cycle   7 NSaved=   7.
 NSaved= 7 IEnMin= 7 EnMin= -3328.35371958155     IErMin= 7 ErrMin= 5.51D-02
 ErrMax= 5.51D-02  0.00D+00 EMaxC= 1.00D-01 BMatC= 1.96D+00 BMatP= 1.04D+01
 IDIUse=3 WtCom= 4.49D-01 WtEn= 5.51D-01
 Coeff-Com:  0.290D-01-0.243D-01-0.174D-01-0.410D-02 0.316D+00 0.102D+00
 Coeff-Com:  0.600D+00
 Coeff-En:   0.000D+00 0.000D+00 0.000D+00 0.000D+00 0.108D+00 0.000D+00
 Coeff-En:   0.892D+00
 Coeff:      0.130D-01-0.109D-01-0.781D-02-0.184D-02 0.202D+00 0.456D-01
 Coeff:      0.760D+00
 Gap=     0.342 Goal=   None    Shift=    0.000
 Gap=    -0.111 Goal=   None    Shift=    0.000
 RMSDP=4.41D-03 MaxDP=3.45D-01 DE=-5.42D+00 OVMax= 9.85D-01

 Cycle   8  Pass 1  IDiag  1:
 RMSU=  3.99D-03    CP:  8.93D-01 -2.69D-03  6.53D-02  2.82D-03  6.78D-01
                    CP:  2.58D-01  2.99D-01
 E= -3323.61074525839     Delta-E=        4.742974323159 Rises=F Damp=F
 DIIS: error= 6.07D-02 at cycle   8 NSaved=   8.
 NSaved= 8 IEnMin= 7 EnMin= -3328.35371958155     IErMin= 7 ErrMin= 5.51D-02
 ErrMax= 6.07D-02  0.00D+00 EMaxC= 1.00D-01 BMatC= 1.08D+01 BMatP= 1.96D+00
 IDIUse=2 WtCom= 0.00D+00 WtEn= 1.00D+00
 EnCoef did     4 forward-backward iterations
 Coeff-En:   0.000D+00 0.000D+00 0.000D+00 0.000D+00 0.530D-01 0.000D+00
 Coeff-En:   0.837D+00 0.110D+00
 Coeff:      0.000D+00 0.000D+00 0.000D+00 0.000D+00 0.530D-01 0.000D+00
 Coeff:      0.837D+00 0.110D+00
 Gap=    -0.122 Goal=   None    Shift=    0.000
 Gap=     0.024 Goal=   None    Shift=    0.000
 RMSDP=3.69D-03 MaxDP=3.20D-01 DE= 4.74D+00 OVMax= 8.20D-01

 Cycle   9  Pass 1  IDiag  1:
 RMSU=  1.84D-03    CP:  8.96D-01 -2.20D-03  6.86D-02  4.17D-03  7.86D-01
                    CP:  1.97D-01  3.96D-01  2.19D-01
 E= -3328.32301808252     Delta-E=       -4.712272824128 Rises=F Damp=F
 DIIS: error= 6.04D-02 at cycle   9 NSaved=   9.
 NSaved= 9 IEnMin= 7 EnMin= -3328.35371958155     IErMin= 7 ErrMin= 5.51D-02
 ErrMax= 6.04D-02  0.00D+00 EMaxC= 1.00D-01 BMatC= 2.42D+00 BMatP= 1.96D+00
 IDIUse=2 WtCom= 0.00D+00 WtEn= 1.00D+00
 EnCoef did     2 forward-backward iterations
 Coeff-En:   0.000D+00 0.000D+00 0.000D+00 0.000D+00 0.000D+00 0.000D+00
 Coeff-En:   0.517D+00 0.441D-02 0.479D+00
 Coeff:      0.000D+00 0.000D+00 0.000D+00 0.000D+00 0.000D+00 0.000D+00
 Coeff:      0.517D+00 0.441D-02 0.479D+00
 Gap=     0.161 Goal=   None    Shift=    0.000
 Gap=     0.102 Goal=   None    Shift=    0.000
 RMSDP=2.64D-03 MaxDP=2.50D-01 DE=-4.71D+00 OVMax= 6.94D-01

 Cycle  10  Pass 1  IDiag  1:
 RMSU=  2.17D-03    CP:  8.99D-01  9.71D-03  6.40D-02  3.12D-03  6.38D-01
                    CP:  2.98D-01  5.78D-01  1.76D-01  4.32D-01
 E= -3328.33042171689     Delta-E=       -0.007403634369 Rises=F Damp=F
 DIIS: error= 2.23D-02 at cycle  10 NSaved=  10.
 NSaved=10 IEnMin= 7 EnMin= -3328.35371958155     IErMin=10 ErrMin= 2.23D-02
 ErrMax= 2.23D-02  0.00D+00 EMaxC= 1.00D-01 BMatC= 1.79D+00 BMatP= 1.96D+00
 IDIUse=3 WtCom= 7.77D-01 WtEn= 2.23D-01
 EnCoef did     4 forward-backward iterations
 Coeff-Com:  0.102D-01-0.203D-01-0.364D-02-0.550D-03 0.414D-01-0.111D-02
 Coeff-Com:  0.422D+00 0.244D-02 0.347D+00 0.203D+00
 Coeff-En:   0.000D+00 0.000D+00 0.000D+00 0.000D+00 0.000D+00 0.000D+00
 Coeff-En:   0.349D+00 0.000D+00 0.372D+00 0.279D+00
 Coeff:      0.789D-02-0.158D-01-0.283D-02-0.427D-03 0.321D-01-0.865D-03
 Coeff:      0.406D+00 0.190D-02 0.352D+00 0.220D+00
 Gap=     0.170 Goal=   None    Shift=    0.000
 Gap=     0.014 Goal=   None    Shift=    0.000
 RMSDP=1.84D-03 MaxDP=2.13D-01 DE=-7.40D-03 OVMax= 4.17D-01

 Cycle  11  Pass 1  IDiag  1:
 RMSU=  8.80D-04    CP:  8.94D-01 -3.62D-03  6.01D-02  2.71D-03  6.60D-01
                    CP:  2.61D-01  6.52D-01  1.36D-01  4.82D-01  2.80D-01
 E= -3328.74115669752     Delta-E=       -0.410734980631 Rises=F Damp=F
 DIIS: error= 2.29D-02 at cycle  11 NSaved=  11.
 NSaved=11 IEnMin=11 EnMin= -3328.74115669752     IErMin=10 ErrMin= 2.23D-02
 ErrMax= 2.29D-02  0.00D+00 EMaxC= 1.00D-01 BMatC= 2.75D-01 BMatP= 1.79D+00
 IDIUse=3 WtCom= 7.77D-01 WtEn= 2.23D-01
 Coeff-Com:  0.898D-02-0.261D-01-0.838D-03-0.371D-03 0.528D-01 0.870D-02
 Coeff-Com:  0.258D+00-0.786D-02 0.245D+00 0.137D+00 0.324D+00
 Coeff-En:   0.000D+00 0.000D+00 0.000D+00 0.000D+00 0.000D+00 0.000D+00
 Coeff-En:   0.000D+00 0.000D+00 0.851D-01 0.000D+00 0.915D+00
 Coeff:      0.698D-02-0.203D-01-0.651D-03-0.288D-03 0.410D-01 0.675D-02
 Coeff:      0.201D+00-0.611D-02 0.209D+00 0.107D+00 0.456D+00
 Gap=     0.154 Goal=   None    Shift=    0.000
 Gap=     0.023 Goal=   None    Shift=    0.000
 RMSDP=5.56D-04 MaxDP=9.88D-02 DE=-4.11D-01 OVMax= 1.29D-01

 Cycle  12  Pass 1  IDiag  1:
 RMSU=  4.73D-04    CP:  8.92D-01 -1.60D-03  6.48D-02  2.97D-03  6.84D-01
                    CP:  2.72D-01  6.17D-01  9.66D-02  4.54D-01  2.35D-01
                    CP:  8.51D-01
 E= -3328.78704316438     Delta-E=       -0.045886466867 Rises=F Damp=F
 DIIS: error= 2.42D-03 at cycle  12 NSaved=  12.
 NSaved=12 IEnMin=12 EnMin= -3328.78704316438     IErMin=12 ErrMin= 2.42D-03
 ErrMax= 2.42D-03  0.00D+00 EMaxC= 1.00D-01 BMatC= 2.01D-02 BMatP= 2.75D-01
 IDIUse=3 WtCom= 9.76D-01 WtEn= 2.42D-02
 Coeff-Com:  0.898D-02-0.171D-01-0.444D-03-0.219D-03-0.879D-03-0.137D-02
 Coeff-Com:  0.661D-01-0.321D-02 0.764D-01-0.269D-01 0.151D+00 0.748D+00
 Coeff-En:   0.000D+00 0.000D+00 0.000D+00 0.000D+00 0.000D+00 0.000D+00
 Coeff-En:   0.000D+00 0.000D+00 0.000D+00 0.000D+00 0.171D-01 0.983D+00
 Coeff:      0.876D-02-0.166D-01-0.434D-03-0.214D-03-0.858D-03-0.134D-02
 Coeff:      0.645D-01-0.313D-02 0.746D-01-0.262D-01 0.148D+00 0.753D+00
 Gap=     0.119 Goal=   None    Shift=    0.000
 Gap=     0.042 Goal=   None    Shift=    0.000
 RMSDP=2.31D-04 MaxDP=3.56D-02 DE=-4.59D-02 OVMax= 5.39D-02

 Cycle  13  Pass 1  IDiag  1:
 RMSU=  1.82D-04    CP:  8.92D-01 -2.80D-03  6.40D-02  2.89D-03  6.78D-01
                    CP:  2.71D-01  6.32D-01  1.05D-01  4.74D-01  2.07D-01
                    CP:  9.00D-01  7.92D-01
 E= -3328.78979576056     Delta-E=       -0.002752596174 Rises=F Damp=F
 DIIS: error= 5.33D-03 at cycle  13 NSaved=  13.
 NSaved=13 IEnMin=13 EnMin= -3328.78979576056     IErMin=12 ErrMin= 2.42D-03
 ErrMax= 5.33D-03  0.00D+00 EMaxC= 1.00D-01 BMatC= 1.59D-02 BMatP= 2.01D-02
 IDIUse=3 WtCom= 9.76D-01 WtEn= 2.42D-02
 Coeff-Com:  0.541D-02-0.955D-02-0.483D-03-0.155D-03 0.370D-02 0.103D-03
 Coeff-Com:  0.316D-01-0.850D-03 0.300D-01-0.338D-01-0.224D-01 0.443D+00
 Coeff-Com:  0.553D+00
 Coeff-En:   0.000D+00 0.000D+00 0.000D+00 0.000D+00 0.000D+00 0.000D+00
 Coeff-En:   0.000D+00 0.000D+00 0.000D+00 0.000D+00 0.000D+00 0.268D+00
 Coeff-En:   0.732D+00
 Coeff:      0.528D-02-0.932D-02-0.471D-03-0.151D-03 0.361D-02 0.101D-03
 Coeff:      0.308D-01-0.830D-03 0.293D-01-0.330D-01-0.219D-01 0.439D+00
 Coeff:      0.558D+00
 Gap=     0.117 Goal=   None    Shift=    0.000
 Gap=     0.042 Goal=   None    Shift=    0.000
 RMSDP=1.10D-04 MaxDP=1.30D-02 DE=-2.75D-03 OVMax= 2.32D-02

 Cycle  14  Pass 1  IDiag  1:
 RMSU=  8.25D-05    CP:  8.92D-01 -3.27D-03  6.43D-02  2.87D-03  6.79D-01
                    CP:  2.72D-01  6.29D-01  1.01D-01  4.66D-01  1.83D-01
                    CP:  8.91D-01  8.80D-01  9.68D-01
 E= -3328.79234306525     Delta-E=       -0.002547304695 Rises=F Damp=F
 DIIS: error= 1.72D-03 at cycle  14 NSaved=  14.
 NSaved=14 IEnMin=14 EnMin= -3328.79234306525     IErMin=14 ErrMin= 1.72D-03
 ErrMax= 1.72D-03  0.00D+00 EMaxC= 1.00D-01 BMatC= 2.32D-03 BMatP= 1.59D-02
 IDIUse=3 WtCom= 9.83D-01 WtEn= 1.72D-02
 Coeff-Com:  0.597D-03-0.795D-03-0.144D-03-0.181D-03 0.405D-02-0.535D-03
 Coeff-Com:  0.676D-02-0.837D-03 0.320D-02-0.928D-02-0.104D+00 0.409D-01
 Coeff-Com:  0.324D+00 0.737D+00
 Coeff-En:   0.000D+00 0.000D+00 0.000D+00 0.000D+00 0.000D+00 0.000D+00
 Coeff-En:   0.000D+00 0.000D+00 0.000D+00 0.000D+00 0.000D+00 0.000D+00
 Coeff-En:   0.000D+00 0.100D+01
 Coeff:      0.587D-03-0.782D-03-0.141D-03-0.178D-03 0.398D-02-0.526D-03
 Coeff:      0.664D-02-0.823D-03 0.315D-02-0.912D-02-0.102D+00 0.402D-01
 Coeff:      0.318D+00 0.741D+00
 Gap=     0.117 Goal=   None    Shift=    0.000
 Gap=     0.044 Goal=   None    Shift=    0.000
 RMSDP=7.13D-05 MaxDP=6.25D-03 DE=-2.55D-03 OVMax= 1.66D-02

 Cycle  15  Pass 1  IDiag  1:
 RMSU=  5.37D-05    CP:  8.92D-01 -2.91D-03  6.44D-02  2.86D-03  6.80D-01
                    CP:  2.72D-01  6.30D-01  9.87D-02  4.67D-01  1.78D-01
                    CP:  8.85D-01  9.30D-01  1.16D+00  8.59D-01
 E= -3328.79285647239     Delta-E=       -0.000513407134 Rises=F Damp=F
 DIIS: error= 3.90D-04 at cycle  15 NSaved=  15.
 NSaved=15 IEnMin=15 EnMin= -3328.79285647239     IErMin=15 ErrMin= 3.90D-04
 ErrMax= 3.90D-04  0.00D+00 EMaxC= 1.00D-01 BMatC= 5.62D-04 BMatP= 2.32D-03
 IDIUse=3 WtCom= 9.96D-01 WtEn= 3.90D-03
 Coeff-Com: -0.511D-03 0.970D-03-0.728D-04-0.175D-04 0.298D-02-0.595D-03
 Coeff-Com:  0.205D-02-0.875D-04-0.203D-02-0.124D-02-0.663D-01-0.425D-01
 Coeff-Com:  0.922D-01 0.532D+00 0.483D+00
 Coeff-En:   0.000D+00 0.000D+00 0.000D+00 0.000D+00 0.000D+00 0.000D+00
 Coeff-En:   0.000D+00 0.000D+00 0.000D+00 0.000D+00 0.000D+00 0.000D+00
 Coeff-En:   0.000D+00 0.000D+00 0.100D+01
 Coeff:     -0.509D-03 0.967D-03-0.725D-04-0.175D-04 0.297D-02-0.592D-03
 Coeff:      0.204D-02-0.872D-04-0.202D-02-0.124D-02-0.661D-01-0.424D-01
 Coeff:      0.919D-01 0.530D+00 0.485D+00
 Gap=     0.116 Goal=   None    Shift=    0.000
 Gap=     0.044 Goal=   None    Shift=    0.000
 RMSDP=3.84D-05 MaxDP=3.16D-03 DE=-5.13D-04 OVMax= 7.93D-03

 Cycle  16  Pass 1  IDiag  1:
 RMSU=  2.34D-05    CP:  8.92D-01 -3.00D-03  6.45D-02  2.87D-03  6.81D-01
                    CP:  2.71D-01  6.29D-01  9.81D-02  4.63D-01  1.72D-01
                    CP:  8.83D-01  9.45D-01  1.19D+00  1.14D+00  8.18D-01
 E= -3328.79303394381     Delta-E=       -0.000177471424 Rises=F Damp=F
 DIIS: error= 1.29D-04 at cycle  16 NSaved=  16.
 NSaved=16 IEnMin=16 EnMin= -3328.79303394381     IErMin=16 ErrMin= 1.29D-04
 ErrMax= 1.29D-04  0.00D+00 EMaxC= 1.00D-01 BMatC= 6.35D-05 BMatP= 5.62D-04
 IDIUse=3 WtCom= 9.99D-01 WtEn= 1.29D-03
 Coeff-Com: -0.562D-03 0.938D-03-0.752D-04 0.348D-04 0.135D-02-0.281D-03
 Coeff-Com: -0.212D-03 0.302D-04-0.364D-02 0.118D-02-0.748D-02-0.264D-01
 Coeff-Com: -0.306D-01 0.899D-01 0.247D+00 0.729D+00
 Coeff-En:   0.000D+00 0.000D+00 0.000D+00 0.000D+00 0.000D+00 0.000D+00
 Coeff-En:   0.000D+00 0.000D+00 0.000D+00 0.000D+00 0.000D+00 0.000D+00
 Coeff-En:   0.000D+00 0.000D+00 0.000D+00 0.100D+01
 Coeff:     -0.562D-03 0.937D-03-0.751D-04 0.347D-04 0.135D-02-0.281D-03
 Coeff:     -0.212D-03 0.301D-04-0.363D-02 0.118D-02-0.747D-02-0.263D-01
 Coeff:     -0.306D-01 0.898D-01 0.247D+00 0.729D+00
 Gap=     0.116 Goal=   None    Shift=    0.000
 Gap=     0.044 Goal=   None    Shift=    0.000
 RMSDP=2.13D-05 MaxDP=2.60D-03 DE=-1.77D-04 OVMax= 7.17D-03

 Cycle  17  Pass 1  IDiag  1:
 RMSU=  1.44D-05    CP:  8.92D-01 -2.98D-03  6.45D-02  2.88D-03  6.81D-01
                    CP:  2.71D-01  6.29D-01  9.72D-02  4.63D-01  1.69D-01
                    CP:  8.80D-01  9.54D-01  1.22D+00  1.22D+00  9.91D-01
                    CP:  1.10D+00
 E= -3328.79306844369     Delta-E=       -0.000034499881 Rises=F Damp=F
 DIIS: error= 3.15D-04 at cycle  17 NSaved=  17.
 NSaved=17 IEnMin=17 EnMin= -3328.79306844369     IErMin=16 ErrMin= 1.29D-04
 ErrMax= 3.15D-04  0.00D+00 EMaxC= 1.00D-01 BMatC= 7.04D-05 BMatP= 6.35D-05
 IDIUse=3 WtCom= 9.99D-01 WtEn= 1.29D-03
 Coeff-Com: -0.316D-03 0.529D-03-0.311D-04 0.102D-04 0.160D-03-0.179D-03
 Coeff-Com: -0.811D-03 0.130D-03-0.319D-02 0.132D-02 0.152D-01-0.288D-02
 Coeff-Com: -0.240D-01-0.929D-01 0.724D-02 0.428D+00 0.672D+00
 Coeff-En:   0.000D+00 0.000D+00 0.000D+00 0.000D+00 0.000D+00 0.000D+00
 Coeff-En:   0.000D+00 0.000D+00 0.000D+00 0.000D+00 0.000D+00 0.000D+00
 Coeff-En:   0.000D+00 0.000D+00 0.000D+00 0.000D+00 0.100D+01
 Coeff:     -0.315D-03 0.528D-03-0.310D-04 0.102D-04 0.159D-03-0.179D-03
 Coeff:     -0.810D-03 0.130D-03-0.318D-02 0.132D-02 0.152D-01-0.287D-02
 Coeff:     -0.240D-01-0.928D-01 0.723D-02 0.428D+00 0.672D+00
 Gap=     0.116 Goal=   None    Shift=    0.000
 Gap=     0.044 Goal=   None    Shift=    0.000
 RMSDP=1.32D-05 MaxDP=1.43D-03 DE=-3.45D-05 OVMax= 4.78D-03

 Cycle  18  Pass 1  IDiag  1:
 RMSU=  7.10D-06    CP:  8.92D-01 -2.99D-03  6.44D-02  2.88D-03  6.81D-01
                    CP:  2.71D-01  6.30D-01  9.71D-02  4.62D-01  1.69D-01
                    CP:  8.80D-01  9.57D-01  1.24D+00  1.26D+00  1.10D+00
                    CP:  1.42D+00  1.08D+00
 E= -3328.79308748407     Delta-E=       -0.000019040377 Rises=F Damp=F
 DIIS: error= 2.75D-04 at cycle  18 NSaved=  18.
 NSaved=18 IEnMin=18 EnMin= -3328.79308748407     IErMin=16 ErrMin= 1.29D-04
 ErrMax= 2.75D-04  0.00D+00 EMaxC= 1.00D-01 BMatC= 4.56D-05 BMatP= 6.35D-05
 IDIUse=3 WtCom= 9.99D-01 WtEn= 1.29D-03
 Coeff-Com:  0.789D-04-0.125D-03 0.215D-05-0.123D-06-0.336D-03-0.362D-04
 Coeff-Com: -0.765D-03 0.279D-04-0.184D-02 0.916D-03 0.139D-01 0.720D-02
 Coeff-Com:  0.130D-01-0.883D-01-0.791D-01 0.527D-02 0.366D+00 0.765D+00
 Coeff-En:   0.000D+00 0.000D+00 0.000D+00 0.000D+00 0.000D+00 0.000D+00
 Coeff-En:   0.000D+00 0.000D+00 0.000D+00 0.000D+00 0.000D+00 0.000D+00
 Coeff-En:   0.000D+00 0.000D+00 0.000D+00 0.000D+00 0.000D+00 0.100D+01
 Coeff:      0.788D-04-0.125D-03 0.214D-05-0.123D-06-0.336D-03-0.362D-04
 Coeff:     -0.764D-03 0.279D-04-0.184D-02 0.915D-03 0.139D-01 0.719D-02
 Coeff:      0.130D-01-0.882D-01-0.790D-01 0.526D-02 0.365D+00 0.765D+00
 Gap=     0.116 Goal=   None    Shift=    0.000
 Gap=     0.044 Goal=   None    Shift=    0.000
 RMSDP=1.05D-05 MaxDP=1.01D-03 DE=-1.90D-05 OVMax= 3.71D-03

 Cycle  19  Pass 1  IDiag  1:
 RMSU=  5.50D-06    CP:  8.92D-01 -2.97D-03  6.44D-02  2.88D-03  6.81D-01
                    CP:  2.71D-01  6.30D-01  9.69D-02  4.62D-01  1.70D-01
                    CP:  8.81D-01  9.55D-01  1.25D+00  1.29D+00  1.17D+00
                    CP:  1.60D+00  1.40D+00  1.27D+00
 E= -3328.79310174341     Delta-E=       -0.000014259344 Rises=F Damp=F
 DIIS: error= 6.62D-05 at cycle  19 NSaved=  19.
 NSaved=19 IEnMin=19 EnMin= -3328.79310174341     IErMin=19 ErrMin= 6.62D-05
 ErrMax= 6.62D-05  0.00D+00 EMaxC= 1.00D-01 BMatC= 6.33D-06 BMatP= 4.56D-05
 IDIUse=1 WtCom= 1.00D+00 WtEn= 0.00D+00
 Coeff-Com:  0.167D-03-0.284D-03 0.220D-04-0.565D-05-0.186D-03 0.903D-04
 Coeff-Com: -0.650D-03 0.431D-04-0.602D-03 0.479D-03 0.329D-02 0.224D-02
 Coeff-Com:  0.169D-01-0.212D-01-0.415D-01-0.131D+00-0.752D-01 0.416D+00
 Coeff-Com:  0.832D+00
 Coeff:      0.167D-03-0.284D-03 0.220D-04-0.565D-05-0.186D-03 0.903D-04
 Coeff:     -0.650D-03 0.431D-04-0.602D-03 0.479D-03 0.329D-02 0.224D-02
 Coeff:      0.169D-01-0.212D-01-0.415D-01-0.131D+00-0.752D-01 0.416D+00
 Coeff:      0.832D+00
 Gap=     0.117 Goal=   None    Shift=    0.000
 Gap=     0.044 Goal=   None    Shift=    0.000
 RMSDP=8.73D-06 MaxDP=9.74D-04 DE=-1.43D-05 OVMax= 3.49D-03

 Cycle  20  Pass 1  IDiag  1:
 RMSU=  3.46D-06    CP:  8.92D-01 -2.99D-03  6.44D-02  2.88D-03  6.80D-01
                    CP:  2.71D-01  6.31D-01  9.70D-02  4.61D-01  1.70D-01
                    CP:  8.81D-01  9.54D-01  1.27D+00  1.31D+00  1.24D+00
                    CP:  1.75D+00  1.60D+00  1.80D+00  1.20D+00
 E= -3328.79310726924     Delta-E=       -0.000005525822 Rises=F Damp=F
 DIIS: error= 4.29D-05 at cycle  20 NSaved=  20.
 NSaved=20 IEnMin=20 EnMin= -3328.79310726924     IErMin=20 ErrMin= 4.29D-05
 ErrMax= 4.29D-05  0.00D+00 EMaxC= 1.00D-01 BMatC= 2.92D-06 BMatP= 6.33D-06
 IDIUse=1 WtCom= 1.00D+00 WtEn= 0.00D+00
 Coeff-Com:  0.121D-03-0.207D-03 0.195D-04-0.778D-06-0.196D-03 0.593D-04
 Coeff-Com: -0.249D-03 0.169D-04 0.692D-03 0.160D-03-0.181D-02 0.193D-02
 Coeff-Com:  0.275D-02 0.740D-02-0.360D-02-0.747D-01-0.158D+00 0.450D-02
 Coeff-Com:  0.508D+00 0.713D+00
 Coeff:      0.121D-03-0.207D-03 0.195D-04-0.778D-06-0.196D-03 0.593D-04
 Coeff:     -0.249D-03 0.169D-04 0.692D-03 0.160D-03-0.181D-02 0.193D-02
 Coeff:      0.275D-02 0.740D-02-0.360D-02-0.747D-01-0.158D+00 0.450D-02
 Coeff:      0.508D+00 0.713D+00
 Gap=     0.117 Goal=   None    Shift=    0.000
 Gap=     0.044 Goal=   None    Shift=    0.000
 RMSDP=5.58D-06 MaxDP=6.46D-04 DE=-5.53D-06 OVMax= 2.28D-03

 Cycle  21  Pass 1  IDiag  1:
 Restarting incremental Fock formation.
 E= -3328.79310927365     Delta-E=       -0.000002004410 Rises=F Damp=F
 DIIS: error= 5.19D-05 at cycle  21 NSaved=  20.
 NSaved=20 IEnMin=20 EnMin= -3328.79310927365     IErMin=19 ErrMin= 4.29D-05
 ErrMax= 5.19D-05  0.00D+00 EMaxC= 1.00D-01 BMatC= 1.93D-06 BMatP= 2.92D-06
 IDIUse=1 WtCom= 1.00D+00 WtEn= 0.00D+00
 Coeff-Com:  0.179D-04-0.248D-04 0.528D-05-0.164D-03 0.253D-04 0.424D-04
 Coeff-Com: -0.117D-05 0.915D-03 0.377D-04-0.171D-02 0.937D-03-0.794D-02
 Coeff-Com:  0.392D-02 0.739D-02 0.384D-02-0.335D-01-0.127D+00-0.208D-01
 Coeff-Com:  0.430D+00 0.744D+00
 Coeff:      0.179D-04-0.248D-04 0.528D-05-0.164D-03 0.253D-04 0.424D-04
 Coeff:     -0.117D-05 0.915D-03 0.377D-04-0.171D-02 0.937D-03-0.794D-02
 Coeff:      0.392D-02 0.739D-02 0.384D-02-0.335D-01-0.127D+00-0.208D-01
 Coeff:      0.430D+00 0.744D+00
 Gap=     0.117 Goal=   None    Shift=    0.000
 Gap=     0.044 Goal=   None    Shift=    0.000
 RMSDP=3.69D-06 MaxDP=4.17D-04 DE=-2.00D-06 OVMax= 1.50D-03

 Cycle  22  Pass 1  IDiag  1:
 RMSU=  3.69D-06    CP:  1.00D+00
 E= -3328.79311019600     Delta-E=       -0.000000922355 Rises=F Damp=F
 DIIS: error= 1.53D-05 at cycle  22 NSaved=  20.
 NSaved=20 IEnMin=20 EnMin= -3328.79311019600     IErMin=20 ErrMin= 1.53D-05
 ErrMax= 1.53D-05  0.00D+00 EMaxC= 1.00D-01 BMatC= 3.89D-07 BMatP= 1.93D-06
 IDIUse=1 WtCom= 1.00D+00 WtEn= 0.00D+00
[...]
 0008,0.00000007,0.00000072,-0.00000014,0.00000290,-0.00000191,0.000002
 92,-0.00000188,-0.00000264,-0.00000061,0.00000137,0.00000015,-0.000003
 28,-0.00004144,0.00000104,0.00002740,0.00022971,0.00021494,0.00011646,
 0.00020397,-0.00042422,-0.00175966,0.15067165,0.18057316,-0.00001880,0
 .00003098,0.00002832,0.00000244,-0.00003418,-0.00000148,0.00001051,0.0
 0002318,-0.00000868,0.00000058,-0.00000237,0.00000086,0.00000070,-0.00
 000028,0.00000150,-0.00000068,0.,-0.00000016,-0.00000017,-0.00000304,-
 0.00000042,-0.00000314,-0.00000057,-0.00000043,-0.00000454,-0.00000226
 ,-0.00000589,0.00001464,-0.00000449,0.00001477,-0.00002018,-0.00001489
 ,-0.00001215,0.00003140,0.00002493,0.00004214,0.00002168,-0.00004242,-
 0.00002475,-0.00004410,-0.00001559,-0.00001935,-0.00001498,-0.00002316
 ,0.00001870,-0.00003842,0.00000771,0.00002482,0.00000104,0.00001779,-0
 .00002734,-0.00006619,0.00015838,0.00021611,0.00077860,0.00029364,0.00
 029044,-0.00004496,-0.00022186,-0.00056804,0.00004806,0.00011836,0.000
 03922,0.00000397,0.00009211,0.00006984,-0.00001297,0.00000040,0.000025
 23,0.00001449,-0.00000254,0.00000773,-0.00000342,-0.00000499,0.0000001
 1,0.00000299,0.00000350,-0.00000200,-0.00000190,-0.00000574,0.00000208
 ,-0.00000059,-0.00000028,-0.00000005,0.00000834,0.00000560,0.00000357,
 -0.00000260,-0.00001856,-0.00001577,-0.00000159,0.00001962,0.00000023,
 0.00023942,-0.00044044,-0.00034215,-0.00012252,0.00006091,-0.00068052,
 -0.00353457,0.00255957,0.00214356,-0.01064303,-0.00990372,0.00577079,0
 .02695540,0.03806428,-0.05309406,0.01478701,0.01314609,0.00119340,-0.0
 0359096,0.00586591,0.00295815,0.00003267,-0.00009382,-0.00010131,0.000
 00583,0.00008146,0.00004275,0.00000231,-0.00001245,-0.00000369,0.00000
 936,0.00000002,-0.00001933,0.00000391,0.00000371,0.00000445,0.00000007
 ,0.00000094,-0.00000005,-0.00000013,-0.00000019,0.00000018,-0.00000131
 ,-0.00000015,-0.00000036,-0.00000012,-0.00000007,0.00000071,0.00000011
 ,0.00000058,0.00000037,-0.00000007,-0.00000099,0.00000196,-0.00000227,
 0.00000193,-0.00000363,-0.00000166,0.00000146,-0.00000550,0.00000044,0
 .00000240,-0.00001049,0.00001407,-0.00000177,-0.00002236,0.00000869,0.
 00001821,-0.00000652,-0.00000128,0.00000207,-0.00000143,-0.00000187,0.
 00000068,0.,-0.00000047,0.00000004,-0.00000005,0.00000063,-0.00000015,
 -0.00000054,-0.00000042,-0.00000028,0.00000009,0.00000010,0.00000047,0
 .00000004,-0.00000343,-0.00000063,0.00000667,0.00000196,-0.00000102,0.
 00000076,-0.00000111,0.00000009,-0.00000089,0.00002923,0.00004504,0.00
 002686,-0.00056349,-0.00036552,0.00024457,0.00146917,-0.00145778,-0.00
 148727,-0.02718961,-0.04510806,0.04583650,-0.00020854,0.00025034,0.000
 11725,0.00008672,-0.00023002,0.00006331,0.00004510,0.00011379,-0.00005
 258,-0.00000578,-0.00003206,0.00001212,-0.00000392,0.00000312,0.000002
 15,0.00000868,0.00000811,-0.00000630,-0.00000818,0.00000022,0.00001083
 ,0.00001937,0.00001525,0.00000354,-0.00003178,-0.00003164,-0.00000081,
 -0.00018125,0.00006759,-0.00024523,-0.00029161,0.00028300,0.00024426,0
 .00045456,-0.00014879,-0.00001737,-0.00022383,0.00016086,0.00013849,0.
 00013759,-0.00002857,0.00007488,0.00011820,0.00006673,0.00002969,-0.00
 004691,0.00023356,0.00002186,0.00037233,0.00081438,-0.00054788,0.00081
 735,0.00004496,-0.00073890,0.00034660,0.00209701,-0.00022066,-0.000518
 82,-0.00070066,0.00053548,0.00002602,0.00086061,-0.00042582,-0.0003448
 9,0.00009236,-0.00029911,0.00002553,-0.00001650,0.00002066,-0.00001504
 ,-0.00001577,-0.00001129,0.00000863,0.00001103,-0.00000246,-0.00000174
 ,-0.00000080,0.00000580,-0.00000679,0.00000184,0.00000861,-0.00000299,
 -0.00000059,0.00000033,-0.00004262,-0.00003948,-0.00004579,0.00005193,
 0.00000750,0.00002818,-0.00000869,0.00000934,0.00001772,-0.00087825,0.
 00012854,-0.00054108,-0.00052510,-0.00371941,0.00041421,0.00017325,-0.
 00075750,0.00083242,0.00266310,-0.00058872,-0.00193362,0.00024388,-0.0
 0136899,-0.00089796,-0.27981798,0.02272987,-0.11659491,-0.01594440,0.0
 0332283,-0.01048405,-0.00012008,0.00005739,-0.00011467,0.00027421,-0.0
 0028145,-0.00027123,0.00001309,-0.00006840,-0.00002419,0.00012461,-0.0
 0007900,-0.00006115,0.00001697,-0.00001387,-0.00002399,-0.00000061,0.0
 0000343,0.00000153,0.00000216,-0.00000509,0.00000024,-0.00000027,0.000
 00256,-0.00000201,0.00000166,-0.00000439,-0.00000082,0.00000015,-0.000
 00394,0.00000118,-0.00000339,-0.00000116,-0.00000827,-0.00001126,0.000
 00347,0.00001441,-0.00000157,0.00000294,-0.00001104,-0.00001301,-0.000
 00319,-0.00000589,-0.00002083,-0.00000307,0.00000636,-0.00015370,-0.00
 000724,0.00004075,-0.00000168,0.00000318,0.00000760,0.00000112,0.00000
 066,0.00000131,0.00000217,0.00000056,0.00000063,-0.00000073,-0.0000008
 3,-0.00000022,0.00000210,0.00000166,0.00000088,-0.00000152,-0.00000162
 ,0.00000154,-0.00000138,0.00000112,-0.00000892,0.00000769,0.00000016,-
 0.00000599,-0.00000315,-0.00000137,0.00000364,-0.00018930,-0.00024681,
 0.00001561,-0.00017121,0.00022258,0.00022414,-0.00003731,-0.00015988,-
 0.00000608,0.00016984,0.00123484,0.00142996,0.29363260,0.00008293,-0.0
 0015031,-0.00010781,-0.00008574,0.00012573,-0.00003763,-0.00004202,-0.
 00009342,0.00004184,0.00000118,0.00001534,-0.00000487,0.00000236,0.000
 00089,0.00000329,-0.00000154,-0.00000083,-0.00000523,-0.00000358,0.000
 01127,0.00000893,0.00002449,0.00000217,-0.00000705,-0.00000678,0.00002
 075,-0.00003506,-0.00015363,0.00015122,-0.00038685,-0.00028533,0.00041
 243,0.00032874,0.00007722,-0.00022173,-0.00017127,-0.00017437,0.000345
 47,0.00023874,0.00023552,-0.00013805,0.00003374,0.00004598,-0.00019511
 ,-0.00013009,0.00009828,-0.00000180,-0.00000541,0.00000836,0.00009517,
 0.00120824,0.00054339,-0.00196890,0.00071597,0.00189787,0.00035902,-0.
 00084694,-0.00066970,-0.00099860,0.00020133,0.00000820,0.00119410,-0.0
 0050306,-0.00041954,0.00003189,-0.00045622,-0.00001869,-0.00001735,0.0
 0003650,-0.00000545,-0.00000651,-0.00003572,0.00001625,0.00001244,-0.0
 0001209,0.00000672,0.00000628,0.00000734,-0.00001531,-0.00000679,0.000
 01465,-0.00000546,-0.00000124,0.00000261,-0.00003313,-0.00002754,0.000
 00832,0.00007557,-0.00004662,-0.00003512,-0.00002350,0.00006796,0.0000
 5838,-0.00111068,-0.00011767,-0.00039805,-0.00258242,-0.00120805,0.003
 10909,-0.00054826,-0.00099416,0.00008408,-0.00128898,-0.00105545,0.005
 76356,0.02248573,0.00160361,0.01158306,0.02352014,-0.05427348,0.021739
 18,-0.01873306,0.00636321,-0.00988915,-0.00078790,0.00005472,0.0008880
 0,0.00035990,-0.00061073,-0.00092140,0.00000071,-0.00004315,-0.0000123
 7,0.00003901,0.00012484,0.00009521,-0.00002930,0.00002532,0.00003759,0
 .00000132,0.00000059,-0.00000230,0.00000138,-0.00000047,-0.00000090,0.
 00000156,-0.00000031,-0.00000089,0.00000225,-0.00000003,-0.00000108,0.
 00000306,-0.00000407,0.00000236,0.00000176,0.00000662,-0.00000717,0.00
 000130,-0.00000493,0.00001353,-0.00000006,-0.00000873,0.00000018,0.000
 00485,0.00000497,-0.00001142,-0.00000220,0.00001045,-0.00001471,0.0000
 0821,0.00003850,0.00006620,-0.00000438,-0.00000020,0.00000152,0.000004
 75,0.00000516,0.00000396,0.00000539,0.00000466,-0.00000092,0.00000210,
 -0.00000242,-0.00000434,0.00000561,0.00000531,-0.00000075,-0.00000304,
 0.00000020,-0.00000067,-0.00000291,0.00000507,0.00000047,0.00001619,-0
 .00000735,-0.00001171,-0.00000239,-0.00000046,-0.00001183,-0.00028252,
 -0.00015778,0.00014918,0.00022681,-0.00024716,-0.00047860,0.00094100,-
 0.00002709,0.00052827,0.00078829,-0.00063741,-0.00282039,-0.02423407,0
 .05208282,0.00017202,-0.00023883,-0.00005257,-0.00010855,0.00034688,-0
 .00015580,-0.00009365,-0.00026327,0.00010550,-0.00000134,0.00005854,-0
 .00002285,0.00000600,-0.00000487,0.00000192,-0.00000951,-0.00001880,0.
 00000730,0.00001424,0.00000644,-0.00001190,0.00000686,-0.00001518,-0.0
 0001027,0.00000055,0.00005930,-0.00001495,-0.00004282,-0.00009504,0.00
 004204,0.00004705,0.00004968,0.00005598,0.00014282,-0.00000940,0.00009
 624,0.00008563,-0.00017704,-0.00009252,-0.00009703,0.00001670,-0.00006
 581,-0.00010142,-0.00002043,0.00007381,-0.00008976,0.00025822,-0.00035
 702,0.00025276,0.00096160,-0.00225300,0.00005665,0.00131389,-0.0002979
 1,0.00044590,-0.00107904,-0.00158363,-0.00006838,0.00010690,-0.0005007
 3,0.00003997,-0.00039976,0.00027726,0.00034221,-0.00020300,0.00020858,
 0.00000296,0.00002513,-0.00000404,-0.00000217,0.00000159,0.00001436,0.
 00000166,-0.00000155,-0.00000270,-0.00000248,-0.00000343,0.00000343,-0
 .00000130,-0.00000195,-0.00000487,0.00000111,-0.00000007,-0.00000123,0
 .00001375,0.00000872,0.00000830,-0.00001978,-0.00001395,-0.00000264,0.
 00000593,0.00000676,-0.00000992,0.00029484,0.00033543,0.00014989,-0.00
 023495,0.00231200,0.00302715,0.00082551,0.00044726,-0.00051694,-0.0017
 9654,0.00583579,0.00308083,-0.01728263,0.00145721,-0.00286249,-0.11812
 238,0.02181137,-0.10169819,0.00482666,-0.00043359,0.00600306,0.0001254
 2,0.00030570,0.00034903,-0.00018386,-0.00030533,-0.00032418,0.00000086
 ,-0.00004537,-0.00001976,0.00000118,0.00006944,0.00022947,0.00003464,-
 0.00001136,-0.00002816,0.00000406,-0.00000406,-0.00000832,0.00000063,0
 .00000568,-0.00000278,0.00000533,-0.00000338,0.00000203,0.00000216,0.0
 0000351,0.00000107,0.00000240,-0.00000021,-0.00000099,0.00000756,0.000
 01140,-0.00000371,0.00001228,-0.00001113,0.00000895,0.00000789,-0.0000
 0272,0.00001672,0.00000605,0.00000494,0.00001484,0.00000844,0.00001649
 ,-0.00000625,0.00003556,-0.00006424,0.00002928,0.00000008,0.00000360,-
 0.00000295,-0.00000247,-0.00000216,-0.00000171,-0.00000204,-0.00000155
 ,0.00000032,0.00000091,0.00000075,0.00000057,-0.00000232,-0.00000211,-
 0.00000003,0.00000079,0.00000111,0.00000048,0.00000176,-0.00000347,0.0
 0000234,-0.00000573,-0.00000231,0.00000183,0.00000216,0.00000049,-0.00
 000216,0.00003726,0.00010583,0.00003955,0.00020076,-0.00044777,-0.0006
 1461,-0.00073417,0.00002324,-0.00026998,0.00162947,-0.00259710,-0.0025
 5647,0.12929735,-0.02963045,0.10046679,0.00025567,-0.00045408,-0.00001
 038,0.00009800,0.00085156,-0.00029595,-0.00020697,-0.00065235,0.000404
 56,-0.00016269,-0.00007905,0.00004607,-0.00002433,0.00009097,-0.000002
 52,0.00015294,0.00007397,-0.00017426,0.00009205,0.00065536,0.00012669,
 -0.00021160,0.00013621,0.00086395,-0.00039381,-0.00052093,-0.00021849,
 0.00254792,0.00062096,0.00252007,0.00065400,-0.00224121,-0.00198592,-0
 .00013559,0.00149867,0.00146426,0.00053109,-0.00171243,-0.00145259,-0.
 00121840,0.00079456,0.00010109,0.00001540,0.00041253,0.00041891,-0.000
 19938,0.00034647,0.00016089,-0.00137620,-0.00118686,-0.00124647,-0.000
 61875,0.00501091,0.00388987,-0.00181623,-0.00639090,0.00263164,-0.0068
 5160,0.02440316,-0.00986018,-0.04663923,0.02630312,0.04064142,0.003444
 88,-0.00182805,0.00167679,-0.00042340,-0.00006082,0.00010916,0.0003392
 8,-0.00030601,-0.00013849,-0.00005266,-0.00015458,-0.00001766,0.000000
 73,-0.00005483,-0.00001342,-0.00002804,-0.00013715,0.00008354,-0.00004
 388,-0.00002490,-0.00001126,-0.00004237,0.00016910,0.00025793,0.000141
 06,-0.00049935,-0.00040800,-0.00007213,0.00057355,0.00003981,0.0009536
 7,0.00243991,-0.00127840,-0.00043329,-0.00167234,0.00089260,0.00067233
 ,0.00163366,-0.00083768,-0.00104387,-0.00053332,-0.00006894,-0.0000886
 0,-0.00040109,0.00018776,-0.00013362,-0.00029412,0.00022605,-0.0011812
 9,0.00113929,-0.00089095,-0.00927388,-0.02031850,-0.01650201,-0.055905
 45,-0.03912125,0.03602915,-0.00003816,0.00003767,0.00005918,-0.0000570
 8,0.00007357,0.00001295,0.00001321,0.00008832,-0.00001934,0.00004560,0
 .00000004,-0.00005563,0.00002967,-0.00003035,-0.00001319,0.00007535,0.
 00000938,-0.00002078,0.00008163,-0.00003045,-0.00005499,-0.00000125,-0
 .00003492,0.00004148,0.00005074,0.00023295,-0.00108891,0.00004593,0.00
 007359,0.00008554,-0.00001461,-0.00000428,-0.00003575,-0.00001759,0.00
 001139,0.00000017,0.00003761,0.00000614,0.00001890,0.00001396,0.000009
 52,-0.00003199,-0.00006649,0.00008619,-0.00003699,-0.00001965,0.000029
 74,0.00001521,0.00000830,0.00003274,-0.00000936,0.00003077,-0.00001090
 ,-0.00003350,0.00002145,0.00002203,-0.00000131,-0.00000849,0.00001172,
 0.00000944,0.00000651,-0.00007562,0.00004449,0.00005182,-0.00008983,0.
 00002346,-0.00001147,-0.00003278,-0.00003521,-0.00000522,-0.00002182,0
 .00015006,-0.00002312,0.00002479,-0.00000968,-0.00001798,-0.00000049,0
 .00000571,0.00003490,-0.00002399,0.00000776,-0.00000711,0.00001030,-0.
 00000483,0.11841896,-0.00045898,-0.00003188,-0.00045028,0.00021717,-0.
 00039976,0.00025794,-0.00018371,0.00021271,0.00019621,-0.00000369,-0.0
 0002999,-0.00000281,-0.00002939,-0.00006544,0.00001360,0.00008530,-0.0
 0019055,-0.00003638,-0.00002737,-0.00017799,-0.00009592,-0.00024879,-0
 .00004494,-0.00066918,-0.00096363,0.00101226,-0.00013649,0.00388833,0.
 00232370,0.00441540,0.00155696,-0.00348129,-0.00196558,0.00042046,0.00
 181817,0.00223752,0.00078493,-0.00246776,-0.00219178,-0.00177993,0.001
 14098,0.00014330,-0.00013448,0.00040084,0.00083755,-0.00040173,0.00089
 772,0.00000186,-0.00204961,-0.00229928,-0.00318889,-0.00217203,0.00329
 280,0.00667986,0.00430195,0.00368018,-0.00595639,0.01472960,-0.0378330
 7,0.01043688,0.02968962,-0.01256065,-0.02914314,-0.00398002,0.00374809
 ,-0.00253808,0.00080942,0.00041196,-0.00018984,0.00008954,0.00012963,0
 .00018107,-0.00012545,-0.00022874,0.00007118,-0.00007370,-0.00014355,-
 0.00014552,0.00022045,0.00016383,-0.00004292,0.00000733,0.00000605,-0.
 00003901,0.00050076,0.00028024,0.00044723,-0.00112198,0.00006744,0.000
 17257,0.00019553,-0.00052433,-0.00019398,-0.00182849,-0.00358127,0.001
 14756,0.00007044,0.00237967,-0.00167095,-0.00114154,-0.00277745,0.0015
 9399,0.00200642,0.00093553,0.00015643,0.00003783,0.00065596,-0.0008162
 5,0.00046498,0.00058114,0.00031220,0.00153204,-0.00288370,0.00220385,-
 0.01791677,-0.02971209,-0.02152323,-0.03781816,-0.02361688,0.02945586,
 -0.00004882,-0.00000736,0.00031906,0.00003233,-0.00005813,0.00003002,0
 .00011757,0.00004289,0.00004435,-0.00002136,0.00002063,0.00002096,0.00
 002336,-0.00002026,-0.00000039,-0.00002356,0.00001651,0.00000417,0.000
 01489,-0.00001349,0.00001997,0.00009184,-0.00013776,0.00005485,-0.0003
 4091,0.00025825,0.00029010,0.00009262,0.00022797,0.00031355,0.00001796
 ,0.00001927,-0.00004574,0.00000033,0.00006950,-0.00003106,0.00003894,-
 0.00000071,0.00005101,0.00006695,0.00013312,-0.00013801,0.00003664,0.0
 0003059,0.00001273,-0.00006796,-0.00001134,-0.00003557,-0.00006485,-0.
 00002013,0.00000239,0.00001649,-0.00001324,0.00002331,-0.00005000,-0.0
 0003123,0.00000969,0.00001296,0.00003149,0.00005464,0.00001222,0.00001
 494,-0.00003009,-0.00009182,0.00011262,0.00002335,0.00001898,0.0000106
 5,0.00002605,-0.00001839,0.00017395,-0.00029431,-0.00001625,-0.0000002
 3,0.00004611,0.00000960,0.00005711,0.00003734,-0.00003237,0.00001547,-
 0.00004741,-0.00006252,0.00008775,0.00014235,0.01108550,0.09790290,0.0
 0035996,-0.00015836,0.00022814,-0.00000741,0.00057716,-0.00037227,-0.0
 0011402,-0.00031611,0.00010853,-0.00004717,0.00002562,-0.00001238,0.00
 000470,0.00006396,0.00001100,0.00003921,-0.00008006,-0.00014409,0.0003
 5321,0.00039347,-0.00021411,-0.00110453,-0.00033063,0.00102280,0.00041
 822,-0.00042499,-0.00008711,-0.00135111,-0.00118348,-0.00174338,-0.000
 37273,0.00028494,-0.00020241,-0.00004208,-0.00012125,-0.00017306,0.000
 02068,0.00000180,-0.00002502,-0.00009551,-0.00001787,-0.00009402,0.000
 03979,0.00005986,0.00005958,0.00003521,-0.00010569,-0.00020765,0.00045
 192,-0.00005136,0.00006388,-0.00051943,-0.00242707,-0.00090027,0.00082
 304,0.00328957,-0.00089387,0.00039843,-0.00868546,0.00545716,0.0340769
 3,-0.02204652,-0.02637436,-0.00198577,0.00265479,-0.00162536,0.0004689
 2,0.00018079,-0.00006137,0.00016756,-0.00007770,0.00010030,-0.00008326
 ,-0.00025096,-0.00006356,-0.00001143,0.00000490,-0.00009610,0.00002297
 ,0.00006650,0.00007806,0.00003190,-0.00004097,0.00002279,0.00042863,0.
 00021165,0.00069927,-0.00060589,-0.00005438,-0.00046245,0.00008811,-0.
 00017877,-0.00001775,-0.00081494,-0.00097981,0.00003366,0.00002078,0.0
 0060778,-0.00049220,-0.00021556,-0.00057922,0.00028620,0.00033609,0.00
 022400,-0.00003338,0.00008521,0.00007911,-0.00012602,0.00016206,0.0002
 6601,-0.00014247,0.00073569,-0.00056688,0.00062395,-0.00325952,-0.0012
 4887,0.00412556,0.02717117,0.02120417,-0.01420107,-0.00003020,0.000008
 21,-0.00000253,-0.00005652,-0.00000727,-0.00002454,-0.00000082,0.00003
 390,-0.00004361,0.00005213,0.00001631,-0.00005133,0.00001929,-0.000009
 93,-0.00000245,0.00004581,-0.00000551,-0.00002432,0.00009413,-0.000006
 37,-0.00003630,-0.00001829,0.00002599,0.00008328,0.00050838,0.00022816
 ,-0.00076561,-0.00007068,-0.00011109,-0.00008251,-0.00001048,-0.000006
 74,-0.00000272,-0.00000532,-0.00000225,0.00000974,-0.00000909,-0.00001
 947,0.00000955,-0.00001134,-0.00000025,0.00001400,-0.00007900,0.000115
 41,-0.00013571,-0.00005544,-0.00000388,-0.00001787,-0.00000401,0.00000
 997,-0.00001133,0.00001201,0.00001418,-0.00003217,-0.00001926,-0.00000
 157,-0.00001740,0.00002518,0.00004132,-0.00007743,0.00001131,0.0000358
 0,-0.00001261,-0.00004167,0.00004121,0.00000271,0.00001420,-0.00003150
 ,-0.00002738,-0.00005136,0.00016773,-0.00012661,-0.00001163,0.00000482
 ,0.00001346,-0.00000269,0.00001617,0.00001785,-0.00001450,0.00002038,0
 .00000568,-0.00001862,0.00002546,0.00004512,-0.05638154,0.00913117,0.0
 3713787\\0.00000204,-0.00000089,0.00000124,0.00000102,0.00000797,-0.00
 000117,-0.00000658,-0.00000841,-0.00000243,0.00000116,-0.00000091,0.00
 000191,-0.00000158,-0.00000042,-0.00000219,0.00000585,0.00000068,-0.00
 000080,-0.00000462,0.00000188,0.00000106,-0.00000035,-0.00000541,0.000
 00200,0.00000209,0.00000719,-0.00000466,0.00000296,0.00000004,0.000001
 32,0.00000131,0.00000158,0.00000190,-0.00000425,0.00000270,-0.00000170
 ,0.00000315,-0.00000337,-0.00000150,-0.00000197,0.00000177,0.00000097,
 0.00000118,0.00000041,0.00000157,0.00000088,-0.00000181,-0.00000507,0.
 00000167,-0.00000091,-0.00000183,-0.00000200,0.00000584,0.00000561,0.0
 0000369,0.00000246,-0.00000162,0.00000252,-0.00000563,0.00000661,-0.00
 000499,0.00000447,0.00000059,-0.00000730,0.00000433,-0.00000524,0.0000
 0137,0.00000009,0.00000785,-0.00000078,-0.00000034,-0.00000293,0.00000
 082,0.00000061,-0.00000124,-0.00000162,-0.00000163,0.00000254,0.000001
 64,0.00000093,0.00000103,-0.00000006,-0.00000003,-0.00000002,-0.000003
 29,-0.00000441,-0.00000432,0.00000291,0.00000202,0.00000146,-0.0000015
 5,0.00000186,0.00000089,-0.00000251,-0.00000413,0.,0.00000844,0.000006
 28,0.00000096,-0.00000575,-0.00000725,0.00000258,0.00000664,0.00000297
 ,0.00000015,-0.00000403,0.00000286,-0.00000420,-0.00000260,-0.00000610
 ,0.00000657,-0.00000146,0.00000116,-0.00000251,-0.00000106,-0.00000835
 ,-0.00000564,0.00000355,0.00000391,0.00000278,-0.00000041,-0.00000061,
 -0.00000115,-0.00000037,0.00000063,0.00000001,-0.00000048,0.00000037,-
 0.00000084,-0.00000081,0.00000042,0.00000038,0.00000032,-0.00000041,-0
 .00000060,0.00000132,-0.00000036,0.00000086,-0.00000150,0.00000015,-0.
 00000006,0.00000078,0.00000062,-0.00000084,0.00000106,-0.00000002,-0.0
 0000109,-0.00000004,0.,-0.00000128,-0.00000067,0.00000045,-0.00000069,
 -0.00000021,-0.00000025,-0.00000117,0.00000080,-0.00000077,-0.00000007
 ,-0.00000088,0.00000033,-0.00000124,-0.00000084,-0.00000040,0.00000124
 ,0.00000002,0.00000020,0.00000141,0.00000065,0.00000074,-0.00000018,-0
 .00000023,0.00000057,0.00000018,-0.00000003,-0.00000048,0.00000059,0.0
 0000077,-0.00000055,0.00000027,0.00000163,0.,-0.00000035,0.00000063,-0
 .00000035,-0.00000013,-0.00000018,0.00000009,0.00000117,0.00000037,0.0
 0000068,0.00000110,0.00000086,0.00000046,0.00000062,-0.00000013,-0.000
 00068,0.00000083,-0.00000064,-0.00000093,-0.00000006,0.00000102,0.0000
 0004,0.00000130,0.00000062,-0.00000391,-0.00000271\\\@
 The archive entry for this job was punched.


 ERROR IS A HARDY PLANT... IT FLOURISHETH IN EVERY SOIL.
            MARTIN FARQUHAR TUPPER
 Job cpu time:       1 days  4 hours 51 minutes 19.3 seconds.
 Elapsed time:       0 days  0 hours 54 minutes 26.1 seconds.
 File lengths (MBytes):  RWF=   6337 Int=      0 D2E=      0 Chk=     49 Scr=      1
 Normal termination of Gaussian 16 at Fri Feb  7 13:55:07 2025.
