 Entering Gaussian System, Link 0=g16
 Initial command:
 /public/software/apps/Gaussian/g16/l1.exe "/tmp/Gau-27343.inp" -scrdir="/tmp/"
 Entering Link 1 = /public/software/apps/Gaussian/g16/l1.exe PID=     27344.
  
 Copyright (c) 1988-2019, Gaussian, Inc.  All Rights Reserved.
  
 This is part of the Gaussian(R) 16 program.  It is based on
 the Gaussian(R) 09 system (copyright 2009, Gaussian, Inc.),
 the Gaussian(R) 03 system (copyright 2003, Gaussian, Inc.),
 the Gaussian(R) 98 system (copyright 1998, Gaussian, Inc.),
 the Gaussian(R) 94 system (copyright 1995, Gaussian, Inc.),
 the Gaussian 92(TM) system (copyright 1992, Gaussian, Inc.),
 the Gaussian 90(TM) system (copyright 1990, Gaussian, Inc.),
 the Gaussian 88(TM) system (copyright 1988, Gaussian, Inc.),
 the Gaussian 86(TM) system (copyright 1986, Carnegie Mellon
 University), and the Gaussian 82(TM) system (copyright 1983,
 Carnegie Mellon University). Gaussian is a federally registered
 trademark of Gaussian, Inc.
  
 This software contains proprietary and confidential information,
 including trade secrets, belonging to Gaussian, Inc.
  
 This software is provided under written license and may be
 used, copied, transmitted, or stored only in accord with that
 written license.
  
 The following legend is applicable only to US Government
 contracts under FAR:
  
                    RESTRICTED RIGHTS LEGEND
  
 Use, reproduction and disclosure by the US Government is
 subject to restrictions as set forth in subparagraphs (a)
 and (c) of the Commercial Computer Software - Restricted
 Rights clause in FAR 52.227-19.
  
 Gaussian, Inc.
 340 Quinnipiac St., Bldg. 40, Wallingford CT 06492
  
  
 ---------------------------------------------------------------
 Warning -- This program may not be used in any manner that
 competes with the business of Gaussian, Inc. or will provide
 assistance to any competitor of Gaussian, Inc.  The licensee
 of this program is prohibited from giving any competitor of
 Gaussian, Inc. access to this program.  By using this program,
 the user acknowledges that Gaussian, Inc. is engaged in the
 business of creating and licensing software in the field of
 computational chemistry and represents and warrants to the
 licensee that it is not a competitor of Gaussian, Inc. and that
 it will not use this program in any manner prohibited above.
 ---------------------------------------------------------------
  

 Cite this work as:
 Gaussian 16, Revision C.01,
 M. J. Frisch, G. W. Trucks, H. B. Schlegel, G. E. Scuseria, 
 M. A. Robb, J. R. Cheeseman, G. Scalmani, V. Barone, 
 G. A. Petersson, H. Nakatsuji, X. Li, M. Caricato, A. V. Marenich, 
 J. Bloino, B. G. Janesko, R. Gomperts, B. Mennucci, H. P. Hratchian, 
 J. V. Ortiz, A. F. Izmaylov, J. L. Sonnenberg, D. Williams-Young, 
 F. Ding, F. Lipparini, F. Egidi, J. Goings, B. Peng, A. Petrone, 
 T. Henderson, D. Ranasinghe, V. G. Zakrzewski, J. Gao, N. Rega, 
 G. Zheng, W. Liang, M. Hada, M. Ehara, K. Toyota, R. Fukuda, 
 J. Hasegawa, M. Ishida, T. Nakajima, Y. Honda, O. Kitao, H. Nakai, 
 T. Vreven, K. Throssell, J. A. Montgomery, Jr., J. E. Peralta, 
 F. Ogliaro, M. J. Bearpark, J. J. Heyd, E. N. Brothers, K. N. Kudin, 
 V. N. Staroverov, T. A. Keith, R. Kobayashi, J. Normand, 
 K. Raghavachari, A. P. Rendell, J. C. Burant, S. S. Iyengar, 
 J. Tomasi, M. Cossi, J. M. Millam, M. Klene, C. Adamo, R. Cammi, 
 J. W. Ochterski, R. L. Martin, K. Morokuma, O. Farkas, 
 J. B. Foresman, and D. J. Fox, Gaussian, Inc., Wallingford CT, 2019.
 
 ******************************************
 Gaussian 16:  ES64L-G16RevC.01  3-Jul-2019
                 7-Feb-2025 
 ******************************************
 %nprocshared=32
 Will use up to   32 processors via shared memory.
 %mem=100GB
 ------------------------------------------
 #p opt freq b3lyp/def2svpp em=gd3bj nosymm
 ------------------------------------------
 1/18=20,19=15,26=3,38=1/1,3;
 2/9=110,12=2,15=1,17=6,18=5,40=1/2;
 3/5=43,7=202,11=2,25=1,30=1,71=1,74=-5,124=41/1,2,3;
 4//1;
 5/5=2,38=5/2;
 6/7=2,8=2,9=2,10=2,28=1/1;
 7/30=1/1,2,3,16;
 1/18=20,19=15,26=3/3(2);
 2/9=110,15=1/2;
 99//99;
 2/9=110,15=1/2;
 3/5=43,7=202,11=2,25=1,30=1,71=1,74=-5,124=41/1,2,3;
 4/5=5,16=3,69=1/1;
 5/5=2,38=5/2;
 7/30=1/1,2,3,16;
 1/18=20,19=15,26=3/3(-5);
 2/9=110,15=1/2;
 6/7=2,8=2,9=2,10=2,19=2,28=1/1;
 99/9=1/99;
 Leave Link    1 at Fri Feb  7 19:21:20 2025, MaxMem= 13421772800 cpu:               1.8 elap:               0.1
 (Enter /public/software/apps/Gaussian/g16/l101.exe)
 ------------------
 $$$$Title####0????
 ------------------
 Symbolic Z-matrix:
 Charge =  0 Multiplicity = 2
 O                    -1.01499   0.8517    0.93687 
 C                    -1.41673   0.15581  -0.20134 
 C                    -2.52652   0.6024   -0.93727 
 C                    -3.29585   1.78479  -0.49514 
 C                    -3.94864   1.77876   0.75339 
 C                    -4.6775    2.90132   1.18047 
 C                    -4.75524   4.0418    0.37016 
 C                    -4.09742   4.03876  -0.86124 
 C                    -3.39092   2.94136  -1.2905 
 C                    -2.75514   3.18611  -2.61122 
 C                    -3.08942   4.65558  -2.9269 
 C                    -4.04667   5.15625  -1.83089 
 C                    -2.91398  -0.08424  -2.09384 
 C                    -2.19009  -1.1968   -2.53937 
 C                    -2.57671  -1.86029  -3.71494 
 C                    -1.84961  -2.95899  -4.17474 
 C                    -0.73035  -3.40225  -3.47069 
 C                    -0.33422  -2.75506  -2.29809 
 C                    -1.06324  -1.65049  -1.80677 
 C                    -0.69449  -0.97947  -0.61302 
 C                     0.45754  -1.42906   0.21412 
 C                     1.61412  -0.62843   0.24973 
 O                     1.63883   0.57658  -0.44921 
 C                     2.73515  -1.02513   0.99714 
 C                     3.9565   -0.19258   1.02061 
 C                     4.66463   0.0599   -0.17095 
 C                     5.8234    0.85411  -0.15514 
 C                     6.28141   1.40953   1.04699 
 C                     5.56664   1.15887   2.21974 
 C                     4.43823   0.37507   2.21433 
 C                     3.83579   0.27931   3.56943 
 C                     4.70712   1.2047    4.43843 
 C                     5.88354   1.68114   3.56822 
 C                     2.6995   -2.22451   1.71787 
 C                     1.54749  -3.0202    1.72248 
 C                     1.51871  -4.20843   2.47012 
 C                     0.36807  -4.99755   2.49372 
 C                    -0.76322  -4.6076    1.77745 
 C                    -0.74999  -3.42999   1.02656 
 C                     0.40775  -2.62371   0.97675 
 H                    -3.89904   0.90487   1.39142 
 H                    -5.17828   2.88643   2.13977 
 H                    -5.30975   4.91157   0.6983 
 H                    -3.19608   2.51649  -3.3796 
 H                    -1.65634   3.03067  -2.54957 
 H                    -2.1581    5.26348  -2.92079 
 H                    -3.56382   4.74233  -3.92872 
 H                    -5.0605    5.34286  -2.24605 
 H                    -3.65338   6.07566  -1.34594 
 H                    -3.78448   0.25075  -2.64686 
 H                    -3.43835  -1.52595  -4.28073 
 H                    -2.15139  -3.46489  -5.08279 
 H                    -0.16549  -4.25033  -3.83584 
 H                     0.54503  -3.12333  -1.78638 
 H                     4.3243   -0.36249  -1.10849 
 H                     6.3626    1.04009  -1.07489 
 H                     7.16964   2.02795   1.06271 
 H                     2.77976   0.62542   3.55177 
 H                     3.89224  -0.76541   3.94172 
 H                     5.07946   0.66293   5.33514 
 H                     4.1083    2.07946   4.77483 
 H                     6.84181   1.2469    3.92621 
 H                     5.94521   2.79069   3.552 
 H                     3.57486  -2.53796   2.27583 
 H                     2.38457  -4.52412   3.04017 
 H                     0.35139  -5.91129   3.07367 
 H                    -1.65564  -5.21952   1.80522 
 H                    -1.6507   -3.15729   0.49279 
 Cu                   -0.07721   1.50536  -0.65824 
 
 ITRead=  0  0  0  0  0  0  0  0  0  0  0  0  0  0  0  0  0  0  0  0
 ITRead=  0  0  0  0  0  0  0  0  0  0  0  0  0  0  0  0  0  0  0  0
 ITRead=  0  0  0  0  0  0  0  0  0  0  0  0  0  0  0  0  0  0  0  0
 ITRead=  0  0  0  0  0  0  0  0  0
 MicOpt= -1 -1 -1 -1 -1 -1 -1 -1 -1 -1 -1 -1 -1 -1 -1 -1 -1 -1 -1 -1
 MicOpt= -1 -1 -1 -1 -1 -1 -1 -1 -1 -1 -1 -1 -1 -1 -1 -1 -1 -1 -1 -1
 MicOpt= -1 -1 -1 -1 -1 -1 -1 -1 -1 -1 -1 -1 -1 -1 -1 -1 -1 -1 -1 -1
 MicOpt= -1 -1 -1 -1 -1 -1 -1 -1 -1
 NAtoms=     69 NQM=       69 NQMF=       0 NMMI=      0 NMMIF=      0
                NMic=       0 NMicF=      0.
                    Isotopes and Nuclear Properties:
 (Nuclear quadrupole moments (NQMom) in fm**2, nuclear magnetic moments (NMagM)
  in nuclear magnetons)

  Atom         1           2           3           4           5           6           7           8           9          10
 IAtWgt=          16          12          12          12          12          12          12          12          12          12
 AtmWgt=  15.9949146  12.0000000  12.0000000  12.0000000  12.0000000  12.0000000  12.0000000  12.0000000  12.0000000  12.0000000
 NucSpn=           0           0           0           0           0           0           0           0           0           0
 AtZEff=  -0.0000000  -0.0000000  -0.0000000  -0.0000000  -0.0000000  -0.0000000  -0.0000000  -0.0000000  -0.0000000  -0.0000000
 NQMom=    0.0000000   0.0000000   0.0000000   0.0000000   0.0000000   0.0000000   0.0000000   0.0000000   0.0000000   0.0000000
 NMagM=    0.0000000   0.0000000   0.0000000   0.0000000   0.0000000   0.0000000   0.0000000   0.0000000   0.0000000   0.0000000
 AtZNuc=   8.0000000   6.0000000   6.0000000   6.0000000   6.0000000   6.0000000   6.0000000   6.0000000   6.0000000   6.0000000

  Atom        11          12          13          14          15          16          17          18          19          20
 IAtWgt=          12          12          12          12          12          12          12          12          12          12
 AtmWgt=  12.0000000  12.0000000  12.0000000  12.0000000  12.0000000  12.0000000  12.0000000  12.0000000  12.0000000  12.0000000
 NucSpn=           0           0           0           0           0           0           0           0           0           0
 AtZEff=  -0.0000000  -0.0000000  -0.0000000  -0.0000000  -0.0000000  -0.0000000  -0.0000000  -0.0000000  -0.0000000  -0.0000000
 NQMom=    0.0000000   0.0000000   0.0000000   0.0000000   0.0000000   0.0000000   0.0000000   0.0000000   0.0000000   0.0000000
 NMagM=    0.0000000   0.0000000   0.0000000   0.0000000   0.0000000   0.0000000   0.0000000   0.0000000   0.0000000   0.0000000
 AtZNuc=   6.0000000   6.0000000   6.0000000   6.0000000   6.0000000   6.0000000   6.0000000   6.0000000   6.0000000   6.0000000

  Atom        21          22          23          24          25          26          27          28          29          30
 IAtWgt=          12          12          16          12          12          12          12          12          12          12
 AtmWgt=  12.0000000  12.0000000  15.9949146  12.0000000  12.0000000  12.0000000  12.0000000  12.0000000  12.0000000  12.0000000
 NucSpn=           0           0           0           0           0           0           0           0           0           0
 AtZEff=  -0.0000000  -0.0000000  -0.0000000  -0.0000000  -0.0000000  -0.0000000  -0.0000000  -0.0000000  -0.0000000  -0.0000000
 NQMom=    0.0000000   0.0000000   0.0000000   0.0000000   0.0000000   0.0000000   0.0000000   0.0000000   0.0000000   0.0000000
 NMagM=    0.0000000   0.0000000   0.0000000   0.0000000   0.0000000   0.0000000   0.0000000   0.0000000   0.0000000   0.0000000
 AtZNuc=   6.0000000   6.0000000   8.0000000   6.0000000   6.0000000   6.0000000   6.0000000   6.0000000   6.0000000   6.0000000

  Atom        31          32          33          34          35          36          37          38          39          40
 IAtWgt=          12          12          12          12          12          12          12          12          12          12
 AtmWgt=  12.0000000  12.0000000  12.0000000  12.0000000  12.0000000  12.0000000  12.0000000  12.0000000  12.0000000  12.0000000
 NucSpn=           0           0           0           0           0           0           0           0           0           0
 AtZEff=  -0.0000000  -0.0000000  -0.0000000  -0.0000000  -0.0000000  -0.0000000  -0.0000000  -0.0000000  -0.0000000  -0.0000000
 NQMom=    0.0000000   0.0000000   0.0000000   0.0000000   0.0000000   0.0000000   0.0000000   0.0000000   0.0000000   0.0000000
 NMagM=    0.0000000   0.0000000   0.0000000   0.0000000   0.0000000   0.0000000   0.0000000   0.0000000   0.0000000   0.0000000
 AtZNuc=   6.0000000   6.0000000   6.0000000   6.0000000   6.0000000   6.0000000   6.0000000   6.0000000   6.0000000   6.0000000

  Atom        41          42          43          44          45          46          47          48          49          50
 IAtWgt=           1           1           1           1           1           1           1           1           1           1
 AtmWgt=   1.0078250   1.0078250   1.0078250   1.0078250   1.0078250   1.0078250   1.0078250   1.0078250   1.0078250   1.0078250
 NucSpn=           1           1           1           1           1           1           1           1           1           1
 AtZEff=  -0.0000000  -0.0000000  -0.0000000  -0.0000000  -0.0000000  -0.0000000  -0.0000000  -0.0000000  -0.0000000  -0.0000000
 NQMom=    0.0000000   0.0000000   0.0000000   0.0000000   0.0000000   0.0000000   0.0000000   0.0000000   0.0000000   0.0000000
 NMagM=    2.7928460   2.7928460   2.7928460   2.7928460   2.7928460   2.7928460   2.7928460   2.7928460   2.7928460   2.7928460
 AtZNuc=   1.0000000   1.0000000   1.0000000   1.0000000   1.0000000   1.0000000   1.0000000   1.0000000   1.0000000   1.0000000

  Atom        51          52          53          54          55          56          57          58          59          60
 IAtWgt=           1           1           1           1           1           1           1           1           1           1
 AtmWgt=   1.0078250   1.0078250   1.0078250   1.0078250   1.0078250   1.0078250   1.0078250   1.0078250   1.0078250   1.0078250
 NucSpn=           1           1           1           1           1           1           1           1           1           1
 AtZEff=  -0.0000000  -0.0000000  -0.0000000  -0.0000000  -0.0000000  -0.0000000  -0.0000000  -0.0000000  -0.0000000  -0.0000000
 NQMom=    0.0000000   0.0000000   0.0000000   0.0000000   0.0000000   0.0000000   0.0000000   0.0000000   0.0000000   0.0000000
 NMagM=    2.7928460   2.7928460   2.7928460   2.7928460   2.7928460   2.7928460   2.7928460   2.7928460   2.7928460   2.7928460
 AtZNuc=   1.0000000   1.0000000   1.0000000   1.0000000   1.0000000   1.0000000   1.0000000   1.0000000   1.0000000   1.0000000

  Atom        61          62          63          64          65          66          67          68          69
 IAtWgt=           1           1           1           1           1           1           1           1          63
 AtmWgt=   1.0078250   1.0078250   1.0078250   1.0078250   1.0078250   1.0078250   1.0078250   1.0078250  62.9295992
 NucSpn=           1           1           1           1           1           1           1           1           3
 AtZEff=  -0.0000000  -0.0000000  -0.0000000  -0.0000000  -0.0000000  -0.0000000  -0.0000000  -0.0000000  -0.0000000
 NQMom=    0.0000000   0.0000000   0.0000000   0.0000000   0.0000000   0.0000000   0.0000000   0.0000000 -22.0000000
 NMagM=    2.7928460   2.7928460   2.7928460   2.7928460   2.7928460   2.7928460   2.7928460   2.7928460   2.2233000
 AtZNuc=   1.0000000   1.0000000   1.0000000   1.0000000   1.0000000   1.0000000   1.0000000   1.0000000  29.0000000
 Leave Link  101 at Fri Feb  7 19:21:20 2025, MaxMem= 13421772800 cpu:               4.1 elap:               0.1
 (Enter /public/software/apps/Gaussian/g16/l103.exe)

 GradGradGradGradGradGradGradGradGradGradGradGradGradGradGradGradGradGrad
 Berny optimization.
 Initialization pass.
                           ----------------------------
                           !    Initial Parameters    !
                           ! (Angstroms and Degrees)  !
 --------------------------                            --------------------------
 ! Name  Definition              Value          Derivative Info.                !
 --------------------------------------------------------------------------------
 ! R1    R(1,2)                  1.3933         estimate D2E/DX2                !
 ! R2    R(1,69)                 1.9624         estimate D2E/DX2                !
 ! R3    R(2,3)                  1.4045         estimate D2E/DX2                !
 ! R4    R(2,20)                 1.4071         estimate D2E/DX2                !
 ! R5    R(2,69)                 1.9556         estimate D2E/DX2                !
 ! R6    R(3,4)                  1.4783         estimate D2E/DX2                !
 ! R7    R(3,13)                 1.3997         estimate D2E/DX2                !
 ! R8    R(4,5)                  1.4089         estimate D2E/DX2                !
 ! R9    R(4,9)                  1.4069         estimate D2E/DX2                !
 ! R10   R(5,6)                  1.4049         estimate D2E/DX2                !
 ! R11   R(5,41)                 1.0831         estimate D2E/DX2                !
 ! R12   R(6,7)                  1.4012         estimate D2E/DX2                !
 ! R13   R(6,42)                 1.0822         estimate D2E/DX2                !
 ! R14   R(7,8)                  1.3961         estimate D2E/DX2                !
 ! R15   R(7,43)                 1.0824         estimate D2E/DX2                !
 ! R16   R(8,9)                  1.3739         estimate D2E/DX2                !
 ! R17   R(8,12)                 1.4804         estimate D2E/DX2                !
 ! R18   R(9,10)                 1.4861         estimate D2E/DX2                !
 ! R19   R(10,11)                1.5397         estimate D2E/DX2                !
 ! R20   R(10,44)                1.1105         estimate D2E/DX2                !
 ! R21   R(10,45)                1.1114         estimate D2E/DX2                !
 ! R22   R(11,12)                1.5389         estimate D2E/DX2                !
 ! R23   R(11,46)                1.1122         estimate D2E/DX2                !
 ! R24   R(11,47)                1.1119         estimate D2E/DX2                !
 ! R25   R(12,48)                1.1113         estimate D2E/DX2                !
 ! R26   R(12,49)                1.1114         estimate D2E/DX2                !
 ! R27   R(13,14)                1.4001         estimate D2E/DX2                !
 ! R28   R(13,50)                1.0844         estimate D2E/DX2                !
 ! R29   R(14,15)                1.4042         estimate D2E/DX2                !
 ! R30   R(14,19)                1.4186         estimate D2E/DX2                !
 ! R31   R(15,16)                1.3954         estimate D2E/DX2                !
 ! R32   R(15,51)                1.0837         estimate D2E/DX2                !
 ! R33   R(16,17)                1.3946         estimate D2E/DX2                !
 ! R34   R(16,52)                1.0824         estimate D2E/DX2                !
 ! R35   R(17,18)                1.3967         estimate D2E/DX2                !
 ! R36   R(17,53)                1.0824         estimate D2E/DX2                !
 ! R37   R(18,19)                1.4117         estimate D2E/DX2                !
 ! R38   R(18,54)                1.0819         estimate D2E/DX2                !
 ! R39   R(19,20)                1.4182         estimate D2E/DX2                !
 ! R40   R(20,21)                1.4878         estimate D2E/DX2                !
 ! R41   R(21,22)                1.4071         estimate D2E/DX2                !
 ! R42   R(21,40)                1.4182         estimate D2E/DX2                !
 ! R43   R(22,23)                1.3933         estimate D2E/DX2                !
 ! R44   R(22,24)                1.4045         estimate D2E/DX2                !
 ! R45   R(23,69)                1.9624         estimate D2E/DX2                !
 ! R46   R(24,25)                1.4783         estimate D2E/DX2                !
 ! R47   R(24,34)                1.3997         estimate D2E/DX2                !
 ! R48   R(25,26)                1.4089         estimate D2E/DX2                !
 ! R49   R(25,30)                1.4069         estimate D2E/DX2                !
 ! R50   R(26,27)                1.4049         estimate D2E/DX2                !
 ! R51   R(26,55)                1.0831         estimate D2E/DX2                !
 ! R52   R(27,28)                1.4012         estimate D2E/DX2                !
 ! R53   R(27,56)                1.0822         estimate D2E/DX2                !
 ! R54   R(28,29)                1.3961         estimate D2E/DX2                !
 ! R55   R(28,57)                1.0824         estimate D2E/DX2                !
 ! R56   R(29,30)                1.3739         estimate D2E/DX2                !
 ! R57   R(29,33)                1.4804         estimate D2E/DX2                !
 ! R58   R(30,31)                1.4861         estimate D2E/DX2                !
 ! R59   R(31,32)                1.5397         estimate D2E/DX2                !
 ! R60   R(31,58)                1.1114         estimate D2E/DX2                !
 ! R61   R(31,59)                1.1105         estimate D2E/DX2                !
 ! R62   R(32,33)                1.5389         estimate D2E/DX2                !
 ! R63   R(32,60)                1.1119         estimate D2E/DX2                !
 ! R64   R(32,61)                1.1122         estimate D2E/DX2                !
 ! R65   R(33,62)                1.1113         estimate D2E/DX2                !
 ! R66   R(33,63)                1.1114         estimate D2E/DX2                !
 ! R67   R(34,35)                1.4001         estimate D2E/DX2                !
 ! R68   R(34,64)                1.0843         estimate D2E/DX2                !
 ! R69   R(35,36)                1.4042         estimate D2E/DX2                !
 ! R70   R(35,40)                1.4186         estimate D2E/DX2                !
 ! R71   R(36,37)                1.3954         estimate D2E/DX2                !
 ! R72   R(36,65)                1.0837         estimate D2E/DX2                !
 ! R73   R(37,38)                1.3946         estimate D2E/DX2                !
 ! R74   R(37,66)                1.0824         estimate D2E/DX2                !
 ! R75   R(38,39)                1.3967         estimate D2E/DX2                !
 ! R76   R(38,67)                1.0824         estimate D2E/DX2                !
 ! R77   R(39,40)                1.4117         estimate D2E/DX2                !
 ! R78   R(39,68)                1.0819         estimate D2E/DX2                !
 ! A1    A(1,2,3)              119.8067         estimate D2E/DX2                !
 ! A2    A(1,2,20)             119.6033         estimate D2E/DX2                !
 ! A3    A(3,2,20)             120.5846         estimate D2E/DX2                !
 ! A4    A(3,2,69)             101.5007         estimate D2E/DX2                !
 ! A5    A(20,2,69)             97.8653         estimate D2E/DX2                !
 ! A6    A(2,3,4)              120.5851         estimate D2E/DX2                !
 ! A7    A(2,3,13)             119.7154         estimate D2E/DX2                !
 ! A8    A(4,3,13)             119.6975         estimate D2E/DX2                !
 ! A9    A(3,4,5)              120.1809         estimate D2E/DX2                !
 ! A10   A(3,4,9)              121.5749         estimate D2E/DX2                !
 ! A11   A(5,4,9)              118.2423         estimate D2E/DX2                !
 ! A12   A(4,5,6)              120.4204         estimate D2E/DX2                !
 ! A13   A(4,5,41)             120.2808         estimate D2E/DX2                !
 ! A14   A(6,5,41)             119.2975         estimate D2E/DX2                !
 ! A15   A(5,6,7)              120.2212         estimate D2E/DX2                !
 ! A16   A(5,6,42)             119.9024         estimate D2E/DX2                !
 ! A17   A(7,6,42)             119.8762         estimate D2E/DX2                !
 ! A18   A(6,7,8)              118.8268         estimate D2E/DX2                !
 ! A19   A(6,7,43)             120.4732         estimate D2E/DX2                !
 ! A20   A(8,7,43)             120.6983         estimate D2E/DX2                !
 ! A21   A(7,8,9)              121.3057         estimate D2E/DX2                !
 ! A22   A(7,8,12)             126.3154         estimate D2E/DX2                !
 ! A23   A(9,8,12)             112.3747         estimate D2E/DX2                !
 ! A24   A(4,9,8)              120.9803         estimate D2E/DX2                !
 ! A25   A(4,9,10)             127.5112         estimate D2E/DX2                !
 ! A26   A(8,9,10)             111.4762         estimate D2E/DX2                !
 ! A27   A(9,10,11)            104.271          estimate D2E/DX2                !
 ! A28   A(9,10,44)            110.2272         estimate D2E/DX2                !
 ! A29   A(9,10,45)            110.5256         estimate D2E/DX2                !
 ! A30   A(11,10,44)           110.3291         estimate D2E/DX2                !
 ! A31   A(11,10,45)           111.068          estimate D2E/DX2                !
 ! A32   A(44,10,45)           110.2792         estimate D2E/DX2                !
 ! A33   A(10,11,12)           107.4292         estimate D2E/DX2                !
 ! A34   A(10,11,46)           109.7993         estimate D2E/DX2                !
 ! A35   A(10,11,47)           110.5991         estimate D2E/DX2                !
 ! A36   A(12,11,46)           109.8247         estimate D2E/DX2                !
 ! A37   A(12,11,47)           110.5437         estimate D2E/DX2                !
 ! A38   A(46,11,47)           108.6383         estimate D2E/DX2                !
 ! A39   A(8,12,11)            104.0175         estimate D2E/DX2                !
 ! A40   A(8,12,48)            109.8873         estimate D2E/DX2                !
 ! A41   A(8,12,49)            110.5359         estimate D2E/DX2                !
 ! A42   A(11,12,48)           110.8573         estimate D2E/DX2                !
 ! A43   A(11,12,49)           111.0872         estimate D2E/DX2                !
 ! A44   A(48,12,49)           110.2994         estimate D2E/DX2                !
 ! A45   A(3,13,14)            120.6385         estimate D2E/DX2                !
 ! A46   A(3,13,50)            119.4768         estimate D2E/DX2                !
 ! A47   A(14,13,50)           119.8847         estimate D2E/DX2                !
 ! A48   A(13,14,15)           119.9688         estimate D2E/DX2                !
 ! A49   A(13,14,19)           120.0335         estimate D2E/DX2                !
 ! A50   A(15,14,19)           119.9972         estimate D2E/DX2                !
 ! A51   A(14,15,16)           120.2939         estimate D2E/DX2                !
 ! A52   A(14,15,51)           120.6806         estimate D2E/DX2                !
 ! A53   A(16,15,51)           119.0248         estimate D2E/DX2                !
 ! A54   A(15,16,17)           120.1382         estimate D2E/DX2                !
 ! A55   A(15,16,52)           119.9442         estimate D2E/DX2                !
 ! A56   A(17,16,52)           119.9167         estimate D2E/DX2                !
 ! A57   A(16,17,18)           120.2773         estimate D2E/DX2                !
 ! A58   A(16,17,53)           119.8374         estimate D2E/DX2                !
 ! A59   A(18,17,53)           119.8852         estimate D2E/DX2                !
 ! A60   A(17,18,19)           120.5495         estimate D2E/DX2                !
 ! A61   A(17,18,54)           118.024          estimate D2E/DX2                !
 ! A62   A(19,18,54)           121.4259         estimate D2E/DX2                !
 ! A63   A(14,19,18)           118.7324         estimate D2E/DX2                !
 ! A64   A(14,19,20)           119.3356         estimate D2E/DX2                !
 ! A65   A(18,19,20)           121.93           estimate D2E/DX2                !
 ! A66   A(2,20,19)            119.6402         estimate D2E/DX2                !
 ! A67   A(2,20,21)            118.5939         estimate D2E/DX2                !
 ! A68   A(19,20,21)           121.7579         estimate D2E/DX2                !
 ! A69   A(20,21,22)           118.5936         estimate D2E/DX2                !
 ! A70   A(20,21,40)           121.7583         estimate D2E/DX2                !
 ! A71   A(22,21,40)           119.6402         estimate D2E/DX2                !
 ! A72   A(21,22,23)           119.6033         estimate D2E/DX2                !
 ! A73   A(21,22,24)           120.5844         estimate D2E/DX2                !
 ! A74   A(23,22,24)           119.807          estimate D2E/DX2                !
 ! A75   A(22,23,69)           116.568          estimate D2E/DX2                !
 ! A76   A(22,24,25)           120.5845         estimate D2E/DX2                !
 ! A77   A(22,24,34)           119.7157         estimate D2E/DX2                !
 ! A78   A(25,24,34)           119.698          estimate D2E/DX2                !
 ! A79   A(24,25,26)           120.1817         estimate D2E/DX2                !
 ! A80   A(24,25,30)           121.574          estimate D2E/DX2                !
 ! A81   A(26,25,30)           118.2424         estimate D2E/DX2                !
 ! A82   A(25,26,27)           120.4202         estimate D2E/DX2                !
 ! A83   A(25,26,55)           120.281          estimate D2E/DX2                !
 ! A84   A(27,26,55)           119.2975         estimate D2E/DX2                !
 ! A85   A(26,27,28)           120.2212         estimate D2E/DX2                !
 ! A86   A(26,27,56)           119.9016         estimate D2E/DX2                !
 ! A87   A(28,27,56)           119.877          estimate D2E/DX2                !
 ! A88   A(27,28,29)           118.8267         estimate D2E/DX2                !
 ! A89   A(27,28,57)           120.4745         estimate D2E/DX2                !
 ! A90   A(29,28,57)           120.6972         estimate D2E/DX2                !
 ! A91   A(28,29,30)           121.3057         estimate D2E/DX2                !
 ! A92   A(28,29,33)           126.3156         estimate D2E/DX2                !
 ! A93   A(30,29,33)           112.3746         estimate D2E/DX2                !
 ! A94   A(25,30,29)           120.9806         estimate D2E/DX2                !
 ! A95   A(25,30,31)           127.5108         estimate D2E/DX2                !
 ! A96   A(29,30,31)           111.4763         estimate D2E/DX2                !
 ! A97   A(30,31,32)           104.2712         estimate D2E/DX2                !
 ! A98   A(30,31,58)           110.5257         estimate D2E/DX2                !
 ! A99   A(30,31,59)           110.2256         estimate D2E/DX2                !
 ! A100  A(32,31,58)           111.0687         estimate D2E/DX2                !
 ! A101  A(32,31,59)           110.3302         estimate D2E/DX2                !
 ! A102  A(58,31,59)           110.2788         estimate D2E/DX2                !
 ! A103  A(31,32,33)           107.4289         estimate D2E/DX2                !
 ! A104  A(31,32,60)           110.5994         estimate D2E/DX2                !
 ! A105  A(31,32,61)           109.7995         estimate D2E/DX2                !
 ! A106  A(33,32,60)           110.5432         estimate D2E/DX2                !
 ! A107  A(33,32,61)           109.8238         estimate D2E/DX2                !
 ! A108  A(60,32,61)           108.6394         estimate D2E/DX2                !
 ! A109  A(29,33,32)           104.0179         estimate D2E/DX2                !
 ! A110  A(29,33,62)           109.8866         estimate D2E/DX2                !
 ! A111  A(29,33,63)           110.5361         estimate D2E/DX2                !
 ! A112  A(32,33,62)           110.8573         estimate D2E/DX2                !
 ! A113  A(32,33,63)           111.0855         estimate D2E/DX2                !
 ! A114  A(62,33,63)           110.3011         estimate D2E/DX2                !
 ! A115  A(24,34,35)           120.6382         estimate D2E/DX2                !
 ! A116  A(24,34,64)           119.4775         estimate D2E/DX2                !
 ! A117  A(35,34,64)           119.8843         estimate D2E/DX2                !
 ! A118  A(34,35,36)           119.9688         estimate D2E/DX2                !
 ! A119  A(34,35,40)           120.0335         estimate D2E/DX2                !
 ! A120  A(36,35,40)           119.9972         estimate D2E/DX2                !
 ! A121  A(35,36,37)           120.2939         estimate D2E/DX2                !
 ! A122  A(35,36,65)           120.6795         estimate D2E/DX2                !
 ! A123  A(37,36,65)           119.0259         estimate D2E/DX2                !
 ! A124  A(36,37,38)           120.1379         estimate D2E/DX2                !
 ! A125  A(36,37,66)           119.9444         estimate D2E/DX2                !
 ! A126  A(38,37,66)           119.9168         estimate D2E/DX2                !
 ! A127  A(37,38,39)           120.2772         estimate D2E/DX2                !
 ! A128  A(37,38,67)           119.838          estimate D2E/DX2                !
 ! A129  A(39,38,67)           119.8848         estimate D2E/DX2                !
 ! A130  A(38,39,40)           120.5496         estimate D2E/DX2                !
 ! A131  A(38,39,68)           118.025          estimate D2E/DX2                !
 ! A132  A(40,39,68)           121.4248         estimate D2E/DX2                !
 ! A133  A(21,40,35)           119.3358         estimate D2E/DX2                !
 ! A134  A(21,40,39)           121.9295         estimate D2E/DX2                !
 ! A135  A(35,40,39)           118.7326         estimate D2E/DX2                !
 ! A136  A(1,69,23)            100.0            estimate D2E/DX2                !
 ! A137  A(2,69,23)            104.3279         estimate D2E/DX2                !
 ! D1    D(1,2,3,4)             -1.6402         estimate D2E/DX2                !
 ! D2    D(1,2,3,13)           178.862          estimate D2E/DX2                !
 ! D3    D(20,2,3,4)           179.2068         estimate D2E/DX2                !
 ! D4    D(20,2,3,13)           -0.291          estimate D2E/DX2                !
 ! D5    D(69,2,3,4)           -74.3855         estimate D2E/DX2                !
 ! D6    D(69,2,3,13)          106.1167         estimate D2E/DX2                !
 ! D7    D(1,2,20,19)         -176.972          estimate D2E/DX2                !
 ! D8    D(1,2,20,21)            2.0157         estimate D2E/DX2                !
 ! D9    D(3,2,20,19)            2.1828         estimate D2E/DX2                !
 ! D10   D(3,2,20,21)         -178.8296         estimate D2E/DX2                !
 ! D11   D(69,2,20,19)        -106.2051         estimate D2E/DX2                !
 ! D12   D(69,2,20,21)          72.7826         estimate D2E/DX2                !
 ! D13   D(3,2,69,23)         -153.2604         estimate D2E/DX2                !
 ! D14   D(20,2,69,23)         -29.7373         estimate D2E/DX2                !
 ! D15   D(2,3,4,5)            -61.4735         estimate D2E/DX2                !
 ! D16   D(2,3,4,9)            118.0238         estimate D2E/DX2                !
 ! D17   D(13,3,4,5)           118.0243         estimate D2E/DX2                !
 ! D18   D(13,3,4,9)           -62.4784         estimate D2E/DX2                !
 ! D19   D(2,3,13,14)           -1.2678         estimate D2E/DX2                !
 ! D20   D(2,3,13,50)          178.651          estimate D2E/DX2                !
 ! D21   D(4,3,13,14)          179.2299         estimate D2E/DX2                !
 ! D22   D(4,3,13,50)           -0.8513         estimate D2E/DX2                !
 ! D23   D(3,4,5,6)            179.7908         estimate D2E/DX2                !
 ! D24   D(3,4,5,41)            -0.6262         estimate D2E/DX2                !
 ! D25   D(9,4,5,6)              0.277          estimate D2E/DX2                !
 ! D26   D(9,4,5,41)           179.86           estimate D2E/DX2                !
 ! D27   D(3,4,9,8)           -179.2964         estimate D2E/DX2                !
 ! D28   D(3,4,9,10)            -1.5464         estimate D2E/DX2                !
 ! D29   D(5,4,9,8)              0.2103         estimate D2E/DX2                !
 ! D30   D(5,4,9,10)           177.9603         estimate D2E/DX2                !
 ! D31   D(4,5,6,7)             -0.3711         estimate D2E/DX2                !
 ! D32   D(4,5,6,42)           179.8077         estimate D2E/DX2                !
 ! D33   D(41,5,6,7)          -179.9582         estimate D2E/DX2                !
 ! D34   D(41,5,6,42)            0.2206         estimate D2E/DX2                !
 ! D35   D(5,6,7,8)             -0.0199         estimate D2E/DX2                !
 ! D36   D(5,6,7,43)          -179.559          estimate D2E/DX2                !
 ! D37   D(42,6,7,8)           179.8014         estimate D2E/DX2                !
 ! D38   D(42,6,7,43)            0.2623         estimate D2E/DX2                !
 ! D39   D(6,7,8,9)              0.5124         estimate D2E/DX2                !
 ! D40   D(6,7,8,12)          -178.6882         estimate D2E/DX2                !
 ! D41   D(43,7,8,9)          -179.9495         estimate D2E/DX2                !
 ! D42   D(43,7,8,12)            0.8499         estimate D2E/DX2                !
 ! D43   D(7,8,9,4)             -0.6138         estimate D2E/DX2                !
 ! D44   D(7,8,9,10)          -178.696          estimate D2E/DX2                !
 ! D45   D(12,8,9,4)           178.6896         estimate D2E/DX2                !
 ! D46   D(12,8,9,10)            0.6074         estimate D2E/DX2                !
 ! D47   D(7,8,12,11)          174.7811         estimate D2E/DX2                !
 ! D48   D(7,8,12,48)          -66.4974         estimate D2E/DX2                !
 ! D49   D(7,8,12,49)           55.4724         estimate D2E/DX2                !
 ! D50   D(9,8,12,11)           -4.4803         estimate D2E/DX2                !
 ! D51   D(9,8,12,48)          114.2412         estimate D2E/DX2                !
 ! D52   D(9,8,12,49)         -123.789          estimate D2E/DX2                !
 ! D53   D(4,9,10,11)         -174.3749         estimate D2E/DX2                !
 ! D54   D(4,9,10,44)           67.2164         estimate D2E/DX2                !
 ! D55   D(4,9,10,45)          -54.9491         estimate D2E/DX2                !
 ! D56   D(8,9,10,11)            3.5522         estimate D2E/DX2                !
 ! D57   D(8,9,10,44)         -114.8564         estimate D2E/DX2                !
 ! D58   D(8,9,10,45)          122.9781         estimate D2E/DX2                !
 ! D59   D(9,10,11,12)          -6.1479         estimate D2E/DX2                !
 ! D60   D(9,10,11,46)         113.2464         estimate D2E/DX2                !
 ! D61   D(9,10,11,47)        -126.8736         estimate D2E/DX2                !
 ! D62   D(44,10,11,12)        112.1911         estimate D2E/DX2                !
 ! D63   D(44,10,11,46)       -128.4146         estimate D2E/DX2                !
 ! D64   D(44,10,11,47)         -8.5346         estimate D2E/DX2                !
 ! D65   D(45,10,11,12)       -125.2058         estimate D2E/DX2                !
 ! D66   D(45,10,11,46)         -5.8115         estimate D2E/DX2                !
 ! D67   D(45,10,11,47)        114.0685         estimate D2E/DX2                !
 ! D68   D(10,11,12,8)           6.4511         estimate D2E/DX2                !
 ! D69   D(10,11,12,48)       -111.6039         estimate D2E/DX2                !
 ! D70   D(10,11,12,49)        125.3836         estimate D2E/DX2                !
 ! D71   D(46,11,12,8)        -112.927          estimate D2E/DX2                !
 ! D72   D(46,11,12,48)        129.018          estimate D2E/DX2                !
 ! D73   D(46,11,12,49)          6.0055         estimate D2E/DX2                !
 ! D74   D(47,11,12,8)         127.2117         estimate D2E/DX2                !
 ! D75   D(47,11,12,48)          9.1567         estimate D2E/DX2                !
 ! D76   D(47,11,12,49)       -113.8558         estimate D2E/DX2                !
 ! D77   D(3,13,14,15)        -178.8311         estimate D2E/DX2                !
 ! D78   D(3,13,14,19)           0.9087         estimate D2E/DX2                !
 ! D79   D(50,13,14,15)          1.2505         estimate D2E/DX2                !
 ! D80   D(50,13,14,19)       -179.0098         estimate D2E/DX2                !
 ! D81   D(13,14,15,16)        179.1505         estimate D2E/DX2                !
 ! D82   D(13,14,15,51)         -0.5423         estimate D2E/DX2                !
 ! D83   D(19,14,15,16)         -0.5894         estimate D2E/DX2                !
 ! D84   D(19,14,15,51)        179.7178         estimate D2E/DX2                !
 ! D85   D(13,14,19,18)       -178.4968         estimate D2E/DX2                !
 ! D86   D(13,14,19,20)          0.9898         estimate D2E/DX2                !
 ! D87   D(15,14,19,18)          1.2429         estimate D2E/DX2                !
 ! D88   D(15,14,19,20)       -179.2704         estimate D2E/DX2                !
 ! D89   D(14,15,16,17)         -0.219          estimate D2E/DX2                !
 ! D90   D(14,15,16,52)       -179.866          estimate D2E/DX2                !
 ! D91   D(51,15,16,17)        179.4789         estimate D2E/DX2                !
 ! D92   D(51,15,16,52)         -0.1682         estimate D2E/DX2                !
 ! D93   D(15,16,17,18)          0.3538         estimate D2E/DX2                !
 ! D94   D(15,16,17,53)       -179.5352         estimate D2E/DX2                !
 ! D95   D(52,16,17,18)       -179.999          estimate D2E/DX2                !
 ! D96   D(52,16,17,53)          0.1119         estimate D2E/DX2                !
 ! D97   D(16,17,18,19)          0.326          estimate D2E/DX2                !
 ! D98   D(16,17,18,54)       -179.4119         estimate D2E/DX2                !
 ! D99   D(53,17,18,19)       -179.785          estimate D2E/DX2                !
 ! D100  D(53,17,18,54)          0.4771         estimate D2E/DX2                !
 ! D101  D(17,18,19,14)         -1.1156         estimate D2E/DX2                !
 ! D102  D(17,18,19,20)        179.4116         estimate D2E/DX2                !
 ! D103  D(54,18,19,14)        178.6132         estimate D2E/DX2                !
 ! D104  D(54,18,19,20)         -0.8595         estimate D2E/DX2                !
 ! D105  D(14,19,20,2)          -2.5146         estimate D2E/DX2                !
 ! D106  D(14,19,20,21)        178.5308         estimate D2E/DX2                !
 ! D107  D(18,19,20,2)         176.955          estimate D2E/DX2                !
 ! D108  D(18,19,20,21)         -1.9996         estimate D2E/DX2                !
 ! D109  D(2,20,21,22)         -69.2104         estimate D2E/DX2                !
 ! D110  D(2,20,21,40)         109.7587         estimate D2E/DX2                !
 ! D111  D(19,20,21,22)        109.7548         estimate D2E/DX2                !
 ! D112  D(19,20,21,40)        -71.2761         estimate D2E/DX2                !
 ! D113  D(20,21,22,23)          2.0194         estimate D2E/DX2                !
 ! D114  D(20,21,22,24)       -178.8254         estimate D2E/DX2                !
 ! D115  D(40,21,22,23)       -176.9721         estimate D2E/DX2                !
 ! D116  D(40,21,22,24)          2.1831         estimate D2E/DX2                !
 ! D117  D(20,21,40,35)        178.5251         estimate D2E/DX2                !
 ! D118  D(20,21,40,39)         -2.0037         estimate D2E/DX2                !
 ! D119  D(22,21,40,35)         -2.5164         estimate D2E/DX2                !
 ! D120  D(22,21,40,39)        176.9548         estimate D2E/DX2                !
 ! D121  D(21,22,23,69)         30.0542         estimate D2E/DX2                !
 ! D122  D(24,22,23,69)       -149.1076         estimate D2E/DX2                !
 ! D123  D(21,22,24,25)        179.2105         estimate D2E/DX2                !
 ! D124  D(21,22,24,34)         -0.2905         estimate D2E/DX2                !
 ! D125  D(23,22,24,25)         -1.636          estimate D2E/DX2                !
 ! D126  D(23,22,24,34)        178.863          estimate D2E/DX2                !
 ! D127  D(22,23,69,1)          27.4018         estimate D2E/DX2                !
 ! D128  D(22,23,69,2)         -15.0419         estimate D2E/DX2                !
 ! D129  D(22,24,25,26)        -61.481          estimate D2E/DX2                !
 ! D130  D(22,24,25,30)        118.0101         estimate D2E/DX2                !
 ! D131  D(34,24,25,26)        118.02           estimate D2E/DX2                !
 ! D132  D(34,24,25,30)        -62.4889         estimate D2E/DX2                !
 ! D133  D(22,24,34,35)         -1.2678         estimate D2E/DX2                !
 ! D134  D(22,24,34,64)        178.6517         estimate D2E/DX2                !
 ! D135  D(25,24,34,35)        179.2268         estimate D2E/DX2                !
 ! D136  D(25,24,34,64)         -0.8537         estimate D2E/DX2                !
 ! D137  D(24,25,26,27)        179.7849         estimate D2E/DX2                !
 ! D138  D(24,25,26,55)         -0.6287         estimate D2E/DX2                !
 ! D139  D(30,25,26,27)          0.277          estimate D2E/DX2                !
 ! D140  D(30,25,26,55)        179.8634         estimate D2E/DX2                !
 ! D141  D(24,25,30,29)       -179.289          estimate D2E/DX2                !
 ! D142  D(24,25,30,31)         -1.5399         estimate D2E/DX2                !
 ! D143  D(26,25,30,29)          0.2117         estimate D2E/DX2                !
 ! D144  D(26,25,30,31)        177.9608         estimate D2E/DX2                !
 ! D145  D(25,26,27,28)         -0.3732         estimate D2E/DX2                !
 ! D146  D(25,26,27,56)        179.808          estimate D2E/DX2                !
 ! D147  D(55,26,27,28)       -179.9637         estimate D2E/DX2                !
 ! D148  D(55,26,27,56)          0.2175         estimate D2E/DX2                !
 ! D149  D(26,27,28,29)         -0.017          estimate D2E/DX2                !
 ! D150  D(26,27,28,57)       -179.5537         estimate D2E/DX2                !
 ! D151  D(56,27,28,29)        179.8018         estimate D2E/DX2                !
 ! D152  D(56,27,28,57)          0.2651         estimate D2E/DX2                !
 ! D153  D(27,28,29,30)          0.5109         estimate D2E/DX2                !
 ! D154  D(27,28,29,33)       -178.6866         estimate D2E/DX2                !
 ! D155  D(57,28,29,30)       -179.9534         estimate D2E/DX2                !
 ! D156  D(57,28,29,33)          0.849          estimate D2E/DX2                !
 ! D157  D(28,29,30,25)         -0.6144         estimate D2E/DX2                !
 ! D158  D(28,29,30,31)       -178.6958         estimate D2E/DX2                !
 ! D159  D(33,29,30,25)        178.6864         estimate D2E/DX2                !
 ! D160  D(33,29,30,31)          0.6049         estimate D2E/DX2                !
 ! D161  D(28,29,33,32)        174.7813         estimate D2E/DX2                !
 ! D162  D(28,29,33,62)        -66.4973         estimate D2E/DX2                !
 ! D163  D(28,29,33,63)         55.4742         estimate D2E/DX2                !
 ! D164  D(30,29,33,32)         -4.4773         estimate D2E/DX2                !
 ! D165  D(30,29,33,62)        114.2441         estimate D2E/DX2                !
 ! D166  D(30,29,33,63)       -123.7843         estimate D2E/DX2                !
 ! D167  D(25,30,31,32)       -174.3734         estimate D2E/DX2                !
 ! D168  D(25,30,31,58)        -54.9466         estimate D2E/DX2                !
 ! D169  D(25,30,31,59)         67.2173         estimate D2E/DX2                !
 ! D170  D(29,30,31,32)          3.5529         estimate D2E/DX2                !
 ! D171  D(29,30,31,58)        122.9797         estimate D2E/DX2                !
 ! D172  D(29,30,31,59)       -114.8564         estimate D2E/DX2                !
 ! D173  D(30,31,32,33)         -6.1467         estimate D2E/DX2                !
 ! D174  D(30,31,32,60)       -126.8717         estimate D2E/DX2                !
 ! D175  D(30,31,32,61)        113.2466         estimate D2E/DX2                !
 ! D176  D(58,31,32,33)       -125.2051         estimate D2E/DX2                !
 ! D177  D(58,31,32,60)        114.0699         estimate D2E/DX2                !
 ! D178  D(58,31,32,61)         -5.8118         estimate D2E/DX2                !
 ! D179  D(59,31,32,33)        112.191          estimate D2E/DX2                !
 ! D180  D(59,31,32,60)         -8.534          estimate D2E/DX2                !
 ! D181  D(59,31,32,61)       -128.4156         estimate D2E/DX2                !
 ! D182  D(31,32,33,29)          6.4486         estimate D2E/DX2                !
 ! D183  D(31,32,33,62)       -111.6058         estimate D2E/DX2                !
 ! D184  D(31,32,33,63)        125.3807         estimate D2E/DX2                !
 ! D185  D(60,32,33,29)        127.209          estimate D2E/DX2                !
 ! D186  D(60,32,33,62)          9.1546         estimate D2E/DX2                !
 ! D187  D(60,32,33,63)       -113.8588         estimate D2E/DX2                !
 ! D188  D(61,32,33,29)       -112.9292         estimate D2E/DX2                !
 ! D189  D(61,32,33,62)        129.0164         estimate D2E/DX2                !
 ! D190  D(61,32,33,63)          6.0029         estimate D2E/DX2                !
 ! D191  D(24,34,35,36)       -178.8326         estimate D2E/DX2                !
 ! D192  D(24,34,35,40)          0.9072         estimate D2E/DX2                !
 ! D193  D(64,34,35,36)          1.2482         estimate D2E/DX2                !
 ! D194  D(64,34,35,40)       -179.012          estimate D2E/DX2                !
 ! D195  D(34,35,36,37)        179.1512         estimate D2E/DX2                !
 ! D196  D(34,35,36,65)         -0.5396         estimate D2E/DX2                !
 ! D197  D(40,35,36,37)         -0.5887         estimate D2E/DX2                !
 ! D198  D(40,35,36,65)        179.7205         estimate D2E/DX2                !
 ! D199  D(34,35,40,21)          0.9923         estimate D2E/DX2                !
 ! D200  D(34,35,40,39)       -178.4959         estimate D2E/DX2                !
 ! D201  D(36,35,40,21)       -179.268          estimate D2E/DX2                !
 ! D202  D(36,35,40,39)          1.2438         estimate D2E/DX2                !
 ! D203  D(35,36,37,38)         -0.2211         estimate D2E/DX2                !
 ! D204  D(35,36,37,66)       -179.8675         estimate D2E/DX2                !
 ! D205  D(65,36,37,38)        179.4748         estimate D2E/DX2                !
 ! D206  D(65,36,37,66)         -0.1716         estimate D2E/DX2                !
 ! D207  D(36,37,38,39)          0.3557         estimate D2E/DX2                !
 ! D208  D(36,37,38,67)       -179.5359         estimate D2E/DX2                !
 ! D209  D(66,37,38,39)       -179.9978         estimate D2E/DX2                !
 ! D210  D(66,37,38,67)          0.1106         estimate D2E/DX2                !
 ! D211  D(37,38,39,40)          0.3258         estimate D2E/DX2                !
 ! D212  D(37,38,39,68)       -179.4157         estimate D2E/DX2                !
 ! D213  D(67,38,39,40)       -179.7826         estimate D2E/DX2                !
 ! D214  D(67,38,39,68)          0.4759         estimate D2E/DX2                !
 ! D215  D(38,39,40,21)        179.409          estimate D2E/DX2                !
 ! D216  D(38,39,40,35)         -1.1167         estimate D2E/DX2                !
 ! D217  D(68,39,40,21)         -0.8585         estimate D2E/DX2                !
 ! D218  D(68,39,40,35)        178.6158         estimate D2E/DX2                !
 --------------------------------------------------------------------------------
 Trust Radius=3.00D-01 FncErr=1.00D-07 GrdErr=1.00D-06 EigMax=2.50D+02 EigMin=1.00D-04
 Number of steps in this run=    414 maximum allowed number of steps=    414.
 GradGradGradGradGradGradGradGradGradGradGradGradGradGradGradGradGradGrad

 Leave Link  103 at Fri Feb  7 19:21:20 2025, MaxMem= 13421772800 cpu:               0.7 elap:               0.0
 (Enter /public/software/apps/Gaussian/g16/l202.exe)
 Symmetry turned off by external request.
 Stoichiometry    C38H28CuO2(2)
 Framework group  C1[X(C38H28CuO2)]
 Deg. of freedom   201
 Full point group                 C1      NOp   1
                          Input orientation:                          
 ---------------------------------------------------------------------
 Center     Atomic      Atomic             Coordinates (Angstroms)
 Number     Number       Type             X           Y           Z
 ---------------------------------------------------------------------
      1          8           0       -1.014992    0.851696    0.936869
      2          6           0       -1.416728    0.155805   -0.201336
      3          6           0       -2.526518    0.602399   -0.937271
      4          6           0       -3.295849    1.784790   -0.495143
      5          6           0       -3.948635    1.778755    0.753389
      6          6           0       -4.677501    2.901320    1.180471
      7          6           0       -4.755238    4.041804    0.370160
      8          6           0       -4.097421    4.038761   -0.861243
      9          6           0       -3.390917    2.941358   -1.290501
     10          6           0       -2.755136    3.186107   -2.611217
     11          6           0       -3.089415    4.655580   -2.926896
     12          6           0       -4.046674    5.156252   -1.830889
     13          6           0       -2.913977   -0.084240   -2.093838
     14          6           0       -2.190092   -1.196799   -2.539368
     15          6           0       -2.576710   -1.860289   -3.714943
     16          6           0       -1.849610   -2.958994   -4.174744
     17          6           0       -0.730351   -3.402251   -3.470694
     18          6           0       -0.334220   -2.755058   -2.298088
     19          6           0       -1.063238   -1.650490   -1.806771
     20          6           0       -0.694488   -0.979474   -0.613018
     21          6           0        0.457538   -1.429060    0.214122
     22          6           0        1.614118   -0.628427    0.249734
     23          8           0        1.638829    0.576575   -0.449211
     24          6           0        2.735145   -1.025126    0.997136
     25          6           0        3.956501   -0.192584    1.020606
     26          6           0        4.664625    0.059896   -0.170952
     27          6           0        5.823403    0.854113   -0.155138
     28          6           0        6.281412    1.409526    1.046988
     29          6           0        5.566639    1.158871    2.219743
     30          6           0        4.438226    0.375068    2.214329
     31          6           0        3.835789    0.279306    3.569426
     32          6           0        4.707120    1.204702    4.438434
     33          6           0        5.883536    1.681141    3.568215
     34          6           0        2.699504   -2.224513    1.717866
     35          6           0        1.547488   -3.020204    1.722481
     36          6           0        1.518714   -4.208425    2.470121
     37          6           0        0.368069   -4.997547    2.493718
     38          6           0       -0.763220   -4.607602    1.777447
     39          6           0       -0.749988   -3.429985    1.026564
     40          6           0        0.407748   -2.623712    0.976753
     41          1           0       -3.899036    0.904871    1.391415
     42          1           0       -5.178282    2.886432    2.139767
     43          1           0       -5.309746    4.911571    0.698296
     44          1           0       -3.196077    2.516488   -3.379595
     45          1           0       -1.656344    3.030670   -2.549566
     46          1           0       -2.158096    5.263484   -2.920787
     47          1           0       -3.563818    4.742329   -3.928721
     48          1           0       -5.060500    5.342865   -2.246047
     49          1           0       -3.653383    6.075662   -1.345936
     50          1           0       -3.784476    0.250753   -2.646855
     51          1           0       -3.438354   -1.525949   -4.280728
     52          1           0       -2.151392   -3.464887   -5.082786
     53          1           0       -0.165493   -4.250330   -3.835841
     54          1           0        0.545031   -3.123330   -1.786378
     55          1           0        4.324298   -0.362487   -1.108492
     56          1           0        6.362598    1.040093   -1.074886
     57          1           0        7.169638    2.027955    1.062710
     58          1           0        2.779760    0.625424    3.551773
     59          1           0        3.892240   -0.765408    3.941720
     60          1           0        5.079458    0.662928    5.335145
     61          1           0        4.108302    2.079456    4.774833
     62          1           0        6.841811    1.246895    3.926208
     63          1           0        5.945213    2.790694    3.551997
     64          1           0        3.574860   -2.537959    2.275825
     65          1           0        2.384573   -4.524121    3.040170
     66          1           0        0.351394   -5.911295    3.073666
     67          1           0       -1.655639   -5.219525    1.805223
     68          1           0       -1.650698   -3.157290    0.492792
     69         29           0       -0.077208    1.505355   -0.658242
 ---------------------------------------------------------------------
 Rotational constants (GHZ):           0.1107583           0.0611448           0.0493946
 Leave Link  202 at Fri Feb  7 19:21:20 2025, MaxMem= 13421772800 cpu:               1.3 elap:               0.0
 (Enter /public/software/apps/Gaussian/g16/l301.exe)
 Standard basis: def2SVPP (5D, 7F)
 Ernie: Thresh=  0.10000D-02 Tol=  0.10000D-05 Strict=F.
   640 basis functions,  1183 primitive gaussians,   682 cartesian basis functions
   151 alpha electrons      150 beta electrons
       nuclear repulsion energy      5151.9341288349 Hartrees.
 IExCor=  402 DFT=T Ex+Corr=B3LYP ExCW=0 ScaHFX=  0.200000
 ScaDFX=  0.800000  0.720000  1.000000  0.810000 ScalE2=  1.000000  1.000000
 IRadAn=      5 IRanWt=     -1 IRanGd=            0 ICorTp=0 IEmpDi=141
 NAtoms=   69 NActive=   69 NUniq=   69 SFac= 1.00D+00 NAtFMM=   60 NAOKFM=T Big=T
 Integral buffers will be    131072 words long.
 Raffenetti 2 integral format.
 Two-electron integral symmetry is turned off.
 R6Disp:  Grimme-D3(BJ) Dispersion energy=       -0.1915729887 Hartrees.
 Nuclear repulsion after empirical dispersion term =     5151.7425558462 Hartrees.
 Leave Link  301 at Fri Feb  7 19:21:20 2025, MaxMem= 13421772800 cpu:               1.3 elap:               0.0
 (Enter /public/software/apps/Gaussian/g16/l302.exe)
 NPDir=0 NMtPBC=     1 NCelOv=     1 NCel=       1 NClECP=     1 NCelD=      1
         NCelK=      1 NCelE2=     1 NClLst=     1 CellRange=     0.0.
 One-electron integrals computed using PRISM.
   1 Symmetry operations used in ECPInt.
 ECPInt:  NShTT=   46971 NPrTT=  193154 LenC2=   39093 LenP2D=   99304.
 LDataN:  DoStor=T MaxTD1= 4 Len=   56
 NBasis=   640 RedAO= T EigKep=  1.55D-04  NBF=   640
 NBsUse=   640 1.00D-06 EigRej= -1.00D+00 NBFU=   640
 Precomputing XC quadrature grid using
 IXCGrd= 4 IRadAn=           5 IRanWt=          -1 IRanGd=           0 AccXCQ= 0.00D+00.
 Generated NRdTot=       0 NPtTot=           0 NUsed=           0 NTot=          32
 NSgBfM=   660   657   657   660   660 MxSgAt=    69 MxSgA2=    69.
 Leave Link  302 at Fri Feb  7 19:21:21 2025, MaxMem= 13421772800 cpu:              27.9 elap:               0.9
 (Enter /public/software/apps/Gaussian/g16/l303.exe)
 DipDrv:  MaxL=1.
 Leave Link  303 at Fri Feb  7 19:21:21 2025, MaxMem= 13421772800 cpu:               4.0 elap:               0.1
 (Enter /public/software/apps/Gaussian/g16/l401.exe)
 ExpMin= 3.30D-02 ExpMax= 7.64D+04 ExpMxC= 1.15D+04 IAcc=3 IRadAn=         5 AccDes= 0.00D+00
 Harris functional with IExCor=  402 and IRadAn=       5 diagonalized for initial guess.
 HarFok:  IExCor=  402 AccDes= 0.00D+00 IRadAn=         5 IDoV= 1 UseB2=F ITyADJ=14
 ICtDFT=  3500011 ScaDFX=  1.000000  1.000000  1.000000  1.000000
 FoFCou: FMM=F IPFlag=           0 FMFlag=      100000 FMFlg1=        2001
         NFxFlg=           0 DoJE=T BraDBF=F KetDBF=T FulRan=T
         wScrn=  0.000000 ICntrl=       500 IOpCl=  0 I1Cent=   200000004 NGrid=           0
         NMat0=    1 NMatS0=      1 NMatT0=    0 NMatD0=    1 NMtDS0=    0 NMtDT0=    0
 Symmetry not used in FoFCou.
 Harris En= -3254.91533918945    
 JPrj=0 DoOrth=F DoCkMO=F.
 Initial guess <Sx>= 0.0000 <Sy>= 0.0000 <Sz>= 0.5000 <S**2>= 0.7500 S= 0.5000
 Leave Link  401 at Fri Feb  7 19:21:23 2025, MaxMem= 13421772800 cpu:              61.2 elap:               1.9
 (Enter /public/software/apps/Gaussian/g16/l502.exe)
 Two-electron integral symmetry not used.
 UHF open shell SCF:
 Using DIIS extrapolation, IDIIS=  1040.
 NGot= 13421772800 LenX= 13420813426 LenY= 13420347620
 Requested convergence on RMS density matrix=1.00D-08 within 128 cycles.
 Requested convergence on MAX density matrix=1.00D-06.
 Requested convergence on             energy=1.00D-06.
 No special actions if energy rises.
 Fock matrices will be formed incrementally for  20 cycles.

 Cycle   1  Pass 1  IDiag  1:
 FoFJK:  IHMeth= 1 ICntrl=       0 DoSepK=F KAlg= 0 I1Cent=           0 FoldK=F
 IRaf= 980000000 NMat=       1 IRICut=       1 DoRegI=T DoRafI=F ISym2E= 0 IDoP0=0 IntGTp=1.
 FoFCou: FMM=T IPFlag=           0 FMFlag=      100000 FMFlg1=        2001
         NFxFlg=           0 DoJE=F BraDBF=F KetDBF=F FulRan=T
         wScrn=  0.000000 ICntrl=         0 IOpCl=  1 I1Cent=           0 NGrid=           0
         NMat0=    1 NMatS0=      1 NMatT0=    0 NMatD0=    1 NMtDS0=    0 NMtDT0=    0
 Symmetry not used in FoFCou.
 FMM levels:  10  Number of levels for PrismC:   9
 E= -3239.05386182845    
 DIIS: error= 1.66D-01 at cycle   1 NSaved=   1.
 NSaved= 1 IEnMin= 1 EnMin= -3239.05386182845     IErMin= 1 ErrMin= 1.66D-01
 ErrMax= 1.66D-01  0.00D+00 EMaxC= 1.00D-01 BMatC= 7.55D+01 BMatP= 7.55D+01
 IDIUse=3 WtCom= 0.00D+00 WtEn= 1.00D+00
 Coeff-Com:  0.100D+01
 Coeff-En:   0.100D+01
 Coeff:      0.100D+01
 Gap=     0.032 Goal=   None    Shift=    0.000
 Gap=     0.454 Goal=   None    Shift=    0.000
 GapD=    0.032 DampG=0.250 DampE=0.125 DampFc=0.1250 IDamp=-1.
 Damping current iteration by 1.25D-01
 RMSDP=1.79D-01 MaxDP=4.86D+01              OVMax= 9.69D-01

 Cycle   2  Pass 1  IDiag  1:
 RMSU=  2.21D-02    CP:  1.21D+00
 E= -3243.85874974568     Delta-E=       -4.804887917233 Rises=F Damp=T
 DIIS: error= 1.10D-01 at cycle   2 NSaved=   2.
 NSaved= 2 IEnMin= 2 EnMin= -3243.85874974568     IErMin= 2 ErrMin= 1.10D-01
 ErrMax= 1.10D-01  0.00D+00 EMaxC= 1.00D-01 BMatC= 2.88D+01 BMatP= 7.55D+01
 IDIUse=3 WtCom= 0.00D+00 WtEn= 1.00D+00
 Coeff-Com: -0.119D+01 0.219D+01
 Coeff-En:   0.000D+00 0.100D+01
 Coeff:      0.000D+00 0.100D+01
 Gap=    -0.254 Goal=   None    Shift=    0.000
 Gap=     0.263 Goal=   None    Shift=    0.000
 RMSDP=3.21D-02 MaxDP=3.97D+00 DE=-4.80D+00 OVMax= 9.26D-01

 Cycle   3  Pass 1  IDiag  1:
 RMSU=  2.53D-02    CP:  1.32D+00  1.90D+00
 E= -3227.67066142769     Delta-E=       16.188088317991 Rises=F Damp=F
 DIIS: error= 1.51D-01 at cycle   3 NSaved=   3.
 NSaved= 3 IEnMin= 2 EnMin= -3243.85874974568     IErMin= 2 ErrMin= 1.10D-01
 ErrMax= 1.51D-01  0.00D+00 EMaxC= 1.00D-01 BMatC= 7.25D+01 BMatP= 2.88D+01
 IDIUse=2 WtCom= 0.00D+00 WtEn= 1.00D+00
 EnCoef did   100 forward-backward iterations
 Coeff-En:   0.589D+00 0.950D-02 0.402D+00
 Coeff:      0.589D+00 0.950D-02 0.402D+00
 Gap=     0.038 Goal=   None    Shift=    0.000
 Gap=    -0.146 Goal=   None    Shift=    0.000
 RMSDP=6.91D-02 MaxDP=1.66D+01 DE= 1.62D+01 OVMax= 9.75D-01

 Cycle   4  Pass 1  IDiag  1:
 RMSU=  5.84D-02    CP:  1.08D+00  5.78D-01  1.22D-01
 E= -3174.56722302038     Delta-E=       53.103438407306 Rises=F Damp=F
 DIIS: error= 1.04D-01 at cycle   4 NSaved=   4.
 NSaved= 4 IEnMin= 2 EnMin= -3243.85874974568     IErMin= 4 ErrMin= 1.04D-01
 ErrMax= 1.04D-01  0.00D+00 EMaxC= 1.00D-01 BMatC= 1.36D+02 BMatP= 2.88D+01
 IDIUse=2 WtCom= 0.00D+00 WtEn= 1.00D+00
 EnCoef did   100 forward-backward iterations
 Coeff-En:   0.547D+00 0.714D-02 0.361D+00 0.847D-01
 Coeff:      0.547D+00 0.714D-02 0.361D+00 0.847D-01
 Gap=    -0.159 Goal=   None    Shift=    0.000
 Gap=     0.025 Goal=   None    Shift=    0.000
 RMSDP=5.94D-02 MaxDP=1.79D+01 DE= 5.31D+01 OVMax= 8.83D-01

 Cycle   5  Pass 1  IDiag  1:
 RMSU=  5.64D-03    CP:  8.90D-01  8.78D-02  1.02D-01  7.40D-03
 E= -3252.24614697793     Delta-E=      -77.678923957543 Rises=F Damp=F
 DIIS: error= 6.49D-02 at cycle   5 NSaved=   5.
 NSaved= 5 IEnMin= 5 EnMin= -3252.24614697793     IErMin= 5 ErrMin= 6.49D-02
 ErrMax= 6.49D-02  0.00D+00 EMaxC= 1.00D-01 BMatC= 1.04D+01 BMatP= 2.88D+01
 IDIUse=3 WtCom= 3.51D-01 WtEn= 6.49D-01
 EnCoef did   100 forward-backward iterations
 Coeff-Com: -0.463D+00 0.971D+00 0.295D-01-0.562D-01 0.518D+00
 Coeff-En:   0.210D+00 0.417D-02 0.000D+00 0.000D+00 0.786D+00
 Coeff:     -0.262D-01 0.343D+00 0.104D-01-0.197D-01 0.692D+00
 Gap=     0.285 Goal=   None    Shift=    0.000
 Gap=    -0.112 Goal=   None    Shift=    0.000
 RMSDP=6.85D-03 MaxDP=6.84D-01 DE=-7.77D+01 OVMax= 7.48D-01

 Cycle   6  Pass 1  IDiag  1:
 RMSU=  5.73D-03    CP:  8.71D-01 -1.77D-02  6.69D-02  1.12D-03  5.09D-01
 E= -3244.31089129919     Delta-E=        7.935255678733 Rises=F Damp=F
 DIIS: error= 6.17D-02 at cycle   6 NSaved=   6.
 NSaved= 6 IEnMin= 5 EnMin= -3252.24614697793     IErMin= 6 ErrMin= 6.17D-02
 ErrMax= 6.17D-02  0.00D+00 EMaxC= 1.00D-01 BMatC= 2.35D+01 BMatP= 1.04D+01
 IDIUse=2 WtCom= 0.00D+00 WtEn= 1.00D+00
 EnCoef did   100 forward-backward iterations
 Coeff-En:   0.166D+00 0.169D-02 0.000D+00 0.000D+00 0.711D+00 0.121D+00
 Coeff:      0.166D+00 0.169D-02 0.000D+00 0.000D+00 0.711D+00 0.121D+00
 Gap=     0.397 Goal=   None    Shift=    0.000
 Gap=    -0.178 Goal=   None    Shift=    0.000
 RMSDP=5.22D-03 MaxDP=3.61D-01 DE= 7.94D+00 OVMax= 6.42D-01

 Cycle   7  Pass 1  IDiag  1:
 RMSU=  3.57D-03    CP:  8.88D-01  1.54D-02  4.21D-02  4.56D-03  4.70D-01
                    CP:  3.63D-01
 E= -3253.77255963704     Delta-E=       -9.461668337846 Rises=F Damp=F
 DIIS: error= 4.48D-02 at cycle   7 NSaved=   7.
 NSaved= 7 IEnMin= 7 EnMin= -3253.77255963704     IErMin= 7 ErrMin= 4.48D-02
 ErrMax= 4.48D-02  0.00D+00 EMaxC= 1.00D-01 BMatC= 4.46D+00 BMatP= 1.04D+01
 IDIUse=3 WtCom= 5.52D-01 WtEn= 4.48D-01
 EnCoef did     1 forward-backward iterations
 Coeff-Com:  0.122D-01 0.102D-01-0.207D-01-0.624D-02 0.398D+00 0.698D-01
 Coeff-Com:  0.536D+00
 Coeff-En:   0.000D+00 0.000D+00 0.000D+00 0.000D+00 0.274D+00 0.264D-02
 Coeff-En:   0.723D+00
 Coeff:      0.676D-02 0.564D-02-0.114D-01-0.344D-02 0.343D+00 0.397D-01
 Coeff:      0.620D+00
 Gap=     0.198 Goal=   None    Shift=    0.000
 Gap=     0.033 Goal=   None    Shift=    0.000
 RMSDP=4.45D-03 MaxDP=3.40D-01 DE=-9.46D+00 OVMax= 6.06D-01

 Cycle   8  Pass 1  IDiag  1:
 RMSU=  3.42D-03    CP:  8.86D-01 -2.70D-02  3.60D-02  6.38D-03  6.09D-01
                    CP:  2.42D-01  3.07D-01
 E= -3253.77361434955     Delta-E=       -0.001054712511 Rises=F Damp=F
 DIIS: error= 2.68D-02 at cycle   8 NSaved=   8.
 NSaved= 8 IEnMin= 8 EnMin= -3253.77361434955     IErMin= 8 ErrMin= 2.68D-02
 ErrMax= 2.68D-02  0.00D+00 EMaxC= 1.00D-01 BMatC= 3.05D+00 BMatP= 4.46D+00
 IDIUse=3 WtCom= 7.32D-01 WtEn= 2.68D-01
 EnCoef did     4 forward-backward iterations
 Coeff-Com: -0.336D-01 0.473D-01-0.143D-01-0.524D-02 0.285D+00 0.127D-01
 Coeff-Com:  0.419D+00 0.290D+00
 Coeff-En:   0.000D+00 0.000D+00 0.000D+00 0.000D+00 0.147D+00 0.000D+00
 Coeff-En:   0.444D+00 0.409D+00
 Coeff:     -0.246D-01 0.346D-01-0.104D-01-0.384D-02 0.248D+00 0.932D-02
 Coeff:      0.426D+00 0.322D+00
 Gap=     0.187 Goal=   None    Shift=    0.000
 Gap=    -0.006 Goal=   None    Shift=    0.000
 RMSDP=3.07D-03 MaxDP=3.51D-01 DE=-1.05D-03 OVMax= 5.66D-01

 Cycle   9  Pass 1  IDiag  1:
 RMSU=  1.39D-03    CP:  8.66D-01 -3.68D-02  3.67D-02  2.89D-03  6.59D-01
                    CP:  2.29D-01  5.09D-01  2.45D-01
 E= -3254.54061434931     Delta-E=       -0.766999999763 Rises=F Damp=F
 DIIS: error= 1.14D-02 at cycle   9 NSaved=   9.
 NSaved= 9 IEnMin= 9 EnMin= -3254.54061434931     IErMin= 9 ErrMin= 1.14D-02
 ErrMax= 1.14D-02  0.00D+00 EMaxC= 1.00D-01 BMatC= 4.38D-01 BMatP= 3.05D+00
 IDIUse=3 WtCom= 8.86D-01 WtEn= 1.14D-01
 Coeff-Com: -0.527D-01 0.779D-01 0.354D-03-0.335D-02 0.479D-01-0.204D-02
 Coeff-Com:  0.148D+00 0.241D+00 0.543D+00
 Coeff-En:   0.000D+00 0.000D+00 0.000D+00 0.000D+00 0.000D+00 0.000D+00
 Coeff-En:   0.000D+00 0.141D+00 0.859D+00
 Coeff:     -0.467D-01 0.690D-01 0.313D-03-0.297D-02 0.424D-01-0.181D-02
 Coeff:      0.131D+00 0.230D+00 0.579D+00
 Gap=     0.160 Goal=   None    Shift=    0.000
 Gap=     0.001 Goal=   None    Shift=    0.000
 RMSDP=1.72D-03 MaxDP=1.95D-01 DE=-7.67D-01 OVMax= 8.90D-01

 Cycle  10  Pass 1  IDiag  1:
 RMSU=  1.31D-03    CP:  8.71D-01 -3.27D-02  3.75D-02  3.06D-03  6.29D-01
                    CP:  2.39D-01  5.05D-01  4.71D-01  4.45D-01
 E= -3254.55663315129     Delta-E=       -0.016018801973 Rises=F Damp=F
 DIIS: error= 8.00D-03 at cycle  10 NSaved=  10.
 NSaved=10 IEnMin=10 EnMin= -3254.55663315129     IErMin=10 ErrMin= 8.00D-03
 ErrMax= 8.00D-03  0.00D+00 EMaxC= 1.00D-01 BMatC= 2.90D-01 BMatP= 4.38D-01
 IDIUse=3 WtCom= 9.20D-01 WtEn= 8.00D-02
 Coeff-Com: -0.279D-01 0.415D-01 0.685D-03 0.949D-03 0.715D-02-0.335D-02
 Coeff-Com:  0.602D-01 0.958D-01 0.453D+00 0.372D+00
 Coeff-En:   0.000D+00 0.000D+00 0.000D+00 0.000D+00 0.000D+00 0.000D+00
 Coeff-En:   0.000D+00 0.000D+00 0.467D+00 0.533D+00
 Coeff:     -0.257D-01 0.382D-01 0.630D-03 0.873D-03 0.658D-02-0.308D-02
 Coeff:      0.554D-01 0.881D-01 0.454D+00 0.385D+00
 Gap=     0.145 Goal=   None    Shift=    0.000
 Gap=     0.006 Goal=   None    Shift=    0.000
 RMSDP=1.30D-03 MaxDP=1.31D-01 DE=-1.60D-02 OVMax= 7.29D-01

 Cycle  11  Pass 1  IDiag  1:
 RMSU=  7.32D-04    CP:  8.70D-01 -3.05D-02  3.69D-02  3.54D-03  6.48D-01
                    CP:  2.31D-01  5.38D-01  3.50D-01  7.68D-01  3.40D-01
 E= -3254.61558912516     Delta-E=       -0.058955973869 Rises=F Damp=F
 DIIS: error= 7.61D-03 at cycle  11 NSaved=  11.
 NSaved=11 IEnMin=11 EnMin= -3254.61558912516     IErMin=11 ErrMin= 7.61D-03
 ErrMax= 7.61D-03  0.00D+00 EMaxC= 1.00D-01 BMatC= 9.33D-02 BMatP= 2.90D-01
 IDIUse=3 WtCom= 9.24D-01 WtEn= 7.61D-02
 EnCoef did     5 forward-backward iterations
 Coeff-Com: -0.178D-01 0.295D-01-0.257D-03 0.710D-03-0.578D-02-0.528D-03
 Coeff-Com:  0.210D-01 0.628D-02 0.219D+00 0.354D+00 0.395D+00
 Coeff-En:   0.000D+00 0.000D+00 0.000D+00 0.000D+00 0.000D+00 0.000D+00
 Coeff-En:   0.000D+00 0.000D+00 0.696D-02 0.263D+00 0.730D+00
 Coeff:     -0.164D-01 0.273D-01-0.238D-03 0.656D-03-0.534D-02-0.488D-03
 Coeff:      0.194D-01 0.580D-02 0.203D+00 0.347D+00 0.420D+00
 Gap=     0.144 Goal=   None    Shift=    0.000
 Gap=     0.015 Goal=   None    Shift=    0.000
 RMSDP=6.12D-04 MaxDP=5.24D-02 DE=-5.90D-02 OVMax= 3.36D-01

 Cycle  12  Pass 1  IDiag  1:
 RMSU=  3.70D-04    CP:  8.69D-01 -3.29D-02  3.82D-02  3.28D-03  6.44D-01
                    CP:  2.32D-01  5.20D-01  3.35D-01  6.71D-01  6.49D-01
                    CP:  7.20D-01
 E= -3254.63721294234     Delta-E=       -0.021623817185 Rises=F Damp=F
 DIIS: error= 2.50D-03 at cycle  12 NSaved=  12.
 NSaved=12 IEnMin=12 EnMin= -3254.63721294234     IErMin=12 ErrMin= 2.50D-03
 ErrMax= 2.50D-03  0.00D+00 EMaxC= 1.00D-01 BMatC= 1.76D-02 BMatP= 9.33D-02
 IDIUse=3 WtCom= 9.75D-01 WtEn= 2.50D-02
 Coeff-Com: -0.634D-02 0.119D-01-0.875D-03 0.427D-03-0.884D-03-0.119D-02
 Coeff-Com:  0.219D-01-0.959D-02 0.488D-01 0.146D+00 0.308D+00 0.482D+00
 Coeff-En:   0.000D+00 0.000D+00 0.000D+00 0.000D+00 0.000D+00 0.000D+00
 Coeff-En:   0.000D+00 0.000D+00 0.000D+00 0.000D+00 0.119D+00 0.881D+00
 Coeff:     -0.618D-02 0.116D-01-0.853D-03 0.416D-03-0.862D-03-0.116D-02
 Coeff:      0.213D-01-0.935D-02 0.476D-01 0.143D+00 0.303D+00 0.492D+00
 Gap=     0.133 Goal=   None    Shift=    0.000
 Gap=     0.031 Goal=   None    Shift=    0.000
 RMSDP=2.13D-04 MaxDP=1.78D-02 DE=-2.16D-02 OVMax= 4.80D-02

 Cycle  13  Pass 1  IDiag  1:
 RMSU=  1.73D-04    CP:  8.70D-01 -3.17D-02  3.77D-02  3.27D-03  6.43D-01
                    CP:  2.32D-01  5.26D-01  3.34D-01  6.70D-01  6.17D-01
                    CP:  8.12D-01  7.67D-01
 E= -3254.64090843298     Delta-E=       -0.003695490639 Rises=F Damp=F
 DIIS: error= 1.76D-03 at cycle  13 NSaved=  13.
 NSaved=13 IEnMin=13 EnMin= -3254.64090843298     IErMin=13 ErrMin= 1.76D-03
 ErrMax= 1.76D-03  0.00D+00 EMaxC= 1.00D-01 BMatC= 4.38D-03 BMatP= 1.76D-02
 IDIUse=3 WtCom= 9.82D-01 WtEn= 1.76D-02
 Coeff-Com: -0.476D-02 0.833D-02-0.391D-03 0.171D-03-0.166D-04-0.105D-02
 Coeff-Com:  0.147D-01-0.774D-03-0.126D-01-0.305D-01 0.863D-01 0.351D+00
 Coeff-Com:  0.589D+00
 Coeff-En:   0.000D+00 0.000D+00 0.000D+00 0.000D+00 0.000D+00 0.000D+00
 Coeff-En:   0.000D+00 0.000D+00 0.000D+00 0.000D+00 0.000D+00 0.991D-01
 Coeff-En:   0.901D+00
 Coeff:     -0.467D-02 0.818D-02-0.384D-03 0.168D-03-0.163D-04-0.103D-02
 Coeff:      0.144D-01-0.760D-03-0.124D-01-0.299D-01 0.848D-01 0.347D+00
 Coeff:      0.595D+00
 Gap=     0.131 Goal=   None    Shift=    0.000
 Gap=     0.039 Goal=   None    Shift=    0.000
 RMSDP=1.27D-04 MaxDP=1.03D-02 DE=-3.70D-03 OVMax= 3.50D-02

 Cycle  14  Pass 1  IDiag  1:
 RMSU=  1.03D-04    CP:  8.69D-01 -3.19D-02  3.78D-02  3.31D-03  6.42D-01
                    CP:  2.33D-01  5.26D-01  3.26D-01  6.64D-01  6.13D-01
                    CP:  8.23D-01  9.38D-01  8.71D-01
 E= -3254.64219950025     Delta-E=       -0.001291067274 Rises=F Damp=F
 DIIS: error= 5.99D-04 at cycle  14 NSaved=  14.
 NSaved=14 IEnMin=14 EnMin= -3254.64219950025     IErMin=14 ErrMin= 5.99D-04
 ErrMax= 5.99D-04  0.00D+00 EMaxC= 1.00D-01 BMatC= 1.23D-03 BMatP= 4.38D-03
 IDIUse=3 WtCom= 9.94D-01 WtEn= 5.99D-03
 Coeff-Com: -0.440D-02 0.700D-02-0.157D-03 0.259D-04 0.146D-02-0.372D-03
 Coeff-Com:  0.718D-02 0.177D-02-0.689D-02-0.529D-01-0.527D-02 0.725D-01
 Coeff-Com:  0.355D+00 0.625D+00
 Coeff-En:   0.000D+00 0.000D+00 0.000D+00 0.000D+00 0.000D+00 0.000D+00
 Coeff-En:   0.000D+00 0.000D+00 0.000D+00 0.000D+00 0.000D+00 0.000D+00
 Coeff-En:   0.000D+00 0.100D+01
 Coeff:     -0.438D-02 0.696D-02-0.156D-03 0.257D-04 0.145D-02-0.370D-03
 Coeff:      0.714D-02 0.176D-02-0.684D-02-0.526D-01-0.524D-02 0.720D-01
 Coeff:      0.352D+00 0.628D+00
 Gap=     0.131 Goal=   None    Shift=    0.000
 Gap=     0.040 Goal=   None    Shift=    0.000
 RMSDP=7.25D-05 MaxDP=5.10D-03 DE=-1.29D-03 OVMax= 1.59D-02

 Cycle  15  Pass 1  IDiag  1:
 RMSU=  4.43D-05    CP:  8.69D-01 -3.16D-02  3.79D-02  3.31D-03  6.43D-01
                    CP:  2.33D-01  5.26D-01  3.18D-01  6.59D-01  6.03D-01
                    CP:  8.35D-01  9.85D-01  1.09D+00  1.16D+00
 E= -3254.64266472537     Delta-E=       -0.000465225112 Rises=F Damp=F
 DIIS: error= 3.18D-04 at cycle  15 NSaved=  15.
 NSaved=15 IEnMin=15 EnMin= -3254.64266472537     IErMin=15 ErrMin= 3.18D-04
 ErrMax= 3.18D-04  0.00D+00 EMaxC= 1.00D-01 BMatC= 4.48D-04 BMatP= 1.23D-03
 IDIUse=3 WtCom= 9.97D-01 WtEn= 3.18D-03
 Coeff-Com: -0.256D-02 0.393D-02-0.343D-04 0.601D-04 0.681D-03-0.647D-04
 Coeff-Com:  0.133D-02 0.875D-03 0.846D-02-0.212D-01-0.244D-01-0.122D+00
 Coeff-Com: -0.350D-01 0.361D+00 0.829D+00
 Coeff-En:   0.000D+00 0.000D+00 0.000D+00 0.000D+00 0.000D+00 0.000D+00
 Coeff-En:   0.000D+00 0.000D+00 0.000D+00 0.000D+00 0.000D+00 0.000D+00
 Coeff-En:   0.000D+00 0.000D+00 0.100D+01
 Coeff:     -0.255D-02 0.392D-02-0.342D-04 0.599D-04 0.679D-03-0.645D-04
 Coeff:      0.133D-02 0.872D-03 0.844D-02-0.211D-01-0.243D-01-0.122D+00
 Coeff:     -0.348D-01 0.359D+00 0.830D+00
 Gap=     0.129 Goal=   None    Shift=    0.000
 Gap=     0.041 Goal=   None    Shift=    0.000
 RMSDP=6.44D-05 MaxDP=4.45D-03 DE=-4.65D-04 OVMax= 1.61D-02

 Cycle  16  Pass 1  IDiag  1:
 RMSU=  2.77D-05    CP:  8.69D-01 -3.14D-02  3.80D-02  3.33D-03  6.44D-01
                    CP:  2.33D-01  5.25D-01  3.10D-01  6.54D-01  5.98D-01
                    CP:  8.37D-01  1.04D+00  1.23D+00  1.53D+00  1.23D+00
 E= -3254.64286868458     Delta-E=       -0.000203959211 Rises=F Damp=F
 DIIS: error= 3.22D-04 at cycle  16 NSaved=  16.
 NSaved=16 IEnMin=16 EnMin= -3254.64286868458     IErMin=15 ErrMin= 3.18D-04
 ErrMax= 3.22D-04  0.00D+00 EMaxC= 1.00D-01 BMatC= 2.35D-04 BMatP= 4.48D-04
 IDIUse=3 WtCom= 9.97D-01 WtEn= 3.18D-03
 Coeff-Com: -0.679D-03 0.125D-02-0.121D-03 0.536D-04-0.237D-03-0.277D-03
 Coeff-Com:  0.795D-03 0.504D-03 0.841D-02-0.318D-02-0.949D-02-0.115D+00
 Coeff-Com: -0.128D+00 0.240D-01 0.549D+00 0.673D+00
 Coeff-En:   0.000D+00 0.000D+00 0.000D+00 0.000D+00 0.000D+00 0.000D+00
 Coeff-En:   0.000D+00 0.000D+00 0.000D+00 0.000D+00 0.000D+00 0.000D+00
 Coeff-En:   0.000D+00 0.000D+00 0.000D+00 0.100D+01
 Coeff:     -0.677D-03 0.124D-02-0.121D-03 0.534D-04-0.237D-03-0.276D-03
 Coeff:      0.792D-03 0.502D-03 0.839D-02-0.317D-02-0.946D-02-0.115D+00
 Coeff:     -0.128D+00 0.239D-01 0.548D+00 0.674D+00
 Gap=     0.128 Goal=   None    Shift=    0.000
 Gap=     0.041 Goal=   None    Shift=    0.000
 RMSDP=3.70D-05 MaxDP=3.03D-03 DE=-2.04D-04 OVMax= 9.81D-03

 Cycle  17  Pass 1  IDiag  1:
 RMSU=  1.53D-05    CP:  8.69D-01 -3.13D-02  3.80D-02  3.34D-03  6.45D-01
                    CP:  2.33D-01  5.24D-01  3.07D-01  6.52D-01  5.93D-01
                    CP:  8.39D-01  1.06D+00  1.32D+00  1.73D+00  1.56D+00
                    CP:  1.14D+00
 E= -3254.64294818615     Delta-E=       -0.000079501577 Rises=F Damp=F
 DIIS: error= 2.05D-04 at cycle  17 NSaved=  17.
 NSaved=17 IEnMin=17 EnMin= -3254.64294818615     IErMin=17 ErrMin= 2.05D-04
 ErrMax= 2.05D-04  0.00D+00 EMaxC= 1.00D-01 BMatC= 8.55D-05 BMatP= 2.35D-04
 IDIUse=3 WtCom= 9.98D-01 WtEn= 2.05D-03
 Coeff-Com: -0.504D-04 0.320D-03-0.983D-04 0.244D-04-0.622D-03-0.277D-03
 Coeff-Com:  0.117D-02 0.456D-03 0.575D-02-0.101D-02 0.158D-02-0.571D-01
 Coeff-Com: -0.577D-01-0.247D-01 0.167D+00 0.253D+00 0.713D+00
 Coeff-En:   0.000D+00 0.000D+00 0.000D+00 0.000D+00 0.000D+00 0.000D+00
 Coeff-En:   0.000D+00 0.000D+00 0.000D+00 0.000D+00 0.000D+00 0.000D+00
 Coeff-En:   0.000D+00 0.000D+00 0.000D+00 0.000D+00 0.100D+01
 Coeff:     -0.503D-04 0.320D-03-0.981D-04 0.243D-04-0.621D-03-0.277D-03
 Coeff:      0.117D-02 0.456D-03 0.573D-02-0.101D-02 0.158D-02-0.570D-01
 Coeff:     -0.576D-01-0.247D-01 0.166D+00 0.252D+00 0.714D+00
 Gap=     0.128 Goal=   None    Shift=    0.000
 Gap=     0.041 Goal=   None    Shift=    0.000
 RMSDP=1.63D-05 MaxDP=1.16D-03 DE=-7.95D-05 OVMax= 4.10D-03

 Cycle  18  Pass 1  IDiag  1:
 RMSU=  8.51D-06    CP:  8.69D-01 -3.13D-02  3.79D-02  3.34D-03  6.44D-01
                    CP:  2.33D-01  5.25D-01  3.06D-01  6.51D-01  5.91D-01
                    CP:  8.39D-01  1.06D+00  1.34D+00  1.81D+00  1.64D+00
                    CP:  1.32D+00  1.40D+00
 E= -3254.64296989807     Delta-E=       -0.000021711912 Rises=F Damp=F
 DIIS: error= 1.10D-04 at cycle  18 NSaved=  18.
 NSaved=18 IEnMin=18 EnMin= -3254.64296989807     IErMin=18 ErrMin= 1.10D-04
 ErrMax= 1.10D-04  0.00D+00 EMaxC= 1.00D-01 BMatC= 3.42D-05 BMatP= 8.55D-05
[...]
 1,0.00000007,-0.00000135,0.00000018,-0.00000062,-0.00000091,-0.0000538
 7,0.00000334,0.00002662,0.00033695,0.00028558,0.00012987,0.00014940,-0
 .00042605,-0.00180467,0.14749322,0.15300048,0.00003389,0.00006323,0.00
 001991,0.00000960,-0.00007405,-0.00009524,0.00000461,0.00000436,0.0000
 1209,-0.00000203,0.00000090,-0.00000839,0.00000323,0.00000268,-0.00000
 358,-0.00000114,0.00000080,-0.00000031,-0.00000115,-0.00000078,-0.0000
 0071,0.00000116,-0.00000200,-0.00000023,-0.00000192,-0.00000043,0.0000
 0135,-0.00000086,0.00000020,-0.00000137,-0.00000006,-0.00000036,0.0000
 0046,-0.00000013,0.00000004,0.00000077,-0.00002314,-0.00000373,-0.0000
 0760,0.00004699,0.00001493,0.00005023,0.00001605,-0.00004765,-0.000028
 12,-0.00004739,-0.00000552,-0.00002151,-0.00001725,-0.00002098,0.00002
 188,-0.00004299,0.00002216,0.00001687,-0.00000529,-0.00000107,-0.00005
 319,-0.00002022,0.00014513,0.00024691,0.00072302,0.00017438,0.00035028
 ,0.00001139,-0.00024995,-0.00050878,0.00005926,0.00017712,0.00002250,-
 0.00002431,0.00014482,0.00001232,-0.00002514,-0.00001692,0.00002579,0.
 00000640,0.00000382,-0.00001370,-0.00000765,-0.00000473,-0.00000204,0.
 00000320,0.00000383,-0.00000154,-0.00000281,-0.00000284,0.00000197,0.0
 0002001,-0.00000734,0.00001698,-0.00000865,0.00000718,-0.00000489,0.00
 000071,-0.00000024,0.00000128,-0.00000320,0.00000142,0.00000079,0.0001
 9458,-0.00049568,-0.00028638,0.00002292,0.00015384,-0.00069347,-0.0035
 6369,0.00293845,0.00171281,-0.01285868,-0.00999476,0.00502825,0.014668
 72,0.02362745,-0.04844085,0.01577279,0.01156751,0.00252541,-0.00310903
 ,0.00613119,0.00285875,-0.00000010,0.00000101,0.00000234,0.00000100,0.
 00000006,0.00000115,0.00000016,-0.00000049,0.00000061,0.,0.00000059,-0
 .00000095,-0.00000165,-0.00000083,0.00000014,-0.00000085,-0.00000003,-
 0.00000020,0.00000019,0.00000059,-0.00000062,0.00000002,0.00000042,-0.
 00000050,0.00000017,-0.00000047,0.00000010,-0.00000168,0.00000207,-0.0
 0000244,-0.00000065,0.00000129,-0.00000547,0.00000130,0.00000271,-0.00
 001014,0.00001477,-0.00000321,-0.00002185,0.00001204,0.00001846,-0.000
 00338,-0.00000135,-0.00000219,-0.00000150,-0.00000065,-0.00000052,0.00
 000005,0.00000006,-0.00000095,-0.00000010,0.00000173,0.00000020,0.0000
 0069,0.00000288,-0.00000501,0.00000081,-0.00000110,0.00000042,-0.00000
 159,0.00000023,-0.00000237,0.00000037,0.00000049,-0.00000026,-0.000001
 60,0.00000004,-0.00000057,-0.00000076,0.00002566,0.00004693,0.00003093
 ,-0.00066504,-0.00036239,0.00020758,0.00147869,-0.00148930,-0.00138086
 ,-0.01407378,-0.02953677,0.04095750,0.00005865,-0.00056818,-0.00048494
 ,-0.00020829,0.00043329,0.00013218,-0.00030114,0.00008967,-0.00030090,
 -0.00003522,0.00001736,-0.00002165,0.00000455,0.00000485,0.00000708,-0
 .00000779,-0.00000230,0.00000304,-0.00000093,-0.00000654,0.00000129,-0
 .00001345,0.00000984,0.00000141,0.00000377,0.00000465,-0.00000805,0.00
 001782,-0.00001014,0.00002860,-0.00000279,0.00000404,0.00000183,0.0000
 0542,-0.00000158,0.00000100,-0.00030641,0.00049569,0.00032807,0.000543
 09,-0.00035682,-0.00003330,-0.00026750,0.00031406,0.00019774,0.0002389
 6,-0.00011022,0.00011922,0.00008551,0.00001673,-0.00004982,0.00001200,
 0.00029956,0.00005659,0.00032710,0.00055338,-0.00036359,0.00113151,-0.
 00054652,-0.00047408,0.00082657,0.00225106,-0.00003215,-0.00083653,-0.
 00068020,0.00059726,0.00034530,0.00099348,-0.00060949,-0.00037254,0.00
 010749,-0.00041834,0.00004081,0.00000156,0.00002736,-0.00000778,-0.000
 03017,-0.00001581,-0.00000669,-0.00002116,0.00001742,0.00000210,0.0000
 0268,0.00002233,0.00001453,0.00001759,-0.00001484,-0.00002465,0.000006
 06,-0.00003882,-0.00001006,-0.00000014,-0.00000585,0.00000671,-0.00000
 683,0.00000222,0.00000235,-0.00000380,-0.00000461,-0.00097656,0.000206
 50,-0.00066643,-0.00122043,-0.00384158,0.00032063,-0.00013929,-0.00097
 063,0.00088415,0.00267353,-0.00129340,-0.00139288,0.00337827,-0.001603
 82,0.00063136,-0.25757673,0.04433751,-0.12398022,-0.01652994,0.0058055
 7,-0.01274994,-0.00000815,0.00000060,0.00000092,0.00000224,-0.00000041
 ,-0.00000113,0.00000113,-0.00000391,0.,0.00000288,-0.00000861,0.000004
 16,0.00001712,0.00000822,-0.00001628,0.00000892,0.00000985,-0.00000480
 ,0.00000055,-0.00000915,0.00000953,-0.00000263,-0.00000463,0.00000260,
 -0.00000279,-0.00000225,-0.00000221,-0.00000918,0.00001202,0.00001887,
 0.00000129,0.00000321,-0.00001280,-0.00001176,0.00000007,-0.00000935,-
 0.00002510,0.00000198,0.00000604,-0.00018098,0.00003033,0.00006820,-0.
 00003284,0.00001521,0.00002640,-0.00000032,0.00000147,-0.00000222,0.00
 000198,0.00000493,0.00000270,0.00000037,0.00000218,0.00000152,0.000005
 87,-0.00000592,0.00001442,0.00000060,-0.00000043,0.00000465,-0.0000022
 9,-0.00000037,-0.00000248,0.00000187,-0.00000048,0.00000707,-0.0000000
 2,0.00000275,0.00000267,-0.00024257,-0.00025470,-0.00000189,-0.0001552
 5,0.00023750,0.00021664,0.00008737,-0.00018241,0.00005170,0.00018426,0
 .00128530,0.00137504,0.26945401,0.00002166,-0.00067951,-0.00084266,-0.
 00067394,0.00044039,0.00082732,-0.00010247,0.00008875,-0.00033186,-0.0
 0002097,0.00003401,-0.00001753,-0.00000526,-0.00001878,0.00000470,0.00
 000173,0.00000263,-0.00000365,0.00000020,-0.00000576,0.00000083,-0.000
 01458,0.00000855,0.00000412,0.00000148,0.00000239,-0.00001452,0.000025
 01,-0.00001949,0.00002908,-0.00000273,0.00000005,0.00000775,0.00000550
 ,-0.00000250,-0.00000106,-0.00021431,0.00043689,0.00032647,0.00010712,
 -0.00028833,-0.00012343,-0.00010816,0.00034344,0.00019684,0.00021749,-
 0.00017390,0.00004949,-0.00003275,-0.00022279,-0.00018089,0.00004473,0
 .00008353,0.00006146,-0.00021827,-0.00026806,0.00118609,0.00033126,-0.
 00194211,0.00082889,0.00172345,0.00013027,-0.00070806,-0.00066599,-0.0
 0062905,0.00011817,0.00028751,0.00088577,-0.00048219,-0.00029426,0.000
 01136,-0.00044327,-0.00000912,0.00000845,0.00003610,0.00000847,-0.0000
 2007,-0.00000145,-0.00000698,-0.00002415,0.00001909,0.00000807,0.00000
 778,0.00002493,0.00001497,0.00001460,-0.00001989,-0.00000802,0.0000142
 6,-0.00004719,-0.00000946,0.00000489,-0.00000539,0.00000560,-0.0000070
 2,-0.00000215,0.00000233,-0.00000247,-0.00000575,-0.00094100,0.0000426
 7,-0.00049432,-0.00290722,-0.00076981,0.00284191,-0.00062437,-0.000774
 41,-0.00006673,-0.00212363,-0.00110224,0.00565825,0.02211963,-0.000971
 81,0.01327126,0.04522160,-0.06233940,0.03719369,-0.01601650,0.00756023
 ,-0.00987305,0.00000312,0.00000213,0.00000247,0.00000144,-0.00000117,0
 .00000069,0.00000096,-0.00000099,0.00000071,-0.00000435,-0.00000119,-0
 .00000081,0.00001272,0.00002118,-0.00000331,0.00000610,0.00000462,-0.0
 0001172,0.00000095,-0.00000749,0.00000753,-0.00000396,-0.00000174,0.00
 000031,-0.00000268,-0.00000128,-0.00000045,0.00000508,0.00000742,0.000
 00010,0.00000177,-0.00000776,-0.00000158,0.00000933,0.00000514,-0.0000
 1163,0.00000292,0.00000720,-0.00001781,0.00004115,0.00002888,0.0000679
 9,-0.00003393,0.00001664,0.00003030,0.00000253,0.00000480,-0.00000523,
 0.00000401,0.00000755,0.00000283,0.00000347,-0.00000119,-0.00000264,0.
 00000163,-0.00000505,0.00001213,0.00000197,-0.00000053,0.00000792,-0.0
 0000203,0.00000125,-0.00000277,0.00000393,-0.00000203,0.00000967,0.000
 00151,0.00000592,0.00000334,-0.00028067,-0.00011508,0.00011536,0.00024
 881,-0.00026871,-0.00048129,0.00090495,-0.00011064,0.00062435,0.000873
 00,-0.00070453,-0.00286332,-0.04701013,0.06116118,-0.00010847,-0.00014
 748,-0.00019684,0.00018346,0.00010677,0.00020214,0.00001449,-0.0001085
 9,0.00009234,-0.00000789,0.00003552,-0.00000574,-0.00000622,-0.0000407
 0,-0.00000721,0.00000909,0.00000474,-0.00000989,0.00000352,-0.00000304
 ,-0.00000335,0.00000299,-0.00000430,0.00000093,0.00000689,-0.00001085,
 0.00000386,-0.00001037,0.00000922,-0.00000883,0.00000230,0.00000097,0.
 00000068,-0.00000257,-0.00000116,-0.00000107,0.00004451,-0.00001979,0.
 00002391,0.00016522,0.00006005,0.00013705,0.00009256,-0.00028429,-0.00
 014026,-0.00018627,0.00008396,-0.00009258,-0.00002734,0.00005386,0.000
 15317,-0.00000686,0.00030926,-0.00056898,0.00053844,0.00099501,-0.0023
 0580,0.00005792,0.00131911,-0.00021730,0.00042756,-0.00105044,-0.00158
 388,0.00005230,0.00009134,-0.00054867,-0.00010039,-0.00042667,0.000326
 33,0.00030450,-0.00025386,0.00027184,0.00001886,0.00004497,0.00000987,
 -0.00000216,-0.00000917,0.00000032,0.00000115,-0.00000419,-0.00000837,
 -0.00000762,-0.00000544,0.00000336,0.00000944,0.00000264,-0.00000117,-
 0.00001073,-0.00000879,0.00001213,-0.00000408,0.00000413,0.00000406,-0
 .00000106,0.00000533,0.00000174,-0.00000042,-0.00000064,0.00000354,0.0
 0031924,0.00039318,0.00007650,-0.00041518,0.00187261,0.00320014,0.0009
 5800,0.00039953,-0.00044567,-0.00140310,0.00584472,0.00314802,-0.01620
 471,0.00303573,-0.00370277,-0.12530174,0.03744474,-0.11645551,0.002843
 68,-0.00043247,0.00513293,0.00001049,0.00000471,0.00001272,0.00000609,
 -0.00000488,0.00000050,0.00000119,0.00000038,0.00000072,0.00000282,0.0
 0000444,-0.00000317,0.00000270,-0.00000352,0.00000763,-0.00000344,-0.0
 0000259,0.00000148,0.00000037,0.00000229,-0.00000314,0.00000207,0.0000
 0226,-0.00000112,0.00000179,-0.00000137,0.00000022,0.00001057,-0.00001
 184,-0.00000054,0.00000347,-0.00000438,0.00001299,0.00000263,0.0000031
 1,0.00001482,0.00001137,0.00000931,-0.00000487,0.00001547,-0.00007560,
 0.00002364,0.00000809,0.00000437,-0.00000885,-0.00000160,-0.00000242,0
 .00000186,-0.00000311,-0.00000131,-0.00000069,-0.00000021,0.00000269,0
 .00000202,0.00000368,0.00000067,-0.00000193,-0.00000215,0.00000035,-0.
 00000441,0.00000085,-0.00000425,0.00000104,-0.00000039,0.00000110,-0.0
 0000382,-0.00000107,-0.00000299,-0.00000199,0.00001609,0.00009539,0.00
 005686,0.00019688,-0.00044490,-0.00061946,-0.00070013,0.00010759,-0.00
 028682,0.00160151,-0.00262762,-0.00253191,0.13657822,-0.04649449,0.116
 79487,-0.05940185,-0.03109197,0.03660734,-0.01178497,-0.02347755,-0.01
 998054,0.00354097,0.00006130,0.00354100,-0.00041672,-0.00010970,-0.000
 21881,-0.00013031,0.00015278,0.00028714,0.00012582,-0.00008966,-0.0000
 9603,0.00003936,0.00008891,-0.00002653,0.00025734,0.00032762,0.0000428
 0,-0.00108066,-0.00004569,0.00050000,-0.00429828,0.00404655,-0.0012624
 8,0.00009481,0.00053103,0.00000858,-0.00011303,-0.00017325,-0.00008396
 ,0.00077331,-0.00303735,-0.00247180,-0.00016015,0.00207552,0.00173796,
 0.00059225,-0.00230480,-0.00175016,-0.00148414,0.00116135,-0.00005862,
 0.00009178,0.00052815,0.00061575,-0.00027504,0.00034185,0.00004678,-0.
 00138423,-0.00094720,-0.00162099,-0.00174905,0.00646902,0.00428983,-0.
 00237729,-0.00594630,0.00180402,-0.00112735,0.01929932,-0.00977682,-0.
 04337182,0.03300704,0.03437276,0.00252359,-0.00135832,0.00186865,-0.00
 040648,-0.00020975,-0.00001105,-0.00015669,-0.00003830,-0.00003038,0.0
 0005899,-0.00009868,0.00008397,-0.00003323,-0.00003245,-0.00010740,-0.
 00018654,-0.00013696,0.00006165,0.00025334,-0.00016340,-0.00011498,-0.
 00000558,0.00001545,-0.00004436,-0.00002487,0.00001468,-0.00000323,-0.
 00001526,-0.00000614,-0.00003293,0.00105903,0.00176350,-0.00082226,-0.
 00038026,-0.00130213,0.00065206,0.00074493,0.00120432,-0.00056229,-0.0
 0076926,-0.00030542,-0.00010894,-0.00017916,-0.00023652,0.00000389,-0.
 00029457,-0.00036774,0.00020727,-0.00081663,0.00141184,-0.00062301,0.0
 0009488,0.00005445,-0.00006911,0.00003495,0.00001837,-0.00003230,0.000
 07118,-0.00003590,-0.00003837,0.00092125,-0.00084391,0.00025583,0.0016
 8084,-0.00066851,-0.00336950,0.00005246,0.00028640,0.00004969,0.000028
 50,-0.00022187,0.00014907,0.00004461,-0.00003739,0.00006337,0.00010385
 ,-0.00007234,-0.00006360,-0.00000671,0.00004247,0.00013155,-0.00003512
 ,-0.00000677,-0.00004896,-0.00001916,0.00001113,-0.00001265,0.00005242
 ,-0.00001647,0.00001315,0.00002455,-0.00001208,-0.00003721,-0.00001900
 ,0.00001578,0.00005703,-0.00001664,0.00002825,-0.00000743,0.00002453,0
 .00001719,0.00000592,-0.00000609,0.00006393,-0.00001050,0.00005342,-0.
 00003051,0.00005752,0.00003115,-0.00002116,0.00004392,0.00001198,-0.00
 003239,-0.00003544,0.00003178,-0.00001186,0.00003906,-0.00000900,0.000
 02462,0.00001394,-0.00000135,-0.00004770,0.00009160,-0.00001805,0.0000
 2138,-0.00000842,-0.00001114,0.00000409,0.00001361,0.00002818,-0.00001
 718,0.00000056,0.00002962,0.00005861,-0.00001321,0.11909003,-0.0290632
 6,-0.01169059,0.02360639,-0.01797846,-0.02659177,-0.02174230,0.0036992
 4,0.00193763,0.00441141,-0.00088736,0.00119328,-0.00013370,-0.00010152
 ,-0.00023445,0.00031866,-0.00012119,-0.00009072,0.00004115,0.00013777,
 -0.00019796,-0.00005157,-0.00040400,0.00040092,0.00012759,0.00029203,0
 .00009908,-0.00083489,0.00206078,-0.00098267,0.00012448,0.00104529,-0.
 00043247,0.00166444,0.00004374,-0.00004161,-0.00065279,0.00118052,-0.0
 0345158,-0.00166548,0.00043014,0.00184709,0.00216522,0.00058971,-0.002
 50972,-0.00207901,-0.00165069,0.00138948,0.00004434,0.00004703,0.00038
 337,0.00093700,-0.00031053,0.00080973,-0.00018874,-0.00177974,-0.00186
 718,-0.00308495,-0.00293536,0.00314901,0.00646455,0.00456873,0.0047401
 8,-0.00589014,0.00927230,-0.04067077,0.01383337,0.03716135,-0.02224698
 ,-0.03172830,-0.00367989,0.00410004,-0.00350030,0.00093550,0.00049350,
 -0.00020107,-0.00013400,-0.00006954,0.00062190,0.00018902,0.00033982,-
 0.00010679,-0.00006881,-0.00019335,-0.00033834,-0.00010107,-0.00017583
 ,0.00010663,0.00006417,0.00000675,0.00024885,0.00003512,-0.00002745,0.
 00001310,-0.00007398,0.00010112,0.00003831,-0.00005645,0.00004753,0.00
 002894,-0.00243898,-0.00369954,0.00112652,0.00040755,0.00270734,-0.001
 85062,-0.00166808,-0.00303167,0.00159036,0.00230713,0.00086050,0.00034
 445,0.00018276,0.00074914,-0.00081081,0.00057342,0.00068600,0.00033848
 ,0.00123622,-0.00349658,0.00255518,-0.00013013,-0.00003748,0.00002033,
 -0.00001851,-0.00004726,-0.00001455,-0.00000896,-0.00000286,0.00000507
 ,-0.00071142,0.00009619,-0.00018094,-0.00125507,0.00229581,0.00094691,
 -0.00065482,-0.00050188,-0.00166147,-0.00027558,-0.00002138,-0.0003014
 3,-0.00041075,-0.00003980,0.00008882,-0.00008670,-0.00005441,0.0000811
 7,0.00008251,0.00016978,0.00034780,0.00003149,0.00001832,-0.00003242,0
 .00001418,0.00006709,-0.00003524,0.00003106,-0.00000660,0.00005044,0.0
 0010338,0.00009120,-0.00012621,0.00014094,-0.00019299,-0.00044675,-0.0
 0006658,0.00001662,0.00005896,-0.00005909,-0.00005224,-0.00003437,-0.0
 0001940,0.00000794,0.00004583,-0.00002141,-0.00000694,-0.00003434,-0.0
 0000485,-0.00002103,-0.00005689,0.00003730,-0.00004437,-0.00001101,-0.
 00001545,-0.00000450,-0.00008102,-0.00003610,-0.00004859,-0.00004029,-
 0.00000386,0.00024688,-0.00025487,-0.00001781,-0.00000182,0.00005011,0
 .00001911,0.00005404,0.00003742,-0.00002718,0.00002077,-0.00006252,-0.
 00005081,0.00009620,0.00013800,0.00040839,0.09356423,0.02337930,0.0123
 3675,-0.01182338,-0.00349620,0.00009161,0.00508559,-0.00128776,-0.0011
 5976,-0.00181892,0.00032987,-0.00058956,-0.00022138,0.00003647,0.00020
 833,-0.00014362,0.00022418,0.00008779,-0.00015797,-0.00010399,-0.00002
 307,-0.00011971,0.00081912,0.00005559,-0.00041357,-0.00101393,-0.00088
 105,0.00119972,-0.00814938,0.00700623,-0.00008639,0.00121039,0.0008767
 2,0.00094558,-0.00033594,-0.00018616,-0.00020128,-0.00045930,0.0004884
 0,-0.00024969,0.00001408,-0.00023923,-0.00023509,-0.00006285,0.0001233
 8,0.00001831,-0.00002860,-0.00003260,-0.00006445,0.00001845,0.00005363
 ,0.00003418,0.00009481,-0.00014140,-0.00013257,0.00040721,0.00013108,0
 .00008568,-0.00012004,-0.00265840,-0.00100419,0.00150252,0.00279223,-0
 .00043869,-0.00149220,-0.00554940,0.00486482,0.02858091,-0.02511642,-0
 .01893500,-0.00153405,0.00230721,-0.00193684,0.00031044,0.00008583,-0.
 00004171,0.00002755,-0.00006228,0.00033956,0.00001787,0.00015257,-0.00
 001446,0.00001066,-0.00000949,-0.00007901,-0.00007157,-0.00011879,-0.0
 0007677,0.00012148,-0.00016994,0.00005997,-0.00022481,-0.00001849,0.00
 002198,-0.00009847,0.00008499,-0.00004974,-0.00003293,0.00000921,0.000
 03698,-0.00089553,-0.00095559,0.00003495,0.00028134,0.00067507,-0.0004
 4815,-0.00046273,-0.00067256,0.00025143,0.00047667,0.00014035,0.000090
 72,0.00006952,0.00014506,-0.00015047,0.00025613,0.00012790,0.00001148,
 0.00038781,-0.00047151,0.00046117,0.00014630,0.00006377,-0.00001948,0.
 00006823,0.00003143,0.00000240,0.00012034,-0.00004215,-0.00003281,0.00
 190331,-0.00144813,0.00042383,0.00328938,-0.00316991,-0.00246986,-0.00
 043129,0.00040427,-0.00031888,-0.00008199,-0.00011583,-0.00011195,0.00
 009083,0.00000842,0.00005052,0.00030905,-0.00019531,-0.00008971,-0.000
 11830,-0.00013788,-0.00010001,-0.00001995,-0.00001493,-0.00001412,-0.0
 0001396,-0.00000196,0.00001026,-0.00001366,-0.00000680,0.00000918,-0.0
 0004167,0.00005709,0.00004999,0.00000789,-0.00011773,-0.00012555,0.000
 05367,0.00002353,-0.00004246,0.00001187,0.00000694,-0.00001119,0.00007
 922,0.00012726,-0.00011069,0.00010854,-0.00002840,-0.00002717,0.000042
 04,-0.00003107,0.00000417,0.00001933,-0.00010692,-0.00004248,0.0000401
 8,-0.00002064,-0.00003205,0.00000093,0.00002374,-0.00002917,-0.0000297
 9,0.00016504,-0.00003993,0.00000524,0.00000777,0.00002069,-0.00000440,
 -0.00000142,0.00002131,-0.00003159,-0.00000628,0.00000588,-0.00005328,
 -0.00001008,0.00004038,-0.04416299,0.01561194,0.02827989\\-0.00000112,
 -0.00000228,0.00000338,-0.00000512,-0.00000166,-0.00001426,0.00001288,
 -0.00000360,0.00001259,-0.00000505,-0.00000090,0.00000085,0.00000500,-
 0.00000202,-0.00000415,-0.00000062,0.00000437,0.00000078,-0.00000238,-
 0.00000096,0.00000366,0.00000326,-0.00000437,-0.00000286,-0.00000383,0
 .00000537,0.00000485,-0.00000015,-0.00000323,-0.00000762,-0.00000038,-
 0.00000076,0.00000016,0.00000142,0.00000250,-0.00000005,-0.00000469,-0
 .00000176,-0.00000324,-0.00000081,-0.00000082,-0.00000105,-0.00000043,
 0.00000167,0.00000171,0.00000128,-0.00000060,0.00000070,-0.00000141,0.
 00000056,-0.00000067,0.00000074,-0.00000019,0.00000013,-0.00000144,0.0
 0000085,0.00000138,-0.00000288,0.00000228,-0.00000098,0.00000317,0.000
 00032,0.00000260,-0.00000248,0.00000262,-0.00000645,0.00000304,-0.0000
 0758,0.00001202,-0.00000373,0.00000354,-0.00000685,-0.00000058,-0.0000
 0153,0.00000366,-0.00000060,0.00000040,-0.00000141,0.00000012,-0.00000
 003,-0.00000012,0.00000086,0.00000196,-0.00000070,-0.00000384,-0.00000
 341,0.00000090,0.00000434,0.00000279,-0.00000153,0.00000146,-0.0000048
 8,-0.00000067,-0.00000339,0.00000332,0.00000020,0.00000599,-0.00000114
 ,-0.00000213,-0.00000074,-0.00000424,0.00000397,-0.00000014,0.00000109
 ,-0.00000144,-0.00000027,-0.00000139,0.00000084,0.00000256,-0.00000001
 ,0.00000056,-0.00000059,0.00000228,-0.00000187,-0.00000138,-0.00000191
 ,0.00000115,0.00000211,0.00000273,-0.00000256,-0.00000142,0.00000067,0
 .00000098,0.00000016,-0.00000073,0.00000073,-0.00000030,-0.00000013,-0
 .00000016,-0.00000139,0.00000164,0.00000114,0.00000453,-0.00000180,0.0
 0000430,0.00000102,0.,0.00000106,-0.00000032,0.00000047,0.00000064,0.0
 0000036,-0.00000060,0.00000029,-0.00000086,-0.00000067,0.00000079,0.00
 000053,0.00000067,0.00000147,0.00000015,-0.00000051,-0.00000045,-0.000
 00062,0.00000040,0.00000002,-0.00000024,0.00000012,0.00000006,-0.00000
 043,-0.00000010,-0.00000098,0.00000076,0.00000020,0.00000023,-0.000000
 16,0.,-0.00000029,0.00000001,-0.00000040,-0.00000023,-0.00000022,0.000
 00104,-0.00000093,0.00000013,0.00000146,0.00000049,0.00000076,-0.00000
 032,-0.00000006,0.00000118,-0.00000125,0.00000044,-0.00000132,0.000000
 14,0.00000050,-0.00000092,0.00000018,-0.00000092,-0.00000024,0.0000011
 1,-0.00000182,-0.00000014,0.00000007,-0.00000031,-0.00000030,-0.000000
 05,-0.00000022,0.00000021,-0.00000025,0.00000004,-0.00000006,-0.000000
 80,0.00000106,-0.00000102,0.00001007,-0.00000337\\\@
 The archive entry for this job was punched.


 It is also a good rule not to put too much confidence in
 experimental results until they have been confirmed by
 Theory.
                             -- Sir Arthur Eddington
 Job cpu time:       1 days  4 hours 25 minutes 43.9 seconds.
 Elapsed time:       0 days  0 hours 53 minutes 34.5 seconds.
 File lengths (MBytes):  RWF=   6293 Int=      0 D2E=      0 Chk=     49 Scr=      1
 Normal termination of Gaussian 16 at Fri Feb  7 21:45:44 2025.
