 Entering Gaussian System, Link 0=g16
 Initial command:
 /public/software/apps/Gaussian/g16/l1.exe "/tmp/Gau-125100.inp" -scrdir="/tmp/"
 Entering Link 1 = /public/software/apps/Gaussian/g16/l1.exe PID=    125101.
  
 Copyright (c) 1988-2019, Gaussian, Inc.  All Rights Reserved.
  
 This is part of the Gaussian(R) 16 program.  It is based on
 the Gaussian(R) 09 system (copyright 2009, Gaussian, Inc.),
 the Gaussian(R) 03 system (copyright 2003, Gaussian, Inc.),
 the Gaussian(R) 98 system (copyright 1998, Gaussian, Inc.),
 the Gaussian(R) 94 system (copyright 1995, Gaussian, Inc.),
 the Gaussian 92(TM) system (copyright 1992, Gaussian, Inc.),
 the Gaussian 90(TM) system (copyright 1990, Gaussian, Inc.),
 the Gaussian 88(TM) system (copyright 1988, Gaussian, Inc.),
 the Gaussian 86(TM) system (copyright 1986, Carnegie Mellon
 University), and the Gaussian 82(TM) system (copyright 1983,
 Carnegie Mellon University). Gaussian is a federally registered
 trademark of Gaussian, Inc.
  
 This software contains proprietary and confidential information,
 including trade secrets, belonging to Gaussian, Inc.
  
 This software is provided under written license and may be
 used, copied, transmitted, or stored only in accord with that
 written license.
  
 The following legend is applicable only to US Government
 contracts under FAR:
  
                    RESTRICTED RIGHTS LEGEND
  
 Use, reproduction and disclosure by the US Government is
 subject to restrictions as set forth in subparagraphs (a)
 and (c) of the Commercial Computer Software - Restricted
 Rights clause in FAR 52.227-19.
  
 Gaussian, Inc.
 340 Quinnipiac St., Bldg. 40, Wallingford CT 06492
  
  
 ---------------------------------------------------------------
 Warning -- This program may not be used in any manner that
 competes with the business of Gaussian, Inc. or will provide
 assistance to any competitor of Gaussian, Inc.  The licensee
 of this program is prohibited from giving any competitor of
 Gaussian, Inc. access to this program.  By using this program,
 the user acknowledges that Gaussian, Inc. is engaged in the
 business of creating and licensing software in the field of
 computational chemistry and represents and warrants to the
 licensee that it is not a competitor of Gaussian, Inc. and that
 it will not use this program in any manner prohibited above.
 ---------------------------------------------------------------
  

 Cite this work as:
 Gaussian 16, Revision C.01,
 M. J. Frisch, G. W. Trucks, H. B. Schlegel, G. E. Scuseria, 
 M. A. Robb, J. R. Cheeseman, G. Scalmani, V. Barone, 
 G. A. Petersson, H. Nakatsuji, X. Li, M. Caricato, A. V. Marenich, 
 J. Bloino, B. G. Janesko, R. Gomperts, B. Mennucci, H. P. Hratchian, 
 J. V. Ortiz, A. F. Izmaylov, J. L. Sonnenberg, D. Williams-Young, 
 F. Ding, F. Lipparini, F. Egidi, J. Goings, B. Peng, A. Petrone, 
 T. Henderson, D. Ranasinghe, V. G. Zakrzewski, J. Gao, N. Rega, 
 G. Zheng, W. Liang, M. Hada, M. Ehara, K. Toyota, R. Fukuda, 
 J. Hasegawa, M. Ishida, T. Nakajima, Y. Honda, O. Kitao, H. Nakai, 
 T. Vreven, K. Throssell, J. A. Montgomery, Jr., J. E. Peralta, 
 F. Ogliaro, M. J. Bearpark, J. J. Heyd, E. N. Brothers, K. N. Kudin, 
 V. N. Staroverov, T. A. Keith, R. Kobayashi, J. Normand, 
 K. Raghavachari, A. P. Rendell, J. C. Burant, S. S. Iyengar, 
 J. Tomasi, M. Cossi, J. M. Millam, M. Klene, C. Adamo, R. Cammi, 
 J. W. Ochterski, R. L. Martin, K. Morokuma, O. Farkas, 
 J. B. Foresman, and D. J. Fox, Gaussian, Inc., Wallingford CT, 2019.
 
 ******************************************
 Gaussian 16:  ES64L-G16RevC.01  3-Jul-2019
                 7-Feb-2025 
 ******************************************
 %nprocshared=32
 Will use up to   32 processors via shared memory.
 %mem=100GB
 ------------------------------------------
 #p opt freq b3lyp/def2svpp em=gd3bj nosymm
 ------------------------------------------
 1/18=20,19=15,26=3,38=1/1,3;
 2/9=110,12=2,15=1,17=6,18=5,40=1/2;
 3/5=43,7=202,11=2,25=1,30=1,71=1,74=-5,124=41/1,2,3;
 4//1;
 5/5=2,38=5/2;
 6/7=2,8=2,9=2,10=2,28=1/1;
 7/30=1/1,2,3,16;
 1/18=20,19=15,26=3/3(2);
 2/9=110,15=1/2;
 99//99;
 2/9=110,15=1/2;
 3/5=43,7=202,11=2,25=1,30=1,71=1,74=-5,124=41/1,2,3;
 4/5=5,16=3,69=1/1;
 5/5=2,38=5/2;
 7/30=1/1,2,3,16;
 1/18=20,19=15,26=3/3(-5);
 2/9=110,15=1/2;
 6/7=2,8=2,9=2,10=2,19=2,28=1/1;
 99/9=1/99;
 Leave Link    1 at Fri Feb  7 19:31:10 2025, MaxMem= 13421772800 cpu:               1.0 elap:               0.0
 (Enter /public/software/apps/Gaussian/g16/l101.exe)
 ------------------
 $$$$Title####0????
 ------------------
 Symbolic Z-matrix:
 Charge =  0 Multiplicity = 2
 O                     1.42791   0.1897    0.98833 
 C                     1.69234  -0.39219  -0.24963 
 C                     2.9467   -0.20772  -0.8605 
 C                     3.99589   0.62032  -0.21944 
 C                     5.31357   0.11956  -0.07769 
 C                     6.31206   0.90614   0.52022 
 C                     5.97104   2.18416   0.96166 
 C                     4.72247   2.67164   0.82497 
 C                     3.70152   1.92475   0.23617 
 C                     4.68102   4.03829   1.37129 
 O                     5.98738   4.33621   1.84973 
 C                     6.81405   3.20383   1.60779 
 C                     3.20809  -0.81818  -2.09474 
 C                     2.22445  -1.57573  -2.74204 
 C                     2.49455  -2.15316  -3.9934 
 C                     1.51146  -2.88867  -4.65646 
 C                     0.25085  -3.04926  -4.08232 
 C                    -0.03314  -2.48295  -2.83762 
 C                     0.95169  -1.74902  -2.14129 
 C                     0.69986  -1.17417  -0.86976 
 C                    -0.60046  -1.359    -0.16862 
 C                    -1.44841  -0.24533  -0.02099 
 O                    -1.0454    0.99031  -0.52283 
 C                    -2.6985   -0.3739    0.61254 
 C                    -3.59548   0.79434   0.78002 
 C                    -4.95786   0.7089    0.40088 
 C                    -5.81232   1.81124   0.56803 
 C                    -5.28479   2.97935   1.1173 
 C                    -3.99229   3.06787   1.48726 
 C                    -3.10993   1.99709   1.33985 
 C                    -3.74425   4.41055   2.03825 
 O                    -4.97354   5.12353   1.96928 
 C                    -5.95239   4.2602    1.40295 
 C                    -3.10201  -1.62764   1.09176 
 C                    -2.26107  -2.74163   0.98105 
 C                    -2.6698   -3.98264   1.49593 
 C                    -1.82735  -5.09184   1.41186 
 C                    -0.5699   -4.97256   0.82097 
 C                    -0.14921  -3.74587   0.30245 
 C                    -0.99183  -2.61453   0.36158 
 H                     5.56147  -0.87791  -0.41879 
 H                     7.32005   0.52935   0.63529 
 H                     2.71296   2.3518    0.12227 
 H                     3.95334   4.09343   2.20833 
 H                     4.39959   4.75985   0.57545 
 H                     7.21185   2.81746   2.5699 
 H                     7.65227   3.48807   0.93711 
 H                     4.17401  -0.67625  -2.56715 
 H                     3.46455  -2.03131  -4.46092 
 H                     1.72535  -3.32968  -5.62151 
 H                    -0.51109  -3.61324  -4.60482 
 H                    -1.02648  -2.62062  -2.43175 
 H                    -5.35133  -0.20279  -0.03125 
 H                    -6.85334   1.75492   0.27758 
 H                    -2.08153   2.0924    1.66529 
 H                    -2.97244   4.93442   1.4357 
 H                    -3.41355   4.33484   3.09567 
 H                    -6.34582   4.70408   0.46413 
 H                    -6.78062   4.10677   2.12663 
 H                    -4.06477  -1.72812   1.58096 
 H                    -3.63896  -4.09346   1.96793 
 H                    -2.14754  -6.04513   1.81221 
 H                     0.08337  -5.83389   0.76621 
 H                     0.83773  -3.692    -0.13737 
 Cu                    0.06333   1.60031   0.97738 
 
 ITRead=  0  0  0  0  0  0  0  0  0  0  0  0  0  0  0  0  0  0  0  0
 ITRead=  0  0  0  0  0  0  0  0  0  0  0  0  0  0  0  0  0  0  0  0
 ITRead=  0  0  0  0  0  0  0  0  0  0  0  0  0  0  0  0  0  0  0  0
 ITRead=  0  0  0  0  0
 MicOpt= -1 -1 -1 -1 -1 -1 -1 -1 -1 -1 -1 -1 -1 -1 -1 -1 -1 -1 -1 -1
 MicOpt= -1 -1 -1 -1 -1 -1 -1 -1 -1 -1 -1 -1 -1 -1 -1 -1 -1 -1 -1 -1
 MicOpt= -1 -1 -1 -1 -1 -1 -1 -1 -1 -1 -1 -1 -1 -1 -1 -1 -1 -1 -1 -1
 MicOpt= -1 -1 -1 -1 -1
 NAtoms=     65 NQM=       65 NQMF=       0 NMMI=      0 NMMIF=      0
                NMic=       0 NMicF=      0.
                    Isotopes and Nuclear Properties:
 (Nuclear quadrupole moments (NQMom) in fm**2, nuclear magnetic moments (NMagM)
  in nuclear magnetons)

  Atom         1           2           3           4           5           6           7           8           9          10
 IAtWgt=          16          12          12          12          12          12          12          12          12          12
 AtmWgt=  15.9949146  12.0000000  12.0000000  12.0000000  12.0000000  12.0000000  12.0000000  12.0000000  12.0000000  12.0000000
 NucSpn=           0           0           0           0           0           0           0           0           0           0
 AtZEff=  -0.0000000  -0.0000000  -0.0000000  -0.0000000  -0.0000000  -0.0000000  -0.0000000  -0.0000000  -0.0000000  -0.0000000
 NQMom=    0.0000000   0.0000000   0.0000000   0.0000000   0.0000000   0.0000000   0.0000000   0.0000000   0.0000000   0.0000000
 NMagM=    0.0000000   0.0000000   0.0000000   0.0000000   0.0000000   0.0000000   0.0000000   0.0000000   0.0000000   0.0000000
 AtZNuc=   8.0000000   6.0000000   6.0000000   6.0000000   6.0000000   6.0000000   6.0000000   6.0000000   6.0000000   6.0000000

  Atom        11          12          13          14          15          16          17          18          19          20
 IAtWgt=          16          12          12          12          12          12          12          12          12          12
 AtmWgt=  15.9949146  12.0000000  12.0000000  12.0000000  12.0000000  12.0000000  12.0000000  12.0000000  12.0000000  12.0000000
 NucSpn=           0           0           0           0           0           0           0           0           0           0
 AtZEff=  -0.0000000  -0.0000000  -0.0000000  -0.0000000  -0.0000000  -0.0000000  -0.0000000  -0.0000000  -0.0000000  -0.0000000
 NQMom=    0.0000000   0.0000000   0.0000000   0.0000000   0.0000000   0.0000000   0.0000000   0.0000000   0.0000000   0.0000000
 NMagM=    0.0000000   0.0000000   0.0000000   0.0000000   0.0000000   0.0000000   0.0000000   0.0000000   0.0000000   0.0000000
 AtZNuc=   8.0000000   6.0000000   6.0000000   6.0000000   6.0000000   6.0000000   6.0000000   6.0000000   6.0000000   6.0000000

  Atom        21          22          23          24          25          26          27          28          29          30
 IAtWgt=          12          12          16          12          12          12          12          12          12          12
 AtmWgt=  12.0000000  12.0000000  15.9949146  12.0000000  12.0000000  12.0000000  12.0000000  12.0000000  12.0000000  12.0000000
 NucSpn=           0           0           0           0           0           0           0           0           0           0
 AtZEff=  -0.0000000  -0.0000000  -0.0000000  -0.0000000  -0.0000000  -0.0000000  -0.0000000  -0.0000000  -0.0000000  -0.0000000
 NQMom=    0.0000000   0.0000000   0.0000000   0.0000000   0.0000000   0.0000000   0.0000000   0.0000000   0.0000000   0.0000000
 NMagM=    0.0000000   0.0000000   0.0000000   0.0000000   0.0000000   0.0000000   0.0000000   0.0000000   0.0000000   0.0000000
 AtZNuc=   6.0000000   6.0000000   8.0000000   6.0000000   6.0000000   6.0000000   6.0000000   6.0000000   6.0000000   6.0000000

  Atom        31          32          33          34          35          36          37          38          39          40
 IAtWgt=          12          16          12          12          12          12          12          12          12          12
 AtmWgt=  12.0000000  15.9949146  12.0000000  12.0000000  12.0000000  12.0000000  12.0000000  12.0000000  12.0000000  12.0000000
 NucSpn=           0           0           0           0           0           0           0           0           0           0
 AtZEff=  -0.0000000  -0.0000000  -0.0000000  -0.0000000  -0.0000000  -0.0000000  -0.0000000  -0.0000000  -0.0000000  -0.0000000
 NQMom=    0.0000000   0.0000000   0.0000000   0.0000000   0.0000000   0.0000000   0.0000000   0.0000000   0.0000000   0.0000000
 NMagM=    0.0000000   0.0000000   0.0000000   0.0000000   0.0000000   0.0000000   0.0000000   0.0000000   0.0000000   0.0000000
 AtZNuc=   6.0000000   8.0000000   6.0000000   6.0000000   6.0000000   6.0000000   6.0000000   6.0000000   6.0000000   6.0000000

  Atom        41          42          43          44          45          46          47          48          49          50
 IAtWgt=           1           1           1           1           1           1           1           1           1           1
 AtmWgt=   1.0078250   1.0078250   1.0078250   1.0078250   1.0078250   1.0078250   1.0078250   1.0078250   1.0078250   1.0078250
 NucSpn=           1           1           1           1           1           1           1           1           1           1
 AtZEff=  -0.0000000  -0.0000000  -0.0000000  -0.0000000  -0.0000000  -0.0000000  -0.0000000  -0.0000000  -0.0000000  -0.0000000
 NQMom=    0.0000000   0.0000000   0.0000000   0.0000000   0.0000000   0.0000000   0.0000000   0.0000000   0.0000000   0.0000000
 NMagM=    2.7928460   2.7928460   2.7928460   2.7928460   2.7928460   2.7928460   2.7928460   2.7928460   2.7928460   2.7928460
 AtZNuc=   1.0000000   1.0000000   1.0000000   1.0000000   1.0000000   1.0000000   1.0000000   1.0000000   1.0000000   1.0000000

  Atom        51          52          53          54          55          56          57          58          59          60
 IAtWgt=           1           1           1           1           1           1           1           1           1           1
 AtmWgt=   1.0078250   1.0078250   1.0078250   1.0078250   1.0078250   1.0078250   1.0078250   1.0078250   1.0078250   1.0078250
 NucSpn=           1           1           1           1           1           1           1           1           1           1
 AtZEff=  -0.0000000  -0.0000000  -0.0000000  -0.0000000  -0.0000000  -0.0000000  -0.0000000  -0.0000000  -0.0000000  -0.0000000
 NQMom=    0.0000000   0.0000000   0.0000000   0.0000000   0.0000000   0.0000000   0.0000000   0.0000000   0.0000000   0.0000000
 NMagM=    2.7928460   2.7928460   2.7928460   2.7928460   2.7928460   2.7928460   2.7928460   2.7928460   2.7928460   2.7928460
 AtZNuc=   1.0000000   1.0000000   1.0000000   1.0000000   1.0000000   1.0000000   1.0000000   1.0000000   1.0000000   1.0000000

  Atom        61          62          63          64          65
 IAtWgt=           1           1           1           1          63
 AtmWgt=   1.0078250   1.0078250   1.0078250   1.0078250  62.9295992
 NucSpn=           1           1           1           1           3
 AtZEff=  -0.0000000  -0.0000000  -0.0000000  -0.0000000  -0.0000000
 NQMom=    0.0000000   0.0000000   0.0000000   0.0000000 -22.0000000
 NMagM=    2.7928460   2.7928460   2.7928460   2.7928460   2.2233000
 AtZNuc=   1.0000000   1.0000000   1.0000000   1.0000000  29.0000000
 Leave Link  101 at Fri Feb  7 19:31:10 2025, MaxMem= 13421772800 cpu:               4.6 elap:               0.2
 (Enter /public/software/apps/Gaussian/g16/l103.exe)

 GradGradGradGradGradGradGradGradGradGradGradGradGradGradGradGradGradGrad
 Berny optimization.
 Initialization pass.
                           ----------------------------
                           !    Initial Parameters    !
                           ! (Angstroms and Degrees)  !
 --------------------------                            --------------------------
 ! Name  Definition              Value          Derivative Info.                !
 --------------------------------------------------------------------------------
 ! R1    R(1,2)                  1.3932         estimate D2E/DX2                !
 ! R2    R(1,65)                 1.9627         estimate D2E/DX2                !
 ! R3    R(2,3)                  1.4073         estimate D2E/DX2                !
 ! R4    R(2,20)                 1.4075         estimate D2E/DX2                !
 ! R5    R(3,4)                  1.4824         estimate D2E/DX2                !
 ! R6    R(3,13)                 1.4015         estimate D2E/DX2                !
 ! R7    R(4,5)                  1.4167         estimate D2E/DX2                !
 ! R8    R(4,9)                  1.4127         estimate D2E/DX2                !
 ! R9    R(5,6)                  1.4047         estimate D2E/DX2                !
 ! R10   R(5,41)                 1.0829         estimate D2E/DX2                !
 ! R11   R(6,7)                  1.3944         estimate D2E/DX2                !
 ! R12   R(6,42)                 1.0822         estimate D2E/DX2                !
 ! R13   R(7,8)                  1.3473         estimate D2E/DX2                !
 ! R14   R(7,12)                 1.4724         estimate D2E/DX2                !
 ! R15   R(8,9)                  1.3953         estimate D2E/DX2                !
 ! R16   R(8,10)                 1.4724         estimate D2E/DX2                !
 ! R17   R(9,43)                 1.0829         estimate D2E/DX2                !
 ! R18   R(10,11)                1.4228         estimate D2E/DX2                !
 ! R19   R(10,44)                1.1105         estimate D2E/DX2                !
 ! R20   R(10,45)                1.1105         estimate D2E/DX2                !
 ! R21   R(11,12)                1.4227         estimate D2E/DX2                !
 ! R22   R(12,46)                1.1105         estimate D2E/DX2                !
 ! R23   R(12,47)                1.1105         estimate D2E/DX2                !
 ! R24   R(13,14)                1.4002         estimate D2E/DX2                !
 ! R25   R(13,48)                1.0846         estimate D2E/DX2                !
 ! R26   R(14,15)                1.4044         estimate D2E/DX2                !
 ! R27   R(14,19)                1.4181         estimate D2E/DX2                !
 ! R28   R(15,16)                1.3954         estimate D2E/DX2                !
 ! R29   R(15,49)                1.0837         estimate D2E/DX2                !
 ! R30   R(16,17)                1.3945         estimate D2E/DX2                !
 ! R31   R(16,50)                1.0824         estimate D2E/DX2                !
 ! R32   R(17,18)                1.3966         estimate D2E/DX2                !
 ! R33   R(17,51)                1.0824         estimate D2E/DX2                !
 ! R34   R(18,19)                1.4119         estimate D2E/DX2                !
 ! R35   R(18,52)                1.0819         estimate D2E/DX2                !
 ! R36   R(19,20)                1.418          estimate D2E/DX2                !
 ! R37   R(20,21)                1.4888         estimate D2E/DX2                !
 ! R38   R(21,22)                1.4075         estimate D2E/DX2                !
 ! R39   R(21,40)                1.418          estimate D2E/DX2                !
 ! R40   R(22,23)                1.3932         estimate D2E/DX2                !
 ! R41   R(22,24)                1.4073         estimate D2E/DX2                !
 ! R42   R(23,65)                1.9627         estimate D2E/DX2                !
 ! R43   R(24,25)                1.4824         estimate D2E/DX2                !
 ! R44   R(24,34)                1.4015         estimate D2E/DX2                !
 ! R45   R(25,26)                1.4167         estimate D2E/DX2                !
 ! R46   R(25,30)                1.4127         estimate D2E/DX2                !
 ! R47   R(26,27)                1.4047         estimate D2E/DX2                !
 ! R48   R(26,53)                1.0829         estimate D2E/DX2                !
 ! R49   R(27,28)                1.3944         estimate D2E/DX2                !
 ! R50   R(27,54)                1.0822         estimate D2E/DX2                !
 ! R51   R(28,29)                1.3473         estimate D2E/DX2                !
 ! R52   R(28,33)                1.4724         estimate D2E/DX2                !
 ! R53   R(29,30)                1.3953         estimate D2E/DX2                !
 ! R54   R(29,31)                1.4724         estimate D2E/DX2                !
 ! R55   R(30,55)                1.0829         estimate D2E/DX2                !
 ! R56   R(31,32)                1.4228         estimate D2E/DX2                !
 ! R57   R(31,56)                1.1105         estimate D2E/DX2                !
 ! R58   R(31,57)                1.1105         estimate D2E/DX2                !
 ! R59   R(32,33)                1.4227         estimate D2E/DX2                !
 ! R60   R(33,58)                1.1105         estimate D2E/DX2                !
 ! R61   R(33,59)                1.1105         estimate D2E/DX2                !
 ! R62   R(34,35)                1.4002         estimate D2E/DX2                !
 ! R63   R(34,60)                1.0846         estimate D2E/DX2                !
 ! R64   R(35,36)                1.4044         estimate D2E/DX2                !
 ! R65   R(35,40)                1.4181         estimate D2E/DX2                !
 ! R66   R(36,37)                1.3954         estimate D2E/DX2                !
 ! R67   R(36,61)                1.0837         estimate D2E/DX2                !
 ! R68   R(37,38)                1.3945         estimate D2E/DX2                !
 ! R69   R(37,62)                1.0824         estimate D2E/DX2                !
 ! R70   R(38,39)                1.3966         estimate D2E/DX2                !
 ! R71   R(38,63)                1.0824         estimate D2E/DX2                !
 ! R72   R(39,40)                1.4119         estimate D2E/DX2                !
 ! R73   R(39,64)                1.0819         estimate D2E/DX2                !
 ! A1    A(2,1,65)             115.2894         estimate D2E/DX2                !
 ! A2    A(1,2,3)              120.0071         estimate D2E/DX2                !
 ! A3    A(1,2,20)             119.3206         estimate D2E/DX2                !
 ! A4    A(3,2,20)             120.6685         estimate D2E/DX2                !
 ! A5    A(2,3,4)              121.0881         estimate D2E/DX2                !
 ! A6    A(2,3,13)             119.431          estimate D2E/DX2                !
 ! A7    A(4,3,13)             119.4808         estimate D2E/DX2                !
 ! A8    A(3,4,5)              120.2733         estimate D2E/DX2                !
 ! A9    A(3,4,9)              120.5149         estimate D2E/DX2                !
 ! A10   A(5,4,9)              119.2028         estimate D2E/DX2                !
 ! A11   A(4,5,6)              120.3833         estimate D2E/DX2                !
 ! A12   A(4,5,41)             120.4618         estimate D2E/DX2                !
 ! A13   A(6,5,41)             119.1516         estimate D2E/DX2                !
 ! A14   A(5,6,7)              118.3025         estimate D2E/DX2                !
 ! A15   A(5,6,42)             120.8201         estimate D2E/DX2                !
 ! A16   A(7,6,42)             120.8774         estimate D2E/DX2                !
 ! A17   A(6,7,8)              121.7433         estimate D2E/DX2                !
 ! A18   A(6,7,12)             129.3175         estimate D2E/DX2                !
 ! A19   A(8,7,12)             108.9379         estimate D2E/DX2                !
 ! A20   A(7,8,9)              121.8174         estimate D2E/DX2                !
 ! A21   A(7,8,10)             108.9215         estimate D2E/DX2                !
 ! A22   A(9,8,10)             129.2595         estimate D2E/DX2                !
 ! A23   A(4,9,8)              118.5476         estimate D2E/DX2                !
 ! A24   A(4,9,43)             121.3618         estimate D2E/DX2                !
 ! A25   A(8,9,43)             120.0838         estimate D2E/DX2                !
 ! A26   A(8,10,11)            107.0551         estimate D2E/DX2                !
 ! A27   A(8,10,44)            110.1341         estimate D2E/DX2                !
 ! A28   A(8,10,45)            110.1406         estimate D2E/DX2                !
 ! A29   A(11,10,44)           109.7426         estimate D2E/DX2                !
 ! A30   A(11,10,45)           109.7326         estimate D2E/DX2                !
 ! A31   A(44,10,45)           109.9891         estimate D2E/DX2                !
 ! A32   A(10,11,12)           108.0386         estimate D2E/DX2                !
 ! A33   A(7,12,11)            107.0464         estimate D2E/DX2                !
 ! A34   A(7,12,46)            110.1422         estimate D2E/DX2                !
 ! A35   A(7,12,47)            110.145          estimate D2E/DX2                !
 ! A36   A(11,12,46)           109.7383         estimate D2E/DX2                !
 ! A37   A(11,12,47)           109.7283         estimate D2E/DX2                !
 ! A38   A(46,12,47)           109.9935         estimate D2E/DX2                !
 ! A39   A(3,13,14)            120.7812         estimate D2E/DX2                !
 ! A40   A(3,13,48)            119.5164         estimate D2E/DX2                !
 ! A41   A(14,13,48)           119.676          estimate D2E/DX2                !
 ! A42   A(13,14,15)           119.9525         estimate D2E/DX2                !
 ! A43   A(13,14,19)           120.0535         estimate D2E/DX2                !
 ! A44   A(15,14,19)           119.9909         estimate D2E/DX2                !
 ! A45   A(14,15,16)           120.307          estimate D2E/DX2                !
 ! A46   A(14,15,49)           120.6868         estimate D2E/DX2                !
 ! A47   A(16,15,49)           119.0055         estimate D2E/DX2                !
 ! A48   A(15,16,17)           120.1292         estimate D2E/DX2                !
 ! A49   A(15,16,50)           119.948          estimate D2E/DX2                !
 ! A50   A(17,16,50)           119.9214         estimate D2E/DX2                !
 ! A51   A(16,17,18)           120.2688         estimate D2E/DX2                !
 ! A52   A(16,17,51)           119.8413         estimate D2E/DX2                !
 ! A53   A(18,17,51)           119.8898         estimate D2E/DX2                !
 ! A54   A(17,18,19)           120.5624         estimate D2E/DX2                !
 ! A55   A(17,18,52)           117.9988         estimate D2E/DX2                !
 ! A56   A(19,18,52)           121.438          estimate D2E/DX2                !
 ! A57   A(14,19,18)           118.7277         estimate D2E/DX2                !
 ! A58   A(14,19,20)           119.3241         estimate D2E/DX2                !
 ! A59   A(18,19,20)           121.9459         estimate D2E/DX2                !
 ! A60   A(2,20,19)            119.6758         estimate D2E/DX2                !
 ! A61   A(2,20,21)            118.5117         estimate D2E/DX2                !
 ! A62   A(19,20,21)           121.8083         estimate D2E/DX2                !
 ! A63   A(20,21,22)           118.5118         estimate D2E/DX2                !
 ! A64   A(20,21,40)           121.8082         estimate D2E/DX2                !
 ! A65   A(22,21,40)           119.6758         estimate D2E/DX2                !
 ! A66   A(21,22,23)           119.3206         estimate D2E/DX2                !
 ! A67   A(21,22,24)           120.6685         estimate D2E/DX2                !
 ! A68   A(23,22,24)           120.0071         estimate D2E/DX2                !
 ! A69   A(22,23,65)            99.4235         estimate D2E/DX2                !
 ! A70   A(22,24,25)           121.0881         estimate D2E/DX2                !
 ! A71   A(22,24,34)           119.4311         estimate D2E/DX2                !
 ! A72   A(25,24,34)           119.4808         estimate D2E/DX2                !
 ! A73   A(24,25,26)           120.2734         estimate D2E/DX2                !
 ! A74   A(24,25,30)           120.5148         estimate D2E/DX2                !
 ! A75   A(26,25,30)           119.2028         estimate D2E/DX2                !
 ! A76   A(25,26,27)           120.3834         estimate D2E/DX2                !
 ! A77   A(25,26,53)           120.4618         estimate D2E/DX2                !
 ! A78   A(27,26,53)           119.1515         estimate D2E/DX2                !
 ! A79   A(26,27,28)           118.3024         estimate D2E/DX2                !
 ! A80   A(26,27,54)           120.8202         estimate D2E/DX2                !
 ! A81   A(28,27,54)           120.8774         estimate D2E/DX2                !
 ! A82   A(27,28,29)           121.7433         estimate D2E/DX2                !
 ! A83   A(27,28,33)           129.3174         estimate D2E/DX2                !
 ! A84   A(29,28,33)           108.938          estimate D2E/DX2                !
 ! A85   A(28,29,30)           121.8175         estimate D2E/DX2                !
 ! A86   A(28,29,31)           108.9215         estimate D2E/DX2                !
 ! A87   A(30,29,31)           129.2594         estimate D2E/DX2                !
 ! A88   A(25,30,29)           118.5476         estimate D2E/DX2                !
 ! A89   A(25,30,55)           121.3619         estimate D2E/DX2                !
 ! A90   A(29,30,55)           120.0838         estimate D2E/DX2                !
 ! A91   A(29,31,32)           107.055          estimate D2E/DX2                !
 ! A92   A(29,31,56)           110.1341         estimate D2E/DX2                !
 ! A93   A(29,31,57)           110.1406         estimate D2E/DX2                !
 ! A94   A(32,31,56)           109.7426         estimate D2E/DX2                !
 ! A95   A(32,31,57)           109.7326         estimate D2E/DX2                !
 ! A96   A(56,31,57)           109.9891         estimate D2E/DX2                !
 ! A97   A(31,32,33)           108.0386         estimate D2E/DX2                !
 ! A98   A(28,33,32)           107.0464         estimate D2E/DX2                !
 ! A99   A(28,33,58)           110.1422         estimate D2E/DX2                !
 ! A100  A(28,33,59)           110.145          estimate D2E/DX2                !
 ! A101  A(32,33,58)           109.7384         estimate D2E/DX2                !
 ! A102  A(32,33,59)           109.7282         estimate D2E/DX2                !
 ! A103  A(58,33,59)           109.9934         estimate D2E/DX2                !
 ! A104  A(24,34,35)           120.7812         estimate D2E/DX2                !
 ! A105  A(24,34,60)           119.5165         estimate D2E/DX2                !
 ! A106  A(35,34,60)           119.6759         estimate D2E/DX2                !
 ! A107  A(34,35,36)           119.9525         estimate D2E/DX2                !
 ! A108  A(34,35,40)           120.0535         estimate D2E/DX2                !
 ! A109  A(36,35,40)           119.9909         estimate D2E/DX2                !
 ! A110  A(35,36,37)           120.307          estimate D2E/DX2                !
 ! A111  A(35,36,61)           120.6868         estimate D2E/DX2                !
 ! A112  A(37,36,61)           119.0055         estimate D2E/DX2                !
 ! A113  A(36,37,38)           120.1292         estimate D2E/DX2                !
 ! A114  A(36,37,62)           119.948          estimate D2E/DX2                !
 ! A115  A(38,37,62)           119.9214         estimate D2E/DX2                !
 ! A116  A(37,38,39)           120.2688         estimate D2E/DX2                !
 ! A117  A(37,38,63)           119.8413         estimate D2E/DX2                !
 ! A118  A(39,38,63)           119.8897         estimate D2E/DX2                !
 ! A119  A(38,39,40)           120.5624         estimate D2E/DX2                !
 ! A120  A(38,39,64)           117.9988         estimate D2E/DX2                !
 ! A121  A(40,39,64)           121.438          estimate D2E/DX2                !
 ! A122  A(21,40,35)           119.3241         estimate D2E/DX2                !
 ! A123  A(21,40,39)           121.946          estimate D2E/DX2                !
 ! A124  A(35,40,39)           118.7277         estimate D2E/DX2                !
 ! A125  A(1,65,23)            100.0            estimate D2E/DX2                !
 ! D1    D(65,1,2,3)           113.2775         estimate D2E/DX2                !
 ! D2    D(65,1,2,20)          -67.4272         estimate D2E/DX2                !
 ! D3    D(2,1,65,23)           29.3721         estimate D2E/DX2                !
 ! D4    D(1,2,3,4)             -1.0717         estimate D2E/DX2                !
 ! D5    D(1,2,3,13)           178.8704         estimate D2E/DX2                !
 ! D6    D(20,2,3,4)           179.6427         estimate D2E/DX2                !
 ! D7    D(20,2,3,13)           -0.4153         estimate D2E/DX2                !
 ! D8    D(1,2,20,19)          178.8089         estimate D2E/DX2                !
 ! D9    D(1,2,20,21)           -0.455          estimate D2E/DX2                !
 ! D10   D(3,2,20,19)           -1.9006         estimate D2E/DX2                !
 ! D11   D(3,2,20,21)          178.8355         estimate D2E/DX2                !
 ! D12   D(2,3,4,5)            130.356          estimate D2E/DX2                !
 ! D13   D(2,3,4,9)            -50.743          estimate D2E/DX2                !
 ! D14   D(13,3,4,5)           -49.5861         estimate D2E/DX2                !
 ! D15   D(13,3,4,9)           129.3149         estimate D2E/DX2                !
 ! D16   D(2,3,13,14)            1.8242         estimate D2E/DX2                !
 ! D17   D(2,3,13,48)          179.9487         estimate D2E/DX2                !
 ! D18   D(4,3,13,14)         -178.2328         estimate D2E/DX2                !
 ! D19   D(4,3,13,48)           -0.1082         estimate D2E/DX2                !
 ! D20   D(3,4,5,6)            179.5135         estimate D2E/DX2                !
 ! D21   D(3,4,5,41)            -1.1564         estimate D2E/DX2                !
 ! D22   D(9,4,5,6)              0.5982         estimate D2E/DX2                !
 ! D23   D(9,4,5,41)           179.9283         estimate D2E/DX2                !
 ! D24   D(3,4,9,8)           -179.5546         estimate D2E/DX2                !
 ! D25   D(3,4,9,43)            -0.5035         estimate D2E/DX2                !
 ! D26   D(5,4,9,8)             -0.642          estimate D2E/DX2                !
 ! D27   D(5,4,9,43)           178.4092         estimate D2E/DX2                !
 ! D28   D(4,5,6,7)             -0.2073         estimate D2E/DX2                !
 ! D29   D(4,5,6,42)           179.78           estimate D2E/DX2                !
 ! D30   D(41,5,6,7)          -179.5462         estimate D2E/DX2                !
 ! D31   D(41,5,6,42)            0.4412         estimate D2E/DX2                !
 ! D32   D(5,6,7,8)             -0.1398         estimate D2E/DX2                !
 ! D33   D(5,6,7,12)          -179.6795         estimate D2E/DX2                !
 ! D34   D(42,6,7,8)           179.8729         estimate D2E/DX2                !
 ! D35   D(42,6,7,12)            0.3331         estimate D2E/DX2                !
 ! D36   D(6,7,8,9)              0.087          estimate D2E/DX2                !
 ! D37   D(6,7,8,10)          -179.4887         estimate D2E/DX2                !
 ! D38   D(12,7,8,9)           179.7105         estimate D2E/DX2                !
 ! D39   D(12,7,8,10)            0.1349         estimate D2E/DX2                !
 ! D40   D(6,7,12,11)          179.5864         estimate D2E/DX2                !
 ! D41   D(6,7,12,46)          -61.1573         estimate D2E/DX2                !
 ! D42   D(6,7,12,47)           60.3407         estimate D2E/DX2                !
 ! D43   D(8,7,12,11)            0.0002         estimate D2E/DX2                !
 ! D44   D(8,7,12,46)          119.2565         estimate D2E/DX2                !
 ! D45   D(8,7,12,47)         -119.2455         estimate D2E/DX2                !
 ! D46   D(7,8,9,4)              0.3107         estimate D2E/DX2                !
 ! D47   D(7,8,9,43)          -178.753          estimate D2E/DX2                !
 ! D48   D(10,8,9,4)           179.7922         estimate D2E/DX2                !
 ! D49   D(10,8,9,43)            0.7286         estimate D2E/DX2                !
 ! D50   D(7,8,10,11)           -0.2212         estimate D2E/DX2                !
 ! D51   D(7,8,10,44)         -119.4833         estimate D2E/DX2                !
 ! D52   D(7,8,10,45)          119.0324         estimate D2E/DX2                !
 ! D53   D(9,8,10,11)         -179.7555         estimate D2E/DX2                !
 ! D54   D(9,8,10,44)           60.9824         estimate D2E/DX2                !
 ! D55   D(9,8,10,45)          -60.5019         estimate D2E/DX2                !
 ! D56   D(8,10,11,12)           0.2173         estimate D2E/DX2                !
 ! D57   D(44,10,11,12)        119.7315         estimate D2E/DX2                !
 ! D58   D(45,10,11,12)       -119.2991         estimate D2E/DX2                !
 ! D59   D(10,11,12,7)          -0.1392         estimate D2E/DX2                !
 ! D60   D(10,11,12,46)       -119.6557         estimate D2E/DX2                !
 ! D61   D(10,11,12,47)        119.375          estimate D2E/DX2                !
 ! D62   D(3,13,14,15)         178.473          estimate D2E/DX2                !
 ! D63   D(3,13,14,19)          -0.8942         estimate D2E/DX2                !
 ! D64   D(48,13,14,15)          0.3514         estimate D2E/DX2                !
 ! D65   D(48,13,14,19)       -179.0158         estimate D2E/DX2                !
 ! D66   D(13,14,15,16)       -178.8037         estimate D2E/DX2                !
 ! D67   D(13,14,15,49)          0.8839         estimate D2E/DX2                !
 ! D68   D(19,14,15,16)          0.5639         estimate D2E/DX2                !
 ! D69   D(19,14,15,49)       -179.7485         estimate D2E/DX2                !
 ! D70   D(13,14,19,18)        178.0335         estimate D2E/DX2                !
 ! D71   D(13,14,19,20)         -1.4321         estimate D2E/DX2                !
 ! D72   D(15,14,19,18)         -1.3335         estimate D2E/DX2                !
 ! D73   D(15,14,19,20)        179.2009         estimate D2E/DX2                !
 ! D74   D(14,15,16,17)          0.3175         estimate D2E/DX2                !
 ! D75   D(14,15,16,50)        179.8899         estimate D2E/DX2                !
 ! D76   D(49,15,16,17)       -179.3753         estimate D2E/DX2                !
 ! D77   D(49,15,16,50)          0.1972         estimate D2E/DX2                !
 ! D78   D(15,16,17,18)         -0.4068         estimate D2E/DX2                !
 ! D79   D(15,16,17,51)        179.452          estimate D2E/DX2                !
 ! D80   D(50,16,17,18)       -179.9793         estimate D2E/DX2                !
 ! D81   D(50,16,17,51)         -0.1205         estimate D2E/DX2                !
 ! D82   D(16,17,18,19)         -0.3919         estimate D2E/DX2                !
 ! D83   D(16,17,18,52)        179.2971         estimate D2E/DX2                !
 ! D84   D(51,17,18,19)        179.7493         estimate D2E/DX2                !
 ! D85   D(51,17,18,52)         -0.5616         estimate D2E/DX2                !
 ! D86   D(17,18,19,14)          1.2523         estimate D2E/DX2                !
 ! D87   D(17,18,19,20)       -179.2968         estimate D2E/DX2                !
 ! D88   D(52,18,19,14)       -178.4259         estimate D2E/DX2                !
 ! D89   D(52,18,19,20)          1.025          estimate D2E/DX2                !
 ! D90   D(14,19,20,2)           2.8068         estimate D2E/DX2                !
 ! D91   D(14,19,20,21)       -177.9542         estimate D2E/DX2                !
 ! D92   D(18,19,20,2)        -176.6409         estimate D2E/DX2                !
 ! D93   D(18,19,20,21)          2.5981         estimate D2E/DX2                !
 ! D94   D(2,20,21,22)          68.0327         estimate D2E/DX2                !
 ! D95   D(2,20,21,40)        -111.2142         estimate D2E/DX2                !
 ! D96   D(19,20,21,22)       -111.2148         estimate D2E/DX2                !
 ! D97   D(19,20,21,40)         69.5383         estimate D2E/DX2                !
 ! D98   D(20,21,22,23)         -0.4544         estimate D2E/DX2                !
 ! D99   D(20,21,22,24)        178.8363         estimate D2E/DX2                !
 ! D100  D(40,21,22,23)        178.809          estimate D2E/DX2                !
 ! D101  D(40,21,22,24)         -1.9003         estimate D2E/DX2                !
 ! D102  D(20,21,40,35)       -177.9549         estimate D2E/DX2                !
 ! D103  D(20,21,40,39)          2.5976         estimate D2E/DX2                !
 ! D104  D(22,21,40,35)          2.8068         estimate D2E/DX2                !
 ! D105  D(22,21,40,39)       -176.6408         estimate D2E/DX2                !
 ! D106  D(21,22,23,65)        -83.6978         estimate D2E/DX2                !
 ! D107  D(24,22,23,65)         97.0067         estimate D2E/DX2                !
 ! D108  D(21,22,24,25)        179.6417         estimate D2E/DX2                !
 ! D109  D(21,22,24,34)         -0.4156         estimate D2E/DX2                !
 ! D110  D(23,22,24,25)         -1.0725         estimate D2E/DX2                !
 ! D111  D(23,22,24,34)        178.8702         estimate D2E/DX2                !
 ! D112  D(22,23,65,1)          61.2855         estimate D2E/DX2                !
 ! D113  D(22,24,25,26)        130.3569         estimate D2E/DX2                !
 ! D114  D(22,24,25,30)        -50.7425         estimate D2E/DX2                !
 ! D115  D(34,24,25,26)        -49.5858         estimate D2E/DX2                !
 ! D116  D(34,24,25,30)        129.3148         estimate D2E/DX2                !
 ! D117  D(22,24,34,35)          1.8244         estimate D2E/DX2                !
 ! D118  D(22,24,34,60)        179.9487         estimate D2E/DX2                !
 ! D119  D(25,24,34,35)       -178.232          estimate D2E/DX2                !
 ! D120  D(25,24,34,60)         -0.1076         estimate D2E/DX2                !
 ! D121  D(24,25,26,27)        179.5131         estimate D2E/DX2                !
 ! D122  D(24,25,26,53)         -1.1567         estimate D2E/DX2                !
 ! D123  D(30,25,26,27)          0.5981         estimate D2E/DX2                !
 ! D124  D(30,25,26,53)        179.9284         estimate D2E/DX2                !
 ! D125  D(24,25,30,29)       -179.5542         estimate D2E/DX2                !
 ! D126  D(24,25,30,55)         -0.5032         estimate D2E/DX2                !
 ! D127  D(26,25,30,29)         -0.6419         estimate D2E/DX2                !
 ! D128  D(26,25,30,55)        178.4091         estimate D2E/DX2                !
 ! D129  D(25,26,27,28)         -0.2073         estimate D2E/DX2                !
 ! D130  D(25,26,27,54)        179.7801         estimate D2E/DX2                !
 ! D131  D(53,26,27,28)       -179.5462         estimate D2E/DX2                !
 ! D132  D(53,26,27,54)          0.4412         estimate D2E/DX2                !
 ! D133  D(26,27,28,29)         -0.1398         estimate D2E/DX2                !
 ! D134  D(26,27,28,33)       -179.6796         estimate D2E/DX2                !
 ! D135  D(54,27,28,29)        179.8728         estimate D2E/DX2                !
 ! D136  D(54,27,28,33)          0.333          estimate D2E/DX2                !
 ! D137  D(27,28,29,30)          0.087          estimate D2E/DX2                !
 ! D138  D(27,28,29,31)       -179.4887         estimate D2E/DX2                !
 ! D139  D(33,28,29,30)        179.7106         estimate D2E/DX2                !
 ! D140  D(33,28,29,31)          0.1348         estimate D2E/DX2                !
 ! D141  D(27,28,33,32)        179.5865         estimate D2E/DX2                !
 ! D142  D(27,28,33,58)        -61.1571         estimate D2E/DX2                !
 ! D143  D(27,28,33,59)         60.3408         estimate D2E/DX2                !
 ! D144  D(29,28,33,32)          0.0003         estimate D2E/DX2                !
 ! D145  D(29,28,33,58)        119.2567         estimate D2E/DX2                !
 ! D146  D(29,28,33,59)       -119.2454         estimate D2E/DX2                !
 ! D147  D(28,29,30,25)          0.3106         estimate D2E/DX2                !
 ! D148  D(28,29,30,55)       -178.7529         estimate D2E/DX2                !
 ! D149  D(31,29,30,25)        179.7923         estimate D2E/DX2                !
 ! D150  D(31,29,30,55)          0.7288         estimate D2E/DX2                !
 ! D151  D(28,29,31,32)         -0.2212         estimate D2E/DX2                !
 ! D152  D(28,29,31,56)       -119.4832         estimate D2E/DX2                !
 ! D153  D(28,29,31,57)        119.0324         estimate D2E/DX2                !
 ! D154  D(30,29,31,32)       -179.7556         estimate D2E/DX2                !
 ! D155  D(30,29,31,56)         60.9824         estimate D2E/DX2                !
 ! D156  D(30,29,31,57)        -60.502          estimate D2E/DX2                !
 ! D157  D(29,31,32,33)          0.2174         estimate D2E/DX2                !
 ! D158  D(56,31,32,33)        119.7316         estimate D2E/DX2                !
 ! D159  D(57,31,32,33)       -119.2991         estimate D2E/DX2                !
 ! D160  D(31,32,33,28)         -0.1393         estimate D2E/DX2                !
 ! D161  D(31,32,33,58)       -119.6558         estimate D2E/DX2                !
 ! D162  D(31,32,33,59)        119.3749         estimate D2E/DX2                !
 ! D163  D(24,34,35,36)        178.4728         estimate D2E/DX2                !
 ! D164  D(24,34,35,40)         -0.8942         estimate D2E/DX2                !
 ! D165  D(60,34,35,36)          0.3515         estimate D2E/DX2                !
 ! D166  D(60,34,35,40)       -179.0155         estimate D2E/DX2                !
 ! D167  D(34,35,36,37)       -178.8034         estimate D2E/DX2                !
 ! D168  D(34,35,36,61)          0.884          estimate D2E/DX2                !
 ! D169  D(40,35,36,37)          0.564          estimate D2E/DX2                !
 ! D170  D(40,35,36,61)       -179.7486         estimate D2E/DX2                !
 ! D171  D(34,35,40,21)         -1.4322         estimate D2E/DX2                !
 ! D172  D(34,35,40,39)        178.0333         estimate D2E/DX2                !
 ! D173  D(36,35,40,21)        179.2011         estimate D2E/DX2                !
 ! D174  D(36,35,40,39)         -1.3335         estimate D2E/DX2                !
 ! D175  D(35,36,37,38)          0.3173         estimate D2E/DX2                !
 ! D176  D(35,36,37,62)        179.8898         estimate D2E/DX2                !
 ! D177  D(61,36,37,38)       -179.3752         estimate D2E/DX2                !
 ! D178  D(61,36,37,62)          0.1972         estimate D2E/DX2                !
 ! D179  D(36,37,38,39)         -0.4066         estimate D2E/DX2                !
 ! D180  D(36,37,38,63)        179.4522         estimate D2E/DX2                !
 ! D181  D(62,37,38,39)       -179.9792         estimate D2E/DX2                !
 ! D182  D(62,37,38,63)         -0.1204         estimate D2E/DX2                !
 ! D183  D(37,38,39,40)         -0.392          estimate D2E/DX2                !
 ! D184  D(37,38,39,64)        179.2969         estimate D2E/DX2                !
 ! D185  D(63,38,39,40)        179.7493         estimate D2E/DX2                !
 ! D186  D(63,38,39,64)         -0.5618         estimate D2E/DX2                !
 ! D187  D(38,39,40,21)       -179.297          estimate D2E/DX2                !
 ! D188  D(38,39,40,35)          1.2523         estimate D2E/DX2                !
 ! D189  D(64,39,40,21)          1.025          estimate D2E/DX2                !
 ! D190  D(64,39,40,35)       -178.4257         estimate D2E/DX2                !
 --------------------------------------------------------------------------------
 Trust Radius=3.00D-01 FncErr=1.00D-07 GrdErr=1.00D-06 EigMax=2.50D+02 EigMin=1.00D-04
 Number of steps in this run=    390 maximum allowed number of steps=    390.
 GradGradGradGradGradGradGradGradGradGradGradGradGradGradGradGradGradGrad

 Leave Link  103 at Fri Feb  7 19:31:10 2025, MaxMem= 13421772800 cpu:               0.8 elap:               0.0
 (Enter /public/software/apps/Gaussian/g16/l202.exe)
 Symmetry turned off by external request.
 Stoichiometry    C36H24CuO4(2)
 Framework group  C1[X(C36H24CuO4)]
 Deg. of freedom   189
 Full point group                 C1      NOp   1
                          Input orientation:                          
 ---------------------------------------------------------------------
 Center     Atomic      Atomic             Coordinates (Angstroms)
 Number     Number       Type             X           Y           Z
 ---------------------------------------------------------------------
      1          8           0        1.427907    0.189702    0.988328
      2          6           0        1.692344   -0.392193   -0.249630
      3          6           0        2.946701   -0.207716   -0.860496
      4          6           0        3.995892    0.620320   -0.219439
      5          6           0        5.313569    0.119561   -0.077689
      6          6           0        6.312056    0.906143    0.520224
      7          6           0        5.971043    2.184158    0.961664
      8          6           0        4.722466    2.671640    0.824966
      9          6           0        3.701523    1.924748    0.236165
     10          6           0        4.681022    4.038285    1.371287
     11          8           0        5.987377    4.336207    1.849726
     12          6           0        6.814050    3.203827    1.607789
     13          6           0        3.208090   -0.818178   -2.094737
     14          6           0        2.224454   -1.575731   -2.742038
     15          6           0        2.494552   -2.153156   -3.993398
     16          6           0        1.511458   -2.888668   -4.656463
     17          6           0        0.250850   -3.049255   -4.082319
     18          6           0       -0.033142   -2.482953   -2.837619
     19          6           0        0.951687   -1.749022   -2.141286
     20          6           0        0.699862   -1.174166   -0.869764
     21          6           0       -0.600456   -1.358998   -0.168620
     22          6           0       -1.448409   -0.245334   -0.020992
     23          8           0       -1.045404    0.990309   -0.522832
     24          6           0       -2.698495   -0.373898    0.612535
     25          6           0       -3.595476    0.794339    0.780016
     26          6           0       -4.957857    0.708901    0.400881
     27          6           0       -5.812321    1.811235    0.568033
     28          6           0       -5.284788    2.979351    1.117304
     29          6           0       -3.992285    3.067872    1.487260
     30          6           0       -3.109934    1.997085    1.339847
     31          6           0       -3.744254    4.410552    2.038254
     32          8           0       -4.973535    5.123529    1.969277
     33          6           0       -5.952385    4.260204    1.402946
     34          6           0       -3.102012   -1.627635    1.091756
     35          6           0       -2.261069   -2.741630    0.981050
     36          6           0       -2.669803   -3.982642    1.495928
     37          6           0       -1.827353   -5.091839    1.411861
     38          6           0       -0.569902   -4.972564    0.820973
     39          6           0       -0.149213   -3.745868    0.302451
     40          6           0       -0.991829   -2.614531    0.361578
     41          1           0        5.561472   -0.877906   -0.418786
     42          1           0        7.320046    0.529350    0.635286
     43          1           0        2.712955    2.351795    0.122265
     44          1           0        3.953343    4.093434    2.208330
     45          1           0        4.399585    4.759849    0.575447
     46          1           0        7.211847    2.817464    2.569904
     47          1           0        7.652272    3.488065    0.937109
     48          1           0        4.174011   -0.676254   -2.567145
     49          1           0        3.464550   -2.031310   -4.460921
     50          1           0        1.725347   -3.329681   -5.621507
     51          1           0       -0.511089   -3.613241   -4.604823
     52          1           0       -1.026480   -2.620616   -2.431748
     53          1           0       -5.351335   -0.202790   -0.031252
     54          1           0       -6.853340    1.754918    0.277583
     55          1           0       -2.081531    2.092400    1.665288
     56          1           0       -2.972443    4.934423    1.435703
     57          1           0       -3.413547    4.334844    3.095667
     58          1           0       -6.345823    4.704077    0.464134
     59          1           0       -6.780615    4.106772    2.126627
     60          1           0       -4.064767   -1.728122    1.580959
     61          1           0       -3.638956   -4.093462    1.967927
     62          1           0       -2.147542   -6.045126    1.812205
     63          1           0        0.083369   -5.833890    0.766205
     64          1           0        0.837733   -3.692003   -0.137366
     65         29           0        0.063327    1.600314    0.977378
 ---------------------------------------------------------------------
 Rotational constants (GHZ):           0.0909747           0.0615593           0.0426037
 Leave Link  202 at Fri Feb  7 19:31:10 2025, MaxMem= 13421772800 cpu:               0.4 elap:               0.0
 (Enter /public/software/apps/Gaussian/g16/l301.exe)
 Standard basis: def2SVPP (5D, 7F)
 Ernie: Thresh=  0.10000D-02 Tol=  0.10000D-05 Strict=F.
   632 basis functions,  1167 primitive gaussians,   674 cartesian basis functions
   151 alpha electrons      150 beta electrons
       nuclear repulsion energy      5016.5128727602 Hartrees.
 IExCor=  402 DFT=T Ex+Corr=B3LYP ExCW=0 ScaHFX=  0.200000
 ScaDFX=  0.800000  0.720000  1.000000  0.810000 ScalE2=  1.000000  1.000000
 IRadAn=      5 IRanWt=     -1 IRanGd=            0 ICorTp=0 IEmpDi=141
 NAtoms=   65 NActive=   65 NUniq=   65 SFac= 1.00D+00 NAtFMM=   60 NAOKFM=T Big=T
 Integral buffers will be    131072 words long.
 Raffenetti 2 integral format.
 Two-electron integral symmetry is turned off.
 R6Disp:  Grimme-D3(BJ) Dispersion energy=       -0.1800246750 Hartrees.
 Nuclear repulsion after empirical dispersion term =     5016.3328480852 Hartrees.
 Leave Link  301 at Fri Feb  7 19:31:10 2025, MaxMem= 13421772800 cpu:               1.6 elap:               0.1
 (Enter /public/software/apps/Gaussian/g16/l302.exe)
 NPDir=0 NMtPBC=     1 NCelOv=     1 NCel=       1 NClECP=     1 NCelD=      1
         NCelK=      1 NCelE2=     1 NClLst=     1 CellRange=     0.0.
 One-electron integrals computed using PRISM.
   1 Symmetry operations used in ECPInt.
 ECPInt:  NShTT=   44551 NPrTT=  183342 LenC2=   35754 LenP2D=   90457.
 LDataN:  DoStor=T MaxTD1= 4 Len=   56
 NBasis=   632 RedAO= T EigKep=  1.67D-04  NBF=   632
 NBsUse=   632 1.00D-06 EigRej= -1.00D+00 NBFU=   632
 Precomputing XC quadrature grid using
 IXCGrd= 4 IRadAn=           5 IRanWt=          -1 IRanGd=           0 AccXCQ= 0.00D+00.
 Generated NRdTot=       0 NPtTot=           0 NUsed=           0 NTot=          32
 NSgBfM=   650   649   649   649   650 MxSgAt=    65 MxSgA2=    65.
 Leave Link  302 at Fri Feb  7 19:31:11 2025, MaxMem= 13421772800 cpu:              25.2 elap:               0.8
 (Enter /public/software/apps/Gaussian/g16/l303.exe)
 DipDrv:  MaxL=1.
 Leave Link  303 at Fri Feb  7 19:31:11 2025, MaxMem= 13421772800 cpu:               2.4 elap:               0.1
 (Enter /public/software/apps/Gaussian/g16/l401.exe)
 ExpMin= 3.30D-02 ExpMax= 7.64D+04 ExpMxC= 1.15D+04 IAcc=3 IRadAn=         5 AccDes= 0.00D+00
 Harris functional with IExCor=  402 and IRadAn=       5 diagonalized for initial guess.
 HarFok:  IExCor=  402 AccDes= 0.00D+00 IRadAn=         5 IDoV= 1 UseB2=F ITyADJ=14
 ICtDFT=  3500011 ScaDFX=  1.000000  1.000000  1.000000  1.000000
 FoFCou: FMM=F IPFlag=           0 FMFlag=      100000 FMFlg1=        2001
         NFxFlg=           0 DoJE=T BraDBF=F KetDBF=T FulRan=T
         wScrn=  0.000000 ICntrl=       500 IOpCl=  0 I1Cent=   200000004 NGrid=           0
         NMat0=    1 NMatS0=      1 NMatT0=    0 NMatD0=    1 NMtDS0=    0 NMtDT0=    0
 Symmetry not used in FoFCou.
 Harris En= -3326.56984918293    
 JPrj=0 DoOrth=F DoCkMO=F.
 Initial guess <Sx>= 0.0000 <Sy>= 0.0000 <Sz>= 0.5000 <S**2>= 0.7500 S= 0.5000
 Leave Link  401 at Fri Feb  7 19:31:13 2025, MaxMem= 13421772800 cpu:              55.4 elap:               1.8
 (Enter /public/software/apps/Gaussian/g16/l502.exe)
 Two-electron integral symmetry not used.
 UHF open shell SCF:
 Using DIIS extrapolation, IDIIS=  1040.
 NGot= 13421772800 LenX= 13420835634 LenY= 13420380684
 Requested convergence on RMS density matrix=1.00D-08 within 128 cycles.
 Requested convergence on MAX density matrix=1.00D-06.
 Requested convergence on             energy=1.00D-06.
 No special actions if energy rises.
 Fock matrices will be formed incrementally for  20 cycles.

 Cycle   1  Pass 1  IDiag  1:
 FoFJK:  IHMeth= 1 ICntrl=       0 DoSepK=F KAlg= 0 I1Cent=           0 FoldK=F
 IRaf= 920000000 NMat=       1 IRICut=       1 DoRegI=T DoRafI=F ISym2E= 0 IDoP0=0 IntGTp=1.
 FoFCou: FMM=T IPFlag=           0 FMFlag=      100000 FMFlg1=        2001
         NFxFlg=           0 DoJE=F BraDBF=F KetDBF=F FulRan=T
         wScrn=  0.000000 ICntrl=         0 IOpCl=  1 I1Cent=           0 NGrid=           0
         NMat0=    1 NMatS0=      1 NMatT0=    0 NMatD0=    1 NMtDS0=    0 NMtDT0=    0
 Symmetry not used in FoFCou.
 FMM levels:  10  Number of levels for PrismC:   9
 E= -3310.27692230974    
 DIIS: error= 4.32D-01 at cycle   1 NSaved=   1.
 NSaved= 1 IEnMin= 1 EnMin= -3310.27692230974     IErMin= 1 ErrMin= 4.32D-01
 ErrMax= 4.32D-01  0.00D+00 EMaxC= 1.00D-01 BMatC= 7.06D+01 BMatP= 7.06D+01
 IDIUse=3 WtCom= 0.00D+00 WtEn= 1.00D+00
 Coeff-Com:  0.100D+01
 Coeff-En:   0.100D+01
 Coeff:      0.100D+01
 Gap=     1.266 Goal=   None    Shift=    0.000
 Gap=    -0.791 Goal=   None    Shift=    0.000
 GapD=   -0.791 DampG=0.250 DampE=0.125 DampFc=0.1250 IDamp=-1.
 Damping current iteration by 1.25D-01
 RMSDP=1.20D-01 MaxDP=2.21D+01              OVMax= 9.93D-01

 Cycle   2  Pass 1  IDiag  1:
 RMSU=  1.49D-02    CP:  1.05D+00
 E= -3315.13961414916     Delta-E=       -4.862691839420 Rises=F Damp=T
 DIIS: error= 2.92D-01 at cycle   2 NSaved=   2.
 NSaved= 2 IEnMin= 2 EnMin= -3315.13961414916     IErMin= 2 ErrMin= 2.92D-01
 ErrMax= 2.92D-01  0.00D+00 EMaxC= 1.00D-01 BMatC= 2.63D+01 BMatP= 7.06D+01
 IDIUse=3 WtCom= 0.00D+00 WtEn= 1.00D+00
 Coeff-Com: -0.107D+01 0.207D+01
 Coeff-En:   0.000D+00 0.100D+01
 Coeff:      0.000D+00 0.100D+01
 Gap=    -0.078 Goal=   None    Shift=    0.000
 Gap=    -0.044 Goal=   None    Shift=    0.000
 RMSDP=2.10D-02 MaxDP=3.75D+00 DE=-4.86D+00 OVMax= 9.57D-01

 Cycle   3  Pass 1  IDiag  1:
 RMSU=  2.07D-02    CP:  9.61D-01  8.00D-01
 E= -3295.92616451577     Delta-E=       19.213449633391 Rises=F Damp=F
 DIIS: error= 2.18D-01 at cycle   3 NSaved=   3.
 NSaved= 3 IEnMin= 2 EnMin= -3315.13961414916     IErMin= 3 ErrMin= 2.18D-01
 ErrMax= 2.18D-01  0.00D+00 EMaxC= 1.00D-01 BMatC= 7.76D+01 BMatP= 2.63D+01
 IDIUse=2 WtCom= 0.00D+00 WtEn= 1.00D+00
 EnCoef did    14 forward-backward iterations
 Coeff-En:   0.435D+00 0.213D+00 0.352D+00
 Coeff:      0.435D+00 0.213D+00 0.352D+00
 Gap=     0.385 Goal=   None    Shift=    0.000
 Gap=    -0.023 Goal=   None    Shift=    0.000
 RMSDP=4.33D-02 MaxDP=7.48D+00 DE= 1.92D+01 OVMax= 9.90D-01

 Cycle   4  Pass 1  IDiag  1:
 RMSU=  3.83D-02    CP:  9.03D-01  4.11D-01  6.37D-02
 E= -3221.21112139158     Delta-E=       74.715043124195 Rises=F Damp=F
 DIIS: error= 1.90D-01 at cycle   4 NSaved=   4.
 NSaved= 4 IEnMin= 2 EnMin= -3315.13961414916     IErMin= 4 ErrMin= 1.90D-01
 ErrMax= 1.90D-01  0.00D+00 EMaxC= 1.00D-01 BMatC= 1.97D+02 BMatP= 2.63D+01
 IDIUse=2 WtCom= 0.00D+00 WtEn= 1.00D+00
 EnCoef did   100 forward-backward iterations
 Coeff-En:   0.542D+00 0.229D-01 0.347D+00 0.885D-01
 Coeff:      0.542D+00 0.229D-01 0.347D+00 0.885D-01
 Gap=    -0.041 Goal=   None    Shift=    0.000
 Gap=     0.064 Goal=   None    Shift=    0.000
 RMSDP=3.83D-02 MaxDP=7.64D+00 DE= 7.47D+01 OVMax= 9.56D-01

 Cycle   5  Pass 1  IDiag  1:
 RMSU=  5.75D-03    CP:  8.85D-01  2.86D-02  1.00D-01  2.31D-02
 E= -3322.76838094726     Delta-E=     -101.557259555681 Rises=F Damp=F
 DIIS: error= 1.73D-01 at cycle   5 NSaved=   5.
 NSaved= 5 IEnMin= 5 EnMin= -3322.76838094726     IErMin= 5 ErrMin= 1.73D-01
 ErrMax= 1.73D-01  0.00D+00 EMaxC= 1.00D-01 BMatC= 1.28D+01 BMatP= 2.63D+01
 IDIUse=3 WtCom= 0.00D+00 WtEn= 1.00D+00
 EnCoef did   100 forward-backward iterations
 Coeff-Com: -0.364D+00 0.869D+00 0.702D-01-0.320D-01 0.457D+00
 Coeff-En:   0.256D+00 0.498D-02 0.821D-04 0.000D+00 0.739D+00
 Coeff:      0.256D+00 0.498D-02 0.821D-04 0.000D+00 0.739D+00
 Gap=    -0.090 Goal=   None    Shift=    0.000
 Gap=     0.585 Goal=   None    Shift=    0.000
 RMSDP=1.13D-02 MaxDP=1.51D+00 DE=-1.02D+02 OVMax= 9.47D-01

 Cycle   6  Pass 1  IDiag  1:
 RMSU=  1.06D-02    CP:  8.99D-01  5.07D-02  1.08D-01  1.31D-02  3.42D-01
 E= -3306.82589060055     Delta-E=       15.942490346704 Rises=F Damp=F
 DIIS: error= 8.09D-02 at cycle   6 NSaved=   6.
 NSaved= 6 IEnMin= 5 EnMin= -3322.76838094726     IErMin= 6 ErrMin= 8.09D-02
 ErrMax= 8.09D-02  0.00D+00 EMaxC= 1.00D-01 BMatC= 3.70D+01 BMatP= 1.28D+01
 IDIUse=2 WtCom= 0.00D+00 WtEn= 1.00D+00
 EnCoef did   100 forward-backward iterations
 Coeff-En:   0.217D+00 0.213D-02 0.352D-04 0.000D+00 0.673D+00 0.109D+00
 Coeff:      0.217D+00 0.213D-02 0.352D-04 0.000D+00 0.673D+00 0.109D+00
 Gap=    -0.058 Goal=   None    Shift=    0.000
 Gap=    -0.029 Goal=   None    Shift=    0.000
 RMSDP=9.61D-03 MaxDP=1.58D+00 DE= 1.59D+01 OVMax= 9.41D-01

 Cycle   7  Pass 1  IDiag  1:
 RMSU=  3.77D-03    CP:  8.92D-01  1.09D-02  6.51D-02  1.25D-02  4.73D-01
                    CP:  1.76D-01
 E= -3324.99672624212     Delta-E=      -18.170835641567 Rises=F Damp=F
 DIIS: error= 3.67D-02 at cycle   7 NSaved=   7.
 NSaved= 7 IEnMin= 7 EnMin= -3324.99672624212     IErMin= 7 ErrMin= 3.67D-02
 ErrMax= 3.67D-02  0.00D+00 EMaxC= 1.00D-01 BMatC= 4.75D+00 BMatP= 1.28D+01
 IDIUse=3 WtCom= 6.33D-01 WtEn= 3.67D-01
 EnCoef did     7 forward-backward iterations
 Coeff-Com: -0.193D+00 0.424D+00-0.240D-01-0.119D-01 0.283D+00 0.312D-01
 Coeff-Com:  0.491D+00
 Coeff-En:   0.803D-01 0.000D+00 0.000D+00 0.000D+00 0.322D+00 0.000D+00
 Coeff-En:   0.598D+00
 Coeff:     -0.927D-01 0.268D+00-0.152D-01-0.757D-02 0.297D+00 0.198D-01
 Coeff:      0.530D+00
 Gap=     0.130 Goal=   None    Shift=    0.000
 Gap=    -0.106 Goal=   None    Shift=    0.000
 RMSDP=3.78D-03 MaxDP=6.68D-01 DE=-1.82D+01 OVMax= 5.92D-01

 Cycle   8  Pass 1  IDiag  1:
 RMSU=  3.00D-03    CP:  8.89D-01 -1.22D-02  3.78D-02  9.61D-03  5.54D-01
                    CP:  8.47D-02  4.89D-01
 E= -3325.46784536359     Delta-E=       -0.471119121468 Rises=F Damp=F
 DIIS: error= 3.83D-02 at cycle   8 NSaved=   8.
 NSaved= 8 IEnMin= 8 EnMin= -3325.46784536359     IErMin= 7 ErrMin= 3.67D-02
 ErrMax= 3.83D-02  0.00D+00 EMaxC= 1.00D-01 BMatC= 2.93D+00 BMatP= 4.75D+00
 IDIUse=3 WtCom= 6.33D-01 WtEn= 3.67D-01
 Coeff-Com: -0.129D+00 0.266D+00-0.184D-01-0.820D-03 0.900D-01-0.201D-01
 Coeff-Com:  0.422D+00 0.390D+00
 Coeff-En:   0.000D+00 0.000D+00 0.000D+00 0.000D+00 0.000D+00 0.000D+00
 Coeff-En:   0.407D+00 0.593D+00
 Coeff:     -0.814D-01 0.168D+00-0.117D-01-0.520D-03 0.570D-01-0.128D-01
 Coeff:      0.416D+00 0.465D+00
 Gap=     0.294 Goal=   None    Shift=    0.000
 Gap=    -0.012 Goal=   None    Shift=    0.000
 RMSDP=2.65D-03 MaxDP=2.48D-01 DE=-4.71D-01 OVMax= 7.27D-01

 Cycle   9  Pass 1  IDiag  1:
 RMSU=  1.85D-03    CP:  8.88D-01 -8.73D-03  3.15D-02  1.13D-02  5.83D-01
                    CP:  6.98D-02  5.44D-01  3.78D-01
 E= -3326.23271226025     Delta-E=       -0.764866896665 Rises=F Damp=F
 DIIS: error= 1.70D-02 at cycle   9 NSaved=   9.
 NSaved= 9 IEnMin= 9 EnMin= -3326.23271226025     IErMin= 9 ErrMin= 1.70D-02
 ErrMax= 1.70D-02  0.00D+00 EMaxC= 1.00D-01 BMatC= 5.09D-01 BMatP= 2.93D+00
 IDIUse=3 WtCom= 8.30D-01 WtEn= 1.70D-01
 Coeff-Com: -0.492D-01 0.886D-01 0.163D-02 0.101D-02-0.271D-01 0.267D-03
 Coeff-Com:  0.150D+00 0.278D+00 0.557D+00
 Coeff-En:   0.000D+00 0.000D+00 0.000D+00 0.000D+00 0.000D+00 0.000D+00
 Coeff-En:   0.000D+00 0.143D+00 0.857D+00
 Coeff:     -0.408D-01 0.735D-01 0.135D-02 0.839D-03-0.225D-01 0.222D-03
 Coeff:      0.125D+00 0.255D+00 0.608D+00
 Gap=     0.161 Goal=   None    Shift=    0.000
 Gap=     0.052 Goal=   None    Shift=    0.000
 RMSDP=1.43D-03 MaxDP=1.09D-01 DE=-7.65D-01 OVMax= 5.42D-01

 Cycle  10  Pass 1  IDiag  1:
 RMSU=  1.15D-03    CP:  8.87D-01 -7.20D-03  3.70D-02  1.14D-02  5.71D-01
                    CP:  8.73D-02  5.93D-01  4.67D-01  6.01D-01
 E= -3326.30873890578     Delta-E=       -0.076026645525 Rises=F Damp=F
 DIIS: error= 9.50D-03 at cycle  10 NSaved=  10.
 NSaved=10 IEnMin=10 EnMin= -3326.30873890578     IErMin=10 ErrMin= 9.50D-03
 ErrMax= 9.50D-03  0.00D+00 EMaxC= 1.00D-01 BMatC= 2.73D-01 BMatP= 5.09D-01
 IDIUse=3 WtCom= 9.05D-01 WtEn= 9.50D-02
 Coeff-Com: -0.343D-01 0.595D-01 0.337D-02-0.387D-03-0.325D-01 0.638D-02
 Coeff-Com:  0.448D-01 0.120D+00 0.445D+00 0.388D+00
 Coeff-En:   0.000D+00 0.000D+00 0.000D+00 0.000D+00 0.000D+00 0.000D+00
 Coeff-En:   0.000D+00 0.000D+00 0.322D+00 0.678D+00
 Coeff:     -0.310D-01 0.539D-01 0.305D-02-0.350D-03-0.294D-01 0.578D-02
 Coeff:      0.406D-01 0.109D+00 0.433D+00 0.415D+00
 Gap=     0.124 Goal=   None    Shift=    0.000
 Gap=     0.017 Goal=   None    Shift=    0.000
 RMSDP=9.95D-04 MaxDP=7.33D-02 DE=-7.60D-02 OVMax= 3.99D-01

 Cycle  11  Pass 1  IDiag  1:
 RMSU=  6.64D-04    CP:  8.86D-01 -8.48D-03  3.60D-02  1.10D-02  5.70D-01
                    CP:  8.22D-02  5.67D-01  4.21D-01  7.65D-01  4.36D-01
 E= -3326.35189453767     Delta-E=       -0.043155631894 Rises=F Damp=F
 DIIS: error= 9.31D-03 at cycle  11 NSaved=  11.
 NSaved=11 IEnMin=11 EnMin= -3326.35189453767     IErMin=11 ErrMin= 9.31D-03
 ErrMax= 9.31D-03  0.00D+00 EMaxC= 1.00D-01 BMatC= 8.34D-02 BMatP= 2.73D-01
 IDIUse=3 WtCom= 9.07D-01 WtEn= 9.31D-02
 Coeff-Com: -0.170D-01 0.317D-01 0.196D-02-0.927D-04-0.371D-01 0.402D-02
 Coeff-Com:  0.690D-02 0.480D-01 0.229D+00 0.316D+00 0.417D+00
 Coeff-En:   0.000D+00 0.000D+00 0.000D+00 0.000D+00 0.000D+00 0.000D+00
 Coeff-En:   0.000D+00 0.000D+00 0.000D+00 0.258D+00 0.742D+00
 Coeff:     -0.154D-01 0.287D-01 0.178D-02-0.840D-04-0.336D-01 0.364D-02
 Coeff:      0.626D-02 0.435D-01 0.208D+00 0.310D+00 0.447D+00
 Gap=     0.118 Goal=   None    Shift=    0.000
 Gap=     0.026 Goal=   None    Shift=    0.000
 RMSDP=4.83D-04 MaxDP=3.98D-02 DE=-4.32D-02 OVMax= 2.33D-01

 Cycle  12  Pass 1  IDiag  1:
 RMSU=  2.81D-04    CP:  8.86D-01 -7.52D-03  3.64D-02  1.09D-02  5.65D-01
                    CP:  8.58D-02  5.77D-01  4.45D-01  7.06D-01  6.72D-01
                    CP:  6.35D-01
 E= -3326.37128453180     Delta-E=       -0.019389994122 Rises=F Damp=F
 DIIS: error= 3.48D-03 at cycle  12 NSaved=  12.
 NSaved=12 IEnMin=12 EnMin= -3326.37128453180     IErMin=12 ErrMin= 3.48D-03
 ErrMax= 3.48D-03  0.00D+00 EMaxC= 1.00D-01 BMatC= 1.15D-02 BMatP= 8.34D-02
 IDIUse=3 WtCom= 9.65D-01 WtEn= 3.48D-02
 Coeff-Com: -0.354D-02 0.932D-02 0.318D-03 0.778D-05-0.223D-01-0.379D-06
 Coeff-Com:  0.253D-02 0.277D-02 0.229D-01 0.636D-01 0.256D+00 0.669D+00
 Coeff-En:   0.000D+00 0.000D+00 0.000D+00 0.000D+00 0.000D+00 0.000D+00
 Coeff-En:   0.000D+00 0.000D+00 0.000D+00 0.000D+00 0.000D+00 0.100D+01
 Coeff:     -0.342D-02 0.900D-02 0.307D-03 0.751D-05-0.215D-01-0.366D-06
 Coeff:      0.245D-02 0.267D-02 0.221D-01 0.614D-01 0.247D+00 0.680D+00
 Gap=     0.113 Goal=   None    Shift=    0.000
 Gap=     0.036 Goal=   None    Shift=    0.000
 RMSDP=1.68D-04 MaxDP=9.91D-03 DE=-1.94D-02 OVMax= 2.56D-02

 Cycle  13  Pass 1  IDiag  1:
 RMSU=  1.45D-04    CP:  8.86D-01 -7.49D-03  3.65D-02  1.07D-02  5.61D-01
                    CP:  8.71D-02  5.79D-01  4.48D-01  6.96D-01  6.78D-01
                    CP:  7.50D-01  9.98D-01
 E= -3326.37385307018     Delta-E=       -0.002568538379 Rises=F Damp=F
 DIIS: error= 1.95D-03 at cycle  13 NSaved=  13.
 NSaved=13 IEnMin=13 EnMin= -3326.37385307018     IErMin=13 ErrMin= 1.95D-03
 ErrMax= 1.95D-03  0.00D+00 EMaxC= 1.00D-01 BMatC= 3.43D-03 BMatP= 1.15D-02
 IDIUse=3 WtCom= 9.81D-01 WtEn= 1.95D-02
 Coeff-Com: -0.116D-02 0.358D-02 0.174D-04 0.812D-04-0.894D-02-0.693D-03
 Coeff-Com:  0.365D-02-0.529D-02-0.120D-01-0.468D-01 0.277D-01 0.364D+00
 Coeff-Com:  0.676D+00
 Coeff-En:   0.000D+00 0.000D+00 0.000D+00 0.000D+00 0.000D+00 0.000D+00
 Coeff-En:   0.000D+00 0.000D+00 0.000D+00 0.000D+00 0.000D+00 0.000D+00
 Coeff-En:   0.100D+01
 Coeff:     -0.114D-02 0.351D-02 0.171D-04 0.796D-04-0.876D-02-0.680D-03
 Coeff:      0.358D-02-0.519D-02-0.118D-01-0.459D-01 0.271D-01 0.357D+00
 Coeff:      0.682D+00
 Gap=     0.113 Goal=   None    Shift=    0.000
 Gap=     0.039 Goal=   None    Shift=    0.000
 RMSDP=1.21D-04 MaxDP=1.19D-02 DE=-2.57D-03 OVMax= 3.96D-02

 Cycle  14  Pass 1  IDiag  1:
 RMSU=  9.79D-05    CP:  8.86D-01 -7.31D-03  3.65D-02  1.08D-02  5.59D-01
                    CP:  8.71D-02  5.79D-01  4.45D-01  6.91D-01  6.96D-01
                    CP:  7.32D-01  1.23D+00  1.01D+00
 E= -3326.37473837444     Delta-E=       -0.000885304269 Rises=F Damp=F
 DIIS: error= 5.33D-04 at cycle  14 NSaved=  14.
 NSaved=14 IEnMin=14 EnMin= -3326.37473837444     IErMin=14 ErrMin= 5.33D-04
 ErrMax= 5.33D-04  0.00D+00 EMaxC= 1.00D-01 BMatC= 1.80D-03 BMatP= 3.43D-03
 IDIUse=3 WtCom= 9.95D-01 WtEn= 5.33D-03
 Coeff-Com: -0.110D-02 0.207D-02 0.888D-04-0.103D-03-0.597D-03-0.266D-03
 Coeff-Com:  0.241D-02-0.603D-02-0.148D-02-0.521D-01-0.395D-01 0.223D-01
 Coeff-Com:  0.513D+00 0.561D+00
 Coeff-En:   0.000D+00 0.000D+00 0.000D+00 0.000D+00 0.000D+00 0.000D+00
 Coeff-En:   0.000D+00 0.000D+00 0.000D+00 0.000D+00 0.000D+00 0.000D+00
 Coeff-En:   0.560D-01 0.944D+00
 Coeff:     -0.109D-02 0.206D-02 0.883D-04-0.102D-03-0.594D-03-0.264D-03
 Coeff:      0.239D-02-0.599D-02-0.147D-02-0.518D-01-0.393D-01 0.222D-01
 Coeff:      0.511D+00 0.563D+00
 Gap=     0.114 Goal=   None    Shift=    0.000
 Gap=     0.040 Goal=   None    Shift=    0.000
 RMSDP=7.80D-05 MaxDP=5.22D-03 DE=-8.85D-04 OVMax= 1.96D-02

 Cycle  15  Pass 1  IDiag  1:
 RMSU=  5.58D-05    CP:  8.86D-01 -7.31D-03  3.65D-02  1.07D-02  5.58D-01
                    CP:  8.71D-02  5.78D-01  4.41D-01  6.88D-01  7.05D-01
                    CP:  7.57D-01  1.29D+00  1.33D+00  9.97D-01
 E= -3326.37535123323     Delta-E=       -0.000612858783 Rises=F Damp=F
 DIIS: error= 3.29D-04 at cycle  15 NSaved=  15.
 NSaved=15 IEnMin=15 EnMin= -3326.37535123323     IErMin=15 ErrMin= 3.29D-04
 ErrMax= 3.29D-04  0.00D+00 EMaxC= 1.00D-01 BMatC= 4.56D-04 BMatP= 1.80D-03
 IDIUse=3 WtCom= 9.97D-01 WtEn= 3.29D-03
 Coeff-Com: -0.679D-03 0.978D-03 0.582D-04 0.153D-05 0.777D-03-0.328D-04
 Coeff-Com:  0.213D-02-0.281D-02 0.553D-02-0.221D-01 0.743D-03-0.410D-01
 Coeff-Com:  0.177D+00 0.309D+00 0.571D+00
 Coeff-En:   0.000D+00 0.000D+00 0.000D+00 0.000D+00 0.000D+00 0.000D+00
 Coeff-En:   0.000D+00 0.000D+00 0.000D+00 0.000D+00 0.000D+00 0.000D+00
 Coeff-En:   0.000D+00 0.000D+00 0.100D+01
 Coeff:     -0.677D-03 0.975D-03 0.580D-04 0.153D-05 0.774D-03-0.327D-04
 Coeff:      0.213D-02-0.280D-02 0.552D-02-0.220D-01 0.740D-03-0.409D-01
 Coeff:      0.176D+00 0.308D+00 0.572D+00
 Gap=     0.113 Goal=   None    Shift=    0.000
 Gap=     0.040 Goal=   None    Shift=    0.000
 RMSDP=4.16D-05 MaxDP=4.04D-03 DE=-6.13D-04 OVMax= 1.53D-02

 Cycle  16  Pass 1  IDiag  1:
 RMSU=  2.54D-05    CP:  8.86D-01 -7.33D-03  3.65D-02  1.08D-02  5.59D-01
                    CP:  8.69D-02  5.78D-01  4.38D-01  6.85D-01  7.09D-01
                    CP:  7.61D-01  1.33D+00  1.41D+00  1.25D+00  1.06D+00
 E= -3326.37551336196     Delta-E=       -0.000162128728 Rises=F Damp=F
 DIIS: error= 2.20D-04 at cycle  16 NSaved=  16.
 NSaved=16 IEnMin=16 EnMin= -3326.37551336196     IErMin=16 ErrMin= 2.20D-04
 ErrMax= 2.20D-04  0.00D+00 EMaxC= 1.00D-01 BMatC= 2.58D-04 BMatP= 4.56D-04
 IDIUse=3 WtCom= 9.98D-01 WtEn= 2.20D-03
 Coeff-Com:  0.167D-03-0.520D-03 0.141D-04 0.132D-04 0.119D-02 0.787D-04
 Coeff-Com:  0.758D-03-0.160D-02 0.343D-02 0.182D-02 0.399D-01-0.401D-01
 Coeff-Com: -0.897D-01-0.445D-01 0.377D+00 0.752D+00
 Coeff-En:   0.000D+00 0.000D+00 0.000D+00 0.000D+00 0.000D+00 0.000D+00
 Coeff-En:   0.000D+00 0.000D+00 0.000D+00 0.000D+00 0.000D+00 0.000D+00
 Coeff-En:   0.000D+00 0.000D+00 0.000D+00 0.100D+01
 Coeff:      0.166D-03-0.519D-03 0.141D-04 0.132D-04 0.118D-02 0.785D-04
 Coeff:      0.756D-03-0.159D-02 0.342D-02 0.182D-02 0.398D-01-0.400D-01
 Coeff:     -0.895D-01-0.444D-01 0.377D+00 0.752D+00
 Gap=     0.114 Goal=   None    Shift=    0.000
 Gap=     0.040 Goal=   None    Shift=    0.000
 RMSDP=4.40D-05 MaxDP=4.20D-03 DE=-1.62D-04 OVMax= 1.51D-02

 Cycle  17  Pass 1  IDiag  1:
 RMSU=  1.46D-05    CP:  8.86D-01 -7.31D-03  3.66D-02  1.08D-02  5.59D-01
                    CP:  8.69D-02  5.77D-01  4.36D-01  6.82D-01  7.15D-01
                    CP:  7.70D-01  1.37D+00  1.55D+00  1.47D+00  1.44D+00
                    CP:  1.24D+00
 E= -3326.37564882432     Delta-E=       -0.000135462367 Rises=F Damp=F
 DIIS: error= 2.73D-04 at cycle  17 NSaved=  17.
 NSaved=17 IEnMin=17 EnMin= -3326.37564882432     IErMin=16 ErrMin= 2.20D-04
 ErrMax= 2.73D-04  0.00D+00 EMaxC= 1.00D-01 BMatC= 1.10D-04 BMatP= 2.58D-04
 IDIUse=3 WtCom= 9.98D-01 WtEn= 2.20D-03
 Coeff-Com:  0.639D-03-0.118D-02 0.393D-05-0.452D-05 0.470D-03-0.279D-04
 Coeff-Com:  0.520D-03 0.850D-03 0.195D-02 0.857D-02 0.421D-01-0.423D-02
 Coeff-Com: -0.121D+00-0.177D+00-0.454D-01 0.372D+00 0.923D+00
 Coeff-En:   0.000D+00 0.000D+00 0.000D+00 0.000D+00 0.000D+00 0.000D+00
 Coeff-En:   0.000D+00 0.000D+00 0.000D+00 0.000D+00 0.000D+00 0.000D+00
 Coeff-En:   0.000D+00 0.000D+00 0.000D+00 0.000D+00 0.100D+01
 Coeff:      0.638D-03-0.118D-02 0.392D-05-0.451D-05 0.469D-03-0.279D-04
 Coeff:      0.519D-03 0.848D-03 0.195D-02 0.856D-02 0.420D-01-0.422D-02
 Coeff:     -0.121D+00-0.177D+00-0.453D-01 0.371D+00 0.923D+00
 Gap=     0.114 Goal=   None    Shift=    0.000
 Gap=     0.040 Goal=   None    Shift=    0.000
 RMSDP=4.21D-05 MaxDP=3.74D-03 DE=-1.35D-04 OVMax= 1.71D-02

 Cycle  18  Pass 1  IDiag  1:
 RMSU=  1.20D-05    CP:  8.86D-01 -7.32D-03  3.66D-02  1.08D-02  5.59D-01
                    CP:  8.67D-02  5.76D-01  4.33D-01  6.80D-01  7.20D-01
                    CP:  7.75D-01  1.40D+00  1.68D+00  1.71D+00  1.78D+00
                    CP:  1.77D+00  1.22D+00
 E= -3326.37572581338     Delta-E=       -0.000076989059 Rises=F Damp=F
 DIIS: error= 1.91D-04 at cycle  18 NSaved=  18.
 NSaved=18 IEnMin=18 EnMin= -3326.37572581338     IErMin=18 ErrMin= 1.91D-04
 ErrMax= 1.91D-04  0.00D+00 EMaxC= 1.00D-01 BMatC= 5.41D-05 BMatP= 1.10D-04
 IDIUse=3 WtCom= 9.98D-01 WtEn= 1.91D-03
 Coeff-Com:  0.849D-03-0.144D-02 0.196D-04-0.194D-04-0.118D-04 0.175D-04
 Coeff-Com:  0.205D-03 0.145D-02 0.753D-03 0.471D-02 0.232D-01 0.110D-01
 Coeff-Com: -0.497D-01-0.115D+00-0.181D+00-0.114D+00 0.720D+00 0.700D+00
 Coeff-En:   0.000D+00 0.000D+00 0.000D+00 0.000D+00 0.000D+00 0.000D+00
 Coeff-En:   0.000D+00 0.000D+00 0.000D+00 0.000D+00 0.000D+00 0.000D+00
 Coeff-En:   0.000D+00 0.000D+00 0.000D+00 0.000D+00 0.000D+00 0.100D+01
 Coeff:      0.847D-03-0.143D-02 0.196D-04-0.193D-04-0.118D-04 0.175D-04
 Coeff:      0.204D-03 0.145D-02 0.751D-03 0.470D-02 0.231D-01 0.110D-01
 Coeff:     -0.496D-01-0.115D+00-0.181D+00-0.114D+00 0.718D+00 0.700D+00
 Gap=     0.114 Goal=   None    Shift=    0.000
 Gap=     0.041 Goal=   None    Shift=    0.000
 RMSDP=2.92D-05 MaxDP=2.13D-03 DE=-7.70D-05 OVMax= 1.10D-02

 Cycle  19  Pass 1  IDiag  1:
 RMSU=  6.90D-06    CP:  8.86D-01 -7.31D-03  3.66D-02  1.08D-02  5.59D-01
                    CP:  8.66D-02  5.75D-01  4.32D-01  6.78D-01  7.23D-01
                    CP:  7.79D-01  1.42D+00  1.77D+00  1.87D+00  2.02D+00
                    CP:  2.08D+00  1.80D+00  1.15D+00
 E= -3326.37575753974     Delta-E=       -0.000031726357 Rises=F Damp=F
 DIIS: error= 1.90D-04 at cycle  19 NSaved=  19.
 NSaved=19 IEnMin=19 EnMin= -3326.37575753974     IErMin=19 ErrMin= 1.90D-04
 ErrMax= 1.90D-04  0.00D+00 EMaxC= 1.00D-01 BMatC= 2.21D-05 BMatP= 5.41D-05
 IDIUse=3 WtCom= 9.98D-01 WtEn= 1.90D-03
 Coeff-Com:  0.664D-03-0.111D-02 0.150D-04-0.123D-04-0.706D-04 0.763D-04
 Coeff-Com:  0.372D-03 0.942D-03-0.468D-04-0.708D-03 0.631D-02 0.113D-01
 Coeff-Com:  0.188D-01-0.792D-02-0.939D-01-0.235D+00 0.174D+00 0.405D+00
 Coeff-Com:  0.721D+00
 Coeff-En:   0.000D+00 0.000D+00 0.000D+00 0.000D+00 0.000D+00 0.000D+00
 Coeff-En:   0.000D+00 0.000D+00 0.000D+00 0.000D+00 0.000D+00 0.000D+00
 Coeff-En:   0.000D+00 0.000D+00 0.000D+00 0.000D+00 0.000D+00 0.000D+00
 Coeff-En:   0.100D+01
 Coeff:      0.663D-03-0.111D-02 0.149D-04-0.123D-04-0.705D-04 0.761D-04
 Coeff:      0.371D-03 0.940D-03-0.467D-04-0.707D-03 0.630D-02 0.113D-01
 Coeff:      0.187D-01-0.790D-02-0.938D-01-0.235D+00 0.173D+00 0.404D+00
 Coeff:      0.722D+00
 Gap=     0.115 Goal=   None    Shift=    0.000
 Gap=     0.041 Goal=   None    Shift=    0.000
 RMSDP=1.34D-05 MaxDP=9.27D-04 DE=-3.17D-05 OVMax= 5.78D-03

 Cycle  20  Pass 1  IDiag  1:
 RMSU=  3.93D-06    CP:  8.86D-01 -7.32D-03  3.65D-02  1.08D-02  5.59D-01
                    CP:  8.65D-02  5.75D-01  4.32D-01  6.78D-01  7.24D-01
                    CP:  7.79D-01  1.43D+00  1.82D+00  1.94D+00  2.12D+00
                    CP:  2.21D+00  2.04D+00  1.54D+00  1.26D+00
 E= -3326.37576657982     Delta-E=       -0.000009040079 Rises=F Damp=F
 DIIS: error= 1.69D-04 at cycle  20 NSaved=  20.
 NSaved=20 IEnMin=20 EnMin= -3326.37576657982     IErMin=20 ErrMin= 1.69D-04
 ErrMax= 1.69D-04  0.00D+00 EMaxC= 1.00D-01 BMatC= 1.34D-05 BMatP= 2.21D-05
 IDIUse=3 WtCom= 9.98D-01 WtEn= 1.69D-03
 Coeff-Com:  0.318D-03-0.558D-03 0.178D-04-0.493D-05-0.140D-04 0.978D-04
 Coeff-Com:  0.482D-03 0.312D-03-0.441D-03-0.293D-02-0.283D-02 0.827D-02
 Coeff-Com:  0.475D-01 0.570D-01 0.218D-01-0.149D+00-0.244D+00-0.134D+00
 Coeff-Com:  0.439D+00 0.959D+00
 Coeff-En:   0.000D+00 0.000D+00 0.000D+00 0.000D+00 0.000D+00 0.000D+00
 Coeff-En:   0.000D+00 0.000D+00 0.000D+00 0.000D+00 0.000D+00 0.000D+00
 Coeff-En:   0.000D+00 0.000D+00 0.000D+00 0.000D+00 0.000D+00 0.000D+00
 Coeff-En:   0.000D+00 0.100D+01
 Coeff:      0.317D-03-0.557D-03 0.178D-04-0.493D-05-0.140D-04 0.976D-04
 Coeff:      0.481D-03 0.311D-03-0.440D-03-0.292D-02-0.282D-02 0.826D-02
 Coeff:      0.474D-01 0.569D-01 0.217D-01-0.149D+00-0.244D+00-0.133D+00
 Coeff:      0.438D+00 0.959D+00
 Gap=     0.115 Goal=   None    Shift=    0.000
 Gap=     0.041 Goal=   None    Shift=    0.000
 RMSDP=1.33D-05 MaxDP=7.88D-04 DE=-9.04D-06 OVMax= 6.50D-03

 Cycle  21  Pass 1  IDiag  1:
 Restarting incremental Fock formation.
 E= -3326.37577198012     Delta-E=       -0.000005400299 Rises=F Damp=F
 DIIS: error= 1.21D-04 at cycle  21 NSaved=  20.
 NSaved=20 IEnMin=20 EnMin= -3326.37577198012     IErMin=20 ErrMin= 1.21D-04
 ErrMax= 1.21D-04  0.00D+00 EMaxC= 1.00D-01 BMatC= 6.61D-06 BMatP= 1.34D-05
 IDIUse=3 WtCom= 9.99D-01 WtEn= 1.21D-03
 Coeff-Com:  0.907D-04-0.188D-03 0.204D-04 0.628D-04 0.337D-04 0.352D-03
 Coeff-Com:  0.147D-05-0.606D-03-0.168D-02-0.557D-03 0.647D-02 0.262D-01
 Coeff-Com:  0.295D-01 0.176D-01-0.419D-01-0.141D+00-0.201D+00-0.918D-01
 Coeff-Com:  0.449D+00 0.949D+00
 Coeff-En:   0.000D+00 0.000D+00 0.000D+00 0.000D+00 0.000D+00 0.000D+00
[...]
 072295,0.00010462,0.00003115,-0.00054423,0.00103812,0.00169040,-0.0055
 3525,0.00707197,0.00107746,0.14057253,-0.21026473,-0.00092911,0.020320
 67,-0.01641200,-0.00158201,-0.00179687,-0.00249128,0.00446323,0.000002
 49,-0.00000273,0.00001425,-0.00001192,-0.00000249,0.00000122,-0.000000
 46,0.00002950,-0.00000353,0.00000071,-0.00000387,-0.00000295,-0.000000
 26,-0.00000203,-0.00000084,-0.00000665,-0.00000415,-0.00000956,-0.0000
 0540,-0.00000464,-0.00000067,-0.00001084,-0.00000350,0.00002042,-0.000
 01145,-0.00000803,0.00001118,0.00000068,0.00000032,0.00001044,0.000016
 80,0.00000396,0.00001388,0.00001158,0.00001586,0.00000203,-0.00000075,
 0.00000002,0.00000070,-0.00000033,-0.00000015,0.00000094,-0.00000352,-
 0.00000392,-0.00000484,0.00000075,0.00000170,-0.00000136,-0.00000029,0
 .00000034,0.00000100,-0.00000034,0.00000095,-0.00000020,0.00000055,0.0
 0000048,-0.00000007,0.00004173,-0.00001741,0.00001420,-0.00027895,0.00
 021653,0.00012565,0.00009338,0.00033385,-0.00119426,-0.15229344,0.2202
 0413,-0.00005042,0.00002219,-0.00006239,0.00003338,-0.00001870,-0.0000
 4201,0.00003345,0.00001755,-0.00000720,0.00001040,0.00000449,-0.000004
 46,-0.00000191,0.00000404,-0.00000247,-0.00000042,-0.00000147,-0.00000
 147,-0.00000130,-0.00000159,-0.00000190,-0.00000170,0.00000202,-0.0000
 0058,0.00000094,-0.00000360,-0.00000170,0.00000042,0.00000146,0.000005
 12,-0.00000288,-0.00000076,-0.00000396,0.00000222,-0.00000078,0.000004
 97,0.00003680,0.00001467,0.00002633,-0.00005502,-0.00001339,0.00002581
 ,0.00000024,-0.00000460,-0.00000589,0.00000770,-0.00001710,-0.00001116
 ,0.00001288,-0.00003338,-0.00000590,0.00002952,0.00001258,0.00003418,-
 0.00000080,0.00003098,-0.00005421,0.00001799,0.00006966,0.00026569,-0.
 00061030,0.00029171,0.00031925,0.00012584,-0.00028940,-0.00058947,-0.0
 0000725,0.00017191,0.00002468,-0.00007254,0.00006839,0.00012584,0.0000
 5277,-0.00005112,0.00003462,-0.00002625,-0.00000310,0.00000470,-0.0000
 0065,-0.00001150,-0.00000810,-0.00000156,0.00000232,-0.00000177,0.0000
 0945,0.00000380,-0.00000771,0.00000964,0.00003827,-0.00000701,0.000001
 98,0.00000266,0.00000550,-0.00000307,-0.00000502,-0.00000351,0.0000032
 9,0.00000373,0.00000747,-0.00029320,-0.00033162,-0.00053419,-0.0000745
 0,0.00027724,-0.00067274,0.00377791,0.00193562,0.00315740,0.00863440,-
 0.01054847,0.00328734,0.01279894,-0.00089439,-0.04306821,-0.00877917,0
 .00972215,0.00468937,0.00376264,0.00415478,0.00548465,0.00000120,-0.00
 000024,0.00000262,-0.00000160,-0.00000020,0.00000173,0.00000096,0.0000
 0282,0.00000028,0.00000088,-0.00000144,-0.00000161,-0.00000021,0.00000
 018,-0.00000107,-0.00000206,-0.00000032,-0.00000255,-0.00000037,-0.000
 00053,-0.00000084,0.00000109,0.00000190,0.00000162,0.00000006,0.000002
 35,-0.00000341,-0.00000033,0.00000569,-0.00000725,-0.00000935,0.000007
 14,-0.00001464,-0.00000038,0.00002096,-0.00000540,0.00000102,0.0000022
 7,0.00000033,0.00000048,0.00000066,0.00000012,-0.00000897,-0.00000821,
 0.00000791,-0.00000027,-0.00000179,-0.00000045,-0.00000092,-0.00000088
 ,-0.00000192,0.00000027,-0.00000281,-0.00000136,0.00000046,-0.00000076
 ,-0.00000081,-0.00000817,0.00004120,0.00004195,0.00048214,-0.00043265,
 0.00016473,-0.00163295,-0.00085209,-0.00214060,-0.01624963,-0.00154041
 ,0.03319739,0.00013506,0.00057264,0.00077472,-0.00039401,-0.00062952,-
 0.00037142,-0.00036738,-0.00008191,0.00019063,-0.00002340,-0.00000544,
 0.00002096,-0.00000267,-0.00000203,-0.00000374,0.00000103,0.00001066,0
 .00000446,0.00000409,0.00000572,0.00000395,0.00001192,-0.00001279,-0.0
 0001311,-0.00000443,0.00000827,-0.00000537,-0.00000398,-0.00002721,-0.
 00001061,0.00001323,0.00002605,0.00001587,-0.00001217,-0.00002007,-0.0
 0001060,-0.00041523,-0.00021067,-0.00040717,0.00062026,0.00019399,0.00
 020445,-0.00037512,-0.00022559,-0.00034447,0.00035470,0.00007337,-0.00
 010595,0.00000789,0.00000717,0.00010073,-0.00012343,-0.00020954,-0.000
 27774,0.00017697,-0.00091714,0.00035426,0.00141496,-0.00019977,0.00079
 227,0.00042027,-0.00237879,-0.00055383,-0.00073119,0.00127107,-0.00040
 144,-0.00005184,-0.00133314,0.00035747,-0.00047033,-0.00012360,0.00028
 318,0.00003954,0.00000735,0.00000504,-0.00001749,-0.00000643,0.0000040
 8,0.00001257,-0.00001508,-0.00000353,0.00000388,0.00000006,0.00000112,
 0.00001733,0.00002261,-0.00000117,-0.00003074,0.00001264,-0.00001535,-
 0.00000421,0.00001945,0.00001096,0.00000912,-0.00002125,-0.00000511,-0
 .00000488,0.00001472,0.00000641,-0.00089576,-0.00000513,0.00040269,0.0
 0013643,0.00331397,0.00098864,0.00011562,0.00110851,-0.00069858,0.0030
 3169,-0.00039827,0.00235849,-0.00165742,0.00095684,0.00222390,-0.28119
 327,-0.03162531,0.11522187,-0.01425654,-0.00365022,0.00885262,-0.00000
 853,0.00000265,0.00000160,0.00000597,-0.00000088,0.00000003,-0.0000004
 6,-0.00003131,0.00001229,-0.00000007,0.00000488,0.00000595,0.00000004,
 0.00000789,-0.00000140,0.00000486,0.00000520,0.00000760,0.00000582,0.0
 0000520,-0.00000010,-0.00000592,-0.00000368,-0.00002450,0.00000315,0.0
 0000054,0.00000744,-0.00001001,0.00000027,0.00000331,-0.00002742,-0.00
 000107,-0.00000695,-0.00014278,0.00001311,-0.00004976,0.00000281,0.000
 00199,0.00000199,0.00000536,-0.00000077,-0.00000013,0.00000624,0.00001
 797,0.00003616,-0.00000037,-0.00000410,0.00000018,-0.00000067,-0.00000
 237,-0.00000450,0.00000254,-0.00000703,0.00000097,0.00000371,-0.000002
 65,-0.00000280,-0.00014273,0.00024587,0.00005092,-0.00020905,-0.000155
 38,-0.00032698,-0.00009393,0.00015702,0.00011510,-0.00003483,-0.000823
 30,-0.00194388,0.29502601,-0.00011047,-0.00082699,-0.00159573,0.001115
 15,0.00027553,0.00153463,0.00042256,0.00018915,-0.00042707,0.00001341,
 0.00000514,-0.00002829,0.00000026,-0.00000073,-0.00000614,-0.00000687,
 -0.00000830,-0.00000354,-0.00000750,-0.00000656,-0.00000361,-0.0000095
 3,0.00001510,0.00001725,-0.00000005,-0.00001372,0.00000501,-0.00000748
 ,0.00003145,0.00001294,-0.00000251,-0.00003406,-0.00001898,0.00000835,
 0.00002889,0.00001286,0.00050669,0.00042781,0.00065092,-0.00033973,-0.
 00035613,-0.00041605,0.00045278,0.00041280,0.00054766,-0.00052667,-0.0
 0017112,0.00006182,-0.00001001,-0.00016242,-0.00031867,-0.00017048,0.0
 0006943,0.00013689,0.00018500,-0.00049067,0.00124375,-0.00153851,-0.00
 256589,0.00013007,-0.00213483,0.00142747,0.00002252,0.00089998,-0.0015
 9482,0.00019627,0.00005033,0.00190559,-0.00047665,0.00069739,0.0001646
 2,-0.00053787,0.00001056,-0.00004651,0.00000766,0.00002045,0.00003316,
 0.00000777,-0.00001828,0.00002077,0.00000583,-0.00000985,0.00000800,-0
 .00000015,-0.00002916,-0.00004027,-0.00000499,0.00003506,0.00000726,0.
 00002207,0.00001148,-0.00004760,-0.00001921,-0.00002888,0.00005033,0.0
 0000923,0.00001646,-0.00003489,-0.00000990,0.00126295,-0.00033106,-0.0
 0053466,0.00224418,-0.00259046,0.00163854,0.00074791,-0.00146948,0.000
 02068,0.00020042,-0.00361114,0.00386416,-0.02583682,0.00034433,0.01230
 916,-0.03274063,-0.06051749,0.02207652,0.02110384,0.00737116,-0.010623
 31,0.00000302,-0.00000117,0.00000074,-0.00000401,0.00000112,0.00000096
 ,-0.00000346,0.00003613,-0.00001312,0.00000144,-0.00000546,-0.00000967
 ,0.00000004,-0.00001015,0.00000292,-0.00000480,-0.00000659,-0.00000746
 ,-0.00000430,-0.00000540,-0.00000066,-0.00000093,0.00001641,0.00000843
 ,-0.00000742,-0.00000692,-0.00000485,-0.00000137,0.00001101,-0.0000094
 2,0.00001907,0.00001531,0.00000100,0.00006580,0.00004423,0.00008028,0.
 00000245,-0.00000910,0.00000039,-0.00001469,0.00000199,0.00000146,-0.0
 0000999,-0.00003609,-0.00005996,0.00000120,0.00000953,-0.00000006,0.00
 000125,0.00000563,0.00000794,-0.00000752,0.00001793,-0.00000413,-0.000
 00985,0.00000745,0.00000732,0.00026557,-0.00025626,0.00008204,-0.00016
 481,-0.00001551,-0.00029719,-0.00107954,-0.00009416,0.00059359,-0.0003
 5457,0.00065281,-0.00183266,0.03501593,0.06167823,0.00014604,-0.000430
 57,-0.00070800,0.00014713,0.00036230,0.00068837,0.00005381,-0.00011925
 ,-0.00001039,0.00003182,0.00003512,0.00001513,-0.00002006,-0.00000607,
 -0.00002775,-0.00000698,-0.00000096,-0.00000478,-0.00001241,-0.0000011
 4,-0.00000412,0.00000793,0.00000238,-0.00000266,-0.00001771,-0.0000170
 8,-0.00001174,-0.00000536,0.00000079,0.00000938,-0.00000228,0.00000013
 ,-0.00000556,0.00000226,-0.00000212,0.00000785,0.00007291,0.00011805,0
 .00021338,-0.00026927,-0.00005458,0.00003412,-0.00006852,-0.00010641,-
 0.00006158,0.00000714,-0.00000619,-0.00004077,0.00012305,-0.00008966,-
 0.00004006,0.00016934,0.00026663,0.00003927,-0.00029023,0.00129623,-0.
 00176290,-0.00004981,0.00073892,0.00021033,-0.00095897,-0.00063007,-0.
 00179284,0.00013175,0.00010294,-0.00050699,-0.00015791,-0.00020856,0.0
 0010568,-0.00021045,-0.00021511,0.00004364,-0.00000174,0.00002714,0.00
 000941,0.00001235,0.00000002,-0.00000232,0.00000116,-0.00000606,-0.000
 00291,0.00000968,0.00000398,0.00000414,-0.00001643,-0.00000123,-0.0000
 0317,0.00002112,-0.00000514,0.00000439,0.00000626,0.00000163,0.0000013
 8,-0.00000444,-0.00000416,-0.00000257,-0.00000016,0.00000403,0.0000015
 0,0.00002302,0.00035345,0.00012130,0.00108009,0.00056642,0.00406222,-0
 .00071882,0.00051758,-0.00040766,0.00265498,0.00387712,0.00542215,0.01
 126792,0.00062111,0.00042439,0.11609671,0.02198802,-0.09467664,0.00046
 906,0.00077685,0.00318681,0.00000058,-0.00000467,0.00001543,-0.0000064
 1,-0.00000302,0.00000238,-0.00000126,0.00000397,0.00000680,0.00000198,
 -0.00000196,-0.00000299,-0.00000031,0.00000085,-0.00000165,-0.00000366
 ,-0.00000120,-0.00000427,-0.00000031,-0.00000128,-0.00000182,-0.000011
 54,0.00000173,-0.00000194,-0.00000521,-0.00000108,0.00000812,-0.000002
 73,0.00000510,0.00001045,-0.00000550,0.00002099,-0.00000562,-0.0000405
 1,-0.00001727,0.00000234,-0.00000328,-0.00000513,-0.00000154,0.0000001
 6,-0.00000060,0.,-0.00000345,-0.00000345,-0.00000493,-0.00000021,-0.00
 000096,0.00000051,-0.00000043,-0.00000104,-0.00000184,-0.00000038,-0.0
 0000025,-0.00000059,-0.00000001,-0.00000046,-0.00000017,0.00003736,0.0
 0003173,0.00007619,-0.00027992,-0.00027361,-0.00079536,0.00048110,-0.0
 0000793,-0.00016849,-0.00201766,-0.00159538,-0.00364784,-0.12788210,-0
 .02805923,0.08988991,-0.04452477,0.04014856,-0.02445468,-0.00312845,0.
 01540270,0.02199763,0.00364134,-0.00023206,-0.00272918,0.00031971,0.00
 003026,0.00010539,-0.00016609,-0.00015298,-0.00023693,0.00015213,-0.00
 002572,0.00004576,0.00011085,-0.00001180,0.00002553,0.00030487,-0.0004
 1419,-0.00019413,-0.00221055,0.00093454,0.00013290,-0.00020856,-0.0000
 5320,-0.00006580,0.00020198,-0.00001654,0.00002990,-0.00006705,0.00002
 292,-0.00002271,0.00150947,0.00189886,0.00301540,-0.00092311,-0.001534
 60,-0.00230863,0.00150828,0.00162487,0.00237728,-0.00192885,-0.0006405
 4,-0.00006686,0.00002001,-0.00041368,-0.00076050,-0.00056874,-0.000143
 12,0.00002856,-0.00067989,0.00112885,0.00146131,-0.00415569,-0.0049592
 4,-0.00530761,-0.00363875,0.00818885,-0.00084836,-0.00874406,-0.030183
 75,0.00554945,-0.05300185,-0.00627896,-0.04744932,0.00426294,0.0020103
 9,-0.00220899,0.00013867,0.00000534,0.00007538,-0.00011093,0.00025254,
 -0.00008356,0.00015241,-0.00002662,0.00004928,0.00011057,-0.00003398,0
 .00001702,0.00034252,0.00040604,0.00013826,-0.00222263,-0.00050415,-0.
 00042672,-0.00014191,0.00013237,0.00000918,0.00015403,-0.00006579,0.00
 000850,-0.00005820,0.00004076,-0.00001520,0.00127801,-0.00405662,0.000
 79307,-0.00056541,0.00308121,-0.00065293,0.00124040,-0.00331021,0.0005
 7400,-0.00200165,0.00084689,0.00053963,0.00008839,0.00089100,-0.000330
 04,-0.00057532,0.00022844,0.00019768,-0.00108344,-0.00208587,0.0005345
 7,0.00010976,-0.00008762,0.00002691,0.00000522,-0.00001719,0.00000331,
 -0.00024204,-0.00137422,0.00021369,0.00003146,0.00000786,-0.00003266,0
 .00000762,-0.00001110,0.00001506,0.00001856,-0.00001678,0.00001352,0.0
 0003209,-0.00000384,-0.00000614,-0.00003529,0.00004749,-0.00005298,-0.
 00004773,-0.00000826,0.00003863,-0.00000882,0.00001024,0.00001173,0.00
 008258,0.00002339,0.00002134,0.00013592,0.00012715,0.00012426,0.000105
 16,0.00002653,0.00007133,0.00001018,0.00000567,0.00001444,-0.00014568,
 0.00089874,0.00114166,0.00002780,-0.00000702,-0.00001577,0.00000895,-0
 .00000846,-0.00000046,0.00001800,-0.00000633,0.00001676,0.00003028,-0.
 00000349,-0.00000599,-0.00003043,0.00004176,-0.00010519,-0.00004483,-0
 .00001450,0.00003988,-0.00000897,-0.00000629,0.00001053,0.00008104,-0.
 00003681,-0.00000932,0.00011915,-0.00018546,0.00001974,0.11490932,0.04
 110321,-0.03742231,0.02128269,0.01212751,-0.02351864,-0.02663644,-0.00
 383005,0.00185342,0.00431443,0.00143696,0.00077398,0.00046367,-0.00021
 076,-0.00035821,-0.00003929,0.00000863,0.00006682,0.00000461,0.0000068
 3,-0.00002528,-0.00002094,0.00026392,-0.00001489,0.00005707,-0.0009104
 8,0.00005821,-0.00011559,-0.00032142,0.00020377,-0.00001443,0.00027890
 ,-0.00024344,-0.00005559,-0.00003028,0.00021094,0.00005804,-0.00198083
 ,-0.00206491,-0.00234392,0.00010903,0.00102413,0.00215011,-0.00097616,
 -0.00126926,-0.00205348,0.00147847,0.00055245,0.00022502,0.00023123,0.
 00002319,0.00073157,0.00037503,0.00057562,0.00017544,0.00123930,-0.000
 91081,-0.00310484,0.00380308,-0.00008238,0.00644920,-0.00263648,0.0013
 1059,-0.00480591,-0.01635011,-0.02515185,0.00016968,-0.01518203,0.0005
 3925,-0.01576518,0.00231589,0.00193603,-0.00081165,-0.00092861,0.00080
 282,0.00021285,0.00012739,-0.00023421,-0.00014406,0.00000676,0.0000382
 4,0.00004787,0.00001362,-0.00010254,-0.00004875,-0.00005285,0.00016520
 ,0.00011919,0.00043887,-0.00028907,0.00004066,0.00035951,0.00018873,-0
 .00001869,-0.00029499,-0.00022288,-0.00006215,0.00006295,0.00023198,0.
 00008262,0.00095481,-0.00232100,0.00018306,0.00018440,0.00142491,-0.00
 059117,0.00042295,-0.00172283,0.00044118,-0.00100959,0.00053063,0.0002
 3045,-0.00013854,0.00042308,-0.00043835,-0.00008071,0.00035931,0.00032
 677,-0.00095902,-0.00203520,0.00144754,0.00009858,-0.00003710,-0.00001
 690,-0.00001614,-0.00001311,-0.00001987,0.00058088,0.00023812,-0.00004
 379,0.00000075,-0.00001209,-0.00012440,-0.00001823,-0.00013134,0.00008
 267,0.00001710,-0.00004838,0.00000001,0.00000881,-0.00003724,-0.000010
 75,-0.00005069,0.00003008,0.00039485,-0.00001857,0.00002637,-0.0000205
 2,-0.00000292,0.00008391,-0.00000992,-0.00003198,0.00001576,0.00004035
 ,-0.00005413,0.00016039,-0.00010236,-0.00007451,-0.00001107,-0.0000288
 5,0.00002470,-0.00002081,0.00000227,-0.00043604,0.00033447,0.00004730,
 -0.00003760,-0.00016083,0.00011156,0.00000408,-0.00002956,-0.00009499,
 0.00000107,-0.00005225,-0.00001632,-0.00001482,-0.00004674,-0.00001804
 ,0.00002593,0.00015801,-0.00022079,0.00002254,0.00000030,0.00001831,0.
 00000932,0.00005253,0.00005184,0.00001090,0.00003559,-0.00003240,0.000
 02785,0.00008131,0.00015770,-0.02153324,0.08408009,-0.01322188,0.01270
 029,-0.00158316,0.00680672,-0.00743333,-0.00349357,0.00022436,-0.00024
 791,-0.00093184,-0.00003643,0.00006325,0.00001671,0.00001108,0.0000350
 0,0.00000980,-0.00003674,0.00002385,-0.00002436,-0.00007034,-0.0001230
 8,-0.00003457,-0.00021162,0.00037274,0.00001504,0.00067210,-0.00040932
 ,-0.00020417,-0.00011351,0.00004334,0.00026363,0.00005191,-0.00009454,
 -0.00012799,0.00000274,0.00011222,0.00009683,-0.00004105,-0.00025234,-
 0.00060577,0.00002043,0.00013843,0.00028409,-0.00017294,-0.00024219,-0
 .00049066,0.00040484,0.00013674,0.00000005,0.00000197,0.00001967,0.000
 26105,-0.00007199,0.00011684,-0.00016977,-0.00004006,-0.00008853,-0.00
 070072,0.00054827,-0.00292924,0.00051994,-0.00157883,0.00419223,-0.001
 41948,-0.00546777,-0.01711078,0.00377530,-0.03899332,-0.00860898,-0.03
 157468,0.00298372,0.00313138,-0.00166101,-0.00095103,0.00070531,0.0001
 7053,0.00012332,-0.00025345,-0.00017004,-0.00003523,0.00004182,0.00000
 513,-0.00005102,0.00006531,0.00004391,-0.00038536,-0.00015461,-0.00020
 324,0.00127209,0.00016410,0.00014620,0.00015342,-0.00008412,0.00021363
 ,-0.00017405,-0.00001288,-0.00010141,0.00003308,0.00002236,0.00006754,
 0.00105044,-0.00170436,-0.00012584,0.00012008,0.00119262,-0.00047173,0
 .00034075,-0.00116572,0.00022554,-0.00059001,0.00036823,0.00009962,-0.
 00014743,0.00020228,-0.00020709,-0.00022793,0.00042743,0.00005356,-0.0
 0099832,-0.00135238,0.00082661,-0.00001922,0.00000030,0.00002542,-0.00
 002358,0.00000233,-0.00000174,0.00014357,0.00032747,0.00025282,0.00002
 743,-0.00004968,-0.00014635,-0.00000159,0.00001251,-0.00001969,-0.0000
 3337,-0.00001656,-0.00003795,-0.00000389,-0.00003029,-0.00001767,0.000
 03394,-0.00009387,-0.00000450,-0.00000313,-0.00000258,-0.00000321,0.00
 000521,0.00001982,0.00000749,0.00000619,-0.00001421,0.00002492,0.00001
 848,0.00005928,0.00000163,-0.00009255,-0.00003006,0.00000418,-0.000008
 06,-0.00001604,0.00000107,-0.00031941,-0.00020052,0.00006331,0.0000217
 9,0.00003027,0.00000422,0.00000084,-0.00002336,-0.00012181,-0.00003765
 ,0.00000840,-0.00003404,-0.00001069,0.00000194,-0.00000593,0.00008680,
 0.00024670,-0.00013831,0.00001505,0.00000541,0.00002021,0.00001143,0.0
 0002269,0.00003908,0.00002575,0.00002067,0.00000618,0.00005001,0.00000
 196,0.00009750,0.04890218,0.01770975,0.03718954\\0.00000495,-0.0000088
 0,-0.00001065,0.00000445,0.00000067,-0.00000362,-0.00001322,-0.0000029
 2,0.00000604,0.00001002,0.00000221,0.00000049,-0.00000706,0.00000002,0
 .00000014,0.00000542,-0.00000099,0.00000388,-0.00001095,0.00000815,-0.
 00000597,0.00001350,-0.00000102,-0.00000507,-0.00000600,-0.00000114,0.
 00000189,0.00001396,-0.00000417,0.00000805,-0.00000726,-0.00001312,0.0
 0000366,-0.00000948,0.00000667,0.00000770,0.00000380,0.00000363,0.0000
 0002,-0.00000751,-0.00000205,0.00000206,0.00000225,0.00000051,-0.00000
 052,-0.00000251,0.00000063,0.00000268,0.00000135,-0.00000033,-0.000001
 76,0.00000252,0.00000249,0.00000387,0.00000021,-0.00000597,-0.00001224
 ,-0.00000006,0.00000397,0.00001556,-0.00000858,0.00001877,-0.00000428,
 -0.00000195,-0.00001733,0.00001026,-0.00000346,0.00000154,-0.00000675,
 0.00001619,0.00000349,-0.00001513,-0.00000889,0.00000152,0.00000719,0.
 00000507,-0.00000081,0.00000035,-0.00000583,0.00000256,-0.00000214,0.0
 0000769,-0.00000114,0.00000673,-0.00000996,-0.00000398,0.00000289,0.00
 000814,0.00000331,-0.00000547,-0.00001158,0.00000751,-0.00001176,-0.00
 000081,-0.00001730,0.00001443,0.00001317,0.00001318,-0.00000574,-0.000
 00228,-0.00000327,0.00000199,0.00000688,0.00000019,-0.00000226,-0.0000
 0008,-0.00000310,0.00000172,-0.00000145,0.00000214,-0.00000013,-0.0000
 0026,0.00000116,0.00000035,-0.00000452,0.00000503,0.00000039,0.0000010
 1,-0.00001311,0.00000347,0.00000108,-0.00000062,-0.00000036,-0.0000003
 7,-0.00000048,-0.00000110,-0.00000083,-0.00000042,-0.00000128,-0.00000
 479,0.00000674,-0.00000467,-0.00000352,0.00000132,-0.00000338,0.000007
 47,0.00000044,-0.00000473,0.00000303,-0.00000177,-0.00000302,0.0000003
 9,0.00000003,0.00000094,-0.00000039,-0.00000034,-0.00000018,-0.0000004
 9,-0.00000070,-0.00000067,-0.00000016,-0.00000044,-0.00000060,-0.00000
 037,-0.00000047,0.00000049,-0.00000172,0.00000191,-0.00000156,0.000000
 18,-0.00000069,0.00000067,-0.00000069,-0.00000061,0.00000002,0.0000060
 9,-0.00000237,0.00000155,0.00000271,0.00000444,-0.00000076,-0.00000544
 ,-0.00000426,-0.00000116,-0.00000367,0.00000302,-0.00000240,0.00000227
 ,0.00000059,0.00000093,0.00000011,0.00000064,0.00000078,0.00000086,-0.
 00000097,0.00000015,-0.00000005,-0.00000102,0.00000036,0.00000149,0.00
 000017,-0.00000086,-0.00000006,0.00000705,0.00000850\\\@
 The archive entry for this job was punched.


 BUT 'GLORY' DOESN'T MEAN 'A NICE KNOCK DOWN ARGUMENT', ALICE OBJECTED.
 WHEN I USE A WORD, HUMPTY DUMPTY SAID, IN A RATHER SCORNFUL TONE,
 IT MEANS JUST WHAT I CHOOSE IT TO MEAN....
 NEITHER MORE NOR LESS....
 THE QUESTION IS, SAID ALICE,
 WHETHER YOU CAN MAKE WORDS MEAN SO MANY DIFFERENT THINGS...
 THE QUESTION IS, SAID HUMPTY DUMPTY,
 WHICH IS TO BE MASTER....
 THAT IS ALL.....

 ALICE THROUGH THE LOOKING GLASS
 Job cpu time:       0 days 21 hours  7 minutes 41.6 seconds.
 Elapsed time:       0 days  0 hours 39 minutes 52.4 seconds.
 File lengths (MBytes):  RWF=   5863 Int=      0 D2E=      0 Chk=     48 Scr=      1
 Normal termination of Gaussian 16 at Fri Feb  7 21:21:20 2025.
