 Entering Gaussian System, Link 0=g16
 Initial command:
 /public/software/apps/Gaussian/g16/l1.exe "/tmp/Gau-100462.inp" -scrdir="/tmp/"
 Entering Link 1 = /public/software/apps/Gaussian/g16/l1.exe PID=    100463.
  
 Copyright (c) 1988-2019, Gaussian, Inc.  All Rights Reserved.
  
 This is part of the Gaussian(R) 16 program.  It is based on
 the Gaussian(R) 09 system (copyright 2009, Gaussian, Inc.),
 the Gaussian(R) 03 system (copyright 2003, Gaussian, Inc.),
 the Gaussian(R) 98 system (copyright 1998, Gaussian, Inc.),
 the Gaussian(R) 94 system (copyright 1995, Gaussian, Inc.),
 the Gaussian 92(TM) system (copyright 1992, Gaussian, Inc.),
 the Gaussian 90(TM) system (copyright 1990, Gaussian, Inc.),
 the Gaussian 88(TM) system (copyright 1988, Gaussian, Inc.),
 the Gaussian 86(TM) system (copyright 1986, Carnegie Mellon
 University), and the Gaussian 82(TM) system (copyright 1983,
 Carnegie Mellon University). Gaussian is a federally registered
 trademark of Gaussian, Inc.
  
 This software contains proprietary and confidential information,
 including trade secrets, belonging to Gaussian, Inc.
  
 This software is provided under written license and may be
 used, copied, transmitted, or stored only in accord with that
 written license.
  
 The following legend is applicable only to US Government
 contracts under FAR:
  
                    RESTRICTED RIGHTS LEGEND
  
 Use, reproduction and disclosure by the US Government is
 subject to restrictions as set forth in subparagraphs (a)
 and (c) of the Commercial Computer Software - Restricted
 Rights clause in FAR 52.227-19.
  
 Gaussian, Inc.
 340 Quinnipiac St., Bldg. 40, Wallingford CT 06492
  
  
 ---------------------------------------------------------------
 Warning -- This program may not be used in any manner that
 competes with the business of Gaussian, Inc. or will provide
 assistance to any competitor of Gaussian, Inc.  The licensee
 of this program is prohibited from giving any competitor of
 Gaussian, Inc. access to this program.  By using this program,
 the user acknowledges that Gaussian, Inc. is engaged in the
 business of creating and licensing software in the field of
 computational chemistry and represents and warrants to the
 licensee that it is not a competitor of Gaussian, Inc. and that
 it will not use this program in any manner prohibited above.
 ---------------------------------------------------------------
  

 Cite this work as:
 Gaussian 16, Revision C.01,
 M. J. Frisch, G. W. Trucks, H. B. Schlegel, G. E. Scuseria, 
 M. A. Robb, J. R. Cheeseman, G. Scalmani, V. Barone, 
 G. A. Petersson, H. Nakatsuji, X. Li, M. Caricato, A. V. Marenich, 
 J. Bloino, B. G. Janesko, R. Gomperts, B. Mennucci, H. P. Hratchian, 
 J. V. Ortiz, A. F. Izmaylov, J. L. Sonnenberg, D. Williams-Young, 
 F. Ding, F. Lipparini, F. Egidi, J. Goings, B. Peng, A. Petrone, 
 T. Henderson, D. Ranasinghe, V. G. Zakrzewski, J. Gao, N. Rega, 
 G. Zheng, W. Liang, M. Hada, M. Ehara, K. Toyota, R. Fukuda, 
 J. Hasegawa, M. Ishida, T. Nakajima, Y. Honda, O. Kitao, H. Nakai, 
 T. Vreven, K. Throssell, J. A. Montgomery, Jr., J. E. Peralta, 
 F. Ogliaro, M. J. Bearpark, J. J. Heyd, E. N. Brothers, K. N. Kudin, 
 V. N. Staroverov, T. A. Keith, R. Kobayashi, J. Normand, 
 K. Raghavachari, A. P. Rendell, J. C. Burant, S. S. Iyengar, 
 J. Tomasi, M. Cossi, J. M. Millam, M. Klene, C. Adamo, R. Cammi, 
 J. W. Ochterski, R. L. Martin, K. Morokuma, O. Farkas, 
 J. B. Foresman, and D. J. Fox, Gaussian, Inc., Wallingford CT, 2019.
 
 ******************************************
 Gaussian 16:  ES64L-G16RevC.01  3-Jul-2019
                 7-Feb-2025 
 ******************************************
 %nprocshared=32
 Will use up to   32 processors via shared memory.
 %mem=100GB
 ------------------------------------------
 #p opt freq b3lyp/def2svpp em=gd3bj nosymm
 ------------------------------------------
 1/18=20,19=15,26=3,38=1/1,3;
 2/9=110,12=2,15=1,17=6,18=5,40=1/2;
 3/5=43,7=202,11=2,25=1,30=1,71=1,74=-5,124=41/1,2,3;
 4//1;
 5/5=2,38=5/2;
 6/7=2,8=2,9=2,10=2,28=1/1;
 7/30=1/1,2,3,16;
 1/18=20,19=15,26=3/3(2);
 2/9=110,15=1/2;
 99//99;
 2/9=110,15=1/2;
 3/5=43,7=202,11=2,25=1,30=1,71=1,74=-5,124=41/1,2,3;
 4/5=5,16=3,69=1/1;
 5/5=2,38=5/2;
 7/30=1/1,2,3,16;
 1/18=20,19=15,26=3/3(-5);
 2/9=110,15=1/2;
 6/7=2,8=2,9=2,10=2,19=2,28=1/1;
 99/9=1/99;
 Leave Link    1 at Fri Feb  7 22:32:00 2025, MaxMem= 13421772800 cpu:               1.8 elap:               0.1
 (Enter /public/software/apps/Gaussian/g16/l101.exe)
 ------------------
 $$$$Title####0????
 ------------------
 Symbolic Z-matrix:
 Charge =  0 Multiplicity = 2
 O                    -0.62737   0.84938  -0.18852 
 C                    -1.31062   0.2721   -1.25608 
 C                    -2.69983   0.06559  -1.17172 
 C                    -3.46391   0.50151   0.02191 
 C                    -3.3476    1.81625   0.50087 
 C                    -4.0685    2.22355   1.62431 
 C                    -4.91486   1.32711   2.27958 
 C                    -5.05928   0.01023   1.80872 
 C                    -5.95301  -0.94692   2.50738 
 C                    -5.56102  -2.28945   2.7249 
 C                    -6.41074  -3.19506   3.39861 
 C                    -7.66733  -2.78181   3.87055 
 C                    -8.0369   -1.46007   3.64411 
 C                    -7.21626  -0.56648   2.98455 
 O                    -7.79773   0.61406   2.88141 
 C                    -8.97428   0.51058   3.46555 
 C                    -9.93892   1.50447   3.61094 
 C                    -11.13371   1.1704    4.27578 
 C                    -11.33613  -0.13527   4.77852 
 C                    -10.34632  -1.12166   4.62055 
 C                    -9.17549  -0.76063   3.95712 
 C                    -4.32713  -0.39402   0.67704 
 C                    -3.3672   -0.57397  -2.22507 
 C                    -2.66742  -1.00865  -3.35762 
 C                    -3.34996  -1.66334  -4.3959 
 C                    -2.6565   -2.11318  -5.52008 
 C                    -1.27967  -1.91439  -5.61949 
 C                    -0.58635  -1.26346  -4.59634 
 C                    -1.2688   -0.79322  -3.45384 
 C                    -0.59446  -0.12691  -2.39987 
 C                     0.87008   0.13216  -2.4456 
 C                     1.70992  -0.60631  -1.59115 
 O                     1.14859  -1.52122  -0.70343 
 C                     3.10251  -0.41007  -1.60963 
 C                     3.99553  -1.2046   -0.73457 
 C                     3.93446  -2.60727  -0.74303 
 C                     4.78037  -3.35406   0.07853 
 C                     5.6933   -2.71107   0.91671 
 C                     5.77317  -1.30795   0.93955 
 C                     6.73133  -0.62824   1.8454 
 C                     6.92944  -1.0805    3.17278 
 C                     7.84098  -0.42979   4.03323 
 C                     8.56863   0.68722   3.59214 
 C                     8.35934   1.11707   2.28595 
 C                     7.47613   0.48587   1.4328 
 O                     7.47042   1.06943   0.24835 
 C                     8.32594   2.06925   0.31386 
 C                     8.65483   2.97029  -0.69534 
 C                     9.60618   3.96626  -0.40498 
 C                     10.20423   4.03724   0.874 
 C                     9.8549    3.11612   1.87889 
 C                     8.90933   2.14423   1.56004 
 C                     4.91964  -0.5611    0.10612 
 C                     3.65255   0.55416  -2.46378 
 C                     2.83226   1.31603  -3.30475 
 C                     3.40108   2.28047  -4.1517 
 C                     2.58977   3.05223  -4.98437 
 C                     1.2063    2.87478  -4.97432 
 C                     0.6249    1.91779  -4.13931 
 C                     1.42804   1.11572  -3.30007 
 H                    -2.70664   2.52998  -0.00148 
 H                    -3.96961   3.23736   1.98982 
 H                    -5.44374   1.65857   3.16402 
 H                    -4.59102  -2.63622   2.39424 
 H                    -6.08978  -4.21643   3.55606 
 H                    -8.32432  -3.46992   4.38722 
 H                    -9.77413   2.50121   3.22457 
 H                    -11.9021   1.92118   4.40517 
 H                    -12.25831  -0.37674   5.29171 
 H                    -10.491   -2.12342   5.00239 
 H                    -4.42859  -1.40572   0.30225 
 H                    -4.43802  -0.73356  -2.15964 
 H                    -4.41933  -1.83031  -4.33646 
 H                    -3.18842  -2.61552  -6.31778 
 H                    -0.74612  -2.2689   -6.49177 
 H                     0.48244  -1.13536  -4.70665 
 H                     3.24045  -3.12356  -1.39517 
 H                     4.73072  -4.43558   0.06354 
 H                     6.34641  -3.31135   1.538 
 H                     6.37205  -1.92772   3.55048 
 H                     7.97629  -0.79233   5.04383 
 H                     9.27043   1.18928   4.24522 
 H                     8.19424   2.90438  -1.67217 
 H                     9.88615   4.67975  -1.16985 
 H                     10.93576   4.80634   1.08249 
 H                     10.3094   3.16141   2.86006 
 H                     4.94543   0.52159   0.13443 
 H                     4.72679   0.70236  -2.47944 
 H                     4.47325   2.43792  -4.16781 
 H                     3.03426   3.79571  -5.63383 
 H                     0.58098   3.48137  -5.6169 
 H                    -0.4522    1.81565  -4.15541 
 Cu                    0.61829  -0.33099   0.76361 
 
 ITRead=  0  0  0  0  0  0  0  0  0  0  0  0  0  0  0  0  0  0  0  0
 ITRead=  0  0  0  0  0  0  0  0  0  0  0  0  0  0  0  0  0  0  0  0
 ITRead=  0  0  0  0  0  0  0  0  0  0  0  0  0  0  0  0  0  0  0  0
 ITRead=  0  0  0  0  0  0  0  0  0  0  0  0  0  0  0  0  0  0  0  0
 ITRead=  0  0  0  0  0  0  0  0  0  0  0  0  0
 MicOpt= -1 -1 -1 -1 -1 -1 -1 -1 -1 -1 -1 -1 -1 -1 -1 -1 -1 -1 -1 -1
 MicOpt= -1 -1 -1 -1 -1 -1 -1 -1 -1 -1 -1 -1 -1 -1 -1 -1 -1 -1 -1 -1
 MicOpt= -1 -1 -1 -1 -1 -1 -1 -1 -1 -1 -1 -1 -1 -1 -1 -1 -1 -1 -1 -1
 MicOpt= -1 -1 -1 -1 -1 -1 -1 -1 -1 -1 -1 -1 -1 -1 -1 -1 -1 -1 -1 -1
 MicOpt= -1 -1 -1 -1 -1 -1 -1 -1 -1 -1 -1 -1 -1
 NAtoms=     93 NQM=       93 NQMF=       0 NMMI=      0 NMMIF=      0
                NMic=       0 NMicF=      0.
                    Isotopes and Nuclear Properties:
 (Nuclear quadrupole moments (NQMom) in fm**2, nuclear magnetic moments (NMagM)
  in nuclear magnetons)

  Atom         1           2           3           4           5           6           7           8           9          10
 IAtWgt=          16          12          12          12          12          12          12          12          12          12
 AtmWgt=  15.9949146  12.0000000  12.0000000  12.0000000  12.0000000  12.0000000  12.0000000  12.0000000  12.0000000  12.0000000
 NucSpn=           0           0           0           0           0           0           0           0           0           0
 AtZEff=  -0.0000000  -0.0000000  -0.0000000  -0.0000000  -0.0000000  -0.0000000  -0.0000000  -0.0000000  -0.0000000  -0.0000000
 NQMom=    0.0000000   0.0000000   0.0000000   0.0000000   0.0000000   0.0000000   0.0000000   0.0000000   0.0000000   0.0000000
 NMagM=    0.0000000   0.0000000   0.0000000   0.0000000   0.0000000   0.0000000   0.0000000   0.0000000   0.0000000   0.0000000
 AtZNuc=   8.0000000   6.0000000   6.0000000   6.0000000   6.0000000   6.0000000   6.0000000   6.0000000   6.0000000   6.0000000

  Atom        11          12          13          14          15          16          17          18          19          20
 IAtWgt=          12          12          12          12          16          12          12          12          12          12
 AtmWgt=  12.0000000  12.0000000  12.0000000  12.0000000  15.9949146  12.0000000  12.0000000  12.0000000  12.0000000  12.0000000
 NucSpn=           0           0           0           0           0           0           0           0           0           0
 AtZEff=  -0.0000000  -0.0000000  -0.0000000  -0.0000000  -0.0000000  -0.0000000  -0.0000000  -0.0000000  -0.0000000  -0.0000000
 NQMom=    0.0000000   0.0000000   0.0000000   0.0000000   0.0000000   0.0000000   0.0000000   0.0000000   0.0000000   0.0000000
 NMagM=    0.0000000   0.0000000   0.0000000   0.0000000   0.0000000   0.0000000   0.0000000   0.0000000   0.0000000   0.0000000
 AtZNuc=   6.0000000   6.0000000   6.0000000   6.0000000   8.0000000   6.0000000   6.0000000   6.0000000   6.0000000   6.0000000

  Atom        21          22          23          24          25          26          27          28          29          30
 IAtWgt=          12          12          12          12          12          12          12          12          12          12
 AtmWgt=  12.0000000  12.0000000  12.0000000  12.0000000  12.0000000  12.0000000  12.0000000  12.0000000  12.0000000  12.0000000
 NucSpn=           0           0           0           0           0           0           0           0           0           0
 AtZEff=  -0.0000000  -0.0000000  -0.0000000  -0.0000000  -0.0000000  -0.0000000  -0.0000000  -0.0000000  -0.0000000  -0.0000000
 NQMom=    0.0000000   0.0000000   0.0000000   0.0000000   0.0000000   0.0000000   0.0000000   0.0000000   0.0000000   0.0000000
 NMagM=    0.0000000   0.0000000   0.0000000   0.0000000   0.0000000   0.0000000   0.0000000   0.0000000   0.0000000   0.0000000
 AtZNuc=   6.0000000   6.0000000   6.0000000   6.0000000   6.0000000   6.0000000   6.0000000   6.0000000   6.0000000   6.0000000

  Atom        31          32          33          34          35          36          37          38          39          40
 IAtWgt=          12          12          16          12          12          12          12          12          12          12
 AtmWgt=  12.0000000  12.0000000  15.9949146  12.0000000  12.0000000  12.0000000  12.0000000  12.0000000  12.0000000  12.0000000
 NucSpn=           0           0           0           0           0           0           0           0           0           0
 AtZEff=  -0.0000000  -0.0000000  -0.0000000  -0.0000000  -0.0000000  -0.0000000  -0.0000000  -0.0000000  -0.0000000  -0.0000000
 NQMom=    0.0000000   0.0000000   0.0000000   0.0000000   0.0000000   0.0000000   0.0000000   0.0000000   0.0000000   0.0000000
 NMagM=    0.0000000   0.0000000   0.0000000   0.0000000   0.0000000   0.0000000   0.0000000   0.0000000   0.0000000   0.0000000
 AtZNuc=   6.0000000   6.0000000   8.0000000   6.0000000   6.0000000   6.0000000   6.0000000   6.0000000   6.0000000   6.0000000

  Atom        41          42          43          44          45          46          47          48          49          50
 IAtWgt=          12          12          12          12          12          16          12          12          12          12
 AtmWgt=  12.0000000  12.0000000  12.0000000  12.0000000  12.0000000  15.9949146  12.0000000  12.0000000  12.0000000  12.0000000
 NucSpn=           0           0           0           0           0           0           0           0           0           0
 AtZEff=  -0.0000000  -0.0000000  -0.0000000  -0.0000000  -0.0000000  -0.0000000  -0.0000000  -0.0000000  -0.0000000  -0.0000000
 NQMom=    0.0000000   0.0000000   0.0000000   0.0000000   0.0000000   0.0000000   0.0000000   0.0000000   0.0000000   0.0000000
 NMagM=    0.0000000   0.0000000   0.0000000   0.0000000   0.0000000   0.0000000   0.0000000   0.0000000   0.0000000   0.0000000
 AtZNuc=   6.0000000   6.0000000   6.0000000   6.0000000   6.0000000   8.0000000   6.0000000   6.0000000   6.0000000   6.0000000

  Atom        51          52          53          54          55          56          57          58          59          60
 IAtWgt=          12          12          12          12          12          12          12          12          12          12
 AtmWgt=  12.0000000  12.0000000  12.0000000  12.0000000  12.0000000  12.0000000  12.0000000  12.0000000  12.0000000  12.0000000
 NucSpn=           0           0           0           0           0           0           0           0           0           0
 AtZEff=  -0.0000000  -0.0000000  -0.0000000  -0.0000000  -0.0000000  -0.0000000  -0.0000000  -0.0000000  -0.0000000  -0.0000000
 NQMom=    0.0000000   0.0000000   0.0000000   0.0000000   0.0000000   0.0000000   0.0000000   0.0000000   0.0000000   0.0000000
 NMagM=    0.0000000   0.0000000   0.0000000   0.0000000   0.0000000   0.0000000   0.0000000   0.0000000   0.0000000   0.0000000
 AtZNuc=   6.0000000   6.0000000   6.0000000   6.0000000   6.0000000   6.0000000   6.0000000   6.0000000   6.0000000   6.0000000

  Atom        61          62          63          64          65          66          67          68          69          70
 IAtWgt=           1           1           1           1           1           1           1           1           1           1
 AtmWgt=   1.0078250   1.0078250   1.0078250   1.0078250   1.0078250   1.0078250   1.0078250   1.0078250   1.0078250   1.0078250
 NucSpn=           1           1           1           1           1           1           1           1           1           1
 AtZEff=  -0.0000000  -0.0000000  -0.0000000  -0.0000000  -0.0000000  -0.0000000  -0.0000000  -0.0000000  -0.0000000  -0.0000000
 NQMom=    0.0000000   0.0000000   0.0000000   0.0000000   0.0000000   0.0000000   0.0000000   0.0000000   0.0000000   0.0000000
 NMagM=    2.7928460   2.7928460   2.7928460   2.7928460   2.7928460   2.7928460   2.7928460   2.7928460   2.7928460   2.7928460
 AtZNuc=   1.0000000   1.0000000   1.0000000   1.0000000   1.0000000   1.0000000   1.0000000   1.0000000   1.0000000   1.0000000

  Atom        71          72          73          74          75          76          77          78          79          80
 IAtWgt=           1           1           1           1           1           1           1           1           1           1
 AtmWgt=   1.0078250   1.0078250   1.0078250   1.0078250   1.0078250   1.0078250   1.0078250   1.0078250   1.0078250   1.0078250
 NucSpn=           1           1           1           1           1           1           1           1           1           1
 AtZEff=  -0.0000000  -0.0000000  -0.0000000  -0.0000000  -0.0000000  -0.0000000  -0.0000000  -0.0000000  -0.0000000  -0.0000000
 NQMom=    0.0000000   0.0000000   0.0000000   0.0000000   0.0000000   0.0000000   0.0000000   0.0000000   0.0000000   0.0000000
 NMagM=    2.7928460   2.7928460   2.7928460   2.7928460   2.7928460   2.7928460   2.7928460   2.7928460   2.7928460   2.7928460
 AtZNuc=   1.0000000   1.0000000   1.0000000   1.0000000   1.0000000   1.0000000   1.0000000   1.0000000   1.0000000   1.0000000

  Atom        81          82          83          84          85          86          87          88          89          90
 IAtWgt=           1           1           1           1           1           1           1           1           1           1
 AtmWgt=   1.0078250   1.0078250   1.0078250   1.0078250   1.0078250   1.0078250   1.0078250   1.0078250   1.0078250   1.0078250
 NucSpn=           1           1           1           1           1           1           1           1           1           1
 AtZEff=  -0.0000000  -0.0000000  -0.0000000  -0.0000000  -0.0000000  -0.0000000  -0.0000000  -0.0000000  -0.0000000  -0.0000000
 NQMom=    0.0000000   0.0000000   0.0000000   0.0000000   0.0000000   0.0000000   0.0000000   0.0000000   0.0000000   0.0000000
 NMagM=    2.7928460   2.7928460   2.7928460   2.7928460   2.7928460   2.7928460   2.7928460   2.7928460   2.7928460   2.7928460
 AtZNuc=   1.0000000   1.0000000   1.0000000   1.0000000   1.0000000   1.0000000   1.0000000   1.0000000   1.0000000   1.0000000

  Atom        91          92          93
 IAtWgt=           1           1          63
 AtmWgt=   1.0078250   1.0078250  62.9295992
 NucSpn=           1           1           3
 AtZEff=  -0.0000000  -0.0000000  -0.0000000
 NQMom=    0.0000000   0.0000000 -22.0000000
 NMagM=    2.7928460   2.7928460   2.2233000
 AtZNuc=   1.0000000   1.0000000  29.0000000
 Leave Link  101 at Fri Feb  7 22:32:00 2025, MaxMem= 13421772800 cpu:               4.3 elap:               0.1
 (Enter /public/software/apps/Gaussian/g16/l103.exe)

 GradGradGradGradGradGradGradGradGradGradGradGradGradGradGradGradGradGrad
 Berny optimization.
 Initialization pass.
                           ----------------------------
                           !    Initial Parameters    !
                           ! (Angstroms and Degrees)  !
 --------------------------                            --------------------------
 ! Name  Definition              Value          Derivative Info.                !
 --------------------------------------------------------------------------------
 ! R1    R(1,2)                  1.3928         estimate D2E/DX2                !
 ! R2    R(1,93)                 1.9625         estimate D2E/DX2                !
 ! R3    R(2,3)                  1.407          estimate D2E/DX2                !
 ! R4    R(2,30)                 1.4073         estimate D2E/DX2                !
 ! R5    R(3,4)                  1.4828         estimate D2E/DX2                !
 ! R6    R(3,23)                 1.4014         estimate D2E/DX2                !
 ! R7    R(4,5)                  1.4041         estimate D2E/DX2                !
 ! R8    R(4,22)                 1.4058         estimate D2E/DX2                !
 ! R9    R(5,6)                  1.3956         estimate D2E/DX2                !
 ! R10   R(5,61)                 1.0829         estimate D2E/DX2                !
 ! R11   R(6,7)                  1.3962         estimate D2E/DX2                !
 ! R12   R(6,62)                 1.0822         estimate D2E/DX2                !
 ! R13   R(7,8)                  1.406          estimate D2E/DX2                !
 ! R14   R(7,63)                 1.0825         estimate D2E/DX2                !
 ! R15   R(8,9)                  1.4843         estimate D2E/DX2                !
 ! R16   R(8,22)                 1.4072         estimate D2E/DX2                !
 ! R17   R(9,10)                 1.4154         estimate D2E/DX2                !
 ! R18   R(9,14)                 1.4029         estimate D2E/DX2                !
 ! R19   R(10,11)                1.4128         estimate D2E/DX2                !
 ! R20   R(10,64)                1.0819         estimate D2E/DX2                !
 ! R21   R(11,12)                1.4045         estimate D2E/DX2                !
 ! R22   R(11,65)                1.0821         estimate D2E/DX2                !
 ! R23   R(12,13)                1.391          estimate D2E/DX2                !
 ! R24   R(12,66)                1.0826         estimate D2E/DX2                !
 ! R25   R(13,14)                1.3809         estimate D2E/DX2                !
 ! R26   R(13,21)                1.3724         estimate D2E/DX2                !
 ! R27   R(14,15)                1.32           estimate D2E/DX2                !
 ! R28   R(15,16)                1.3177         estimate D2E/DX2                !
 ! R29   R(16,17)                1.3927         estimate D2E/DX2                !
 ! R30   R(16,21)                1.3777         estimate D2E/DX2                !
 ! R31   R(17,18)                1.4075         estimate D2E/DX2                !
 ! R32   R(17,67)                1.0816         estimate D2E/DX2                !
 ! R33   R(18,19)                1.4137         estimate D2E/DX2                !
 ! R34   R(18,68)                1.0821         estimate D2E/DX2                !
 ! R35   R(19,20)                1.4063         estimate D2E/DX2                !
 ! R36   R(19,69)                1.0826         estimate D2E/DX2                !
 ! R37   R(20,21)                1.3933         estimate D2E/DX2                !
 ! R38   R(20,70)                1.0818         estimate D2E/DX2                !
 ! R39   R(22,71)                1.0837         estimate D2E/DX2                !
 ! R40   R(23,24)                1.4005         estimate D2E/DX2                !
 ! R41   R(23,72)                1.0846         estimate D2E/DX2                !
 ! R42   R(24,25)                1.4045         estimate D2E/DX2                !
 ! R43   R(24,29)                1.4184         estimate D2E/DX2                !
 ! R44   R(25,26)                1.3954         estimate D2E/DX2                !
 ! R45   R(25,73)                1.084          estimate D2E/DX2                !
 ! R46   R(26,27)                1.3947         estimate D2E/DX2                !
 ! R47   R(26,74)                1.0824         estimate D2E/DX2                !
 ! R48   R(27,28)                1.3969         estimate D2E/DX2                !
 ! R49   R(27,75)                1.0822         estimate D2E/DX2                !
 ! R50   R(28,29)                1.4114         estimate D2E/DX2                !
 ! R51   R(28,76)                1.0821         estimate D2E/DX2                !
 ! R52   R(29,30)                1.4176         estimate D2E/DX2                !
 ! R53   R(30,31)                1.488          estimate D2E/DX2                !
 ! R54   R(31,32)                1.4074         estimate D2E/DX2                !
 ! R55   R(31,60)                1.4173         estimate D2E/DX2                !
 ! R56   R(32,33)                1.3929         estimate D2E/DX2                !
 ! R57   R(32,34)                1.4065         estimate D2E/DX2                !
 ! R58   R(33,93)                1.9622         estimate D2E/DX2                !
 ! R59   R(34,35)                1.4814         estimate D2E/DX2                !
 ! R60   R(34,54)                1.4007         estimate D2E/DX2                !
 ! R61   R(35,36)                1.404          estimate D2E/DX2                !
 ! R62   R(35,53)                1.4053         estimate D2E/DX2                !
 ! R63   R(36,37)                1.3958         estimate D2E/DX2                !
 ! R64   R(36,77)                1.0833         estimate D2E/DX2                !
 ! R65   R(37,38)                1.3962         estimate D2E/DX2                !
 ! R66   R(37,78)                1.0828         estimate D2E/DX2                !
 ! R67   R(38,39)                1.4056         estimate D2E/DX2                !
 ! R68   R(38,79)                1.083          estimate D2E/DX2                !
 ! R69   R(39,40)                1.4835         estimate D2E/DX2                !
 ! R70   R(39,53)                1.4074         estimate D2E/DX2                !
 ! R71   R(40,41)                1.4162         estimate D2E/DX2                !
 ! R72   R(40,45)                1.4022         estimate D2E/DX2                !
 ! R73   R(41,42)                1.4123         estimate D2E/DX2                !
 ! R74   R(41,80)                1.0822         estimate D2E/DX2                !
 ! R75   R(42,43)                1.4042         estimate D2E/DX2                !
 ! R76   R(42,81)                1.0822         estimate D2E/DX2                !
 ! R77   R(43,44)                1.3909         estimate D2E/DX2                !
 ! R78   R(43,82)                1.0822         estimate D2E/DX2                !
 ! R79   R(44,45)                1.3807         estimate D2E/DX2                !
 ! R80   R(44,52)                1.3728         estimate D2E/DX2                !
 ! R81   R(45,46)                1.3204         estimate D2E/DX2                !
 ! R82   R(46,47)                1.3175         estimate D2E/DX2                !
 ! R83   R(47,48)                1.3923         estimate D2E/DX2                !
 ! R84   R(47,52)                1.378          estimate D2E/DX2                !
 ! R85   R(48,49)                1.4076         estimate D2E/DX2                !
 ! R86   R(48,83)                1.082          estimate D2E/DX2                !
 ! R87   R(49,50)                1.4137         estimate D2E/DX2                !
 ! R88   R(49,84)                1.0828         estimate D2E/DX2                !
 ! R89   R(50,51)                1.4072         estimate D2E/DX2                !
 ! R90   R(50,85)                1.0817         estimate D2E/DX2                !
 ! R91   R(51,52)                1.393          estimate D2E/DX2                !
 ! R92   R(51,86)                1.0823         estimate D2E/DX2                !
 ! R93   R(53,87)                1.0834         estimate D2E/DX2                !
 ! R94   R(54,55)                1.4002         estimate D2E/DX2                !
 ! R95   R(54,88)                1.0845         estimate D2E/DX2                !
 ! R96   R(55,56)                1.4039         estimate D2E/DX2                !
 ! R97   R(55,60)                1.4184         estimate D2E/DX2                !
 ! R98   R(56,57)                1.3954         estimate D2E/DX2                !
 ! R99   R(56,89)                1.0838         estimate D2E/DX2                !
 ! R100  R(57,58)                1.3948         estimate D2E/DX2                !
 ! R101  R(57,90)                1.0826         estimate D2E/DX2                !
 ! R102  R(58,59)                1.3968         estimate D2E/DX2                !
 ! R103  R(58,91)                1.0825         estimate D2E/DX2                !
 ! R104  R(59,60)                1.4116         estimate D2E/DX2                !
 ! R105  R(59,92)                1.0821         estimate D2E/DX2                !
 ! A1    A(2,1,93)             115.7191         estimate D2E/DX2                !
 ! A2    A(1,2,3)              119.9502         estimate D2E/DX2                !
 ! A3    A(1,2,30)             119.398          estimate D2E/DX2                !
 ! A4    A(3,2,30)             120.6363         estimate D2E/DX2                !
 ! A5    A(2,3,4)              120.9245         estimate D2E/DX2                !
 ! A6    A(2,3,23)             119.4789         estimate D2E/DX2                !
 ! A7    A(4,3,23)             119.593          estimate D2E/DX2                !
 ! A8    A(3,4,5)              120.4771         estimate D2E/DX2                !
 ! A9    A(3,4,22)             120.2838         estimate D2E/DX2                !
 ! A10   A(5,4,22)             119.2341         estimate D2E/DX2                !
 ! A11   A(4,5,6)              120.3363         estimate D2E/DX2                !
 ! A12   A(4,5,61)             120.5275         estimate D2E/DX2                !
 ! A13   A(6,5,61)             119.1331         estimate D2E/DX2                !
 ! A14   A(5,6,7)              120.2358         estimate D2E/DX2                !
 ! A15   A(5,6,62)             119.8727         estimate D2E/DX2                !
 ! A16   A(7,6,62)             119.8914         estimate D2E/DX2                !
 ! A17   A(6,7,8)              120.4289         estimate D2E/DX2                !
 ! A18   A(6,7,63)             118.884          estimate D2E/DX2                !
 ! A19   A(8,7,63)             120.6793         estimate D2E/DX2                !
 ! A20   A(7,8,9)              120.5451         estimate D2E/DX2                !
 ! A21   A(7,8,22)             119.0099         estimate D2E/DX2                !
 ! A22   A(9,8,22)             120.4372         estimate D2E/DX2                !
 ! A23   A(8,9,10)             121.1482         estimate D2E/DX2                !
 ! A24   A(8,9,14)             121.8305         estimate D2E/DX2                !
 ! A25   A(10,9,14)            117.0211         estimate D2E/DX2                !
 ! A26   A(9,10,11)            120.9787         estimate D2E/DX2                !
 ! A27   A(9,10,64)            120.3548         estimate D2E/DX2                !
 ! A28   A(11,10,64)           118.6543         estimate D2E/DX2                !
 ! A29   A(10,11,12)           120.6464         estimate D2E/DX2                !
 ! A30   A(10,11,65)           119.7361         estimate D2E/DX2                !
 ! A31   A(12,11,65)           119.6172         estimate D2E/DX2                !
 ! A32   A(11,12,13)           117.5555         estimate D2E/DX2                !
 ! A33   A(11,12,66)           121.0841         estimate D2E/DX2                !
 ! A34   A(13,12,66)           121.3598         estimate D2E/DX2                !
 ! A35   A(12,13,14)           122.3263         estimate D2E/DX2                !
 ! A36   A(12,13,21)           131.8787         estimate D2E/DX2                !
 ! A37   A(14,13,21)           105.7926         estimate D2E/DX2                !
 ! A38   A(9,14,13)            121.4709         estimate D2E/DX2                !
 ! A39   A(9,14,15)            127.7776         estimate D2E/DX2                !
 ! A40   A(13,14,15)           110.7485         estimate D2E/DX2                !
 ! A41   A(14,15,16)           106.7655         estimate D2E/DX2                !
 ! A42   A(15,16,17)           127.4971         estimate D2E/DX2                !
 ! A43   A(15,16,21)           111.1647         estimate D2E/DX2                !
 ! A44   A(17,16,21)           121.338          estimate D2E/DX2                !
 ! A45   A(16,17,18)           117.898          estimate D2E/DX2                !
 ! A46   A(16,17,67)           120.9862         estimate D2E/DX2                !
 ! A47   A(18,17,67)           121.1159         estimate D2E/DX2                !
 ! A48   A(17,18,19)           120.5797         estimate D2E/DX2                !
 ! A49   A(17,18,68)           119.643          estimate D2E/DX2                !
 ! A50   A(19,18,68)           119.7771         estimate D2E/DX2                !
 ! A51   A(18,19,20)           120.4705         estimate D2E/DX2                !
 ! A52   A(18,19,69)           119.7716         estimate D2E/DX2                !
 ! A53   A(20,19,69)           119.7575         estimate D2E/DX2                !
 ! A54   A(19,20,21)           117.593          estimate D2E/DX2                !
 ! A55   A(19,20,70)           121.0476         estimate D2E/DX2                !
 ! A56   A(21,20,70)           121.3594         estimate D2E/DX2                !
 ! A57   A(13,21,16)           105.5276         estimate D2E/DX2                !
 ! A58   A(13,21,20)           132.3514         estimate D2E/DX2                !
 ! A59   A(16,21,20)           122.1208         estimate D2E/DX2                !
 ! A60   A(4,22,8)             120.7478         estimate D2E/DX2                !
 ! A61   A(4,22,71)            119.4085         estimate D2E/DX2                !
 ! A62   A(8,22,71)            119.8436         estimate D2E/DX2                !
 ! A63   A(3,23,24)            120.7663         estimate D2E/DX2                !
 ! A64   A(3,23,72)            119.4693         estimate D2E/DX2                !
 ! A65   A(24,23,72)           119.7645         estimate D2E/DX2                !
 ! A66   A(23,24,25)           119.9799         estimate D2E/DX2                !
 ! A67   A(23,24,29)           120.0287         estimate D2E/DX2                !
 ! A68   A(25,24,29)           119.9909         estimate D2E/DX2                !
 ! A69   A(24,25,26)           120.2885         estimate D2E/DX2                !
 ! A70   A(24,25,73)           120.711          estimate D2E/DX2                !
 ! A71   A(26,25,73)           119.0001         estimate D2E/DX2                !
 ! A72   A(25,26,27)           120.139          estimate D2E/DX2                !
 ! A73   A(25,26,74)           119.9422         estimate D2E/DX2                !
 ! A74   A(27,26,74)           119.9187         estimate D2E/DX2                !
 ! A75   A(26,27,28)           120.2791         estimate D2E/DX2                !
 ! A76   A(26,27,75)           119.832          estimate D2E/DX2                !
 ! A77   A(28,27,75)           119.8887         estimate D2E/DX2                !
 ! A78   A(27,28,29)           120.5413         estimate D2E/DX2                !
 ! A79   A(27,28,76)           118.0826         estimate D2E/DX2                !
 ! A80   A(29,28,76)           121.3759         estimate D2E/DX2                !
 ! A81   A(24,29,28)           118.7563         estimate D2E/DX2                !
 ! A82   A(24,29,30)           119.3418         estimate D2E/DX2                !
 ! A83   A(28,29,30)           121.8988         estimate D2E/DX2                !
 ! A84   A(2,30,29)            119.7021         estimate D2E/DX2                !
 ! A85   A(2,30,31)            118.457          estimate D2E/DX2                !
 ! A86   A(29,30,31)           121.8158         estimate D2E/DX2                !
 ! A87   A(30,31,32)           118.5107         estimate D2E/DX2                !
 ! A88   A(30,31,60)           121.7904         estimate D2E/DX2                !
 ! A89   A(32,31,60)           119.6843         estimate D2E/DX2                !
 ! A90   A(31,32,33)           119.4123         estimate D2E/DX2                !
 ! A91   A(31,32,34)           120.6412         estimate D2E/DX2                !
 ! A92   A(33,32,34)           119.9358         estimate D2E/DX2                !
 ! A93   A(32,33,93)           100.7769         estimate D2E/DX2                !
 ! A94   A(32,34,35)           120.9496         estimate D2E/DX2                !
 ! A95   A(32,34,54)           119.5303         estimate D2E/DX2                !
 ! A96   A(35,34,54)           119.5196         estimate D2E/DX2                !
 ! A97   A(34,35,36)           120.4008         estimate D2E/DX2                !
 ! A98   A(34,35,53)           120.278          estimate D2E/DX2                !
 ! A99   A(36,35,53)           119.3197         estimate D2E/DX2                !
 ! A100  A(35,36,37)           120.3051         estimate D2E/DX2                !
 ! A101  A(35,36,77)           120.5064         estimate D2E/DX2                !
 ! A102  A(37,36,77)           119.1839         estimate D2E/DX2                !
 ! A103  A(36,37,38)           120.2133         estimate D2E/DX2                !
 ! A104  A(36,37,78)           119.8992         estimate D2E/DX2                !
 ! A105  A(38,37,78)           119.8872         estimate D2E/DX2                !
 ! A106  A(37,38,39)           120.4397         estimate D2E/DX2                !
 ! A107  A(37,38,79)           118.9107         estimate D2E/DX2                !
 ! A108  A(39,38,79)           120.6448         estimate D2E/DX2                !
 ! A109  A(38,39,40)           120.2664         estimate D2E/DX2                !
 ! A110  A(38,39,53)           119.0538         estimate D2E/DX2                !
 ! A111  A(40,39,53)           120.6739         estimate D2E/DX2                !
 ! A112  A(39,40,41)           121.088          estimate D2E/DX2                !
 ! A113  A(39,40,45)           121.8329         estimate D2E/DX2                !
 ! A114  A(41,40,45)           117.079          estimate D2E/DX2                !
 ! A115  A(40,41,42)           120.9416         estimate D2E/DX2                !
 ! A116  A(40,41,80)           120.3366         estimate D2E/DX2                !
 ! A117  A(42,41,80)           118.7172         estimate D2E/DX2                !
 ! A118  A(41,42,43)           120.6358         estimate D2E/DX2                !
 ! A119  A(41,42,81)           119.6897         estimate D2E/DX2                !
 ! A120  A(43,42,81)           119.6738         estimate D2E/DX2                !
 ! A121  A(42,43,44)           117.5712         estimate D2E/DX2                !
 ! A122  A(42,43,82)           121.0332         estimate D2E/DX2                !
 ! A123  A(44,43,82)           121.3944         estimate D2E/DX2                !
 ! A124  A(43,44,45)           122.3599         estimate D2E/DX2                !
 ! A125  A(43,44,52)           131.8766         estimate D2E/DX2                !
 ! A126  A(45,44,52)           105.7593         estimate D2E/DX2                !
 ! A127  A(40,45,44)           121.4113         estimate D2E/DX2                !
 ! A128  A(40,45,46)           127.7924         estimate D2E/DX2                !
 ! A129  A(44,45,46)           110.794          estimate D2E/DX2                !
 ! A130  A(45,46,47)           106.737          estimate D2E/DX2                !
 ! A131  A(46,47,48)           127.4779         estimate D2E/DX2                !
 ! A132  A(46,47,52)           111.1709         estimate D2E/DX2                !
 ! A133  A(48,47,52)           121.351          estimate D2E/DX2                !
 ! A134  A(47,48,49)           117.9069         estimate D2E/DX2                !
 ! A135  A(47,48,83)           120.9582         estimate D2E/DX2                !
 ! A136  A(49,48,83)           121.1348         estimate D2E/DX2                !
 ! A137  A(48,49,50)           120.5359         estimate D2E/DX2                !
 ! A138  A(48,49,84)           119.6877         estimate D2E/DX2                !
 ! A139  A(50,49,84)           119.7753         estimate D2E/DX2                !
 ! A140  A(49,50,51)           120.5419         estimate D2E/DX2                !
 ! A141  A(49,50,85)           119.7467         estimate D2E/DX2                !
 ! A142  A(51,50,85)           119.7113         estimate D2E/DX2                !
 ! A143  A(50,51,52)           117.5001         estimate D2E/DX2                !
 ! A144  A(50,51,86)           121.0469         estimate D2E/DX2                !
 ! A145  A(52,51,86)           121.4524         estimate D2E/DX2                !
 ! A146  A(44,52,47)           105.5382         estimate D2E/DX2                !
 ! A147  A(44,52,51)           132.2975         estimate D2E/DX2                !
 ! A148  A(47,52,51)           122.1639         estimate D2E/DX2                !
 ! A149  A(35,53,39)           120.6674         estimate D2E/DX2                !
 ! A150  A(35,53,87)           119.2688         estimate D2E/DX2                !
 ! A151  A(39,53,87)           120.0268         estimate D2E/DX2                !
 ! A152  A(34,54,55)           120.7158         estimate D2E/DX2                !
 ! A153  A(34,54,88)           119.4625         estimate D2E/DX2                !
 ! A154  A(55,54,88)           119.8183         estimate D2E/DX2                !
 ! A155  A(54,55,56)           119.9178         estimate D2E/DX2                !
 ! A156  A(54,55,60)           120.0758         estimate D2E/DX2                !
 ! A157  A(56,55,60)           120.0064         estimate D2E/DX2                !
 ! A158  A(55,56,57)           120.2887         estimate D2E/DX2                !
 ! A159  A(55,56,89)           120.636          estimate D2E/DX2                !
 ! A160  A(57,56,89)           119.0753         estimate D2E/DX2                !
 ! A161  A(56,57,58)           120.1328         estimate D2E/DX2                !
 ! A162  A(56,57,90)           119.938          estimate D2E/DX2                !
 ! A163  A(58,57,90)           119.9275         estimate D2E/DX2                !
 ! A164  A(57,58,59)           120.2855         estimate D2E/DX2                !
 ! A165  A(57,58,91)           119.8257         estimate D2E/DX2                !
 ! A166  A(59,58,91)           119.8888         estimate D2E/DX2                !
 ! A167  A(58,59,60)           120.5221         estimate D2E/DX2                !
 ! A168  A(58,59,92)           118.0413         estimate D2E/DX2                !
 ! A169  A(60,59,92)           121.4363         estimate D2E/DX2                !
 ! A170  A(31,60,55)           119.3213         estimate D2E/DX2                !
 ! A171  A(31,60,59)           121.9206         estimate D2E/DX2                !
 ! A172  A(55,60,59)           118.7535         estimate D2E/DX2                !
 ! A173  A(1,93,33)            100.0            estimate D2E/DX2                !
 ! D1    D(93,1,2,3)           112.0199         estimate D2E/DX2                !
 ! D2    D(93,1,2,30)          -66.5593         estimate D2E/DX2                !
 ! D3    D(2,1,93,33)           30.1405         estimate D2E/DX2                !
 ! D4    D(1,2,3,4)              2.3471         estimate D2E/DX2                !
 ! D5    D(1,2,3,23)          -176.9664         estimate D2E/DX2                !
 ! D6    D(30,2,3,4)          -179.0915         estimate D2E/DX2                !
 ! D7    D(30,2,3,23)            1.595          estimate D2E/DX2                !
 ! D8    D(1,2,30,29)          175.9347         estimate D2E/DX2                !
 ! D9    D(1,2,30,31)           -2.2762         estimate D2E/DX2                !
 ! D10   D(3,2,30,29)           -2.6345         estimate D2E/DX2                !
 ! D11   D(3,2,30,31)          179.1545         estimate D2E/DX2                !
 ! D12   D(2,3,4,5)             51.5812         estimate D2E/DX2                !
 ! D13   D(2,3,4,22)          -129.235          estimate D2E/DX2                !
 ! D14   D(23,3,4,5)          -129.1061         estimate D2E/DX2                !
 ! D15   D(23,3,4,22)           50.0777         estimate D2E/DX2                !
 ! D16   D(2,3,23,24)            0.0098         estimate D2E/DX2                !
 ! D17   D(2,3,23,72)          179.967          estimate D2E/DX2                !
 ! D18   D(4,3,23,24)         -179.313          estimate D2E/DX2                !
 ! D19   D(4,3,23,72)            0.6442         estimate D2E/DX2                !
 ! D20   D(3,4,5,6)            179.9774         estimate D2E/DX2                !
 ! D21   D(3,4,5,61)             0.6281         estimate D2E/DX2                !
 ! D22   D(22,4,5,6)             0.7851         estimate D2E/DX2                !
 ! D23   D(22,4,5,61)         -178.5642         estimate D2E/DX2                !
 ! D24   D(3,4,22,8)          -179.8504         estimate D2E/DX2                !
 ! D25   D(3,4,22,71)            0.0357         estimate D2E/DX2                !
 ! D26   D(5,4,22,8)            -0.6565         estimate D2E/DX2                !
 ! D27   D(5,4,22,71)          179.2296         estimate D2E/DX2                !
 ! D28   D(4,5,6,7)             -0.1755         estimate D2E/DX2                !
 ! D29   D(4,5,6,62)           179.7115         estimate D2E/DX2                !
 ! D30   D(61,5,6,7)           179.1828         estimate D2E/DX2                !
 ! D31   D(61,5,6,62)           -0.9302         estimate D2E/DX2                !
 ! D32   D(5,6,7,8)             -0.5765         estimate D2E/DX2                !
 ! D33   D(5,6,7,63)           178.4178         estimate D2E/DX2                !
 ! D34   D(62,6,7,8)           179.5365         estimate D2E/DX2                !
 ! D35   D(62,6,7,63)           -1.4692         estimate D2E/DX2                !
 ! D36   D(6,7,8,9)            179.6869         estimate D2E/DX2                !
 ! D37   D(6,7,8,22)             0.6987         estimate D2E/DX2                !
 ! D38   D(63,7,8,9)             0.7108         estimate D2E/DX2                !
 ! D39   D(63,7,8,22)         -178.2775         estimate D2E/DX2                !
 ! D40   D(7,8,9,10)          -137.7537         estimate D2E/DX2                !
 ! D41   D(7,8,9,14)            42.0378         estimate D2E/DX2                !
 ! D42   D(22,8,9,10)           41.2201         estimate D2E/DX2                !
 ! D43   D(22,8,9,14)         -138.9885         estimate D2E/DX2                !
 ! D44   D(7,8,22,4)            -0.079          estimate D2E/DX2                !
 ! D45   D(7,8,22,71)         -179.9647         estimate D2E/DX2                !
 ! D46   D(9,8,22,4)          -179.0684         estimate D2E/DX2                !
 ! D47   D(9,8,22,71)            1.046          estimate D2E/DX2                !
 ! D48   D(8,9,10,11)          179.554          estimate D2E/DX2                !
 ! D49   D(8,9,10,64)            0.8436         estimate D2E/DX2                !
 ! D50   D(14,9,10,11)          -0.2471         estimate D2E/DX2                !
 ! D51   D(14,9,10,64)        -178.9575         estimate D2E/DX2                !
 ! D52   D(8,9,14,13)         -179.4166         estimate D2E/DX2                !
 ! D53   D(8,9,14,15)            1.2857         estimate D2E/DX2                !
 ! D54   D(10,9,14,13)           0.383          estimate D2E/DX2                !
 ! D55   D(10,9,14,15)        -178.9147         estimate D2E/DX2                !
 ! D56   D(9,10,11,12)          -0.0659         estimate D2E/DX2                !
 ! D57   D(9,10,11,65)        -179.855          estimate D2E/DX2                !
 ! D58   D(64,10,11,12)        178.6659         estimate D2E/DX2                !
 ! D59   D(64,10,11,65)         -1.1231         estimate D2E/DX2                !
 ! D60   D(10,11,12,13)          0.2484         estimate D2E/DX2                !
 ! D61   D(10,11,12,66)        179.9665         estimate D2E/DX2                !
 ! D62   D(65,11,12,13)       -179.9623         estimate D2E/DX2                !
 ! D63   D(65,11,12,66)         -0.2442         estimate D2E/DX2                !
 ! D64   D(11,12,13,14)         -0.1163         estimate D2E/DX2                !
 ! D65   D(11,12,13,21)        179.2332         estimate D2E/DX2                !
 ! D66   D(66,12,13,14)       -179.8336         estimate D2E/DX2                !
 ! D67   D(66,12,13,21)         -0.4841         estimate D2E/DX2                !
 ! D68   D(12,13,14,9)          -0.2082         estimate D2E/DX2                !
 ! D69   D(12,13,14,15)        179.1982         estimate D2E/DX2                !
 ! D70   D(21,13,14,9)        -179.7049         estimate D2E/DX2                !
 ! D71   D(21,13,14,15)         -0.2985         estimate D2E/DX2                !
 ! D72   D(12,13,21,16)       -179.308          estimate D2E/DX2                !
 ! D73   D(12,13,21,20)          0.8701         estimate D2E/DX2                !
 ! D74   D(14,13,21,16)          0.1208         estimate D2E/DX2                !
 ! D75   D(14,13,21,20)       -179.7011         estimate D2E/DX2                !
 ! D76   D(9,14,15,16)         179.7143         estimate D2E/DX2                !
 ! D77   D(13,14,15,16)          0.3548         estimate D2E/DX2                !
 ! D78   D(14,15,16,17)        179.5648         estimate D2E/DX2                !
 ! D79   D(14,15,16,21)         -0.2754         estimate D2E/DX2                !
 ! D80   D(15,16,17,18)       -179.9661         estimate D2E/DX2                !
 ! D81   D(15,16,17,67)          0.0462         estimate D2E/DX2                !
 ! D82   D(21,16,17,18)         -0.1405         estimate D2E/DX2                !
 ! D83   D(21,16,17,67)        179.8718         estimate D2E/DX2                !
 ! D84   D(15,16,21,13)          0.0919         estimate D2E/DX2                !
 ! D85   D(15,16,21,20)        179.9365         estimate D2E/DX2                !
 ! D86   D(17,16,21,13)       -179.7597         estimate D2E/DX2                !
 ! D87   D(17,16,21,20)          0.0849         estimate D2E/DX2                !
 ! D88   D(16,17,18,19)          0.133          estimate D2E/DX2                !
 ! D89   D(16,17,18,68)        179.952          estimate D2E/DX2                !
 ! D90   D(67,17,18,19)       -179.8793         estimate D2E/DX2                !
 ! D91   D(67,17,18,68)         -0.0603         estimate D2E/DX2                !
 ! D92   D(17,18,19,20)         -0.0703         estimate D2E/DX2                !
 ! D93   D(17,18,19,69)        179.7259         estimate D2E/DX2                !
 ! D94   D(68,18,19,20)       -179.8891         estimate D2E/DX2                !
 ! D95   D(68,18,19,69)         -0.0928         estimate D2E/DX2                !
 ! D96   D(18,19,20,21)          0.0102         estimate D2E/DX2                !
 ! D97   D(18,19,20,70)        179.9399         estimate D2E/DX2                !
 ! D98   D(69,19,20,21)       -179.7861         estimate D2E/DX2                !
 ! D99   D(69,19,20,70)          0.1436         estimate D2E/DX2                !
 ! D100  D(19,20,21,13)        179.7805         estimate D2E/DX2                !
 ! D101  D(19,20,21,16)         -0.0169         estimate D2E/DX2                !
 ! D102  D(70,20,21,13)         -0.149          estimate D2E/DX2                !
 ! D103  D(70,20,21,16)       -179.9463         estimate D2E/DX2                !
 ! D104  D(3,23,24,25)         179.1717         estimate D2E/DX2                !
 ! D105  D(3,23,24,29)          -0.551          estimate D2E/DX2                !
 ! D106  D(72,23,24,25)         -0.7854         estimate D2E/DX2                !
 ! D107  D(72,23,24,29)        179.4919         estimate D2E/DX2                !
 ! D108  D(23,24,25,26)       -179.2404         estimate D2E/DX2                !
 ! D109  D(23,24,25,73)          0.5426         estimate D2E/DX2                !
 ! D110  D(29,24,25,26)          0.4825         estimate D2E/DX2                !
 ! D111  D(29,24,25,73)       -179.7345         estimate D2E/DX2                !
 ! D112  D(23,24,29,28)        178.8844         estimate D2E/DX2                !
 ! D113  D(23,24,29,30)         -0.4904         estimate D2E/DX2                !
 ! D114  D(25,24,29,28)         -0.8383         estimate D2E/DX2                !
 ! D115  D(25,24,29,30)        179.7868         estimate D2E/DX2                !
 ! D116  D(24,25,26,27)         -0.0291         estimate D2E/DX2                !
 ! D117  D(24,25,26,74)       -179.892          estimate D2E/DX2                !
 ! D118  D(73,25,26,27)       -179.8158         estimate D2E/DX2                !
 ! D119  D(73,25,26,74)          0.3213         estimate D2E/DX2                !
 ! D120  D(25,26,27,28)         -0.0557         estimate D2E/DX2                !
 ! D121  D(25,26,27,75)        179.751          estimate D2E/DX2                !
 ! D122  D(74,26,27,28)        179.8072         estimate D2E/DX2                !
 ! D123  D(74,26,27,75)         -0.3861         estimate D2E/DX2                !
 ! D124  D(26,27,28,29)         -0.3173         estimate D2E/DX2                !
 ! D125  D(26,27,28,76)        179.5152         estimate D2E/DX2                !
 ! D126  D(75,27,28,29)        179.8761         estimate D2E/DX2                !
 ! D127  D(75,27,28,76)         -0.2913         estimate D2E/DX2                !
 ! D128  D(27,28,29,24)          0.7586         estimate D2E/DX2                !
 ! D129  D(27,28,29,30)       -179.8832         estimate D2E/DX2                !
 ! D130  D(76,28,29,24)       -179.0683         estimate D2E/DX2                !
 ! D131  D(76,28,29,30)          0.2898         estimate D2E/DX2                !
 ! D132  D(24,29,30,2)           2.064          estimate D2E/DX2                !
 ! D133  D(24,29,30,31)       -179.7869         estimate D2E/DX2                !
 ! D134  D(28,29,30,2)        -177.2904         estimate D2E/DX2                !
 ! D135  D(28,29,30,31)          0.8586         estimate D2E/DX2                !
 ! D136  D(2,30,31,32)          69.6671         estimate D2E/DX2                !
 ! D137  D(2,30,31,60)        -108.9406         estimate D2E/DX2                !
 ! D138  D(29,30,31,32)       -108.5042         estimate D2E/DX2                !
 ! D139  D(29,30,31,60)         72.8881         estimate D2E/DX2                !
 ! D140  D(30,31,32,33)         -2.015          estimate D2E/DX2                !
 ! D141  D(30,31,32,34)        179.1727         estimate D2E/DX2                !
 ! D142  D(60,31,32,33)        176.6228         estimate D2E/DX2                !
 ! D143  D(60,31,32,34)         -2.1895         estimate D2E/DX2                !
 ! D144  D(30,31,60,55)       -179.788          estimate D2E/DX2                !
 ! D145  D(30,31,60,59)          0.9961         estimate D2E/DX2                !
 ! D146  D(32,31,60,55)          1.6203         estimate D2E/DX2                !
 ! D147  D(32,31,60,59)       -177.5957         estimate D2E/DX2                !
 ! D148  D(31,32,33,93)        -82.1102         estimate D2E/DX2                !
 ! D149  D(34,32,33,93)         96.7106         estimate D2E/DX2                !
 ! D150  D(31,32,34,35)       -178.6446         estimate D2E/DX2                !
 ! D151  D(31,32,34,54)          1.613          estimate D2E/DX2                !
 ! D152  D(33,32,34,35)          2.5492         estimate D2E/DX2                !
 ! D153  D(33,32,34,54)       -177.1932         estimate D2E/DX2                !
 ! D154  D(32,33,93,1)          60.1901         estimate D2E/DX2                !
 ! D155  D(32,34,35,36)         53.2454         estimate D2E/DX2                !
 ! D156  D(32,34,35,53)       -127.2051         estimate D2E/DX2                !
 ! D157  D(54,34,35,36)       -127.0122         estimate D2E/DX2                !
 ! D158  D(54,34,35,53)         52.5373         estimate D2E/DX2                !
 ! D159  D(32,34,54,55)         -0.475          estimate D2E/DX2                !
 ! D160  D(32,34,54,88)       -179.806          estimate D2E/DX2                !
 ! D161  D(35,34,54,55)        179.7789         estimate D2E/DX2                !
 ! D162  D(35,34,54,88)          0.4479         estimate D2E/DX2                !
 ! D163  D(34,35,36,37)        179.7537         estimate D2E/DX2                !
 ! D164  D(34,35,36,77)          0.5376         estimate D2E/DX2                !
 ! D165  D(53,35,36,37)          0.1999         estimate D2E/DX2                !
 ! D166  D(53,35,36,77)       -179.0162         estimate D2E/DX2                !
 ! D167  D(34,35,53,39)       -179.9176         estimate D2E/DX2                !
 ! D168  D(34,35,53,87)          2.2939         estimate D2E/DX2                !
 ! D169  D(36,35,53,39)         -0.3632         estimate D2E/DX2                !
 ! D170  D(36,35,53,87)       -178.1517         estimate D2E/DX2                !
 ! D171  D(35,36,37,38)          0.0736         estimate D2E/DX2                !
 ! D172  D(35,36,37,78)       -179.7306         estimate D2E/DX2                !
 ! D173  D(77,36,37,38)        179.3            estimate D2E/DX2                !
 ! D174  D(77,36,37,78)         -0.5042         estimate D2E/DX2                !
 ! D175  D(36,37,38,39)         -0.1878         estimate D2E/DX2                !
 ! D176  D(36,37,38,79)       -179.3923         estimate D2E/DX2                !
 ! D177  D(78,37,38,39)        179.6164         estimate D2E/DX2                !
 ! D178  D(78,37,38,79)          0.4119         estimate D2E/DX2                !
 ! D179  D(37,38,39,40)        179.1442         estimate D2E/DX2                !
 ! D180  D(37,38,39,53)          0.0261         estimate D2E/DX2                !
 ! D181  D(79,38,39,40)         -1.6652         estimate D2E/DX2                !
 ! D182  D(79,38,39,53)        179.2167         estimate D2E/DX2                !
 ! D183  D(38,39,40,41)        -41.277          estimate D2E/DX2                !
 ! D184  D(38,39,40,45)        138.8711         estimate D2E/DX2                !
 ! D185  D(53,39,40,41)        137.8266         estimate D2E/DX2                !
 ! D186  D(53,39,40,45)        -42.0253         estimate D2E/DX2                !
 ! D187  D(38,39,53,35)          0.2508         estimate D2E/DX2                !
 ! D188  D(38,39,53,87)        178.0225         estimate D2E/DX2                !
 ! D189  D(40,39,53,35)       -178.8636         estimate D2E/DX2                !
 ! D190  D(40,39,53,87)         -1.0918         estimate D2E/DX2                !
 ! D191  D(39,40,41,42)       -179.9031         estimate D2E/DX2                !
 ! D192  D(39,40,41,80)         -0.6929         estimate D2E/DX2                !
 ! D193  D(45,40,41,42)         -0.0444         estimate D2E/DX2                !
 ! D194  D(45,40,41,80)        179.1658         estimate D2E/DX2                !
 ! D195  D(39,40,45,44)        179.5833         estimate D2E/DX2                !
 ! D196  D(39,40,45,46)         -1.0249         estimate D2E/DX2                !
 ! D197  D(41,40,45,44)         -0.2742         estimate D2E/DX2                !
 ! D198  D(41,40,45,46)        179.1175         estimate D2E/DX2                !
 ! D199  D(40,41,42,43)          0.2969         estimate D2E/DX2                !
 ! D200  D(40,41,42,81)        179.9815         estimate D2E/DX2                !
 ! D201  D(80,41,42,43)       -178.9259         estimate D2E/DX2                !
 ! D202  D(80,41,42,81)          0.7588         estimate D2E/DX2                !
 ! D203  D(41,42,43,44)         -0.2261         estimate D2E/DX2                !
 ! D204  D(41,42,43,82)       -179.8545         estimate D2E/DX2                !
 ! D205  D(81,42,43,44)       -179.9108         estimate D2E/DX2                !
 ! D206  D(81,42,43,82)          0.4608         estimate D2E/DX2                !
 ! D207  D(42,43,44,45)         -0.0937         estimate D2E/DX2                !
 ! D208  D(42,43,44,52)       -179.2286         estimate D2E/DX2                !
 ! D209  D(82,43,44,45)        179.5332         estimate D2E/DX2                !
 ! D210  D(82,43,44,52)          0.3984         estimate D2E/DX2                !
 ! D211  D(43,44,45,40)          0.3535         estimate D2E/DX2                !
 ! D212  D(43,44,45,46)       -179.1324         estimate D2E/DX2                !
 ! D213  D(52,44,45,40)        179.6841         estimate D2E/DX2                !
 ! D214  D(52,44,45,46)          0.1983         estimate D2E/DX2                !
 ! D215  D(43,44,52,47)        179.178          estimate D2E/DX2                !
 ! D216  D(43,44,52,51)         -0.6327         estimate D2E/DX2                !
 ! D217  D(45,44,52,47)         -0.0627         estimate D2E/DX2                !
 ! D218  D(45,44,52,51)       -179.8734         estimate D2E/DX2                !
 ! D219  D(40,45,46,47)       -179.6989         estimate D2E/DX2                !
 ! D220  D(44,45,46,47)         -0.2542         estimate D2E/DX2                !
 ! D221  D(45,46,47,48)       -179.9673         estimate D2E/DX2                !
 ! D222  D(45,46,47,52)          0.2132         estimate D2E/DX2                !
 ! D223  D(46,47,48,49)       -179.7986         estimate D2E/DX2                !
 ! D224  D(46,47,48,83)          0.0775         estimate D2E/DX2                !
 ! D225  D(52,47,48,49)          0.0043         estimate D2E/DX2                !
 ! D226  D(52,47,48,83)        179.8805         estimate D2E/DX2                !
 ! D227  D(46,47,52,44)         -0.0913         estimate D2E/DX2                !
 ! D228  D(46,47,52,51)        179.7433         estimate D2E/DX2                !
 ! D229  D(48,47,52,44)       -179.9237         estimate D2E/DX2                !
 ! D230  D(48,47,52,51)         -0.089          estimate D2E/DX2                !
 ! D231  D(47,48,49,50)          0.143          estimate D2E/DX2                !
 ! D232  D(47,48,49,84)        179.7678         estimate D2E/DX2                !
 ! D233  D(83,48,49,50)       -179.733          estimate D2E/DX2                !
 ! D234  D(83,48,49,84)         -0.1082         estimate D2E/DX2                !
 ! D235  D(48,49,50,51)         -0.211          estimate D2E/DX2                !
 ! D236  D(48,49,50,85)        179.8431         estimate D2E/DX2                !
 ! D237  D(84,49,50,51)       -179.8355         estimate D2E/DX2                !
 ! D238  D(84,49,50,85)          0.2187         estimate D2E/DX2                !
 ! D239  D(49,50,51,52)          0.1253         estimate D2E/DX2                !
 ! D240  D(49,50,51,86)        179.8468         estimate D2E/DX2                !
 ! D241  D(85,50,51,52)       -179.9289         estimate D2E/DX2                !
 ! D242  D(85,50,51,86)         -0.2073         estimate D2E/DX2                !
 ! D243  D(50,51,52,44)        179.8073         estimate D2E/DX2                !
 ! D244  D(50,51,52,47)          0.0227         estimate D2E/DX2                !
 ! D245  D(86,51,52,44)          0.087          estimate D2E/DX2                !
 ! D246  D(86,51,52,47)       -179.6976         estimate D2E/DX2                !
 ! D247  D(34,54,55,56)        179.8341         estimate D2E/DX2                !
 ! D248  D(34,54,55,60)         -0.0685         estimate D2E/DX2                !
 ! D249  D(88,54,55,56)         -0.8372         estimate D2E/DX2                !
 ! D250  D(88,54,55,60)        179.2602         estimate D2E/DX2                !
 ! D251  D(54,55,56,57)       -179.4341         estimate D2E/DX2                !
 ! D252  D(54,55,56,89)          0.4609         estimate D2E/DX2                !
 ! D253  D(60,55,56,57)          0.4686         estimate D2E/DX2                !
 ! D254  D(60,55,56,89)       -179.6364         estimate D2E/DX2                !
 ! D255  D(54,55,60,31)         -0.5051         estimate D2E/DX2                !
 ! D256  D(54,55,60,59)        178.7358         estimate D2E/DX2                !
 ! D257  D(56,55,60,31)        179.5924         estimate D2E/DX2                !
 ! D258  D(56,55,60,59)         -1.1667         estimate D2E/DX2                !
 ! D259  D(55,56,57,58)          0.3651         estimate D2E/DX2                !
 ! D260  D(55,56,57,90)        179.8801         estimate D2E/DX2                !
 ! D261  D(89,56,57,58)       -179.5316         estimate D2E/DX2                !
 ! D262  D(89,56,57,90)         -0.0166         estimate D2E/DX2                !
 ! D263  D(56,57,58,59)         -0.4818         estimate D2E/DX2                !
 ! D264  D(56,57,58,91)        179.5407         estimate D2E/DX2                !
 ! D265  D(90,57,58,59)       -179.9969         estimate D2E/DX2                !
 ! D266  D(90,57,58,91)          0.0257         estimate D2E/DX2                !
 ! D267  D(57,58,59,60)         -0.2409         estimate D2E/DX2                !
 ! D268  D(57,58,59,92)        179.5655         estimate D2E/DX2                !
 ! D269  D(91,58,59,60)        179.7365         estimate D2E/DX2                !
 ! D270  D(91,58,59,92)         -0.4571         estimate D2E/DX2                !
 ! D271  D(58,59,60,31)       -179.7231         estimate D2E/DX2                !
 ! D272  D(58,59,60,55)          1.0567         estimate D2E/DX2                !
 ! D273  D(92,59,60,31)          0.4772         estimate D2E/DX2                !
 ! D274  D(92,59,60,55)       -178.743          estimate D2E/DX2                !
 --------------------------------------------------------------------------------
 Trust Radius=3.00D-01 FncErr=1.00D-07 GrdErr=1.00D-06 EigMax=2.50D+02 EigMin=1.00D-04
 Number of steps in this run=    558 maximum allowed number of steps=    558.
 GradGradGradGradGradGradGradGradGradGradGradGradGradGradGradGradGradGrad

 Leave Link  103 at Fri Feb  7 22:32:00 2025, MaxMem= 13421772800 cpu:               0.8 elap:               0.0
 (Enter /public/software/apps/Gaussian/g16/l202.exe)
 Symmetry turned off by external request.
 Stoichiometry    C56H32CuO4(2)
 Framework group  C1[X(C56H32CuO4)]
 Deg. of freedom   273
 Full point group                 C1      NOp   1
                          Input orientation:                          
 ---------------------------------------------------------------------
 Center     Atomic      Atomic             Coordinates (Angstroms)
 Number     Number       Type             X           Y           Z
 ---------------------------------------------------------------------
      1          8           0       -0.627370    0.849379   -0.188518
      2          6           0       -1.310621    0.272099   -1.256078
      3          6           0       -2.699828    0.065593   -1.171718
      4          6           0       -3.463910    0.501511    0.021909
      5          6           0       -3.347602    1.816253    0.500865
      6          6           0       -4.068496    2.223546    1.624310
      7          6           0       -4.914856    1.327110    2.279584
      8          6           0       -5.059282    0.010229    1.808717
      9          6           0       -5.953006   -0.946924    2.507382
     10          6           0       -5.561024   -2.289448    2.724897
     11          6           0       -6.410741   -3.195062    3.398613
     12          6           0       -7.667332   -2.781806    3.870551
     13          6           0       -8.036903   -1.460070    3.644106
     14          6           0       -7.216261   -0.566476    2.984546
     15          8           0       -7.797729    0.614061    2.881406
     16          6           0       -8.974281    0.510575    3.465546
     17          6           0       -9.938921    1.504470    3.610943
     18          6           0      -11.133707    1.170401    4.275777
     19          6           0      -11.336129   -0.135266    4.778524
     20          6           0      -10.346323   -1.121664    4.620552
     21          6           0       -9.175488   -0.760626    3.957117
     22          6           0       -4.327125   -0.394018    0.677043
     23          6           0       -3.367201   -0.573972   -2.225071
     24          6           0       -2.667419   -1.008652   -3.357622
     25          6           0       -3.349963   -1.663342   -4.395901
     26          6           0       -2.656498   -2.113179   -5.520082
     27          6           0       -1.279666   -1.914389   -5.619485
     28          6           0       -0.586349   -1.263460   -4.596342
     29          6           0       -1.268798   -0.793221   -3.453843
     30          6           0       -0.594461   -0.126910   -2.399874
     31          6           0        0.870084    0.132160   -2.445597
     32          6           0        1.709920   -0.606305   -1.591150
     33          8           0        1.148591   -1.521215   -0.703426
     34          6           0        3.102513   -0.410070   -1.609629
     35          6           0        3.995530   -1.204604   -0.734566
     36          6           0        3.934456   -2.607269   -0.743028
     37          6           0        4.780373   -3.354062    0.078533
     38          6           0        5.693296   -2.711070    0.916711
     39          6           0        5.773174   -1.307950    0.939545
     40          6           0        6.731327   -0.628236    1.845401
     41          6           0        6.929438   -1.080503    3.172778
     42          6           0        7.840976   -0.429790    4.033231
     43          6           0        8.568626    0.687217    3.592138
     44          6           0        8.359342    1.117066    2.285950
     45          6           0        7.476125    0.485873    1.432798
     46          8           0        7.470421    1.069428    0.248353
     47          6           0        8.325941    2.069250    0.313858
     48          6           0        8.654833    2.970290   -0.695344
     49          6           0        9.606178    3.966257   -0.404980
     50          6           0       10.204227    4.037241    0.874001
     51          6           0        9.854900    3.116122    1.878892
     52          6           0        8.909327    2.144226    1.560040
     53          6           0        4.919643   -0.561104    0.106121
     54          6           0        3.652550    0.554160   -2.463776
     55          6           0        2.832261    1.316030   -3.304745
     56          6           0        3.401078    2.280470   -4.151700
     57          6           0        2.589772    3.052233   -4.984370
     58          6           0        1.206295    2.874777   -4.974315
     59          6           0        0.624901    1.917791   -4.139311
     60          6           0        1.428040    1.115720   -3.300067
     61          1           0       -2.706640    2.529975   -0.001483
     62          1           0       -3.969611    3.237362    1.989821
     63          1           0       -5.443739    1.658565    3.164018
     64          1           0       -4.591023   -2.636217    2.394240
     65          1           0       -6.089781   -4.216431    3.556061
     66          1           0       -8.324320   -3.469919    4.387218
     67          1           0       -9.774130    2.501207    3.224574
     68          1           0      -11.902099    1.921184    4.405170
     69          1           0      -12.258308   -0.376739    5.291713
     70          1           0      -10.490998   -2.123419    5.002392
     71          1           0       -4.428586   -1.405718    0.302246
     72          1           0       -4.438019   -0.733563   -2.159638
     73          1           0       -4.419334   -1.830306   -4.336464
     74          1           0       -3.188423   -2.615519   -6.317778
     75          1           0       -0.746124   -2.268897   -6.491769
     76          1           0        0.482440   -1.135355   -4.706651
     77          1           0        3.240451   -3.123556   -1.395169
     78          1           0        4.730721   -4.435575    0.063540
     79          1           0        6.346409   -3.311347    1.537996
     80          1           0        6.372046   -1.927717    3.550481
     81          1           0        7.976288   -0.792332    5.043835
     82          1           0        9.270431    1.189275    4.245224
     83          1           0        8.194239    2.904378   -1.672167
     84          1           0        9.886152    4.679748   -1.169852
     85          1           0       10.935759    4.806343    1.082494
     86          1           0       10.309405    3.161413    2.860055
     87          1           0        4.945427    0.521589    0.134426
     88          1           0        4.726787    0.702363   -2.479440
     89          1           0        4.473248    2.437919   -4.167810
     90          1           0        3.034263    3.795710   -5.633826
     91          1           0        0.580978    3.481373   -5.616897
     92          1           0       -0.452197    1.815647   -4.155407
     93         29           0        0.618286   -0.330992    0.763609
 ---------------------------------------------------------------------
 Rotational constants (GHZ):           0.0611459           0.0157752           0.0140837
 Leave Link  202 at Fri Feb  7 22:32:00 2025, MaxMem= 13421772800 cpu:               0.3 elap:               0.0
 (Enter /public/software/apps/Gaussian/g16/l301.exe)
 Standard basis: def2SVPP (5D, 7F)
 Ernie: Thresh=  0.10000D-02 Tol=  0.10000D-05 Strict=F.
   928 basis functions,  1699 primitive gaussians,   990 cartesian basis functions
   215 alpha electrons      214 beta electrons
       nuclear repulsion energy      8191.0726250858 Hartrees.
 IExCor=  402 DFT=T Ex+Corr=B3LYP ExCW=0 ScaHFX=  0.200000
 ScaDFX=  0.800000  0.720000  1.000000  0.810000 ScalE2=  1.000000  1.000000
 IRadAn=      5 IRanWt=     -1 IRanGd=            0 ICorTp=0 IEmpDi=141
 NAtoms=   93 NActive=   93 NUniq=   93 SFac= 1.00D+00 NAtFMM=   60 NAOKFM=T Big=T
 Integral buffers will be    131072 words long.
 Raffenetti 2 integral format.
 Two-electron integral symmetry is turned off.
 R6Disp:  Grimme-D3(BJ) Dispersion energy=       -0.2594151293 Hartrees.
 Nuclear repulsion after empirical dispersion term =     8190.8132099565 Hartrees.
 Leave Link  301 at Fri Feb  7 22:32:00 2025, MaxMem= 13421772800 cpu:               1.7 elap:               0.1
 (Enter /public/software/apps/Gaussian/g16/l302.exe)
 NPDir=0 NMtPBC=     1 NCelOv=     1 NCel=       1 NClECP=     1 NCelD=      1
         NCelK=      1 NCelE2=     1 NClLst=     1 CellRange=     0.0.
 One-electron integrals computed using PRISM.
   1 Symmetry operations used in ECPInt.
 ECPInt:  NShTT=   94395 NPrTT=  385042 LenC2=   58015 LenP2D=  139794.
 LDataN:  DoStor=T MaxTD1= 4 Len=   56
 NBasis=   928 RedAO= T EigKep=  1.65D-04  NBF=   928
 NBsUse=   928 1.00D-06 EigRej= -1.00D+00 NBFU=   928
 Precomputing XC quadrature grid using
 IXCGrd= 4 IRadAn=           5 IRanWt=          -1 IRanGd=           0 AccXCQ= 0.00D+00.
 Generated NRdTot=       0 NPtTot=           0 NUsed=           0 NTot=          32
 NSgBfM=   876   875   876   876   876 MxSgAt=    93 MxSgA2=    93.
 Leave Link  302 at Fri Feb  7 22:32:02 2025, MaxMem= 13421772800 cpu:              48.9 elap:               1.5
 (Enter /public/software/apps/Gaussian/g16/l303.exe)
 DipDrv:  MaxL=1.
 Leave Link  303 at Fri Feb  7 22:32:02 2025, MaxMem= 13421772800 cpu:               4.4 elap:               0.2
 (Enter /public/software/apps/Gaussian/g16/l401.exe)
 ExpMin= 3.30D-02 ExpMax= 7.64D+04 ExpMxC= 1.15D+04 IAcc=3 IRadAn=         5 AccDes= 0.00D+00
 Harris functional with IExCor=  402 and IRadAn=       5 diagonalized for initial guess.
 HarFok:  IExCor=  402 AccDes= 0.00D+00 IRadAn=         5 IDoV= 1 UseB2=F ITyADJ=14
 ICtDFT=  3500011 ScaDFX=  1.000000  1.000000  1.000000  1.000000
 FoFCou: FMM=F IPFlag=           0 FMFlag=      100000 FMFlg1=        2001
         NFxFlg=           0 DoJE=T BraDBF=F KetDBF=T FulRan=T
         wScrn=  0.000000 ICntrl=       500 IOpCl=  0 I1Cent=   200000004 NGrid=           0
         NMat0=    1 NMatS0=      1 NMatT0=    0 NMatD0=    1 NMtDS0=    0 NMtDT0=    0
 Symmetry not used in FoFCou.
 Harris En= -4093.13888939142    
 JPrj=0 DoOrth=F DoCkMO=F.
 Initial guess <Sx>= 0.0000 <Sy>= 0.0000 <Sz>= 0.5000 <S**2>= 0.7500 S= 0.5000
 Leave Link  401 at Fri Feb  7 22:32:05 2025, MaxMem= 13421772800 cpu:              95.8 elap:               3.0
 (Enter /public/software/apps/Gaussian/g16/l502.exe)
 Two-electron integral symmetry not used.
 UHF open shell SCF:
 Using DIIS extrapolation, IDIIS=  1040.
 NGot= 13421772800 LenX= 13419770968 LenY= 13418789878
 Requested convergence on RMS density matrix=1.00D-08 within 128 cycles.
 Requested convergence on MAX density matrix=1.00D-06.
 Requested convergence on             energy=1.00D-06.
 No special actions if energy rises.
 Fock matrices will be formed incrementally for  20 cycles.

 Cycle   1  Pass 1  IDiag  1:
 FoFJK:  IHMeth= 1 ICntrl=       0 DoSepK=F KAlg= 0 I1Cent=           0 FoldK=F
 IRaf= 670000000 NMat=       1 IRICut=       1 DoRegI=T DoRafI=F ISym2E= 0 IDoP0=0 IntGTp=1.
 FoFCou: FMM=T IPFlag=           0 FMFlag=      100000 FMFlg1=        2001
         NFxFlg=           0 DoJE=F BraDBF=F KetDBF=F FulRan=T
         wScrn=  0.000000 ICntrl=         0 IOpCl=  1 I1Cent=           0 NGrid=           0
         NMat0=    1 NMatS0=      1 NMatT0=    0 NMatD0=    1 NMtDS0=    0 NMtDT0=    0
 Symmetry not used in FoFCou.
 FMM levels:  10  Number of levels for PrismC:   9
 E= -4056.70185335994    
 DIIS: error= 2.80D-01 at cycle   1 NSaved=   1.
 NSaved= 1 IEnMin= 1 EnMin= -4056.70185335994     IErMin= 1 ErrMin= 2.80D-01
 ErrMax= 2.80D-01  0.00D+00 EMaxC= 1.00D-01 BMatC= 7.38D+01 BMatP= 7.38D+01
 IDIUse=3 WtCom= 0.00D+00 WtEn= 1.00D+00
 Coeff-Com:  0.100D+01
 Coeff-En:   0.100D+01
 Coeff:      0.100D+01
 Gap=    -0.926 Goal=   None    Shift=    0.000
 Gap=    -4.791 Goal=   None    Shift=    0.000
 GapD=   -4.791 DampG=0.250 DampE=0.125 DampFc=0.1250 IDamp=-1.
 Damping current iteration by 1.25D-01
 RMSDP=3.12D-01 MaxDP=9.98D+01              OVMax= 9.96D-01

 Cycle   2  Pass 1  IDiag  1:
 RMSU=  3.87D-02    CP:  1.32D+00
 E= -4068.15202571119     Delta-E=      -11.450172351251 Rises=F Damp=T
 DIIS: error= 1.77D-01 at cycle   2 NSaved=   2.
 NSaved= 2 IEnMin= 2 EnMin= -4068.15202571119     IErMin= 2 ErrMin= 1.77D-01
 ErrMax= 1.77D-01  0.00D+00 EMaxC= 1.00D-01 BMatC= 3.22D+01 BMatP= 7.38D+01
 IDIUse=3 WtCom= 0.00D+00 WtEn= 1.00D+00
 Coeff-Com: -0.970D+00 0.197D+01
 Coeff-En:   0.000D+00 0.100D+01
 Coeff:      0.000D+00 0.100D+01
 Gap=    -0.420 Goal=   None    Shift=    0.000
 Gap=    -0.145 Goal=   None    Shift=    0.000
 RMSDP=3.80D-02 MaxDP=8.91D+00 DE=-1.15D+01 OVMax= 9.91D-01

 Cycle   3  Pass 1  IDiag  1:
 RMSU=  2.48D-02    CP:  9.31D-01  2.69D-01
 E= -3999.48465882312     Delta-E=       68.667366888072 Rises=F Damp=F
 DIIS: error= 1.19D-01 at cycle   3 NSaved=   3.
 NSaved= 3 IEnMin= 2 EnMin= -4068.15202571119     IErMin= 3 ErrMin= 1.19D-01
 ErrMax= 1.19D-01  0.00D+00 EMaxC= 1.00D-01 BMatC= 1.19D+02 BMatP= 3.22D+01
 IDIUse=2 WtCom= 0.00D+00 WtEn= 1.00D+00
 EnCoef did    22 forward-backward iterations
 Coeff-En:   0.974D-01 0.639D+00 0.264D+00
 Coeff:      0.974D-01 0.639D+00 0.264D+00
 Gap=    -0.721 Goal=   None    Shift=    0.000
 Gap=    -0.020 Goal=   None    Shift=    0.000
 RMSDP=3.52D-02 MaxDP=6.58D+00 DE= 6.87D+01 OVMax= 9.79D-01

 Cycle   4  Pass 1  IDiag  1:
[...]
 -0.00001401,-0.00001590,-0.00001505,0.00000203,0.00000145,0.00000063,-
 0.00000225,0.00000116,-0.00000045,-0.00000096,0.00000015,0.00000009,-0
 .00000135,-0.00000189,-0.00000100,-0.00000167,0.00000408,-0.00000132,0
 .00000745,-0.00002810,-0.00001573,-0.00000664,-0.00095407,-0.00010311,
 0.00000699,-0.00115110,0.00451378,0.00095382,-0.00021001,0.00013671,-0
 .00066772,0.00014814,0.00621435,0.00282739,0.01850054,0.00322461,0.004
 24529,-0.00102226,0.00950766,-0.04523618,-0.01751034,-0.00292235,0.003
 80791,-0.00001385,0.00001723,-0.00000677,0.00000310,-0.00000299,-0.000
 00394,0.00000096,-0.00000183,0.00000093,0.00000119,-0.00000124,0.00000
 247,0.00000072,0.00000034,0.00000128,0.00000049,0.00000008,0.00000063,
 0.00000011,0.00000012,0.00000089,0.00000040,-0.00000016,0.00000040,0.0
 0000044,0.,0.00000032,0.00000012,0.00000014,0.00000051,0.00000072,-0.0
 0000406,0.00000489,0.00000426,0.00000403,-0.00000172,0.00000455,0.0000
 0156,-0.00000541,0.00000429,-0.00001090,0.00000393,-0.00000365,-0.0000
 1981,0.00000706,0.00004138,0.00004704,0.00002811,-0.00002511,0.0000436
 5,0.00002497,-0.00000049,-0.00000449,0.00000254,0.00000380,-0.00000065
 ,0.00000571,-0.00000283,0.00000096,-0.00000390,0.00000137,-0.00000002,
 0.00000252,0.00000124,0.00000168,0.00000049,-0.00000125,0.00000190,0.0
 0000052,-0.00000151,0.00000075,-0.00000051,0.00000103,0.00000177,-0.00
 000008,0.00000030,-0.00000022,0.00000149,-0.00000169,0.00000295,0.0000
 0553,-0.00017370,0.00025092,-0.00004211,0.00007625,-0.00056922,-0.0005
 8005,0.00077085,0.00017566,0.00010207,0.00012507,-0.00314047,-0.002519
 93,0.00061636,-0.01645262,0.03862988,-0.02730767,0.04573255,-0.0130909
 2,-0.01276735,-0.00401195,-0.02297725,0.00307789,0.00058678,0.00039242
 ,-0.00037023,0.00020022,0.00036573,-0.00008867,-0.00008381,0.00006060,
 0.00001470,0.00006069,0.00008404,-0.00001957,-0.00004868,-0.00003154,-
 0.00007240,0.00004371,0.00014036,-0.00008406,-0.00005094,0.00000956,-0
 .00001997,0.00001990,0.00001679,0.00005882,-0.00003751,-0.00000758,0.0
 0001177,0.00005481,-0.00000296,-0.00002136,-0.00003028,0.00000147,-0.0
 0001137,0.00015496,0.00000893,0.00017633,-0.00009821,-0.00005901,-0.00
 014475,-0.00003067,0.00005305,0.00001537,0.00001110,-0.00000494,0.0000
 1901,-0.00000346,-0.00000682,0.00000974,-0.00002074,-0.00000385,-0.000
 01924,-0.00001495,0.00000693,0.00000499,0.00005574,0.00000082,0.000185
 90,-0.00024918,0.00016411,0.00016638,-0.00120638,-0.00227785,0.0003038
 2,0.00073205,0.00156589,0.00022322,-0.00085013,-0.00177496,-0.00094542
 ,0.00017203,0.00062974,-0.00006654,0.00014124,0.00038671,-0.00017500,0
 .00018698,0.00048233,-0.00147995,-0.00046995,-0.00154184,-0.00020841,0
 .00249538,0.00564966,-0.00038996,0.00394770,-0.00396737,-0.01006022,-0
 .01178758,0.01802396,-0.02385669,0.03406404,0.02982148,0.00266525,0.00
 055923,-0.00007672,-0.00036686,0.00027846,-0.00022844,-0.00006808,0.00
 001530,-0.00008237,0.00000965,0.00006198,-0.00004701,-0.00003412,-0.00
 005286,0.00001055,-0.00008546,0.00009554,-0.00009444,-0.00010214,-0.00
 006639,-0.00001708,0.00002781,0.00002117,-0.00001779,0.00002314,0.0000
 2178,-0.00003279,0.00002884,-0.00000278,0.00003875,-0.00003331,-0.0000
 1114,-0.00001897,0.00004664,-0.00002692,0.00010994,0.00009917,0.000133
 13,-0.00010897,-0.00012411,-0.00012126,0.00001864,0.00002343,0.0000117
 0,0.00001178,0.00000873,0.00001134,-0.00000774,-0.00000092,0.00000977,
 -0.00001903,-0.00001989,-0.00001398,-0.00000907,0.00003113,-0.00000346
 ,0.00004490,0.00017849,-0.00013578,-0.00026267,0.00019399,-0.00183199,
 0.00135495,0.00017778,0.00113791,-0.00100380,0.00028906,-0.00129810,0.
 00109420,-0.00083360,0.00033914,-0.00038207,-0.00010978,0.00021178,-0.
 00026313,-0.00016773,0.00036645,-0.00030489,-0.00121937,-0.00091349,0.
 00114671,0.00001514,0.00010913,0.00004647,0.00000279,-0.00001415,-0.00
 002836,0.00000871,-0.00000224,-0.00001534,-0.00000690,-0.00003741,-0.0
 0001984,-0.00000486,0.00000837,-0.00000163,0.00001274,0.00000403,-0.00
 000724,-0.00000682,0.00000008,0.00000166,0.00000679,-0.00000532,-0.000
 00291,0.00000982,-0.00000076,-0.00000397,-0.00000228,0.00000617,0.0000
 0048,-0.00006381,0.00002744,-0.00005632,0.00002713,0.00009396,0.000026
 15,-0.00003315,-0.00000480,-0.00001766,-0.00001342,0.00001229,0.000000
 37,0.00003726,-0.00000178,-0.00000144,0.00000565,-0.00001535,-0.000023
 35,0.00000276,0.00009328,-0.00002401,0.00000425,-0.00001989,0.00002141
 ,0.00002125,-0.00001337,0.00001019,-0.00001823,0.00001602,-0.00001734,
 0.00000389,0.00000283,0.00001093,0.00000560,0.00000822,0.00000324,-0.0
 0000350,-0.00000501,0.00000274,0.00000383,0.00000775,-0.00000552,0.000
 00499,0.00000739,-0.00000229,-0.00000016,-0.00000114,0.00000510,-0.000
 06917,-0.00001133,0.00007332,0.00001963,0.00007680,0.00002135,-0.00003
 467,-0.00000862,0.00001750,-0.00001136,0.00001270,0.00001117,0.0000330
 7,-0.00000466,-0.00000186,0.00000692,-0.00001340,0.00002658,0.07323926
 ,0.03766030,-0.05789920,0.02173720,0.00907283,0.00675548,0.01864559,-0
 .00420024,-0.00104497,-0.00283172,0.00051430,-0.00034083,-0.00037112,0
 .00023643,0.00050426,0.00008527,0.00000016,-0.00005562,-0.00019669,-0.
 00006238,-0.00011637,0.00002245,-0.00012696,-0.00001724,0.00012891,0.0
 0011169,0.00007363,-0.00003444,-0.00011245,0.00000658,0.00007050,0.000
 00469,-0.00000530,-0.00000378,-0.00001907,-0.00003630,0.00000777,-0.00
 000098,0.00000703,0.00000635,-0.00002996,-0.00000592,0.00000579,-0.000
 02802,-0.00004153,0.00000307,0.00005619,-0.00001094,-0.00002240,-0.000
 01356,0.00001588,0.00000495,0.00001675,0.00000243,-0.00000676,-0.00000
 246,-0.00001583,0.00000097,-0.00000770,0.00000292,0.00000374,-0.000005
 85,-0.00001142,0.00000116,0.00007563,-0.00001040,0.00003999,-0.0007608
 7,0.00064034,0.00210503,-0.00041398,-0.00077464,-0.00135438,-0.0001251
 7,0.00067517,0.00144745,0.00071832,-0.00020282,-0.00058932,0.00004087,
 -0.00023672,-0.00026792,0.00015493,-0.00019575,-0.00054185,0.00169362,
 0.00058369,0.00128201,0.00000648,-0.00229932,-0.00577503,-0.00035776,-
 0.00148665,0.00377910,0.00028225,0.00730052,-0.00232442,0.02620623,-0.
 03032319,-0.03456211,-0.00218730,-0.00118215,0.00134545,0.00027720,-0.
 00014023,-0.00000323,0.00015276,0.00015265,0.00010612,-0.00001070,-0.0
 0001443,0.00005955,0.00003839,-0.00003017,0.00004166,-0.00008044,-0.00
 005871,-0.00007255,0.00004839,0.00001629,0.00002348,-0.00000098,-0.000
 01232,-0.00002438,-0.00000380,-0.00001140,0.00000082,-0.00001456,-0.00
 000889,-0.00002146,0.00001455,0.00000237,0.00000803,-0.00004114,0.0000
 2028,-0.00006817,0.00001653,-0.00005306,0.00005019,0.00000432,0.000019
 71,0.00000643,0.00000475,-0.00000647,-0.00000883,0.00000009,-0.0000153
 2,0.00000232,0.00000285,-0.00000771,0.00000330,0.00000363,-0.00000135,
 -0.00000250,-0.00000545,-0.00000105,-0.00000780,-0.00000167,-0.0000238
 3,-0.00002141,-0.00038966,0.00030019,-0.00044373,-0.00013702,-0.000355
 17,0.00024314,-0.00003906,0.00014894,-0.00016827,-0.00003322,-0.000098
 61,0.00006700,0.00016497,0.00007319,-0.00001362,0.00000775,-0.00040051
 ,0.00015946,0.00073629,0.00012828,-0.00024193,0.00002130,-0.00031190,0
 .00009085,0.00002763,-0.00002119,-0.00002607,-0.00001766,-0.00001318,0
 .00001718,-0.00000300,0.00001345,-0.00002341,-0.00001908,-0.00002446,0
 .00000031,-0.00000012,-0.00000100,-0.00000091,0.00000266,-0.00000401,-
 0.00000022,0.00000170,-0.00000011,-0.00000043,-0.00000076,-0.00000013,
 0.00000018,-0.00000279,-0.00000203,0.00000059,-0.00006987,-0.00004697,
 -0.00006164,-0.00013516,-0.00010358,-0.00020758,0.00000306,0.00002294,
 0.00000333,0.00000728,0.00002008,-0.00001900,-0.00003050,0.00000740,-0
 .00002037,-0.00000629,0.00007532,-0.00002341,0.00003918,-0.00005239,-0
 .00009952,0.00004505,-0.00005739,-0.00000189,-0.00000825,-0.00000382,0
 .00000048,-0.00000472,0.00000759,0.00000847,-0.00000457,0.00000485,0.0
 0000308,-0.00000395,0.00000273,0.00000133,-0.00000621,0.00000790,0.000
 01001,-0.00000517,0.00000234,0.00000270,-0.00000202,0.00000310,0.00000
 253,-0.00000228,0.00000289,0.00000237,-0.00007312,-0.00004834,0.000028
 42,-0.00006702,-0.00007094,0.00009320,0.00000351,0.00000397,-0.0000022
 7,0.00000049,0.00000346,-0.00000297,-0.00000860,0.00001611,0.00002668,
 -0.00000324,0.00000707,-0.00001044,-0.06878918,0.08068275,-0.01482887,
 0.02896928,-0.00422786,-0.01977265,-0.00128211,-0.03023284,0.00395443,
 0.00093708,0.00257431,-0.00046771,0.00046623,0.00064492,-0.00015926,-0
 .00072203,-0.00027810,-0.00003321,0.00016583,0.00028934,0.00020184,0.0
 0026344,-0.00019329,0.00010230,-0.00016984,-0.00019413,-0.00006008,-0.
 00008846,0.00001999,0.00003024,-0.00000918,-0.00005452,0.00003521,-0.0
 0000304,-0.00002566,0.00001179,0.00005744,-0.00000910,-0.00001331,-0.0
 0002725,-0.00000514,0.00001189,0.00011747,0.00001710,0.00011428,-0.000
 05046,-0.00004911,-0.00011055,-0.00001073,0.00004893,0.00001423,-0.000
 00020,-0.00000998,0.00000243,-0.00000476,-0.00000502,0.00000690,-0.000
 00372,-0.00000618,-0.00000679,-0.00000869,-0.00000096,0.00000761,0.000
 03788,-0.00000190,-0.00016254,-0.00007909,-0.00005322,0.00085154,-0.00
 120504,-0.00342726,0.00059441,0.00120875,0.00219764,0.00021166,-0.0013
 7011,-0.00275565,-0.00172312,0.00031163,0.00110176,0.00031565,0.000706
 08,0.00068591,-0.00037134,-0.00029705,0.00048644,-0.00204978,-0.001280
 43,-0.00239850,-0.00144940,0.00578817,0.00324246,0.00159368,-0.0081230
 4,0.00244049,0.02048594,0.01881991,-0.03314065,0.02789836,-0.04270236,
 -0.03479199,-0.00526577,-0.00264145,0.00300347,0.00070483,-0.00083149,
 0.00042550,0.00026686,0.00095253,0.00005610,0.00002237,-0.00030421,0.0
 0023562,-0.00022254,-0.00016819,-0.00027798,-0.00014585,0.00018582,-0.
 00011324,0.00009953,0.00010316,0.00004176,-0.00003101,-0.00008975,0.00
 000146,-0.00002801,-0.00003324,0.00000977,-0.00004249,-0.00000778,-0.0
 0005873,0.00002016,-0.00000611,0.00001257,-0.00005186,0.00000226,-0.00
 005827,-0.00009757,-0.00010429,0.00004388,0.00010856,0.00012445,-0.000
 02226,-0.00000957,-0.00002460,0.00001647,0.00000779,0.00000301,0.00000
 053,-0.00000741,-0.00001006,-0.00000236,0.00000748,-0.00000226,0.00000
 687,-0.00002526,-0.00000031,-0.00003623,0.00012954,0.00010824,-0.00003
 164,-0.00132454,0.00299170,-0.00314683,-0.00059200,-0.00243752,0.00186
 562,-0.00043339,0.00276584,-0.00227780,0.00200329,-0.00084269,0.000904
 50,-0.00022757,-0.00100228,0.00040499,0.00046265,-0.00011219,0.0006858
 5,0.00250983,0.00249741,-0.00214101,0.00003921,0.00052750,-0.00004061,
 0.00005263,-0.00009160,0.00000283,0.00003389,0.00001930,-0.00003944,0.
 00000510,-0.00001647,0.00004199,0.00000974,0.00001566,0.00001065,0.000
 00797,0.00000353,0.00000277,-0.00000274,0.00000078,0.00000626,0.000004
 67,-0.00000252,0.00000095,0.00000597,-0.00000056,0.00000037,0.00000136
 ,0.00000371,0.00000276,-0.00003942,0.00000300,0.00002705,0.00012798,0.
 00017064,0.00020002,0.00000263,-0.00004737,0.00000154,-0.00001448,-0.0
 0004377,0.00005511,0.00004437,0.00004650,0.00000584,0.00000665,-0.0001
 7250,0.00008860,-0.00003605,-0.00057289,-0.00030038,-0.00003611,0.0000
 6671,0.00004507,-0.00006450,-0.00000126,-0.00004369,0.00000105,0.00002
 209,0.00002594,-0.00002320,0.00000416,-0.00001403,-0.00000877,-0.00000
 289,-0.00000094,0.00000233,0.00001187,-0.00000756,-0.00000301,-0.00000
 228,0.00000412,-0.00000561,-0.00000340,0.00000215,-0.00000526,0.000001
 39,-0.00000298,0.00002877,-0.00002748,0.00002417,-0.00015256,-0.000299
 80,0.00017274,0.00000349,0.00004891,0.00002142,0.00002044,0.00001993,0
 .00007116,-0.00005578,-0.00004142,-0.00000192,-0.00000391,0.00013897,0
 .00015472,-0.01302071,-0.00130603,0.09804648\\-0.00000259,0.00001838,0
 .00000664,0.00001119,-0.00000923,-0.00000443,-0.00001156,-0.00000064,0
 .00000747,0.00000774,0.00000187,-0.00000748,-0.00000152,0.00000248,0.0
 0000442,-0.00000019,-0.00000220,-0.00000139,-0.00000018,0.00000101,0.0
 0000378,-0.00000280,-0.00000095,-0.00000434,0.00000250,0.00000242,0.00
 000385,-0.00000022,-0.00000138,-0.00000261,0.00000554,0.00000112,-0.00
 000214,-0.00000693,0.00000187,0.00000529,0.00000474,0.00000447,-0.0000
 0485,-0.00000562,-0.00000707,0.00000228,0.00000532,0.00000474,-0.00000
 334,-0.00001110,-0.00000992,0.00000394,0.00000134,0.00000121,-0.000000
 12,-0.00000207,-0.00000101,0.00000102,-0.00000022,0.00000446,0.0000002
 0,0.00000315,-0.00000585,-0.00000145,0.00000470,0.00000682,-0.00000014
 ,-0.00000219,-0.00000099,0.00000209,0.00000199,-0.00000143,-0.00000048
 ,0.00000626,0.00000041,-0.00000144,-0.00000341,0.00000101,0.00000124,0
 .00000077,-0.00000099,-0.00000021,-0.00000106,0.00000095,0.00000022,0.
 00000236,0.00000154,0.00000018,-0.00000438,0.00000070,0.00000142,-0.00
 000558,-0.00000288,-0.00000065,0.00000301,0.00001056,-0.00000656,-0.00
 001252,-0.00000329,0.00000774,0.00000898,-0.00001523,-0.00000955,0.000
 01673,-0.00000114,0.00000600,-0.00000880,0.00000581,-0.00000646,0.0000
 0341,-0.00000699,0.00000503,-0.00000235,0.00000297,-0.00000311,0.00000
 477,0.00000027,0.00000226,-0.00000192,-0.00000034,0.00000054,0.0000027
 0,0.00000331,-0.00000355,-0.00000203,-0.00000067,0.00000183,-0.0000028
 1,-0.00000355,0.00000048,0.00000350,0.00000580,-0.00000268,-0.00000417
 ,-0.00000423,-0.00000226,0.00000643,0.00000439,-0.00000102,-0.00001165
 ,-0.00000879,-0.00000044,0.00001134,0.00000725,0.00000687,-0.00000188,
 -0.00000130,-0.00000073,0.00000206,0.00000145,0.00000040,-0.00000182,0
 .00000071,-0.00000367,0.00000143,-0.00000381,0.00000522,-0.00000755,-0
 .00000198,-0.00000379,0.,-0.00000179,-0.00000200,-0.00000199,-0.000002
 62,0.00000397,-0.00000734,0.00000342,-0.00000402,0.00000527,-0.0000041
 2,0.00000387,-0.00000376,0.00000202,-0.00000061,0.00000255,-0.00000015
 ,-0.00000024,-0.00000344,-0.00000143,-0.00000062,0.00000350,-0.0000018
 9,0.00000306,-0.00000186,-0.00000045,0.00000058,0.00000028,-0.00000009
 ,0.00000005,0.00000245,0.00000039,-0.00000080,-0.00000057,-0.00000028,
 -0.00000063,-0.00000147,-0.00000026,0.00000009,0.00000132,-0.00000076,
 -0.00000119,0.00000092,-0.00000084,-0.00000016,0.00000047,-0.00000059,
 -0.00000002,0.00000028,-0.00000162,-0.00000011,-0.00000135,0.00000130,
 0.00000048,-0.00000081,-0.00000067,0.00000264,0.00000067,0.00000032,-0
 .00000190,0.00000068,0.00000018,-0.00000037,0.00000045,0.00000111,-0.0
 0000034,-0.00000036,-0.00000037,0.00000015,0.00000026,0.00000014,-0.00
 000010,0.00000172,0.00000105,-0.00000076,-0.00000024,0.00000009,0.0000
 0037,-0.00000079,-0.00000071,-0.00000054,0.00000040,-0.00000008,-0.000
 00073,0.00000129,0.00000091,-0.00000022,-0.00000052,-0.00000160,0.0000
 0110,-0.00000009,-0.00000069,0.00000077,-0.00000020,-0.00000036,0.0000
 0060,0.00000043,-0.00000048,0.00000149,0.00000025,0.00000121,-0.000001
 34,0.00000373,0.00000173,0.00000163,-0.00000043,0.00000115,-0.00000182
 ,-0.00000100,0.00000072,-0.00000056,-0.00000012,-0.00000054,-0.0000002
 6,0.00000029,0.00000073,0.00000080,-0.00000029,0.00000018,0.00000034,-
 0.00000343,0.00000358,-0.00000418\\\@
 The archive entry for this job was punched.


                                                                                    A
                                                                                  AA
                                                                                 AAA
                                                                                AAAA
                                                                               AAAAA
                                                                              AAAAAA   KKKKKKKK
                                                                             AAAAAAA   KKKKKKKK
                                                                            AAAAAAAA   KKKKKKKK
                                       ZZZZZZZZZZZZZZZZZZZZ                AAAA  AAA   KKKKKKKK
                                       ZZZZZZZZZZZZZZZZZZZ                AAAA   AAA   KKKKKKKK          K
                                       ZZZZZZZZZZZZZZZZZZ                AAAA    AAA   KKKKKKKK         KKK
                                       ZZZZZZZZZZZZZZZZZ                AAAA     AAA   KKKKKKKK        KKKKK
                                       ZZZZZZZZZZZZZZZZ                AAAA      AAA   KKKKKKKK       KKKKKKK
                                                ZZZZZZ                AAAA       AAA   KKKKKKKK      KKKKKKK
                                               ZZZZZZ                AAAA        AAA   KKKKKKKK     KKKKKKK
                                              ZZZZZZ                AAAA         AAA   KKKKKKKK    KKKKKKK
                                             ZZZZZZ                AAAA          AAA   KKKKKKKK   KKKKKKK
                                            ZZZZZZ                AAAAAAAAAAAAAAAAAA   KKKKKKKK  KKKKKKK
                                           ZZZZZZ                AAAAAAAAAAAAAAAAAAA   KKKKKKKK KKKKKKK
                                          ZZZZZZ                AAAAAAAAAAAAAAAAAAAA   KKKKKKKKKKKKKKK
                                         ZZZZZZ                AAAAAAAAAAAAAAAAAAAAA   KKKKKKKKKKKKKK
                                        ZZZZZZ                AAAAAA        AAAAAAAA   KKKKKKKKKKKKK
                                       ZZZZZZ                AAAAAA         AAAAAAAA   KKKKKKKKKKKK
                                      ZZZZZZ                AAAAAA          AAAAAAAA   KKKKKKKKKKK
                                     ZZZZZZ                AAAAAA           AAAAAAAA   KKKKKKKKKKKK
                                    ZZZZZZ                AAAAAA            AAAAAAAA   KKKKKKKKKKKKK
                                   ZZZZZZ                AAAAAA             AAAAAAAA   KKKKKKKKKKKKKK
                                  ZZZZZZ                AAAAAA              AAAAAAAA   KKKKKKKKKKKKKKK
                                 ZZZZZZ                AAAAAA               AAAAAAAA   KKKKK KKKKKKKKKK
                                ZZZZZZ                AAAAAA                AAAAAAAA   KKKKK  KKKKKKKKKK
                               ZZZZZZ                AAAAAA                            KKKKK   KKKKKKKKKK
                              ZZZZZZ                AAAAAA                             KKKKK    KKKKKKKKKK
                             ZZZZZZ                                                    KKKKK     KKKKKKKKKK
                            ZZZZZZ                                                     KKKKK      KKKKKKKKKK
                           ZZZZZZ                                                      KKKKK       KKKKKKKKKK
                          ZZZZZZ                                                       KKKKK        KKKKKKKKKK
                         ZZZZZZZZZZZZZZZZZZZZZZZZZZZZZZZZZZZZZZZZ                      KKKKK         KKKKKKKKKK
                        ZZZZZZZZZZZZZZZZZZZZZZZZZZZZZZZZZZZZZZZZZ                      KKKKK          KKKKKKKKKK
                       ZZZZZZZZZZZZZZZZZZZZZZZZZZZZZZZZZZZZZZZZZZ                      KKKKK           KKKKKKKKKK
                       ZZZZZZZZZZZZZZZZZZZZZZZZZZZZZZZZZZZZZZZZZZ                      KKKKK            KKKKKKKKKK
                       ZZZZZZZZZZZZZZZZZZZZZZZZZZZZZZZZZZZZZZZZZZ                      KKKKK             KKKKKKKKKK
                       ZZZZZZZZZZZZZZZZZZZZZZZZZZZZZZZZZZZZZZZZZZ                      KKKKK              KKKKKKKKKK
                       ZZZZZZZZZZZZZZZZZZZZZZZZZZZZZZZZZZZZZZZZZZ                      KKKKK               KKKKKKKKKK
                       ZZZZZZZZZZZZZZZZZZZZZZZZZZZZZZZZZZZZZZZZZZ                      KKKKK                KKKKKKKKKK
                       ZZZZZZZZZZZZZZZZZZZZZZZZZZZZZZZZZZZZZZZZZZ                      KKKKK
                                                                                       KKKKK
                                                                                          (J.P.)
 Job cpu time:       2 days  2 hours 17 minutes 29.7 seconds.
 Elapsed time:       0 days  1 hours 34 minutes 59.3 seconds.
 File lengths (MBytes):  RWF=  17455 Int=      0 D2E=      0 Chk=    100 Scr=      1
 Normal termination of Gaussian 16 at Sat Feb  8 01:04:07 2025.
